Generated by trjconv : CNT in water t= 572.00000
33518
    1C        C    1   2.850   2.774   4.751
    1C        C    2   2.903   2.721   4.870
    1C        C    3   2.843   2.775   4.985
    1C        C    4   2.855   2.776   4.264
    1C        C    5   2.901   2.722   4.386
    1C        C    6   2.847   2.770   4.508
    1C        C    7   3.015   2.639   4.628
    1C        C    8   2.904   2.726   4.629
    1C        C    9   3.076   2.598   4.749
    1C        C   10   3.014   2.634   4.871
    1C        C   11   3.181   2.492   4.980
    1C        C   12   3.062   2.565   4.983
    1C        C   13   2.852   2.772   3.774
    1C        C   14   2.903   2.722   3.896
    1C        C   15   2.852   2.772   4.018
    1C        C   16   3.019   2.644   4.142
    1C        C   17   2.905   2.728   4.141
    1C        C   18   3.085   2.613   4.263
    1C        C   19   3.020   2.646   4.384
    1C        C   20   3.210   2.556   4.507
    1C        C   21   3.079   2.608   4.506
    1C        C   22   3.279   2.533   4.628
    1C        C   23   3.209   2.548   4.750
    1C        C   24   3.413   2.486   4.868
    1C        C   25   3.272   2.505   4.870
    1C        C   26   3.492   2.474   4.983
    1C        C   27   2.855   2.772   3.283
    1C        C   28   2.907   2.723   3.405
    1C        C   29   2.857   2.769   3.528
    1C        C   30   3.020   2.639   3.652
    1C        C   31   2.905   2.722   3.653
    1C        C   32   3.078   2.602   3.775
    1C        C   33   3.017   2.638   3.897
    1C        C   34   3.207   2.548   4.018
    1C        C   35   3.078   2.605   4.020
    1C        C   36   3.277   2.522   4.138
    1C        C   37   3.212   2.549   4.261
    1C        C   38   3.417   2.510   4.381
    1C        C   39   3.278   2.534   4.385
    1C        C   40   3.487   2.508   4.504
    1C        C   41   3.419   2.511   4.628
    1C        C   42   3.632   2.487   4.748
    1C        C   43   3.490   2.490   4.748
    1C        C   44   3.707   2.491   4.868
    1C        C   45   3.631   2.482   4.985
    1C        C   46   2.841   2.756   2.795
    1C        C   47   2.900   2.716   2.917
    1C        C   48   2.850   2.767   3.039
    1C        C   49   3.016   2.635   3.164
    1C        C   50   2.903   2.720   3.160
    1C        C   51   3.079   2.599   3.285
    1C        C   52   3.018   2.635   3.407
    1C        C   53   3.208   2.543   3.528
    1C        C   54   3.078   2.600   3.529
    1C        C   55   3.275   2.525   3.651
    1C        C   56   3.206   2.542   3.774
    1C        C   57   3.415   2.506   3.897
    1C        C   58   3.274   2.524   3.896
    1C        C   59   3.487   2.505   4.018
    1C        C   60   3.417   2.505   4.141
    1C        C   61   3.632   2.500   4.264
    1C        C   62   3.490   2.499   4.261
    1C        C   63   3.701   2.510   4.386
    1C        C   64   3.628   2.508   4.507
    1C        C   65   3.839   2.544   4.626
    1C        C   66   3.703   2.506   4.628
    1C        C   67   3.905   2.568   4.748
    1C        C   68   3.843   2.528   4.869
    1C        C   69   4.056   2.587   4.979
    1C        C   70   3.926   2.536   4.982
    1C        C   71   2.821   2.733   2.310
    1C        C   72   2.885   2.695   2.431
    1C        C   73   2.834   2.746   2.552
    1C        C   74   3.005   2.620   2.678
    1C        C   75   2.889   2.701   2.674
    1C        C   76   3.072   2.588   2.797
    1C        C   77   3.012   2.630   2.918
    1C        C   78   3.204   2.543   3.039
    1C        C   79   3.073   2.596   3.041
    1C        C   80   3.273   2.522   3.161
    1C        C   81   3.209   2.542   3.285
    1C        C   82   3.416   2.494   3.406
    1C        C   83   3.276   2.518   3.407
    1C        C   84   3.485   2.491   3.529
    1C        C   85   3.415   2.504   3.651
    1C        C   86   3.625   2.505   3.771
    1C        C   87   3.484   2.498   3.774
    1C        C   88   3.695   2.514   3.894
    1C        C   89   3.629   2.507   4.018
    1C        C   90   3.835   2.553   4.138
    1C        C   91   3.699   2.513   4.140
    1C        C   92   3.902   2.574   4.261
    1C        C   93   3.837   2.548   4.384
    1C        C   94   4.030   2.639   4.500
    1C        C   95   3.906   2.572   4.505
    1C        C   96   4.092   2.675   4.622
    1C        C   97   4.032   2.632   4.743
    1C        C   98   4.195   2.767   4.863
    1C        C   99   4.103   2.657   4.863
    1C        C  100   4.217   2.846   4.976
    1C        C  101   2.825   2.732   2.074
    1C        C  102   2.994   2.594   2.190
    1C        C  103   2.879   2.679   2.192
    1C        C  104   3.064   2.573   2.313
    1C        C  105   3.004   2.619   2.432
    1C        C  106   3.199   2.538   2.550
    1C        C  107   3.067   2.589   2.555
    1C        C  108   3.270   2.525   2.672
    1C        C  109   3.207   2.544   2.796
    1C        C  110   3.415   2.506   2.916
    1C        C  111   3.275   2.523   2.919
    1C        C  112   3.485   2.501   3.039
    1C        C  113   3.413   2.503   3.161
    1C        C  114   3.625   2.500   3.284
    1C        C  115   3.484   2.496   3.282
    1C        C  116   3.696   2.509   3.405
    1C        C  117   3.626   2.501   3.527
    1C        C  118   3.833   2.548   3.650
    1C        C  119   3.697   2.510   3.649
    1C        C  120   3.896   2.577   3.773
    1C        C  121   3.832   2.549   3.896
    1C        C  122   4.025   2.642   4.015
    1C        C  123   3.902   2.573   4.016
    1C        C  124   4.086   2.680   4.137
    1C        C  125   4.026   2.640   4.258
    1C        C  126   4.198   2.768   4.378
    1C        C  127   4.092   2.675   4.379
    1C        C  128   4.245   2.824   4.499
    1C        C  129   4.197   2.770   4.620
    1C        C  130   4.332   2.935   4.744
    1C        C  131   4.245   2.823   4.742
    1C        C  132   4.362   3.003   4.864
    1C        C  133   4.287   2.966   4.976
    1C        C  134   3.176   2.467   2.079
    1C        C  135   3.043   2.513   2.083
    1C        C  136   3.260   2.485   2.190
    1C        C  137   3.196   2.520   2.310
    1C        C  138   3.407   2.487   2.430
    1C        C  139   3.267   2.505   2.431
    1C        C  140   3.481   2.484   2.551
    1C        C  141   3.408   2.494   2.671
    1C        C  142   3.621   2.496   2.791
    1C        C  143   3.480   2.491   2.792
    1C        C  144   3.692   2.509   2.913
    1C        C  145   3.626   2.496   3.038
    1C        C  146   3.831   2.541   3.155
    1C        C  147   3.695   2.504   3.161
    1C        C  148   3.897   2.565   3.278
    1C        C  149   3.833   2.545   3.403
    1C        C  150   4.025   2.630   3.526
    1C        C  151   3.897   2.570   3.526
    1C        C  152   4.083   2.674   3.647
    1C        C  153   4.023   2.640   3.770
    1C        C  154   4.191   2.772   3.892
    1C        C  155   4.082   2.681   3.892
    1C        C  156   4.243   2.822   4.013
    1C        C  157   4.194   2.771   4.135
    1C        C  158   4.343   2.924   4.257
    1C        C  159   4.252   2.816   4.256
    1C        C  160   4.383   2.984   4.378
    1C        C  161   4.336   2.931   4.500
    1C        C  162   4.444   3.115   4.618
    1C        C  163   4.379   2.989   4.622
    1C        C  164   4.469   3.184   4.738
    1C        C  165   4.439   3.121   4.861
    1C        C  166   4.508   3.321   4.975
    1C        C  167   4.485   3.184   4.978
    1C        C  168   3.476   2.434   2.075
    1C        C  169   3.400   2.466   2.188
    1C        C  170   3.617   2.470   2.309
    1C        C  171   3.475   2.474   2.307
    1C        C  172   3.693   2.486   2.427
    1C        C  173   3.622   2.489   2.549
    1C        C  174   3.830   2.542   2.667
    1C        C  175   3.694   2.503   2.670
    1C        C  176   3.895   2.565   2.790
    1C        C  177   3.829   2.542   2.913
    1C        C  178   4.025   2.629   3.034
    1C        C  179   3.898   2.567   3.033
    1C        C  180   4.083   2.667   3.158
    1C        C  181   4.021   2.631   3.280
    1C        C  182   4.192   2.756   3.401
    1C        C  183   4.083   2.666   3.402
    1C        C  184   4.243   2.806   3.522
    1C        C  185   4.194   2.761   3.647
    1C        C  186   4.335   2.922   3.766
    1C        C  187   4.246   2.812   3.768
    1C        C  188   4.378   2.979   3.888
    1C        C  189   4.341   2.924   4.013
    1C        C  190   4.453   3.105   4.130
    1C        C  191   4.384   2.981   4.134
    1C        C  192   4.476   3.173   4.252
    1C        C  193   4.447   3.110   4.375
    1C        C  194   4.514   3.314   4.492
    1C        C  195   4.473   3.179   4.495
    1C        C  196   4.524   3.387   4.612
    1C        C  197   4.506   3.321   4.736
    1C        C  198   4.555   3.534   4.851
    1C        C  199   4.528   3.393   4.856
    1C        C  200   4.582   3.619   4.963
    1C        C  201   3.616   2.427   2.076
    1C        C  202   3.829   2.514   2.184
    1C        C  203   3.693   2.469   2.189
    1C        C  204   3.897   2.551   2.304
    1C        C  205   3.828   2.526   2.425
    1C        C  206   4.024   2.619   2.544
    1C        C  207   3.897   2.559   2.544
    1C        C  208   4.084   2.658   2.666
    1C        C  209   4.023   2.626   2.789
    1C        C  210   4.196   2.751   2.909
    1C        C  211   4.083   2.665   2.911
    1C        C  212   4.249   2.796   3.031
    1C        C  213   4.196   2.751   3.155
    1C        C  214   4.328   2.915   3.276
    1C        C  215   4.241   2.804   3.278
    1C        C  216   4.370   2.974   3.397
    1C        C  217   4.332   2.916   3.520
    1C        C  218   4.435   3.103   3.639
    1C        C  219   4.370   2.978   3.641
    1C        C  220   4.465   3.169   3.761
    1C        C  221   4.445   3.104   3.884
    1C        C  222   4.505   3.306   4.005
    1C        C  223   4.476   3.168   4.006
    1C        C  224   4.514   3.379   4.126
    1C        C  225   4.505   3.311   4.249
    1C        C  226   4.513   3.526   4.368
    1C        C  227   4.516   3.385   4.369
    1C        C  228   4.517   3.598   4.490
    1C        C  229   4.532   3.528   4.611
    1C        C  230   4.504   3.743   4.727
    1C        C  231   4.539   3.606   4.729
    1C        C  232   4.497   3.820   4.846
    1C        C  233   4.543   3.753   4.960
    1C        C  234   4.022   2.609   2.064
    1C        C  235   3.898   2.546   2.066
    1C        C  236   4.088   2.650   2.181
    1C        C  237   4.023   2.615   2.301
    1C        C  238   4.203   2.735   2.423
    1C        C  239   4.088   2.650   2.422
    1C        C  240   4.254   2.787   2.544
    1C        C  241   4.198   2.741   2.665
    1C        C  242   4.338   2.904   2.786
    1C        C  243   4.250   2.793   2.786
    1C        C  244   4.376   2.964   2.908
    1C        C  245   4.339   2.905   3.031
    1C        C  246   4.430   3.099   3.150
    1C        C  247   4.373   2.969   3.153
    1C        C  248   4.455   3.165   3.272
    1C        C  249   4.433   3.100   3.396
    1C        C  250   4.492   3.306   3.515
    1C        C  251   4.463   3.167   3.517
    1C        C  252   4.506   3.374   3.638
    1C        C  253   4.499   3.306   3.762
    1C        C  254   4.521   3.518   3.879
    1C        C  255   4.515   3.377   3.883
    1C        C  256   4.510   3.589   4.001
    1C        C  257   4.514   3.521   4.124
    1C        C  258   4.489   3.734   4.242
    1C        C  259   4.509   3.594   4.245
    1C        C  260   4.476   3.806   4.363
    1C        C  261   4.493   3.737   4.485
    1C        C  262   4.428   3.942   4.605
    1C        C  263   4.478   3.810   4.606
    1C        C  264   4.403   4.013   4.724
    1C        C  265   4.437   3.948   4.845
    1C        C  266   4.329   4.137   4.964
    1C        C  267   4.395   4.015   4.960
    1C        C  268   4.270   2.774   2.065
    1C        C  269   4.204   2.730   2.181
    1C        C  270   4.347   2.891   2.299
    1C        C  271   4.258   2.780   2.301
    1C        C  272   4.386   2.951   2.420
    1C        C  273   4.344   2.896   2.543
    1C        C  274   4.454   3.081   2.662
    1C        C  275   4.384   2.959   2.664
    1C        C  276   4.480   3.149   2.782
    1C        C  277   4.444   3.087   2.904
    1C        C  278   4.507   3.291   3.026
    1C        C  279   4.463   3.157   3.026
    1C        C  280   4.515   3.366   3.146
    1C        C  281   4.501   3.298   3.270
    1C        C  282   4.518   3.512   3.390
    1C        C  283   4.513   3.370   3.391
    1C        C  284   4.513   3.583   3.512
    1C        C  285   4.516   3.515   3.635
    1C        C  286   4.486   3.726   3.755
    1C        C  287   4.516   3.588   3.756
    1C        C  288   4.470   3.796   3.876
    1C        C  289   4.490   3.728   3.999
    1C        C  290   4.428   3.934   4.117
    1C        C  291   4.475   3.801   4.119
    1C        C  292   4.394   3.999   4.238
    1C        C  293   4.426   3.938   4.362
    1C        C  294   4.326   4.127   4.482
    1C        C  295   4.398   4.006   4.482
    1C        C  296   4.288   4.192   4.602
    1C        C  297   4.329   4.134   4.724
    1C        C  298   4.202   4.312   4.843
    1C        C  299   4.291   4.200   4.844
    1C        C  300   4.171   4.402   4.950
    1C        C  301   4.359   2.881   2.061
    1C        C  302   4.474   3.067   2.174
    1C        C  303   4.400   2.945   2.179
    1C        C  304   4.482   3.140   2.296
    1C        C  305   4.455   3.075   2.418
    1C        C  306   4.509   3.282   2.538
    1C        C  307   4.484   3.143   2.538
    1C        C  308   4.518   3.355   2.659
    1C        C  309   4.506   3.288   2.782
    1C        C  310   4.524   3.501   2.900
    1C        C  311   4.522   3.359   2.903
    1C        C  312   4.520   3.574   3.020
    1C        C  313   4.523   3.507   3.144
    1C        C  314   4.478   3.715   3.265
    1C        C  315   4.514   3.578   3.266
    1C        C  316   4.472   3.789   3.385
    1C        C  317   4.491   3.723   3.509
    1C        C  318   4.424   3.925   3.629
    1C        C  319   4.471   3.792   3.631
    1C        C  320   4.394   3.991   3.751
    1C        C  321   4.422   3.929   3.875
    1C        C  322   4.323   4.119   3.991
    1C        C  323   4.397   3.998   3.995
    1C        C  324   4.282   4.176   4.113
    1C        C  325   4.323   4.121   4.237
    1C        C  326   4.191   4.286   4.356
    1C        C  327   4.288   4.184   4.358
    1C        C  328   4.143   4.345   4.476
    1C        C  329   4.196   4.299   4.599
    1C        C  330   4.026   4.430   4.716
    1C        C  331   4.145   4.353   4.719
    1C        C  332   3.973   4.490   4.832
    1C        C  333   4.056   4.482   4.945
    1C        C  334   4.554   3.267   2.063
    1C        C  335   4.533   3.129   2.059
    1C        C  336   4.536   3.349   2.175
    1C        C  337   4.511   3.279   2.295
    1C        C  338   4.525   3.493   2.412
    1C        C  339   4.517   3.353   2.416
    1C        C  340   4.526   3.566   2.533
    1C        C  341   4.527   3.496   2.656
    1C        C  342   4.487   3.708   2.775
    1C        C  343   4.515   3.569   2.777
    1C        C  344   4.468   3.779   2.896
    1C        C  345   4.487   3.712   3.019
    1C        C  346   4.422   3.915   3.140
    1C        C  347   4.462   3.780   3.141
    1C        C  348   4.393   3.984   3.260
    1C        C  349   4.424   3.922   3.382
    1C        C  350   4.323   4.106   3.504
    1C        C  351   4.398   3.987   3.505
    1C        C  352   4.281   4.167   3.625
    1C        C  353   4.320   4.111   3.748
    1C        C  354   4.179   4.274   3.867
    1C        C  355   4.276   4.171   3.868
    1C        C  356   4.127   4.322   3.989
    1C        C  357   4.178   4.272   4.110
    1C        C  358   4.019   4.408   4.229
    1C        C  359   4.134   4.326   4.233
    1C        C  360   3.961   4.451   4.350
    1C        C  361   4.026   4.423   4.472
    1C        C  362   3.833   4.514   4.594
    1C        C  363   3.963   4.461   4.593
    1C        C  364   3.765   4.540   4.715
    1C        C  365   3.843   4.544   4.833
    1C        C  366   3.633   4.592   4.953
    1C        C  367   3.771   4.578   4.949
    1C        C  368   4.507   3.562   2.055
    1C        C  369   4.529   3.490   2.173
    1C        C  370   4.508   3.707   2.290
    1C        C  371   4.522   3.566   2.291
    1C        C  372   4.482   3.776   2.411
    1C        C  373   4.498   3.704   2.531
    1C        C  374   4.426   3.907   2.650
    1C        C  375   4.475   3.775   2.652
    1C        C  376   4.393   3.973   2.771
    1C        C  377   4.420   3.911   2.895
    1C        C  378   4.320   4.098   3.013
    1C        C  379   4.395   3.979   3.017
    1C        C  380   4.277   4.158   3.134
    1C        C  381   4.316   4.103   3.258
    1C        C  382   4.181   4.263   3.378
    1C        C  383   4.277   4.160   3.382
    1C        C  384   4.129   4.313   3.500
    1C        C  385   4.184   4.270   3.622
    1C        C  386   4.014   4.401   3.743
    1C        C  387   4.130   4.320   3.743
    1C        C  388   3.948   4.437   3.863
    1C        C  389   4.011   4.403   3.985
    1C        C  390   3.820   4.490   4.109
    1C        C  391   3.952   4.438   4.108
    1C        C  392   3.756   4.513   4.232
    1C        C  393   3.829   4.502   4.352
    1C        C  394   3.623   4.555   4.476
    1C        C  395   3.762   4.532   4.473
    1C        C  396   3.553   4.566   4.598
    1C        C  397   3.626   4.564   4.719
    1C        C  398   3.414   4.549   4.837
    1C        C  399   3.553   4.572   4.840
    1C        C  400   3.347   4.520   4.956
    1C        C  401   4.496   3.701   2.054
    1C        C  402   4.450   3.914   2.168
    1C        C  403   4.490   3.779   2.170
    1C        C  404   4.407   3.976   2.287
    1C        C  405   4.435   3.909   2.408
    1C        C  406   4.330   4.097   2.527
    1C        C  407   4.401   3.975   2.528
    1C        C  408   4.283   4.155   2.647
    1C        C  409   4.323   4.095   2.768
    1C        C  410   4.179   4.253   2.890
    1C        C  411   4.277   4.151   2.890
    1C        C  412   4.128   4.304   3.011
    1C        C  413   4.178   4.259   3.135
    1C        C  414   4.008   4.387   3.254
    1C        C  415   4.126   4.309   3.257
    1C        C  416   3.948   4.421   3.377
    1C        C  417   4.011   4.392   3.500
    1C        C  418   3.818   4.482   3.622
    1C        C  419   3.948   4.428   3.621
    1C        C  420   3.749   4.509   3.742
    1C        C  421   3.815   4.485   3.864
    1C        C  422   3.613   4.537   3.989
    1C        C  423   3.752   4.514   3.987
    1C        C  424   3.545   4.544   4.112
    1C        C  425   3.617   4.539   4.234
    1C        C  426   3.407   4.547   4.357
    1C        C  427   3.548   4.555   4.356
    1C        C  428   3.337   4.541   4.479
    1C        C  429   3.412   4.556   4.598
    1C        C  430   3.199   4.513   4.722
    1C        C  431   3.338   4.543   4.718
    1C        C  432   3.129   4.489   4.843
    1C        C  433   3.210   4.499   4.957
    1C        C  434   4.388   4.126   2.051
    1C        C  435   4.446   3.998   2.056
    1C        C  436   4.305   4.162   2.162
    1C        C  437   4.331   4.096   2.285
    1C        C  438   4.184   4.252   2.404
    1C        C  439   4.286   4.154   2.406
    1C        C  440   4.133   4.304   2.524
    1C        C  441   4.187   4.260   2.647
    1C        C  442   4.009   4.379   2.769
    1C        C  443   4.127   4.301   2.768
    1C        C  444   3.947   4.417   2.889
    1C        C  445   4.009   4.381   3.011
    1C        C  446   3.816   4.474   3.133
    1C        C  447   3.948   4.423   3.131
    1C        C  448   3.749   4.497   3.256
    1C        C  449   3.816   4.472   3.377
    1C        C  450   3.611   4.527   3.499
    1C        C  451   3.749   4.496   3.499
    1C        C  452   3.541   4.543   3.621
    1C        C  453   3.611   4.543   3.743
    1C        C  454   3.402   4.544   3.867
    1C        C  455   3.543   4.552   3.867
    1C        C  456   3.334   4.534   3.990
    1C        C  457   3.404   4.542   4.113
    1C        C  458   3.198   4.499   4.238
    1C        C  459   3.335   4.534   4.236
    1C        C  460   3.130   4.482   4.360
    1C        C  461   3.199   4.511   4.480
    1C        C  462   3.001   4.432   4.603
    1C        C  463   3.129   4.492   4.601
    1C        C  464   2.934   4.403   4.724
    1C        C  465   2.994   4.442   4.847
    1C        C  466   2.801   4.343   4.958
    1C        C  467   2.908   4.434   4.961
    1C        C  468   4.128   4.289   2.045
    1C        C  469   4.191   4.248   2.163
    1C        C  470   4.011   4.375   2.282
    1C        C  471   4.129   4.297   2.282
    1C        C  472   3.948   4.410   2.403
    1C        C  473   4.012   4.378   2.525
    1C        C  474   3.817   4.466   2.646
    1C        C  475   3.945   4.407   2.646
    1C        C  476   3.748   4.488   2.767
    1C        C  477   3.817   4.472   2.889
    1C        C  478   3.609   4.517   3.011
    1C        C  479   3.748   4.494   3.011
    1C        C  480   3.539   4.533   3.133
    1C        C  481   3.611   4.528   3.254
    1C        C  482   3.400   4.537   3.378
    1C        C  483   3.541   4.536   3.377
    1C        C  484   3.329   4.530   3.501
    1C        C  485   3.399   4.541   3.623
    1C        C  486   3.195   4.492   3.746
    1C        C  487   3.331   4.532   3.746
    1C        C  488   3.132   4.468   3.870
    1C        C  489   3.197   4.497   3.992
    1C        C  490   3.006   4.411   4.115
    1C        C  491   3.131   4.478   4.115
    1C        C  492   2.943   4.381   4.238
    1C        C  493   3.002   4.423   4.359
    1C        C  494   2.830   4.303   4.485
    1C        C  495   2.940   4.391   4.482
    1C        C  496   2.773   4.257   4.606
    1C        C  497   2.820   4.319   4.724
    1C        C  498   2.664   4.170   4.844
    1C        C  499   2.753   4.279   4.842
    1C        C  500   2.601   4.118   4.958
    1C        C  501   4.011   4.364   2.041
    1C        C  502   3.821   4.466   2.160
    1C        C  503   3.949   4.409   2.159
    1C        C  504   3.748   4.484   2.280
    1C        C  505   3.814   4.456   2.402
    1C        C  506   3.610   4.509   2.520
    1C        C  507   3.750   4.487   2.524
    1C        C  508   3.539   4.522   2.641
    1C        C  509   3.609   4.513   2.763
    1C        C  510   3.400   4.517   2.888
    1C        C  511   3.541   4.518   2.887
    1C        C  512   3.328   4.515   3.010
    1C        C  513   3.398   4.530   3.132
    1C        C  514   3.193   4.492   3.256
    1C        C  515   3.330   4.527   3.256
    1C        C  516   3.127   4.471   3.379
    1C        C  517   3.192   4.496   3.501
    1C        C  518   2.999   4.410   3.626
    1C        C  519   3.126   4.472   3.624
    1C        C  520   2.941   4.374   3.749
    1C        C  521   3.005   4.408   3.871
    1C        C  522   2.834   4.285   3.998
    1C        C  523   2.945   4.372   3.994
    1C        C  524   2.782   4.240   4.121
    1C        C  525   2.832   4.294   4.242
    1C        C  526   2.693   4.136   4.365
    1C        C  527   2.779   4.248   4.365
    1C        C  528   2.649   4.081   4.487
    1C        C  529   2.680   4.150   4.606
    1C        C  530   2.578   3.965   4.732
    1C        C  531   2.633   4.096   4.728
    1C        C  532   2.541   3.903   4.855
    1C        C  533   2.531   3.997   4.962
    1C        C  534   3.625   4.556   2.041
    1C        C  535   3.759   4.515   2.044
    1C        C  536   3.540   4.531   2.154
    1C        C  537   3.608   4.507   2.277
    1C        C  538   3.397   4.515   2.399
    1C        C  539   3.538   4.518   2.399
    1C        C  540   3.327   4.509   2.522
    1C        C  541   3.397   4.518   2.644
    1C        C  542   3.191   4.478   2.768
    1C        C  543   3.328   4.511   2.767
    1C        C  544   3.124   4.457   2.891
    1C        C  545   3.192   4.478   3.013
    1C        C  546   2.999   4.397   3.136
    1C        C  547   3.126   4.459   3.136
    1C        C  548   2.944   4.362   3.261
    1C        C  549   3.004   4.401   3.383
    1C        C  550   2.832   4.278   3.505
    1C        C  551   2.938   4.370   3.504
    1C        C  552   2.783   4.231   3.629
    1C        C  553   2.832   4.283   3.751
    1C        C  554   2.699   4.123   3.877
    1C        C  555   2.788   4.233   3.875
    1C        C  556   2.655   4.067   3.999
    1C        C  557   2.693   4.130   4.120
    1C        C  558   2.594   3.948   4.249
    1C        C  559   2.658   4.073   4.244
    1C        C  560   2.568   3.882   4.371
    1C        C  561   2.594   3.951   4.491
    1C        C  562   2.535   3.752   4.619
    1C        C  563   2.559   3.891   4.614
    1C        C  564   2.519   3.685   4.742
    1C        C  565   2.524   3.761   4.862
    1C        C  566   2.540   3.548   4.982
    1C        C  567   2.533   3.687   4.980
    1C        C  568   3.327   4.481   2.040
    1C        C  569   3.400   4.508   2.156
    1C        C  570   3.187   4.473   2.281
    1C        C  571   3.326   4.505   2.277
    1C        C  572   3.118   4.453   2.403
    1C        C  573   3.189   4.478   2.523
    1C        C  574   2.994   4.402   2.650
    1C        C  575   3.123   4.460   2.646
    1C        C  576   2.933   4.362   2.771
    1C        C  577   2.997   4.394   2.892
    1C        C  578   2.824   4.274   3.017
    1C        C  579   2.936   4.360   3.015
    1C        C  580   2.778   4.224   3.141
    1C        C  581   2.830   4.278   3.261
    1C        C  582   2.692   4.118   3.384
    1C        C  583   2.782   4.227   3.383
    1C        C  584   2.655   4.061   3.508
    1C        C  585   2.697   4.119   3.630
    1C        C  586   2.593   3.940   3.758
    1C        C  587   2.658   4.065   3.755
    1C        C  588   2.561   3.877   3.881
    1C        C  589   2.594   3.940   4.003
    1C        C  590   2.534   3.742   4.130
    1C        C  591   2.573   3.878   4.128
    1C        C  592   2.520   3.675   4.254
    1C        C  593   2.528   3.746   4.376
    1C        C  594   2.515   3.537   4.502
    1C        C  595   2.521   3.678   4.499
    1C        C  596   2.520   3.468   4.625
    1C        C  597   2.521   3.542   4.745
    1C        C  598   2.533   3.329   4.865
    1C        C  599   2.532   3.470   4.866
    1C        C  600   2.531   3.249   4.979
    1C        C  601   3.194   4.445   2.040
    1C        C  602   2.984   4.399   2.165
    1C        C  603   3.121   4.442   2.159
    1C        C  604   2.925   4.357   2.287
    1C        C  605   2.992   4.391   2.407
    1C        C  606   2.819   4.273   2.531
    1C        C  607   2.932   4.358   2.531
    1C        C  608   2.773   4.219   2.653
    1C        C  609   2.822   4.275   2.773
    1C        C  610   2.683   4.116   2.896
    1C        C  611   2.772   4.225   2.895
    1C        C  612   2.646   4.058   3.019
    1C        C  613   2.689   4.115   3.142
    1C        C  614   2.588   3.928   3.267
    1C        C  615   2.652   4.055   3.264
    1C        C  616   2.562   3.872   3.393
    1C        C  617   2.590   3.937   3.516
    1C        C  618   2.524   3.735   3.641
    1C        C  619   2.563   3.871   3.638
    1C        C  620   2.514   3.667   3.764
    1C        C  621   2.530   3.739   3.885
    1C        C  622   2.514   3.531   4.012
    1C        C  623   2.516   3.672   4.008
    1C        C  624   2.522   3.461   4.135
    1C        C  625   2.518   3.534   4.256
    1C        C  626   2.543   3.327   4.383
    1C        C  627   2.519   3.466   4.379
    1C        C  628   2.562   3.257   4.504
    1C        C  629   2.544   3.329   4.625
    1C        C  630   2.602   3.122   4.744
    1C        C  631   2.556   3.257   4.746
    1C        C  632   2.617   3.050   4.865
    1C        C  633   2.563   3.112   4.982
    1C        C  634   2.787   4.309   2.061
    1C        C  635   2.895   4.398   2.053
    1C        C  636   2.751   4.230   2.171
    1C        C  637   2.806   4.279   2.291
    1C        C  638   2.673   4.114   2.412
    1C        C  639   2.755   4.229   2.413
    1C        C  640   2.639   4.050   2.533
    1C        C  641   2.682   4.110   2.654
    1C        C  642   2.579   3.926   2.778
    1C        C  643   2.641   4.053   2.776
    1C        C  644   2.552   3.864   2.902
    1C        C  645   2.586   3.930   3.023
    1C        C  646   2.520   3.728   3.151
    1C        C  647   2.563   3.862   3.145
    1C        C  648   2.508   3.662   3.275
    1C        C  649   2.522   3.736   3.395
    1C        C  650   2.510   3.526   3.522
    1C        C  651   2.515   3.667   3.517
    1C        C  652   2.519   3.456   3.645
    1C        C  653   2.513   3.526   3.768
    1C        C  654   2.544   3.319   3.892
    1C        C  655   2.513   3.457   3.891
    1C        C  656   2.566   3.254   4.015
    1C        C  657   2.546   3.322   4.138
    1C        C  658   2.617   3.126   4.260
    1C        C  659   2.563   3.257   4.262
    1C        C  660   2.644   3.059   4.381
    1C        C  661   2.613   3.125   4.502
    1C        C  662   2.712   2.938   4.627
    1C        C  663   2.636   3.057   4.623
    1C        C  664   2.757   2.882   4.748
    1C        C  665   2.701   2.934   4.868
    1C        C  666   2.746   2.874   4.987
    1C        C  667   2.674   4.027   2.056
    1C        C  668   2.685   4.105   2.171
    1C        C  669   2.585   3.916   2.292
    1C        C  670   2.647   4.044   2.292
    1C        C  671   2.553   3.851   2.413
    1C        C  672   2.579   3.923   2.532
    1C        C  673   2.518   3.723   2.661
    1C        C  674   2.555   3.859   2.656
    1C        C  675   2.513   3.653   2.784
    1C        C  676   2.522   3.726   2.904
    1C        C  677   2.505   3.518   3.032
    1C        C  678   2.510   3.659   3.028
    1C        C  679   2.510   3.450   3.156
    1C        C  680   2.504   3.521   3.278
    1C        C  681   2.542   3.315   3.403
    1C        C  682   2.512   3.453   3.401
    1C        C  683   2.562   3.247   3.525
    1C        C  684   2.542   3.317   3.647
    1C        C  685   2.613   3.118   3.773
    1C        C  686   2.561   3.250   3.770
    1C        C  687   2.646   3.056   3.895
    1C        C  688   2.613   3.121   4.016
    1C        C  689   2.718   2.938   4.141
    1C        C  690   2.645   3.059   4.139
    1C        C  691   2.761   2.881   4.263
    1C        C  692   2.722   2.941   4.385
    1C        C  693   2.758   2.879   4.507
    1C        C  694   2.631   3.894   2.059
    1C        C  695   2.530   3.705   2.180
    1C        C  696   2.573   3.839   2.175
    1C        C  697   2.509   3.636   2.301
    1C        C  698   2.517   3.715   2.419
    1C        C  699   2.488   3.508   2.547
    1C        C  700   2.499   3.648   2.542
    1C        C  701   2.507   3.439   2.669
    1C        C  702   2.505   3.512   2.790
    1C        C  703   2.532   3.303   2.914
    1C        C  704   2.505   3.442   2.913
    1C        C  705   2.555   3.239   3.038
    1C        C  706   2.538   3.311   3.158
    1C        C  707   2.615   3.116   3.282
    1C        C  708   2.559   3.245   3.281
    1C        C  709   2.647   3.054   3.405
    1C        C  710   2.618   3.118   3.528
    1C        C  711   2.720   2.934   3.650
    1C        C  712   2.646   3.055   3.652
    1C        C  713   2.757   2.876   3.773
    1C        C  714   2.721   2.936   3.896
    1C        C  715   2.764   2.883   4.019
    1C        C  716   2.455   3.501   2.062
    1C        C  717   2.488   3.638   2.064
    1C        C  718   2.464   3.425   2.182
    1C        C  719   2.489   3.495   2.303
    1C        C  720   2.516   3.292   2.427
    1C        C  721   2.488   3.430   2.428
    1C        C  722   2.537   3.224   2.549
    1C        C  723   2.531   3.300   2.667
    1C        C  724   2.599   3.104   2.792
    1C        C  725   2.548   3.236   2.792
    1C        C  726   2.630   3.041   2.915
    1C        C  727   2.598   3.104   3.038
    1C        C  728   2.716   2.929   3.162
    1C        C  729   2.639   3.048   3.160
    1C        C  730   2.759   2.875   3.285
    1C        C  731   2.718   2.932   3.408
    1C        C  732   2.761   2.873   3.529
    1C        C  733   2.488   3.199   2.073
    1C        C  734   2.492   3.284   2.185
    1C        C  735   2.589   3.091   2.307
    1C        C  736   2.530   3.221   2.306
    1C        C  737   2.616   3.024   2.428
    1C        C  738   2.591   3.093   2.549
    1C        C  739   2.699   2.913   2.672
    1C        C  740   2.627   3.035   2.672
    1C        C  741   2.745   2.860   2.795
    1C        C  742   2.707   2.923   2.915
    1C        C  743   2.756   2.873   3.038
    1C        C  744   2.552   3.076   2.075
    1C        C  745   2.690   2.901   2.187
    1C        C  746   2.616   3.021   2.188
    1C        C  747   2.731   2.843   2.309
    1C        C  748   2.690   2.903   2.430
    1C        C  749   2.740   2.852   2.551
    1C        C  750   2.735   2.837   2.070
    1C        C  751   3.669   2.315   1.995
    1C        O  752   3.728   2.215   2.045
    1C        O  753   3.696   2.335   1.859
    1C        C  754   4.636   3.058   1.979
    1C        O  755   4.648   3.070   1.854
    1C        O  756   4.724   2.969   2.040
    1C        C  757   4.467   4.227   1.977
    1C        O  758   4.560   4.294   2.029
    1C        O  759   4.444   4.269   1.846
    1C        C  760   3.589   4.653   1.935
    1C        O  761   3.658   4.754   1.904
    1C        O  762   3.546   4.601   1.812
    1C        C  763   2.876   4.514   1.963
    1C        O  764   2.874   4.505   1.838
    1C        O  765   2.908   4.643   2.008
    1C        C  766   2.348   3.485   1.961
    1C        O  767   2.360   3.441   1.843
    1C        O  768   2.214   3.481   2.002
    1C        C  769   4.696   3.586   5.052
    1C        O  770   4.688   3.579   5.178
    1C        O  771   4.822   3.556   5.001
    1C        C  772   4.274   4.454   5.044
    1C        O  773   4.273   4.418   5.165
    1C        O  774   4.360   4.561   5.018
    1C        C  775   4.155   2.522   5.067
    1C        O  776   4.184   2.401   5.047
    1C        O  777   4.183   2.565   5.198
    1C        C  778   2.885   4.556   5.041
    1C        O  779   2.855   4.662   4.980
    1C        O  780   2.947   4.584   5.164
    1C        C  781   2.482   3.030   5.075
    1C        O  782   2.364   2.997   5.042
    1C        O  783   2.484   3.034   5.214
    1C        C  784   2.421   3.985   5.061
    1C        O  785   2.311   4.045   5.047
    1C        O  786   2.456   3.994   5.196
    1C        C  787   2.952   2.414   2.020
    1C        O  788   2.925   2.429   1.898
    1C        O  789   2.903   2.309   2.096
    1C        C  790   3.184   2.370   5.064
    1C        O  791   3.129   2.264   5.023
    1C        O  792   3.205   2.373   5.202
    1C        H  793   4.270   3.031   5.060
    1C        H  794   4.189   2.808   5.073
    1C        H  795   4.549   3.124   5.040
    1C        H  796   4.506   3.373   5.068
    1C        H  797   4.540   3.806   5.053
    1C        H  798   4.458   3.998   5.045
    1C        H  799   4.306   4.184   5.057
    1C        H  800   4.057   4.570   5.006
    1C        H  801   3.829   4.612   5.033
    1C        H  802   3.590   4.661   5.023
    1C        H  803   3.403   4.510   5.047
    1C        H  804   3.167   4.485   5.054
    1C        H  805   3.902   2.467   5.060
    1C        H  806   3.674   2.438   5.073
    1C        H  807   3.000   2.559   5.070
    1C        H  808   3.453   2.423   5.069
    1C        H  809   2.851   2.723   5.079
    1C        H  810   2.745   2.936   5.074
    1C        H  811   2.537   3.300   5.073
    1C        H  812   2.521   3.504   5.077
    1C        H  813   2.500   3.734   5.071
    1C        H  814   2.592   4.180   5.045
    1C        H  815   2.743   4.336   5.047
    1C        H  816   2.701   2.867   1.973
    1C        H  817   2.851   2.687   1.980
    1C        H  818   3.202   2.390   2.010
    1C        H  819   3.432   2.442   1.978
    1C        H  820   3.854   2.513   1.974
    1C        H  821   4.072   2.619   1.970
    1C        H  822   4.291   2.697   1.993
    1C        H  823   4.420   2.894   1.974
    1C        H  824   4.628   3.304   1.995
    1C        H  825   4.470   3.509   1.970
    1C        H  826   4.519   3.747   1.960
    1C        H  827   3.824   4.571   1.980
    1C        H  828   3.968   4.389   1.946
    1C        H  829   4.159   4.246   1.952
    1C        H  830   4.500   3.961   1.971
    1C        H  831   2.665   3.832   1.979
    1C        H  832   2.752   4.039   1.983
    1C        H  833   2.723   4.305   1.976
    1C        H  834   3.373   4.481   1.943
    1C        H  835   3.155   4.391   1.956
    1C        H  836   2.568   3.028   1.981
    1C        H  837   2.418   3.218   1.995
    1C        H  838   2.506   3.683   1.969
    2V3OU   H29  839   2.807   3.546   6.261
    2V3OU   C27  840   2.786   3.506   6.364
    2V3OU   H27  841   2.726   3.575   6.429
    2V3OU   H28  842   2.730   3.410   6.349
    2V3OU   O11  843   2.912   3.476   6.424
    2V3OU   C15  844   2.928   3.405   6.541
    2V3OU   C13  845   3.054   3.383   6.599
    2V3OU   C14  846   3.073   3.273   6.684
    2V3OU   C16  847   2.970   3.189   6.723
    2V3OU    H6  848   2.985   3.106   6.794
    2V3OU   C12  849   3.212   3.233   6.716
    2V3OU    O2  850   3.239   3.128   6.779
    2V3OU   C10  851   3.328   3.306   6.664
    2V3OU    C8  852   3.461   3.270   6.684
    2V3OU   O10  853   3.491   3.157   6.754
    2V3OU   H26  854   3.407   3.119   6.783
    2V3OU    C6  855   3.565   3.350   6.627
    2V3OU    C5  856   3.541   3.469   6.559
    2V3OU    C4  857   3.705   3.298   6.622
    2V3OU    H4  858   3.724   3.228   6.708
    2V3OU    H5  859   3.709   3.230   6.532
    2V3OU    C2  860   3.819   3.399   6.616
    2V3OU    O6  861   3.804   3.475   6.736
    2V3OU   H21  862   3.764   3.559   6.709
    2V3OU    C3  863   3.783   3.497   6.504
    2V3OU    H2  864   3.864   3.573   6.493
    2V3OU    H3  865   3.783   3.439   6.408
    2V3OU   C25  866   3.954   3.326   6.612
    2V3OU    O7  867   4.007   3.296   6.505
    2V3OU   C26  868   4.031   3.290   6.738
    2V3OU   H22  869   4.063   3.387   6.784
    2V3OU   H23  870   4.123   3.231   6.710
    2V3OU    O8  871   3.960   3.211   6.831
    2V3OU   H24  872   3.927   3.260   6.908
    2V3OU    C1  873   3.649   3.565   6.521
    2V3OU    H1  874   3.628   3.617   6.422
    2V3OU    O3  875   3.663   3.657   6.629
    2V3OU   C19  876   3.621   3.791   6.600
    2V3OU    H9  877   3.534   3.796   6.528
    2V3OU    O4  878   3.716   3.846   6.512
    2V3OU   C20  879   3.846   3.873   6.566
    2V3OU   H10  880   3.895   3.773   6.586
    2V3OU   C24  881   3.613   3.856   6.738
    2V3OU   H16  882   3.545   3.798   6.806
    2V3OU   H17  883   3.561   3.952   6.711
    2V3OU   C23  884   3.755   3.875   6.794
    2V3OU   H15  885   3.794   3.772   6.822
    2V3OU    N1  886   3.739   3.956   6.914
    2V3OU   H19  887   3.811   3.923   6.975
    2V3OU   H20  888   3.652   3.933   6.958
    2V3OU   C21  889   3.853   3.950   6.699
    2V3OU   H11  890   3.960   3.935   6.731
    2V3OU    O5  891   3.826   4.089   6.705
    2V3OU   H18  892   3.778   4.101   6.789
    2V3OU   C22  893   3.918   3.947   6.455
    2V3OU   H12  894   3.867   4.046   6.438
    2V3OU   H13  895   3.904   3.890   6.359
    2V3OU   H14  896   4.024   3.965   6.483
    2V3OU   C11  897   3.165   3.477   6.576
    2V3OU    O1  898   3.137   3.593   6.537
    2V3OU    C9  899   3.302   3.421   6.585
    2V3OU    C7  900   3.404   3.499   6.532
    2V3OU    O9  901   3.386   3.618   6.463
    2V3OU   H25  902   3.293   3.640   6.446
    2V3OU   C17  903   2.824   3.317   6.578
    2V3OU    H7  904   2.720   3.345   6.562
    2V3OU   C18  905   2.845   3.212   6.667
    2V3OU    H8  906   2.760   3.150   6.698
    3SOL     OW  907   2.910   3.767   4.920
    3SOL    HW1  908   2.982   3.836   4.925
    3SOL    HW2  909   2.820   3.812   4.925
    4SOL     OW  910   1.431   0.312   0.603
    4SOL    HW1  911   1.517   0.352   0.635
    4SOL    HW2  912   1.401   0.241   0.667
    5SOL     OW  913   4.185   2.005   0.660
    5SOL    HW1  914   4.170   1.913   0.695
    5SOL    HW2  915   4.118   2.067   0.701
    6SOL     OW  916   3.424   1.735   2.197
    6SOL    HW1  917   3.409   1.834   2.205
    6SOL    HW2  918   3.394   1.704   2.107
    7SOL     OW  919   2.294   2.784   4.887
    7SOL    HW1  920   2.199   2.781   4.854
    7SOL    HW2  921   2.312   2.874   4.927
    8SOL     OW  922   1.303   1.728   6.325
    8SOL    HW1  923   1.344   1.652   6.376
    8SOL    HW2  924   1.231   1.693   6.265
    9SOL     OW  925   2.259   2.290   5.752
    9SOL    HW1  926   2.209   2.215   5.796
    9SOL    HW2  927   2.207   2.321   5.672
   10SOL     OW  928   5.634   5.041   1.000
   10SOL    HW1  929   5.676   4.972   0.940
   10SOL    HW2  930   5.556   5.000   1.048
   11SOL     OW  931   3.626   1.760   0.333
   11SOL    HW1  932   3.719   1.786   0.357
   11SOL    HW2  933   3.612   1.663   0.353
   12SOL     OW  934   5.667   4.952   1.410
   12SOL    HW1  935   5.739   5.017   1.384
   12SOL    HW2  936   5.594   5.001   1.457
   13SOL     OW  937   4.419   5.348   1.809
   13SOL    HW1  938   4.397   5.441   1.838
   13SOL    HW2  939   4.362   5.283   1.859
   14SOL     OW  940   4.257   5.784   0.926
   14SOL    HW1  941   4.173   5.729   0.922
   14SOL    HW2  942   4.312   5.765   0.845
   15SOL     OW  943   0.565   0.080   6.844
   15SOL    HW1  944   0.663   0.064   6.838
   15SOL    HW2  945   0.547   0.178   6.849
   16SOL     OW  946   2.193   5.273   5.514
   16SOL    HW1  947   2.197   5.196   5.450
   16SOL    HW2  948   2.147   5.350   5.469
   17SOL     OW  949   0.119   1.978   3.720
   17SOL    HW1  950   0.042   1.914   3.715
   17SOL    HW2  951   0.083   2.071   3.721
   18SOL     OW  952   2.848   0.334   5.705
   18SOL    HW1  953   2.909   0.258   5.681
   18SOL    HW2  954   2.779   0.345   5.633
   19SOL     OW  955   3.942   5.799   3.137
   19SOL    HW1  956   3.946   5.766   3.043
   19SOL    HW2  957   4.034   5.797   3.177
   20SOL     OW  958   0.325   1.752   4.800
   20SOL    HW1  959   0.279   1.673   4.759
   20SOL    HW2  960   0.256   1.815   4.836
   21SOL     OW  961   1.786   3.152   1.660
   21SOL    HW1  962   1.746   3.126   1.572
   21SOL    HW2  963   1.798   3.070   1.717
   22SOL     OW  964   0.880   1.072   0.564
   22SOL    HW1  965   0.845   0.978   0.567
   22SOL    HW2  966   0.805   1.137   0.578
   23SOL     OW  967   0.763   5.333   0.339
   23SOL    HW1  968   0.796   5.239   0.328
   23SOL    HW2  969   0.821   5.382   0.403
   24SOL     OW  970   4.848   0.842   0.418
   24SOL    HW1  971   4.820   0.842   0.322
   24SOL    HW2  972   4.767   0.848   0.476
   25SOL     OW  973   1.118   0.873   5.065
   25SOL    HW1  974   1.180   0.951   5.073
   25SOL    HW2  975   1.111   0.827   5.154
   26SOL     OW  976   2.029   6.702   5.640
   26SOL    HW1  977   1.989   6.612   5.658
   26SOL    HW2  978   2.115   6.710   5.691
   27SOL     OW  979   6.780   6.774   2.361
   27SOL    HW1  980   6.774   6.809   2.454
   27SOL    HW2  981   6.873   6.788   2.326
   28SOL     OW  982   2.167   0.757   4.978
   28SOL    HW1  983   2.192   0.790   4.887
   28SOL    HW2  984   2.245   0.708   5.019
   29SOL     OW  985   5.527   0.628   1.231
   29SOL    HW1  986   5.619   0.593   1.218
   29SOL    HW2  987   5.481   0.576   1.303
   30SOL     OW  988   4.836   6.854   4.995
   30SOL    HW1  989   4.935   6.865   4.996
   30SOL    HW2  990   4.812   6.777   4.935
   31SOL     OW  991   6.395   4.164   4.246
   31SOL    HW1  992   6.349   4.198   4.328
   31SOL    HW2  993   6.363   4.072   4.225
   32SOL     OW  994   3.320   1.279   1.213
   32SOL    HW1  995   3.282   1.218   1.143
   32SOL    HW2  996   3.306   1.239   1.303
   33SOL     OW  997   2.137   4.274   5.509
   33SOL    HW1  998   2.184   4.336   5.571
   33SOL    HW2  999   2.191   4.190   5.499
   34SOL     OW 1000   2.490   6.583   5.006
   34SOL    HW1 1001   2.516   6.665   5.057
   34SOL    HW2 1002   2.570   6.526   4.991
   35SOL     OW 1003   1.774   3.103   4.767
   35SOL    HW1 1004   1.769   3.159   4.684
   35SOL    HW2 1005   1.855   3.128   4.819
   36SOL     OW 1006   5.323   1.067   4.048
   36SOL    HW1 1007   5.406   1.119   4.063
   36SOL    HW2 1008   5.246   1.111   4.095
   37SOL     OW 1009   1.348   6.145   4.192
   37SOL    HW1 1010   1.305   6.226   4.230
   37SOL    HW2 1011   1.302   6.118   4.108
   38SOL     OW 1012   1.064   3.379   1.948
   38SOL    HW1 1013   1.019   3.456   1.994
   38SOL    HW2 1014   0.999   3.336   1.885
   39SOL     OW 1015   6.306   5.431   1.556
   39SOL    HW1 1016   6.325   5.384   1.642
   39SOL    HW2 1017   6.380   5.495   1.535
   40SOL     OW 1018   3.814   0.610   6.495
   40SOL    HW1 1019   3.817   0.707   6.471
   40SOL    HW2 1020   3.858   0.556   6.423
   41SOL     OW 1021   6.977   3.385   1.513
   41SOL    HW1 1022   6.924   3.301   1.520
   41SOL    HW2 1023   0.018   3.375   1.440
   42SOL     OW 1024   2.660   3.729   0.757
   42SOL    HW1 1025   2.670   3.695   0.664
   42SOL    HW2 1026   2.637   3.653   0.818
   43SOL     OW 1027   4.721   0.823   3.877
   43SOL    HW1 1028   4.803   0.776   3.844
   43SOL    HW2 1029   4.740   0.867   3.964
   44SOL     OW 1030   0.069   0.537   0.106
   44SOL    HW1 1031   0.049   0.442   0.084
   44SOL    HW2 1032   0.126   0.542   0.188
   45SOL     OW 1033   1.956   3.569   5.820
   45SOL    HW1 1034   1.969   3.487   5.877
   45SOL    HW2 1035   1.879   3.553   5.758
   46SOL     OW 1036   1.233   4.593   4.010
   46SOL    HW1 1037   1.170   4.544   4.069
   46SOL    HW2 1038   1.182   4.648   3.944
   47SOL     OW 1039   0.014   4.721   6.434
   47SOL    HW1 1040   0.062   4.676   6.510
   47SOL    HW2 1041   0.059   4.698   6.348
   48SOL     OW 1042   0.995   3.887   0.265
   48SOL    HW1 1043   0.981   3.819   0.337
   48SOL    HW2 1044   0.946   3.971   0.287
   49SOL     OW 1045   3.370   1.199   0.368
   49SOL    HW1 1046   3.387   1.135   0.293
   49SOL    HW2 1047   3.310   1.272   0.337
   50SOL     OW 1048   5.056   1.820   5.568
   50SOL    HW1 1049   4.967   1.803   5.610
   50SOL    HW2 1050   5.081   1.743   5.509
   51SOL     OW 1051   1.752   6.261   2.334
   51SOL    HW1 1052   1.672   6.202   2.326
   51SOL    HW2 1053   1.723   6.356   2.344
   52SOL     OW 1054   5.519   3.152   2.731
   52SOL    HW1 1055   5.475   3.240   2.748
   52SOL    HW2 1056   5.599   3.143   2.791
   53SOL     OW 1057   4.027   0.062   0.847
   53SOL    HW1 1058   4.026   0.151   0.892
   53SOL    HW2 1059   4.099   0.005   0.887
   54SOL     OW 1060   0.817   1.403   6.189
   54SOL    HW1 1061   0.719   1.398   6.207
   54SOL    HW2 1062   0.862   1.321   6.223
   55SOL     OW 1063   1.965   3.134   6.464
   55SOL    HW1 1064   1.981   3.203   6.393
   55SOL    HW2 1065   2.052   3.101   6.499
   56SOL     OW 1066   1.003   1.917   6.510
   56SOL    HW1 1067   0.939   1.931   6.585
   56SOL    HW2 1068   1.095   1.902   6.547
   57SOL     OW 1069   4.135   5.420   1.518
   57SOL    HW1 1070   4.183   5.335   1.498
   57SOL    HW2 1071   4.178   5.495   1.469
   58SOL     OW 1072   0.497   0.694   0.171
   58SOL    HW1 1073   0.553   0.767   0.210
   58SOL    HW2 1074   0.434   0.732   0.104
   59SOL     OW 1075   4.247   3.028   6.908
   59SOL    HW1 1076   4.287   3.003   6.820
   59SOL    HW2 1077   4.319   3.035   6.977
   60SOL     OW 1078   6.274   2.452   2.735
   60SOL    HW1 1079   6.222   2.409   2.661
   60SOL    HW2 1080   6.308   2.382   2.798
   61SOL     OW 1081   1.928   5.510   2.658
   61SOL    HW1 1082   1.927   5.431   2.719
   61SOL    HW2 1083   1.888   5.484   2.570
   62SOL     OW 1084   4.914   3.375   3.304
   62SOL    HW1 1085   4.918   3.275   3.308
   62SOL    HW2 1086   4.913   3.405   3.208
   63SOL     OW 1087   3.978   6.884   6.086
   63SOL    HW1 1088   3.941   6.793   6.104
   63SOL    HW2 1089   3.930   6.925   6.008
   64SOL     OW 1090   1.919   2.009   6.801
   64SOL    HW1 1091   1.924   2.084   6.867
   64SOL    HW2 1092   1.991   1.943   6.821
   65SOL     OW 1093   0.811   5.403   5.188
   65SOL    HW1 1094   0.904   5.440   5.187
   65SOL    HW2 1095   0.757   5.448   5.117
   66SOL     OW 1096   4.527   1.277   1.359
   66SOL    HW1 1097   4.467   1.357   1.355
   66SOL    HW2 1098   4.580   1.271   1.274
   67SOL     OW 1099   0.012   3.282   2.282
   67SOL    HW1 1100   7.005   3.285   2.376
   67SOL    HW2 1101   6.975   3.331   2.223
   68SOL     OW 1102   0.706   1.027   6.388
   68SOL    HW1 1103   0.648   0.959   6.344
   68SOL    HW2 1104   0.797   1.024   6.346
   69SOL     OW 1105   1.306   0.280   6.202
   69SOL    HW1 1106   1.380   0.333   6.244
   69SOL    HW2 1107   1.345   0.200   6.157
   70SOL     OW 1108   4.682   4.966   3.435
   70SOL    HW1 1109   4.665   4.921   3.347
   70SOL    HW2 1110   4.759   5.029   3.426
   71SOL     OW 1111   5.282   0.846   5.411
   71SOL    HW1 1112   5.300   0.766   5.354
   71SOL    HW2 1113   5.351   0.916   5.393
   72SOL     OW 1114   6.482   1.733   2.450
   72SOL    HW1 1115   6.551   1.753   2.381
   72SOL    HW2 1116   6.526   1.701   2.534
   73SOL     OW 1117   2.647   0.843   1.177
   73SOL    HW1 1118   2.586   0.794   1.115
   73SOL    HW2 1119   2.659   0.791   1.261
   74SOL     OW 1120   2.372   0.584   0.538
   74SOL    HW1 1121   2.426   0.651   0.487
   74SOL    HW2 1122   2.434   0.518   0.581
   75SOL     OW 1123   2.467   2.535   1.504
   75SOL    HW1 1124   2.484   2.508   1.409
   75SOL    HW2 1125   2.492   2.459   1.565
   76SOL     OW 1126   3.319   5.082   6.335
   76SOL    HW1 1127   3.336   5.176   6.304
   76SOL    HW2 1128   3.290   5.084   6.430
   77SOL     OW 1129   7.019   4.779   4.684
   77SOL    HW1 1130   0.062   4.771   4.755
   77SOL    HW2 1131   6.954   4.852   4.709
   78SOL     OW 1132   5.218   1.492   1.335
   78SOL    HW1 1133   5.293   1.428   1.322
   78SOL    HW2 1134   5.246   1.583   1.305
   79SOL     OW 1135   1.821   3.857   4.239
   79SOL    HW1 1136   1.749   3.917   4.203
   79SOL    HW2 1137   1.832   3.778   4.179
   80SOL     OW 1138   4.091   2.287   5.327
   80SOL    HW1 1139   4.065   2.344   5.249
   80SOL    HW2 1140   4.069   2.191   5.306
   81SOL     OW 1141   2.629   4.615   3.232
   81SOL    HW1 1142   2.545   4.562   3.215
   81SOL    HW2 1143   2.654   4.663   3.148
   82SOL     OW 1144   2.683   0.692   1.403
   82SOL    HW1 1145   2.618   0.616   1.406
   82SOL    HW2 1146   2.647   0.769   1.455
   83SOL     OW 1147   5.690   2.602   3.755
   83SOL    HW1 1148   5.765   2.567   3.699
   83SOL    HW2 1149   5.724   2.625   3.846
   84SOL     OW 1150   5.287   2.422   2.727
   84SOL    HW1 1151   5.303   2.519   2.711
   84SOL    HW2 1152   5.221   2.411   2.802
   85SOL     OW 1153   2.580   5.156   3.127
   85SOL    HW1 1154   2.517   5.191   3.197
   85SOL    HW2 1155   2.650   5.225   3.109
   86SOL     OW 1156   4.655   0.977   6.602
   86SOL    HW1 1157   4.723   0.906   6.623
   86SOL    HW2 1158   4.693   1.066   6.625
   87SOL     OW 1159   3.085   2.804   6.464
   87SOL    HW1 1160   3.100   2.827   6.560
   87SOL    HW2 1161   3.173   2.804   6.415
   88SOL     OW 1162   1.525   2.070   1.150
   88SOL    HW1 1163   1.500   2.166   1.135
   88SOL    HW2 1164   1.622   2.057   1.133
   89SOL     OW 1165   4.133   3.586   5.173
   89SOL    HW1 1166   4.202   3.587   5.101
   89SOL    HW2 1167   4.177   3.590   5.263
   90SOL     OW 1168   6.722   4.265   1.748
   90SOL    HW1 1169   6.775   4.231   1.670
   90SOL    HW2 1170   6.625   4.251   1.731
   91SOL     OW 1171   4.967   5.176   0.235
   91SOL    HW1 1172   5.066   5.188   0.239
   91SOL    HW2 1173   4.925   5.260   0.202
   92SOL     OW 1174   6.262   6.323   6.827
   92SOL    HW1 1175   6.354   6.358   6.840
   92SOL    HW2 1176   6.223   6.361   6.744
   93SOL     OW 1177   2.802   3.600   1.883
   93SOL    HW1 1178   2.822   3.529   1.951
   93SOL    HW2 1179   2.715   3.580   1.839
   94SOL     OW 1180   3.378   0.845   4.711
   94SOL    HW1 1181   3.418   0.772   4.655
   94SOL    HW2 1182   3.298   0.882   4.664
   95SOL     OW 1183   1.034   6.119   4.586
   95SOL    HW1 1184   1.132   6.133   4.597
   95SOL    HW2 1185   1.000   6.059   4.658
   96SOL     OW 1186   0.135   6.149   0.024
   96SOL    HW1 1187   0.137   6.246   0.048
   96SOL    HW2 1188   0.041   6.116   0.026
   97SOL     OW 1189   3.625   4.952   4.209
   97SOL    HW1 1190   3.723   4.972   4.208
   97SOL    HW2 1191   3.585   4.982   4.296
   98SOL     OW 1192   6.914   2.290   5.095
   98SOL    HW1 1193   6.828   2.340   5.109
   98SOL    HW2 1194   6.988   2.355   5.077
   99SOL     OW 1195   4.691   4.335   4.728
   99SOL    HW1 1196   4.623   4.356   4.799
   99SOL    HW2 1197   4.670   4.388   4.646
  100SOL     OW 1198   1.929   1.872   5.090
  100SOL    HW1 1199   1.839   1.889   5.129
  100SOL    HW2 1200   1.970   1.791   5.133
  101SOL     OW 1201   5.125   2.879   2.498
  101SOL    HW1 1202   5.174   2.909   2.416
  101SOL    HW2 1203   5.055   2.812   2.472
  102SOL     OW 1204   4.347   6.182   0.641
  102SOL    HW1 1205   4.300   6.196   0.728
  102SOL    HW2 1206   4.441   6.214   0.648
  103SOL     OW 1207   1.786   2.087   1.072
  103SOL    HW1 1208   1.876   2.121   1.099
  103SOL    HW2 1209   1.797   2.002   1.020
  104SOL     OW 1210   0.625   3.812   1.306
  104SOL    HW1 1211   0.647   3.892   1.249
  104SOL    HW2 1212   0.599   3.842   1.397
  105SOL     OW 1213   0.153   1.956   4.520
  105SOL    HW1 1214   0.168   1.894   4.443
  105SOL    HW2 1215   0.088   1.913   4.584
  106SOL     OW 1216   4.755   3.681   1.602
  106SOL    HW1 1217   4.771   3.608   1.536
  106SOL    HW2 1218   4.831   3.745   1.600
  107SOL     OW 1219   4.506   0.555   2.638
  107SOL    HW1 1220   4.515   0.632   2.575
  107SOL    HW2 1221   4.501   0.470   2.585
  108SOL     OW 1222   3.538   1.334   4.964
  108SOL    HW1 1223   3.620   1.278   4.981
  108SOL    HW2 1224   3.565   1.428   4.947
  109SOL     OW 1225   2.404   1.662   4.727
  109SOL    HW1 1226   2.399   1.607   4.644
  109SOL    HW2 1227   2.441   1.752   4.705
  110SOL     OW 1228   4.188   4.553   5.511
  110SOL    HW1 1229   4.107   4.565   5.568
  110SOL    HW2 1230   4.220   4.459   5.518
  111SOL     OW 1231   6.758   3.383   1.109
  111SOL    HW1 1232   6.820   3.375   1.031
  111SOL    HW2 1233   6.715   3.474   1.108
  112SOL     OW 1234   3.721   6.662   4.585
  112SOL    HW1 1235   3.792   6.729   4.564
  112SOL    HW2 1236   3.660   6.652   4.506
  113SOL     OW 1237   1.708   5.145   2.680
  113SOL    HW1 1238   1.768   5.079   2.726
  113SOL    HW2 1239   1.716   5.135   2.581
  114SOL     OW 1240   6.869   2.369   1.737
  114SOL    HW1 1241   6.894   2.337   1.829
  114SOL    HW2 1242   6.771   2.389   1.735
  115SOL     OW 1243   4.211   1.341   3.126
  115SOL    HW1 1244   4.155   1.421   3.104
  115SOL    HW2 1245   4.182   1.305   3.215
  116SOL     OW 1246   5.927   6.088   6.817
  116SOL    HW1 1247   5.903   6.146   6.739
  116SOL    HW2 1248   5.847   6.035   6.845
  117SOL     OW 1249   2.416   1.257   0.585
  117SOL    HW1 1250   2.340   1.199   0.557
  117SOL    HW2 1251   2.399   1.293   0.677
  118SOL     OW 1252   0.982   2.380   1.544
  118SOL    HW1 1253   0.989   2.407   1.641
  118SOL    HW2 1254   0.944   2.455   1.492
  119SOL     OW 1255   5.445   5.461   4.924
  119SOL    HW1 1256   5.492   5.479   4.838
  119SOL    HW2 1257   5.478   5.523   4.995
  120SOL     OW 1258   4.386   1.716   4.232
  120SOL    HW1 1259   4.403   1.642   4.166
  120SOL    HW2 1260   4.429   1.694   4.319
  121SOL     OW 1261   0.394   5.182   6.068
  121SOL    HW1 1262   0.465   5.131   6.117
  121SOL    HW2 1263   0.330   5.221   6.134
  122SOL     OW 1264   0.610   4.887   5.957
  122SOL    HW1 1265   0.620   4.983   5.930
  122SOL    HW2 1266   0.696   4.839   5.941
  123SOL     OW 1267   0.928   2.335   0.801
  123SOL    HW1 1268   0.998   2.265   0.789
  123SOL    HW2 1269   0.865   2.308   0.874
  124SOL     OW 1270   1.908   3.488   6.831
  124SOL    HW1 1271   1.992   3.512   6.782
  124SOL    HW2 1272   1.847   3.437   6.769
  125SOL     OW 1273   4.278   2.794   0.648
  125SOL    HW1 1274   4.314   2.840   0.729
  125SOL    HW2 1275   4.338   2.718   0.622
  126SOL     OW 1276   3.451   3.218   5.075
  126SOL    HW1 1277   3.432   3.183   5.167
  126SOL    HW2 1278   3.373   3.197   5.015
  127SOL     OW 1279   0.359   4.780   6.000
  127SOL    HW1 1280   0.380   4.683   6.007
  127SOL    HW2 1281   0.442   4.831   5.975
  128SOL     OW 1282   5.336   4.074   5.673
  128SOL    HW1 1283   5.432   4.046   5.663
  128SOL    HW2 1284   5.318   4.094   5.770
  129SOL     OW 1285   1.100   5.781   2.257
  129SOL    HW1 1286   1.087   5.771   2.356
  129SOL    HW2 1287   1.100   5.690   2.214
  130SOL     OW 1288   6.563   3.605   5.093
  130SOL    HW1 1289   6.602   3.667   5.025
  130SOL    HW2 1290   6.467   3.626   5.106
  131SOL     OW 1291   0.362   3.440   2.643
  131SOL    HW1 1292   0.336   3.348   2.615
  131SOL    HW2 1293   0.393   3.437   2.738
  132SOL     OW 1294   4.066   3.108   2.030
  132SOL    HW1 1295   4.120   3.188   2.058
  132SOL    HW2 1296   3.968   3.129   2.041
  133SOL     OW 1297   4.078   4.205   5.574
  133SOL    HW1 1298   4.012   4.263   5.621
  133SOL    HW2 1299   4.085   4.232   5.478
  134SOL     OW 1300   6.840   1.899   6.736
  134SOL    HW1 1301   6.846   1.942   6.645
  134SOL    HW2 1302   6.929   1.905   6.782
  135SOL     OW 1303   4.570   5.732   4.050
  135SOL    HW1 1304   4.662   5.731   4.089
  135SOL    HW2 1305   4.503   5.727   4.124
  136SOL     OW 1306   4.095   6.059   6.217
  136SOL    HW1 1307   4.088   6.112   6.302
  136SOL    HW2 1308   4.160   5.984   6.230
  137SOL     OW 1309   2.049   4.410   0.311
  137SOL    HW1 1310   2.142   4.444   0.302
  137SOL    HW2 1311   2.050   4.317   0.348
  138SOL     OW 1312   0.587   5.160   1.164
  138SOL    HW1 1313   0.631   5.104   1.234
  138SOL    HW2 1314   0.565   5.250   1.202
  139SOL     OW 1315   0.664   0.657   1.215
  139SOL    HW1 1316   0.618   0.612   1.291
  139SOL    HW2 1317   0.726   0.592   1.170
  140SOL     OW 1318   2.319   6.809   2.208
  140SOL    HW1 1319   2.241   6.831   2.150
  140SOL    HW2 1320   2.300   6.836   2.302
  141SOL     OW 1321   2.182   1.726   0.066
  141SOL    HW1 1322   2.218   1.818   0.082
  141SOL    HW2 1323   2.211   1.695   7.002
  142SOL     OW 1324   2.010   4.207   6.377
  142SOL    HW1 1325   2.014   4.306   6.367
  142SOL    HW2 1326   1.959   4.168   6.300
  143SOL     OW 1327   5.645   6.366   2.044
  143SOL    HW1 1328   5.709   6.326   1.979
  143SOL    HW2 1329   5.697   6.407   2.120
  144SOL     OW 1330   2.123   4.980   3.237
  144SOL    HW1 1331   2.217   4.947   3.250
  144SOL    HW2 1332   2.060   4.920   3.288
  145SOL     OW 1333   6.586   6.316   3.206
  145SOL    HW1 1334   6.682   6.344   3.208
  145SOL    HW2 1335   6.569   6.258   3.126
  146SOL     OW 1336   6.736   0.944   4.540
  146SOL    HW1 1337   6.796   0.883   4.591
  146SOL    HW2 1338   6.682   0.999   4.603
  147SOL     OW 1339   6.309   0.118   4.735
  147SOL    HW1 1340   6.351   0.131   4.825
  147SOL    HW2 1341   6.345   0.187   4.672
  148SOL     OW 1342   1.516   6.720   3.125
  148SOL    HW1 1343   1.511   6.779   3.205
  148SOL    HW2 1344   1.607   6.729   3.083
  149SOL     OW 1345   1.907   2.082   4.921
  149SOL    HW1 1346   1.808   2.090   4.910
  149SOL    HW2 1347   1.927   2.013   4.991
  150SOL     OW 1348   5.142   2.767   4.527
  150SOL    HW1 1349   5.140   2.853   4.476
  150SOL    HW2 1350   5.163   2.692   4.464
  151SOL     OW 1351   5.939   2.793   1.700
  151SOL    HW1 1352   6.003   2.776   1.626
  151SOL    HW2 1353   5.941   2.890   1.725
  152SOL     OW 1354   6.157   2.326   0.634
  152SOL    HW1 1355   6.211   2.301   0.714
  152SOL    HW2 1356   6.187   2.272   0.556
  153SOL     OW 1357   2.298   1.825   3.676
  153SOL    HW1 1358   2.357   1.757   3.631
  153SOL    HW2 1359   2.204   1.812   3.646
  154SOL     OW 1360   0.168   1.370   3.746
  154SOL    HW1 1361   0.114   1.362   3.830
  154SOL    HW2 1362   0.109   1.353   3.667
  155SOL     OW 1363   5.677   5.148   3.239
  155SOL    HW1 1364   5.741   5.075   3.215
  155SOL    HW2 1365   5.591   5.109   3.269
  156SOL     OW 1366   4.163   0.210   1.209
  156SOL    HW1 1367   4.208   0.125   1.183
  156SOL    HW2 1368   4.209   0.287   1.166
  157SOL     OW 1369   5.040   0.511   0.934
  157SOL    HW1 1370   4.969   0.556   0.880
  157SOL    HW2 1371   5.057   0.562   1.018
  158SOL     OW 1372   0.993   2.393   5.751
  158SOL    HW1 1373   1.005   2.351   5.841
  158SOL    HW2 1374   0.896   2.405   5.732
  159SOL     OW 1375   0.181   4.886   6.849
  159SOL    HW1 1376   0.262   4.829   6.834
  159SOL    HW2 1377   0.174   4.954   6.776
  160SOL     OW 1378   3.992   0.333   1.949
  160SOL    HW1 1379   3.924   0.400   1.918
  160SOL    HW2 1380   3.947   0.248   1.975
  161SOL     OW 1381   6.018   0.009   0.709
  161SOL    HW1 1382   6.005   0.026   0.807
  161SOL    HW2 1383   6.055   6.944   0.696
  162SOL     OW 1384   4.477   0.104   5.133
  162SOL    HW1 1385   4.402   0.050   5.094
  162SOL    HW2 1386   4.513   0.166   5.065
  163SOL     OW 1387   1.109   3.813   2.962
  163SOL    HW1 1388   1.166   3.871   2.903
  163SOL    HW2 1389   1.111   3.848   3.055
  164SOL     OW 1390   2.083   2.165   2.630
  164SOL    HW1 1391   2.130   2.114   2.702
  164SOL    HW2 1392   2.028   2.101   2.575
  165SOL     OW 1393   0.368   6.039   4.883
  165SOL    HW1 1394   0.362   5.967   4.814
  165SOL    HW2 1395   0.376   5.998   4.974
  166SOL     OW 1396   0.917   4.763   4.056
  166SOL    HW1 1397   0.851   4.783   4.130
  166SOL    HW2 1398   0.946   4.849   4.014
  167SOL     OW 1399   0.042   1.095   3.097
  167SOL    HW1 1400   0.128   1.140   3.118
  167SOL    HW2 1401   0.055   1.032   3.020
  168SOL     OW 1402   3.373   4.113   4.367
  168SOL    HW1 1403   3.274   4.107   4.375
  168SOL    HW2 1404   3.412   4.152   4.451
  169SOL     OW 1405   5.088   2.787   5.849
  169SOL    HW1 1406   5.034   2.703   5.839
  169SOL    HW2 1407   5.031   2.859   5.887
  170SOL     OW 1408   0.125   5.480   2.935
  170SOL    HW1 1409   0.178   5.462   3.019
  170SOL    HW2 1410   0.185   5.521   2.867
  171SOL     OW 1411   3.575   2.683   1.089
  171SOL    HW1 1412   3.618   2.735   1.163
  171SOL    HW2 1413   3.627   2.598   1.073
  172SOL     OW 1414   1.408   0.689   0.039
  172SOL    HW1 1415   1.456   0.615   0.085
  172SOL    HW2 1416   1.310   0.667   0.033
  173SOL     OW 1417   5.918   0.817   5.129
  173SOL    HW1 1418   5.836   0.843   5.078
  173SOL    HW2 1419   5.985   0.778   5.066
  174SOL     OW 1420   6.778   4.092   4.923
  174SOL    HW1 1421   6.835   4.156   4.976
  174SOL    HW2 1422   6.695   4.139   4.892
  175SOL     OW 1423   0.858   5.422   2.602
  175SOL    HW1 1424   0.912   5.478   2.665
  175SOL    HW2 1425   0.916   5.391   2.527
  176SOL     OW 1426   6.109   4.268   0.768
  176SOL    HW1 1427   6.185   4.257   0.832
  176SOL    HW2 1428   6.053   4.185   0.770
  177SOL     OW 1429   5.890   2.694   3.361
  177SOL    HW1 1430   5.958   2.767   3.373
  177SOL    HW2 1431   5.850   2.701   3.270
  178SOL     OW 1432   1.714   5.094   5.115
  178SOL    HW1 1433   1.647   5.021   5.103
  178SOL    HW2 1434   1.797   5.072   5.062
  179SOL     OW 1435   3.095   4.078   2.045
  179SOL    HW1 1436   3.058   4.156   2.095
  179SOL    HW2 1437   3.077   4.090   1.947
  180SOL     OW 1438   4.465   0.627   6.013
  180SOL    HW1 1439   4.456   0.609   6.110
  180SOL    HW2 1440   4.376   0.654   5.975
  181SOL     OW 1441   3.636   0.136   5.443
  181SOL    HW1 1442   3.600   0.046   5.418
  181SOL    HW2 1443   3.569   0.184   5.499
  182SOL     OW 1444   2.956   3.095   5.788
  182SOL    HW1 1445   2.920   3.185   5.768
  182SOL    HW2 1446   2.883   3.037   5.826
  183SOL     OW 1447   2.335   1.323   3.134
  183SOL    HW1 1448   2.299   1.334   3.042
  183SOL    HW2 1449   2.357   1.227   3.150
  184SOL     OW 1450   5.636   6.614   3.673
  184SOL    HW1 1451   5.582   6.566   3.741
  184SOL    HW2 1452   5.614   6.579   3.582
  185SOL     OW 1453   0.271   5.895   5.893
  185SOL    HW1 1454   0.348   5.893   5.830
  185SOL    HW2 1455   0.236   5.802   5.905
  186SOL     OW 1456   3.339   5.522   6.864
  186SOL    HW1 1457   3.259   5.491   6.812
  186SOL    HW2 1458   3.416   5.535   6.801
  187SOL     OW 1459   3.191   5.099   0.485
  187SOL    HW1 1460   3.100   5.066   0.511
  187SOL    HW2 1461   3.187   5.138   0.393
  188SOL     OW 1462   1.660   3.883   4.518
  188SOL    HW1 1463   1.755   3.854   4.504
  188SOL    HW2 1464   1.659   3.981   4.540
  189SOL     OW 1465   6.170   4.298   5.963
  189SOL    HW1 1466   6.127   4.277   6.051
  189SOL    HW2 1467   6.196   4.213   5.918
  190SOL     OW 1468   5.897   6.552   6.746
  190SOL    HW1 1469   5.950   6.501   6.679
  190SOL    HW2 1470   5.951   6.628   6.782
  191SOL     OW 1471   2.154   3.439   6.191
  191SOL    HW1 1472   2.152   3.538   6.189
  191SOL    HW2 1473   2.140   3.403   6.099
  192SOL     OW 1474   1.064   0.215   1.025
  192SOL    HW1 1475   1.018   0.281   0.967
  192SOL    HW2 1476   1.023   0.124   1.012
  193SOL     OW 1477   3.076   6.433   1.790
  193SOL    HW1 1478   3.093   6.461   1.885
  193SOL    HW2 1479   3.128   6.349   1.771
  194SOL     OW 1480   4.176   6.387   3.190
  194SOL    HW1 1481   4.180   6.288   3.202
  194SOL    HW2 1482   4.199   6.433   3.276
  195SOL     OW 1483   3.108   0.994   1.369
  195SOL    HW1 1484   3.196   1.039   1.385
  195SOL    HW2 1485   3.101   0.913   1.428
  196SOL     OW 1486   4.276   3.186   1.170
  196SOL    HW1 1487   4.180   3.181   1.197
  196SOL    HW2 1488   4.294   3.116   1.100
  197SOL     OW 1489   0.649   6.266   1.298
  197SOL    HW1 1490   0.640   6.202   1.374
  197SOL    HW2 1491   0.609   6.226   1.216
  198SOL     OW 1492   6.249   0.309   5.839
  198SOL    HW1 1493   6.164   0.361   5.838
  198SOL    HW2 1494   6.323   0.367   5.874
  199SOL     OW 1495   1.651   1.121   3.181
  199SOL    HW1 1496   1.593   1.055   3.228
  199SOL    HW2 1497   1.637   1.113   3.082
  200SOL     OW 1498   1.460   3.730   3.484
  200SOL    HW1 1499   1.530   3.726   3.554
  200SOL    HW2 1500   1.464   3.648   3.428
  201SOL     OW 1501   4.871   0.856   0.025
  201SOL    HW1 1502   4.969   0.856   0.048
  201SOL    HW2 1503   4.841   0.950   0.008
  202SOL     OW 1504   4.177   0.872   2.979
  202SOL    HW1 1505   4.207   0.886   3.073
  202SOL    HW2 1506   4.139   0.780   2.968
  203SOL     OW 1507   5.859   2.856   0.490
  203SOL    HW1 1508   5.791   2.787   0.467
  203SOL    HW2 1509   5.886   2.845   0.586
  204SOL     OW 1510   2.539   5.958   0.817
  204SOL    HW1 1511   2.570   5.915   0.902
  204SOL    HW2 1512   2.439   5.958   0.815
  205SOL     OW 1513   5.187   0.335   1.276
  205SOL    HW1 1514   5.091   0.338   1.302
  205SOL    HW2 1515   5.195   0.319   1.178
  206SOL     OW 1516   0.147   6.115   1.629
  206SOL    HW1 1517   0.156   6.131   1.727
  206SOL    HW2 1518   0.085   6.182   1.589
  207SOL     OW 1519   6.548   2.592   5.918
  207SOL    HW1 1520   6.608   2.626   5.845
  207SOL    HW2 1521   6.592   2.517   5.966
  208SOL     OW 1522   4.533   3.628   0.866
  208SOL    HW1 1523   4.470   3.586   0.932
  208SOL    HW2 1524   4.625   3.591   0.880
  209SOL     OW 1525   6.360   0.259   4.359
  209SOL    HW1 1526   6.310   0.188   4.309
  209SOL    HW2 1527   6.442   0.220   4.400
  210SOL     OW 1528   4.669   2.054   0.021
  210SOL    HW1 1529   4.681   2.142   0.068
  210SOL    HW2 1530   4.658   1.981   0.088
  211SOL     OW 1531   0.148   4.106   2.485
  211SOL    HW1 1532   0.197   4.161   2.552
  211SOL    HW2 1533   0.185   4.124   2.394
  212SOL     OW 1534   1.594   5.333   5.102
  212SOL    HW1 1535   1.502   5.298   5.082
  212SOL    HW2 1536   1.659   5.258   5.101
  213SOL     OW 1537   4.670   2.687   1.372
  213SOL    HW1 1538   4.631   2.737   1.295
  213SOL    HW2 1539   4.678   2.590   1.348
  214SOL     OW 1540   0.133   5.887   3.991
  214SOL    HW1 1541   0.045   5.841   4.005
  214SOL    HW2 1542   0.207   5.828   4.023
  215SOL     OW 1543   4.039   3.901   4.010
  215SOL    HW1 1544   4.126   3.931   3.969
  215SOL    HW2 1545   4.017   3.810   3.977
  216SOL     OW 1546   3.659   6.894   5.622
  216SOL    HW1 1547   3.635   6.990   5.636
  216SOL    HW2 1548   3.753   6.878   5.654
  217SOL     OW 1549   6.480   2.102   5.221
  217SOL    HW1 1550   6.530   2.178   5.263
  217SOL    HW2 1551   6.382   2.110   5.241
  218SOL     OW 1552   2.733   4.367   6.072
  218SOL    HW1 1553   2.774   4.448   6.029
  218SOL    HW2 1554   2.662   4.330   6.012
  219SOL     OW 1555   3.324   5.706   6.531
  219SOL    HW1 1556   3.310   5.792   6.581
  219SOL    HW2 1557   3.418   5.703   6.497
  220SOL     OW 1558   1.237   5.001   0.491
  220SOL    HW1 1559   1.180   5.030   0.568
  220SOL    HW2 1560   1.266   5.081   0.439
  221SOL     OW 1561   6.576   3.825   4.917
  221SOL    HW1 1562   6.670   3.834   4.949
  221SOL    HW2 1563   6.567   3.864   4.826
  222SOL     OW 1564   1.805   6.782   3.922
  222SOL    HW1 1565   1.801   6.757   4.018
  222SOL    HW2 1566   1.896   6.816   3.900
  223SOL     OW 1567   5.241   5.340   2.560
  223SOL    HW1 1568   5.251   5.273   2.634
  223SOL    HW2 1569   5.176   5.410   2.588
  224SOL     OW 1570   5.327   4.306   3.162
  224SOL    HW1 1571   5.346   4.334   3.067
  224SOL    HW2 1572   5.236   4.264   3.166
  225SOL     OW 1573   4.694   5.795   2.110
  225SOL    HW1 1574   4.711   5.837   2.021
  225SOL    HW2 1575   4.651   5.705   2.097
  226SOL     OW 1576   1.680   5.708   2.491
  226SOL    HW1 1577   1.765   5.668   2.456
  226SOL    HW2 1578   1.700   5.781   2.555
  227SOL     OW 1579   1.041   4.271   3.458
  227SOL    HW1 1580   1.039   4.344   3.526
  227SOL    HW2 1581   1.136   4.249   3.435
  228SOL     OW 1582   4.159   6.107   3.271
  228SOL    HW1 1583   4.196   6.136   3.359
  228SOL    HW2 1584   4.163   6.008   3.264
  229SOL     OW 1585   5.749   5.985   2.607
  229SOL    HW1 1586   5.751   5.969   2.705
  229SOL    HW2 1587   5.760   5.899   2.558
  230SOL     OW 1588   1.343   4.820   5.872
  230SOL    HW1 1589   1.279   4.753   5.910
  230SOL    HW2 1590   1.384   4.784   5.788
  231SOL     OW 1591   0.573   1.748   6.239
  231SOL    HW1 1592   0.477   1.736   6.213
  231SOL    HW2 1593   0.619   1.803   6.170
  232SOL     OW 1594   1.626   3.269   6.124
  232SOL    HW1 1595   1.570   3.332   6.071
  232SOL    HW2 1596   1.718   3.306   6.135
  233SOL     OW 1597   3.706   0.058   0.112
  233SOL    HW1 1598   3.708   6.995   0.068
  233SOL    HW2 1599   3.779   0.115   0.074
  234SOL     OW 1600   1.702   4.986   0.026
  234SOL    HW1 1601   1.703   5.034   0.113
  234SOL    HW2 1602   1.722   4.889   0.041
  235SOL     OW 1603   3.776   3.072   6.302
  235SOL    HW1 1604   3.797   2.979   6.273
  235SOL    HW2 1605   3.861   3.124   6.314
  236SOL     OW 1606   0.116   0.619   6.508
  236SOL    HW1 1607   0.057   0.662   6.577
  236SOL    HW2 1608   0.063   0.599   6.427
  237SOL     OW 1609   5.986   6.959   2.172
  237SOL    HW1 1610   5.921   0.003   2.199
  237SOL    HW2 1611   6.034   6.988   2.089
  238SOL     OW 1612   0.999   2.197   3.313
  238SOL    HW1 1613   1.077   2.238   3.360
  238SOL    HW2 1614   1.020   2.188   3.215
  239SOL     OW 1615   6.533   4.988   0.228
  239SOL    HW1 1616   6.439   4.973   0.197
  239SOL    HW2 1617   6.567   5.074   0.191
  240SOL     OW 1618   0.280   2.368   4.132
  240SOL    HW1 1619   0.301   2.386   4.036
  240SOL    HW2 1620   0.216   2.437   4.166
  241SOL     OW 1621   6.645   2.313   4.804
  241SOL    HW1 1622   6.602   2.325   4.714
  241SOL    HW2 1623   6.581   2.339   4.876
  242SOL     OW 1624   2.819   2.324   3.472
  242SOL    HW1 1625   2.898   2.266   3.453
  242SOL    HW2 1626   2.764   2.282   3.545
  243SOL     OW 1627   4.775   1.222   6.637
  243SOL    HW1 1628   4.860   1.271   6.658
  243SOL    HW2 1629   4.706   1.287   6.604
  244SOL     OW 1630   1.062   1.145   5.920
  244SOL    HW1 1631   1.146   1.092   5.938
  244SOL    HW2 1632   1.069   1.189   5.831
  245SOL     OW 1633   5.057   2.198   4.053
  245SOL    HW1 1634   5.039   2.177   4.148
  245SOL    HW2 1635   5.125   2.272   4.048
  246SOL     OW 1636   5.876   3.797   4.309
  246SOL    HW1 1637   5.791   3.812   4.359
  246SOL    HW2 1638   5.902   3.880   4.261
  247SOL     OW 1639   1.968   0.705   2.902
  247SOL    HW1 1640   1.922   0.793   2.893
  247SOL    HW2 1641   1.988   0.668   2.811
  248SOL     OW 1642   6.998   2.533   3.277
  248SOL    HW1 1643   0.020   2.467   3.221
  248SOL    HW2 1644   6.913   2.559   3.232
  249SOL     OW 1645   2.321   5.902   5.019
  249SOL    HW1 1646   2.409   5.904   4.972
  249SOL    HW2 1647   2.328   5.846   5.102
  250SOL     OW 1648   5.380   2.511   6.686
  250SOL    HW1 1649   5.346   2.419   6.707
  250SOL    HW2 1650   5.409   2.514   6.590
  251SOL     OW 1651   2.240   0.261   1.430
  251SOL    HW1 1652   2.185   0.202   1.489
  251SOL    HW2 1653   2.274   0.339   1.484
  252SOL     OW 1654   6.943   2.517   6.957
  252SOL    HW1 1655   6.921   2.465   6.875
  252SOL    HW2 1656   6.879   2.593   6.967
  253SOL     OW 1657   2.071   4.877   5.722
  253SOL    HW1 1658   2.161   4.920   5.730
  253SOL    HW2 1659   2.023   4.913   5.642
  254SOL     OW 1660   4.652   3.244   6.245
  254SOL    HW1 1661   4.609   3.243   6.335
  254SOL    HW2 1662   4.697   3.157   6.228
  255SOL     OW 1663   4.304   2.229   2.412
  255SOL    HW1 1664   4.219   2.249   2.364
  255SOL    HW2 1665   4.301   2.268   2.504
  256SOL     OW 1666   0.234   6.401   1.197
  256SOL    HW1 1667   0.249   6.321   1.255
  256SOL    HW2 1668   0.189   6.374   1.113
  257SOL     OW 1669   3.055   5.859   6.379
  257SOL    HW1 1670   3.073   5.766   6.413
  257SOL    HW2 1671   3.071   5.862   6.280
  258SOL     OW 1672   4.858   5.236   4.832
  258SOL    HW1 1673   4.796   5.312   4.813
  258SOL    HW2 1674   4.848   5.166   4.761
  259SOL     OW 1675   0.280   1.812   2.516
  259SOL    HW1 1676   0.193   1.762   2.518
  259SOL    HW2 1677   0.344   1.764   2.456
  260SOL     OW 1678   6.672   6.712   5.679
  260SOL    HW1 1679   6.615   6.657   5.741
  260SOL    HW2 1680   6.765   6.717   5.716
  261SOL     OW 1681   0.790   1.089   4.157
  261SOL    HW1 1682   0.856   1.164   4.167
  261SOL    HW2 1683   0.838   1.006   4.130
  262SOL     OW 1684   1.943   5.360   0.835
  262SOL    HW1 1685   2.038   5.356   0.802
  262SOL    HW2 1686   1.937   5.429   0.908
  263SOL     OW 1687   0.809   4.933   5.084
  263SOL    HW1 1688   0.764   4.999   5.145
  263SOL    HW2 1689   0.815   4.844   5.130
  264SOL     OW 1690   3.695   3.979   1.002
  264SOL    HW1 1691   3.753   3.966   1.083
  264SOL    HW2 1692   3.718   4.066   0.959
  265SOL     OW 1693   4.370   5.724   4.238
  265SOL    HW1 1694   4.348   5.645   4.296
  265SOL    HW2 1695   4.362   5.808   4.291
  266SOL     OW 1696   4.505   3.452   0.024
  266SOL    HW1 1697   4.456   3.404   6.979
  266SOL    HW2 1698   4.440   3.491   0.089
  267SOL     OW 1699   2.522   2.079   6.291
  267SOL    HW1 1700   2.614   2.047   6.317
  267SOL    HW2 1701   2.530   2.156   6.228
  268SOL     OW 1702   1.473   3.809   3.201
  268SOL    HW1 1703   1.396   3.862   3.166
  268SOL    HW2 1704   1.472   3.809   3.301
  269SOL     OW 1705   2.833   1.448   6.159
  269SOL    HW1 1706   2.821   1.541   6.126
  269SOL    HW2 1707   2.767   1.388   6.114
  270SOL     OW 1708   5.813   5.230   5.004
  270SOL    HW1 1709   5.717   5.210   5.025
  270SOL    HW2 1710   5.833   5.200   4.911
  271SOL     OW 1711   2.424   1.319   6.817
  271SOL    HW1 1712   2.493   1.291   6.885
  271SOL    HW2 1713   2.467   1.377   6.748
  272SOL     OW 1714   5.539   4.912   6.721
  272SOL    HW1 1715   5.507   4.904   6.627
  272SOL    HW2 1716   5.638   4.899   6.725
  273SOL     OW 1717   0.643   6.297   3.972
  273SOL    HW1 1718   0.645   6.335   4.065
  273SOL    HW2 1719   0.604   6.205   3.975
  274SOL     OW 1720   5.298   2.982   2.291
  274SOL    HW1 1721   5.363   3.009   2.362
  274SOL    HW2 1722   5.264   3.064   2.245
  275SOL     OW 1723   5.810   5.151   5.558
  275SOL    HW1 1724   5.773   5.080   5.499
  275SOL    HW2 1725   5.910   5.153   5.550
  276SOL     OW 1726   1.216   7.003   4.496
  276SOL    HW1 1727   1.164   6.990   4.411
  276SOL    HW2 1728   1.214   0.073   4.521
  277SOL     OW 1729   4.325   3.500   5.695
  277SOL    HW1 1730   4.397   3.531   5.633
  277SOL    HW2 1731   4.337   3.545   5.784
  278SOL     OW 1732   5.851   4.778   2.137
  278SOL    HW1 1733   5.931   4.777   2.197
  278SOL    HW2 1734   5.804   4.690   2.143
  279SOL     OW 1735   0.382   3.456   4.609
  279SOL    HW1 1736   0.473   3.460   4.569
  279SOL    HW2 1737   0.362   3.362   4.638
  280SOL     OW 1738   4.627   1.450   2.755
  280SOL    HW1 1739   4.629   1.400   2.669
  280SOL    HW2 1740   4.584   1.393   2.826
  281SOL     OW 1741   5.158   5.338   5.406
  281SOL    HW1 1742   5.164   5.359   5.308
  281SOL    HW2 1743   5.250   5.324   5.443
  282SOL     OW 1744   0.229   2.248   0.222
  282SOL    HW1 1745   0.233   2.287   0.130
  282SOL    HW2 1746   0.146   2.193   0.231
  283SOL     OW 1747   5.816   3.877   2.570
  283SOL    HW1 1748   5.863   3.822   2.500
  283SOL    HW2 1749   5.882   3.906   2.639
  284SOL     OW 1750   5.564   6.856   3.248
  284SOL    HW1 1751   5.621   6.835   3.169
  284SOL    HW2 1752   5.472   6.880   3.217
  285SOL     OW 1753   4.534   6.217   6.552
  285SOL    HW1 1754   4.558   6.251   6.642
  285SOL    HW2 1755   4.551   6.288   6.483
  286SOL     OW 1756   3.516   5.285   5.253
  286SOL    HW1 1757   3.497   5.357   5.187
  286SOL    HW2 1758   3.606   5.300   5.295
  287SOL     OW 1759   3.778   6.298   0.887
  287SOL    HW1 1760   3.689   6.255   0.874
  287SOL    HW2 1761   3.849   6.228   0.893
  288SOL     OW 1762   3.918   0.837   0.322
  288SOL    HW1 1763   3.859   0.770   0.276
  288SOL    HW2 1764   3.868   0.879   0.397
  289SOL     OW 1765   5.294   4.893   5.196
  289SOL    HW1 1766   5.276   4.839   5.278
  289SOL    HW2 1767   5.360   4.965   5.217
  290SOL     OW 1768   3.077   0.716   5.077
  290SOL    HW1 1769   3.146   0.723   5.006
  290SOL    HW2 1770   3.016   0.639   5.057
  291SOL     OW 1771   5.773   1.466   4.839
  291SOL    HW1 1772   5.795   1.480   4.935
  291SOL    HW2 1773   5.836   1.400   4.799
  292SOL     OW 1774   2.128   0.728   3.884
  292SOL    HW1 1775   2.180   0.722   3.799
  292SOL    HW2 1776   2.030   0.722   3.864
  293SOL     OW 1777   5.542   1.331   3.280
  293SOL    HW1 1778   5.446   1.353   3.298
  293SOL    HW2 1779   5.548   1.261   3.209
  294SOL     OW 1780   6.487   1.243   6.960
  294SOL    HW1 1781   6.539   1.316   6.915
  294SOL    HW2 1782   6.441   1.280   0.013
  295SOL     OW 1783   0.199   0.596   4.812
  295SOL    HW1 1784   0.205   0.588   4.912
  295SOL    HW2 1785   0.192   0.692   4.787
  296SOL     OW 1786   6.676   1.774   6.878
  296SOL    HW1 1787   6.752   1.810   6.823
  296SOL    HW2 1788   6.682   1.810   6.971
  297SOL     OW 1789   4.885   3.606   3.426
  297SOL    HW1 1790   4.889   3.516   3.383
  297SOL    HW2 1791   4.836   3.599   3.514
  298SOL     OW 1792   4.043   6.973   5.349
  298SOL    HW1 1793   3.975   6.920   5.298
  298SOL    HW2 1794   4.040   0.041   5.318
  299SOL     OW 1795   0.397   1.081   6.238
  299SOL    HW1 1796   0.372   1.178   6.246
  299SOL    HW2 1797   0.446   1.066   6.152
  300SOL     OW 1798   4.307   6.390   4.746
  300SOL    HW1 1799   4.248   6.445   4.687
  300SOL    HW2 1800   4.254   6.318   4.789
  301SOL     OW 1801   6.815   6.538   5.254
  301SOL    HW1 1802   6.749   6.596   5.300
  301SOL    HW2 1803   6.905   6.583   5.254
  302SOL     OW 1804   0.270   0.008   1.609
  302SOL    HW1 1805   0.255   0.093   1.660
  302SOL    HW2 1806   0.202   6.966   1.638
  303SOL     OW 1807   4.844   5.460   2.761
  303SOL    HW1 1808   4.800   5.534   2.811
  303SOL    HW2 1809   4.911   5.415   2.820
  304SOL     OW 1810   0.936   1.319   4.188
  304SOL    HW1 1811   1.003   1.379   4.143
  304SOL    HW2 1812   0.973   1.286   4.274
  305SOL     OW 1813   2.448   1.840   1.172
  305SOL    HW1 1814   2.436   1.812   1.077
  305SOL    HW2 1815   2.538   1.883   1.183
  306SOL     OW 1816   0.296   6.790   2.730
  306SOL    HW1 1817   0.389   6.822   2.751
  306SOL    HW2 1818   0.275   6.810   2.635
  307SOL     OW 1819   3.928   3.868   4.685
  307SOL    HW1 1820   3.983   3.853   4.767
  307SOL    HW2 1821   3.984   3.851   4.603
  308SOL     OW 1822   6.157   2.765   1.469
  308SOL    HW1 1823   6.203   2.678   1.457
  308SOL    HW2 1824   6.196   2.813   1.548
  309SOL     OW 1825   1.923   4.952   0.286
  309SOL    HW1 1826   1.896   5.040   0.248
  309SOL    HW2 1827   1.894   4.947   0.382
  310SOL     OW 1828   4.944   6.298   5.135
  310SOL    HW1 1829   4.978   6.218   5.084
  310SOL    HW2 1830   5.020   6.360   5.153
  311SOL     OW 1831   1.845   6.018   2.129
  311SOL    HW1 1832   1.841   6.092   2.196
  311SOL    HW2 1833   1.940   6.001   2.104
  312SOL     OW 1834   3.314   0.879   4.289
  312SOL    HW1 1835   3.354   0.874   4.197
  312SOL    HW2 1836   3.379   0.922   4.351
  313SOL     OW 1837   3.368   3.384   3.401
  313SOL    HW1 1838   3.351   3.380   3.302
  313SOL    HW2 1839   3.312   3.456   3.441
  314SOL     OW 1840   2.433   4.391   6.191
  314SOL    HW1 1841   2.342   4.432   6.202
  314SOL    HW2 1842   2.433   4.298   6.229
  315SOL     OW 1843   6.183   6.852   4.978
  315SOL    HW1 1844   6.263   6.808   4.937
  315SOL    HW2 1845   6.213   6.911   5.053
  316SOL     OW 1846   4.135   1.178   5.106
  316SOL    HW1 1847   4.074   1.229   5.045
  316SOL    HW2 1848   4.226   1.172   5.064
  317SOL     OW 1849   0.810   1.801   1.741
  317SOL    HW1 1850   0.820   1.900   1.755
  317SOL    HW2 1851   0.817   1.754   1.829
  318SOL     OW 1852   0.968   1.171   3.735
  318SOL    HW1 1853   0.964   1.212   3.826
  318SOL    HW2 1854   0.906   1.220   3.674
  319SOL     OW 1855   0.404   2.026   2.279
  319SOL    HW1 1856   0.457   2.090   2.334
  319SOL    HW2 1857   0.416   1.933   2.315
  320SOL     OW 1858   5.146   0.859   0.098
  320SOL    HW1 1859   5.199   0.928   0.147
  320SOL    HW2 1860   5.149   0.772   0.148
  321SOL     OW 1861   3.980   3.230   1.214
  321SOL    HW1 1862   3.881   3.244   1.208
  321SOL    HW2 1863   4.004   3.208   1.309
  322SOL     OW 1864   2.753   1.764   6.875
  322SOL    HW1 1865   2.681   1.706   6.836
  322SOL    HW2 1866   2.836   1.709   6.887
  323SOL     OW 1867   0.917   4.315   2.515
  323SOL    HW1 1868   0.932   4.217   2.525
  323SOL    HW2 1869   1.005   4.362   2.509
  324SOL     OW 1870   5.910   0.092   3.656
  324SOL    HW1 1871   5.991   0.129   3.702
  324SOL    HW2 1872   5.939   0.028   3.585
  325SOL     OW 1873   6.164   3.119   0.704
  325SOL    HW1 1874   6.138   3.214   0.687
  325SOL    HW2 1875   6.249   3.097   0.657
  326SOL     OW 1876   5.987   6.006   6.468
  326SOL    HW1 1877   5.978   5.910   6.496
  326SOL    HW2 1878   6.074   6.020   6.422
  327SOL     OW 1879   4.563   6.389   6.338
  327SOL    HW1 1880   4.517   6.339   6.266
  327SOL    HW2 1881   4.642   6.437   6.301
  328SOL     OW 1882   2.178   4.378   3.941
  328SOL    HW1 1883   2.192   4.447   4.012
  328SOL    HW2 1884   2.267   4.353   3.901
  329SOL     OW 1885   2.889   3.612   2.612
  329SOL    HW1 1886   2.954   3.684   2.635
  329SOL    HW2 1887   2.859   3.623   2.517
  330SOL     OW 1888   2.484   3.977   6.616
  330SOL    HW1 1889   2.491   3.932   6.705
  330SOL    HW2 1890   2.471   3.908   6.545
  331SOL     OW 1891   4.887   5.526   3.964
  331SOL    HW1 1892   4.825   5.564   3.895
  331SOL    HW2 1893   4.873   5.573   4.051
  332SOL     OW 1894   6.251   2.133   2.925
  332SOL    HW1 1895   6.298   2.127   2.837
  332SOL    HW2 1896   6.261   2.225   2.962
  333SOL     OW 1897   3.374   6.627   3.488
  333SOL    HW1 1898   3.400   6.535   3.459
  333SOL    HW2 1899   3.359   6.629   3.587
  334SOL     OW 1900   4.046   3.482   4.173
  334SOL    HW1 1901   3.991   3.474   4.090
  334SOL    HW2 1902   4.045   3.394   4.222
  335SOL     OW 1903   4.610   1.536   0.746
  335SOL    HW1 1904   4.568   1.625   0.731
  335SOL    HW2 1905   4.599   1.480   0.664
  336SOL     OW 1906   4.022   2.243   4.358
  336SOL    HW1 1907   4.069   2.154   4.350
  336SOL    HW2 1908   4.031   2.277   4.451
  337SOL     OW 1909   0.679   1.658   5.325
  337SOL    HW1 1910   0.595   1.640   5.274
  337SOL    HW2 1911   0.662   1.645   5.423
  338SOL     OW 1912   5.279   1.321   1.741
  338SOL    HW1 1913   5.375   1.295   1.740
  338SOL    HW2 1914   5.256   1.367   1.656
  339SOL     OW 1915   3.324   4.901   5.621
  339SOL    HW1 1916   3.245   4.880   5.564
  339SOL    HW2 1917   3.296   4.907   5.717
  340SOL     OW 1918   5.217   3.681   4.730
  340SOL    HW1 1919   5.126   3.640   4.724
  340SOL    HW2 1920   5.287   3.609   4.725
  341SOL     OW 1921   6.349   0.820   1.540
  341SOL    HW1 1922   6.370   0.768   1.457
  341SOL    HW2 1923   6.426   0.811   1.604
  342SOL     OW 1924   4.933   0.969   2.249
  342SOL    HW1 1925   4.864   0.933   2.186
  342SOL    HW2 1926   5.024   0.953   2.211
  343SOL     OW 1927   5.918   0.629   1.672
  343SOL    HW1 1928   6.018   0.640   1.672
  343SOL    HW2 1929   5.883   0.646   1.580
  344SOL     OW 1930   6.787   2.773   1.503
  344SOL    HW1 1931   6.817   2.828   1.425
  344SOL    HW2 1932   6.695   2.799   1.530
  345SOL     OW 1933   7.001   2.908   3.973
  345SOL    HW1 1934   0.019   2.984   3.925
  345SOL    HW2 1935   6.902   2.911   3.955
  346SOL     OW 1936   0.924   6.557   2.499
  346SOL    HW1 1937   0.884   6.547   2.590
  346SOL    HW2 1938   0.963   6.649   2.489
  347SOL     OW 1939   1.751   4.335   1.512
  347SOL    HW1 1940   1.796   4.266   1.568
  347SOL    HW2 1941   1.718   4.409   1.570
  348SOL     OW 1942   5.491   4.618   1.160
  348SOL    HW1 1943   5.455   4.621   1.253
  348SOL    HW2 1944   5.519   4.524   1.139
  349SOL     OW 1945   6.149   5.342   0.246
  349SOL    HW1 1946   6.062   5.390   0.257
  349SOL    HW2 1947   6.150   5.294   0.158
  350SOL     OW 1948   2.473   0.631   1.135
  350SOL    HW1 1949   2.465   0.596   1.042
  350SOL    HW2 1950   2.392   0.606   1.187
  351SOL     OW 1951   3.530   4.164   1.181
  351SOL    HW1 1952   3.529   4.145   1.083
  351SOL    HW2 1953   3.509   4.081   1.232
  352SOL     OW 1954   4.004   0.554   2.145
  352SOL    HW1 1955   3.957   0.472   2.111
  352SOL    HW2 1956   3.981   0.569   2.241
  353SOL     OW 1957   2.513   6.206   0.505
  353SOL    HW1 1958   2.600   6.244   0.538
  353SOL    HW2 1959   2.470   6.271   0.443
  354SOL     OW 1960   2.327   2.022   0.520
  354SOL    HW1 1961   2.284   2.050   0.434
  354SOL    HW2 1962   2.354   2.103   0.572
  355SOL     OW 1963   0.215   2.869   2.898
  355SOL    HW1 1964   0.305   2.878   2.941
  355SOL    HW2 1965   0.224   2.885   2.800
  356SOL     OW 1966   2.828   0.341   6.011
  356SOL    HW1 1967   2.843   0.326   5.913
  356SOL    HW2 1968   2.916   0.343   6.059
  357SOL     OW 1969   6.141   5.609   4.330
  357SOL    HW1 1970   6.088   5.580   4.410
  357SOL    HW2 1971   6.083   5.603   4.249
  358SOL     OW 1972   3.309   6.175   0.212
  358SOL    HW1 1973   3.238   6.139   0.151
  358SOL    HW2 1974   3.277   6.259   0.255
  359SOL     OW 1975   1.711   2.872   1.139
  359SOL    HW1 1976   1.752   2.822   1.062
  359SOL    HW2 1977   1.680   2.962   1.107
  360SOL     OW 1978   2.268   4.154   3.223
  360SOL    HW1 1979   2.367   4.153   3.216
  360SOL    HW2 1980   2.240   4.215   3.297
  361SOL     OW 1981   6.686   3.115   2.265
  361SOL    HW1 1982   6.656   3.086   2.356
  361SOL    HW2 1983   6.727   3.205   2.271
  362SOL     OW 1984   4.064   3.268   2.925
  362SOL    HW1 1985   4.044   3.208   2.847
  362SOL    HW2 1986   4.108   3.351   2.892
  363SOL     OW 1987   4.965   4.861   0.697
  363SOL    HW1 1988   5.053   4.896   0.728
  363SOL    HW2 1989   4.950   4.890   0.602
  364SOL     OW 1990   0.885   0.457   0.131
  364SOL    HW1 1991   0.941   0.473   0.050
  364SOL    HW2 1992   0.788   0.467   0.108
  365SOL     OW 1993   4.988   0.114   4.159
  365SOL    HW1 1994   4.991   0.182   4.232
  365SOL    HW2 1995   5.075   0.114   4.110
  366SOL     OW 1996   5.325   2.139   0.689
  366SOL    HW1 1997   5.352   2.213   0.627
  366SOL    HW2 1998   5.329   2.052   0.640
  367SOL     OW 1999   5.904   0.549   6.964
  367SOL    HW1 2000   5.913   0.490   6.884
  367SOL    HW2 2001   5.908   0.494   0.020
  368SOL     OW 2002   3.171   1.415   5.624
  368SOL    HW1 2003   3.216   1.479   5.686
  368SOL    HW2 2004   3.194   1.437   5.530
  369SOL     OW 2005   4.968   4.087   0.220
  369SOL    HW1 2006   4.967   4.017   0.149
  369SOL    HW2 2007   5.018   4.168   0.187
  370SOL     OW 2008   2.169   2.597   3.840
  370SOL    HW1 2009   2.244   2.562   3.783
  370SOL    HW2 2010   2.197   2.596   3.936
  371SOL     OW 2011   2.404   4.900   0.516
  371SOL    HW1 2012   2.332   4.968   0.530
  371SOL    HW2 2013   2.398   4.830   0.588
  372SOL     OW 2014   2.753   6.149   5.847
  372SOL    HW1 2015   2.706   6.235   5.865
  372SOL    HW2 2016   2.851   6.165   5.841
  373SOL     OW 2017   5.013   4.827   2.800
  373SOL    HW1 2018   5.044   4.771   2.723
  373SOL    HW2 2019   4.938   4.780   2.847
  374SOL     OW 2020   2.535   2.432   2.056
  374SOL    HW1 2021   2.532   2.513   1.997
  374SOL    HW2 2022   2.626   2.390   2.050
  375SOL     OW 2023   6.699   5.751   3.911
  375SOL    HW1 2024   6.667   5.708   3.827
  375SOL    HW2 2025   6.658   5.842   3.920
  376SOL     OW 2026   4.446   0.460   3.484
  376SOL    HW1 2027   4.412   0.540   3.534
  376SOL    HW2 2028   4.538   0.478   3.451
  377SOL     OW 2029   3.037   3.006   6.184
  377SOL    HW1 2030   3.048   3.058   6.099
  377SOL    HW2 2031   3.127   2.988   6.224
  378SOL     OW 2032   3.989   1.014   1.607
  378SOL    HW1 2033   4.067   0.971   1.562
  378SOL    HW2 2034   4.010   1.110   1.625
  379SOL     OW 2035   3.702   3.176   7.024
  379SOL    HW1 2036   3.651   3.186   0.082
  379SOL    HW2 2037   3.647   3.126   6.958
  380SOL     OW 2038   5.066   1.777   0.484
  380SOL    HW1 2039   5.049   1.869   0.450
  380SOL    HW2 2040   4.991   1.748   0.543
  381SOL     OW 2041   1.254   3.578   2.360
  381SOL    HW1 2042   1.160   3.569   2.393
  381SOL    HW2 2043   1.267   3.519   2.280
  382SOL     OW 2044   6.728   0.156   0.387
  382SOL    HW1 2045   6.657   0.196   0.329
  382SOL    HW2 2046   6.771   0.228   0.442
  383SOL     OW 2047   5.052   3.078   0.445
  383SOL    HW1 2048   5.068   3.161   0.391
  383SOL    HW2 2049   5.027   3.103   0.538
  384SOL     OW 2050   0.851   2.544   5.125
  384SOL    HW1 2051   0.948   2.565   5.125
  384SOL    HW2 2052   0.824   2.512   5.034
  385SOL     OW 2053   4.919   2.864   6.290
  385SOL    HW1 2054   4.916   2.880   6.388
  385SOL    HW2 2055   4.888   2.946   6.241
  386SOL     OW 2056   3.258   6.396   5.361
  386SOL    HW1 2057   3.242   6.489   5.395
  386SOL    HW2 2058   3.288   6.400   5.266
  387SOL     OW 2059   2.513   6.313   3.896
  387SOL    HW1 2060   2.465   6.256   3.828
  387SOL    HW2 2061   2.582   6.369   3.850
  388SOL     OW 2062   1.754   5.634   5.676
  388SOL    HW1 2063   1.677   5.625   5.613
  388SOL    HW2 2064   1.813   5.555   5.668
  389SOL     OW 2065   2.582   2.123   0.154
  389SOL    HW1 2066   2.523   2.165   0.224
  389SOL    HW2 2067   2.583   2.024   0.168
  390SOL     OW 2068   2.971   1.699   3.847
  390SOL    HW1 2069   3.004   1.657   3.931
  390SOL    HW2 2070   2.896   1.762   3.869
  391SOL     OW 2071   0.472   2.065   0.543
  391SOL    HW1 2072   0.442   1.988   0.600
  391SOL    HW2 2073   0.441   2.151   0.583
  392SOL     OW 2074   3.786   5.229   4.481
  392SOL    HW1 2075   3.699   5.192   4.451
  392SOL    HW2 2076   3.848   5.155   4.505
  393SOL     OW 2077   5.962   3.525   5.398
  393SOL    HW1 2078   5.880   3.475   5.370
  393SOL    HW2 2079   5.935   3.617   5.427
  394SOL     OW 2080   1.983   1.101   6.397
  394SOL    HW1 2081   1.917   1.094   6.472
  394SOL    HW2 2082   1.960   1.179   6.339
  395SOL     OW 2083   0.086   3.076   1.569
  395SOL    HW1 2084   0.086   3.141   1.645
  395SOL    HW2 2085   7.020   3.045   1.551
  396SOL     OW 2086   3.517   2.636   5.359
  396SOL    HW1 2087   3.438   2.586   5.324
  396SOL    HW2 2088   3.598   2.577   5.357
  397SOL     OW 2089   4.437   0.170   6.123
  397SOL    HW1 2090   4.341   0.149   6.105
  397SOL    HW2 2091   4.445   0.265   6.152
  398SOL     OW 2092   6.457   4.455   2.506
  398SOL    HW1 2093   6.537   4.515   2.508
  398SOL    HW2 2094   6.413   4.454   2.596
  399SOL     OW 2095   3.949   5.240   1.907
  399SOL    HW1 2096   3.988   5.170   1.847
  399SOL    HW2 2097   3.913   5.196   1.990
  400SOL     OW 2098   2.568   4.868   5.507
  400SOL    HW1 2099   2.471   4.890   5.502
  400SOL    HW2 2100   2.622   4.952   5.497
  401SOL     OW 2101   6.327   1.571   1.651
  401SOL    HW1 2102   6.335   1.653   1.707
  401SOL    HW2 2103   6.374   1.495   1.694
  402SOL     OW 2104   0.578   5.562   0.999
  402SOL    HW1 2105   0.513   5.544   0.925
  402SOL    HW2 2106   0.615   5.655   0.989
  403SOL     OW 2107   4.739   4.243   0.708
  403SOL    HW1 2108   4.672   4.317   0.704
  403SOL    HW2 2109   4.780   4.240   0.799
  404SOL     OW 2110   0.276   5.699   4.923
  404SOL    HW1 2111   0.323   5.772   4.873
  404SOL    HW2 2112   0.179   5.722   4.931
  405SOL     OW 2113   1.413   1.722   1.361
  405SOL    HW1 2114   1.461   1.639   1.389
  405SOL    HW2 2115   1.326   1.729   1.411
  406SOL     OW 2116   0.834   3.117   3.645
  406SOL    HW1 2117   0.894   3.192   3.619
  406SOL    HW2 2118   0.889   3.041   3.679
  407SOL     OW 2119   3.542   2.098   3.646
  407SOL    HW1 2120   3.442   2.092   3.641
  407SOL    HW2 2121   3.577   2.131   3.558
  408SOL     OW 2122   2.653   0.324   3.989
  408SOL    HW1 2123   2.565   0.302   3.948
  408SOL    HW2 2124   2.715   0.359   3.919
  409SOL     OW 2125   0.054   4.360   4.235
  409SOL    HW1 2126   0.072   4.451   4.271
  409SOL    HW2 2127   6.983   4.341   4.240
  410SOL     OW 2128   2.770   6.815   6.109
  410SOL    HW1 2129   2.788   6.717   6.102
  410SOL    HW2 2130   2.753   6.839   6.205
  411SOL     OW 2131   0.411   4.270   5.571
  411SOL    HW1 2132   0.495   4.299   5.617
  411SOL    HW2 2133   0.434   4.223   5.485
  412SOL     OW 2134   3.484   6.262   2.360
  412SOL    HW1 2135   3.554   6.324   2.395
  412SOL    HW2 2136   3.498   6.171   2.399
  413SOL     OW 2137   1.935   0.572   2.192
  413SOL    HW1 2138   1.924   0.671   2.179
  413SOL    HW2 2139   1.918   0.525   2.105
  414SOL     OW 2140   5.256   4.642   0.904
  414SOL    HW1 2141   5.241   4.544   0.922
  414SOL    HW2 2142   5.351   4.665   0.925
  415SOL     OW 2143   3.872   0.390   2.800
  415SOL    HW1 2144   3.870   0.341   2.713
  415SOL    HW2 2145   3.779   0.396   2.837
  416SOL     OW 2146   3.834   5.911   7.005
  416SOL    HW1 2147   3.757   5.889   0.038
  416SOL    HW2 2148   3.889   5.984   0.020
  417SOL     OW 2149   5.492   5.490   1.190
  417SOL    HW1 2150   5.435   5.504   1.271
  417SOL    HW2 2151   5.440   5.515   1.108
  418SOL     OW 2152   6.791   4.994   6.907
  418SOL    HW1 2153   6.821   4.905   6.871
  418SOL    HW2 2154   6.871   5.046   6.936
  419SOL     OW 2155   5.131   5.491   6.971
  419SOL    HW1 2156   5.169   5.496   0.037
  419SOL    HW2 2157   5.033   5.511   6.974
  420SOL     OW 2158   5.262   3.527   6.583
  420SOL    HW1 2159   5.278   3.585   6.663
  420SOL    HW2 2160   5.167   3.534   6.555
  421SOL     OW 2161   1.767   6.348   6.596
  421SOL    HW1 2162   1.737   6.262   6.636
  421SOL    HW2 2163   1.867   6.350   6.592
  422SOL     OW 2164   6.244   3.737   6.520
  422SOL    HW1 2165   6.173   3.779   6.576
  422SOL    HW2 2166   6.208   3.716   6.429
  423SOL     OW 2167   1.134   3.686   6.472
  423SOL    HW1 2168   1.120   3.591   6.443
  423SOL    HW2 2169   1.048   3.736   6.465
  424SOL     OW 2170   1.999   4.473   6.305
  424SOL    HW1 2171   2.014   4.518   6.393
  424SOL    HW2 2172   2.079   4.486   6.246
  425SOL     OW 2173   3.339   0.402   0.594
  425SOL    HW1 2174   3.275   0.425   0.667
  425SOL    HW2 2175   3.401   0.330   0.625
  426SOL     OW 2176   0.615   3.443   7.000
  426SOL    HW1 2177   0.679   3.433   0.049
  426SOL    HW2 2178   0.524   3.463   0.008
  427SOL     OW 2179   3.661   3.478   6.986
  427SOL    HW1 2180   3.680   3.390   0.003
  427SOL    HW2 2181   3.701   3.479   6.895
  428SOL     OW 2182   4.092   1.608   4.817
  428SOL    HW1 2183   4.172   1.613   4.875
  428SOL    HW2 2184   4.014   1.651   4.863
  429SOL     OW 2185   3.523   6.633   0.198
  429SOL    HW1 2186   3.612   6.620   0.243
  429SOL    HW2 2187   3.520   6.725   0.158
  430SOL     OW 2188   2.827   0.673   4.679
  430SOL    HW1 2189   2.921   0.645   4.695
  430SOL    HW2 2190   2.820   0.720   4.591
  431SOL     OW 2191   3.802   1.234   0.151
  431SOL    HW1 2192   3.760   1.159   0.202
  431SOL    HW2 2193   3.773   1.230   0.055
  432SOL     OW 2194   6.597   1.682   0.829
  432SOL    HW1 2195   6.565   1.609   0.889
  432SOL    HW2 2196   6.540   1.763   0.841
  433SOL     OW 2197   3.334   6.404   5.064
  433SOL    HW1 2198   3.402   6.461   5.018
  433SOL    HW2 2199   3.245   6.451   5.063
  434SOL     OW 2200   6.202   3.486   0.842
  434SOL    HW1 2201   6.136   3.482   0.767
  434SOL    HW2 2202   6.163   3.443   0.923
  435SOL     OW 2203   3.790   3.490   0.932
  435SOL    HW1 2204   3.881   3.475   0.895
  435SOL    HW2 2205   3.741   3.402   0.938
  436SOL     OW 2206   3.200   0.953   0.738
  436SOL    HW1 2207   3.293   0.921   0.721
  436SOL    HW2 2208   3.184   1.037   0.688
  437SOL     OW 2209   6.882   6.557   6.123
  437SOL    HW1 2210   6.820   6.570   6.201
  437SOL    HW2 2211   6.904   6.460   6.115
  438SOL     OW 2212   1.292   3.151   0.967
  438SOL    HW1 2213   1.220   3.084   0.947
  438SOL    HW2 2214   1.265   3.241   0.932
  439SOL     OW 2215   6.401   5.202   1.790
  439SOL    HW1 2216   6.456   5.215   1.707
  439SOL    HW2 2217   6.311   5.167   1.765
  440SOL     OW 2218   1.624   2.962   2.733
  440SOL    HW1 2219   1.640   3.017   2.650
  440SOL    HW2 2220   1.649   2.867   2.715
  441SOL     OW 2221   0.244   1.479   3.197
  441SOL    HW1 2222   0.161   1.533   3.185
  441SOL    HW2 2223   0.311   1.505   3.127
  442SOL     OW 2224   1.080   5.251   6.324
  442SOL    HW1 2225   1.097   5.342   6.285
  442SOL    HW2 2226   1.107   5.250   6.420
  443SOL     OW 2227   0.880   4.899   5.755
  443SOL    HW1 2228   0.888   4.875   5.851
  443SOL    HW2 2229   0.966   4.939   5.723
  444SOL     OW 2230   5.328   2.985   6.541
  444SOL    HW1 2231   5.396   2.984   6.467
  444SOL    HW2 2232   5.312   3.079   6.571
  445SOL     OW 2233   1.004   3.786   3.406
  445SOL    HW1 2234   0.949   3.797   3.489
  445SOL    HW2 2235   0.992   3.693   3.370
  446SOL     OW 2236   1.991   5.001   3.971
  446SOL    HW1 2237   1.920   5.065   4.001
  446SOL    HW2 2238   2.063   5.051   3.923
  447SOL     OW 2239   0.258   5.987   0.679
  447SOL    HW1 2240   0.250   5.890   0.659
  447SOL    HW2 2241   0.354   6.011   0.692
  448SOL     OW 2242   4.236   0.187   5.872
  448SOL    HW1 2243   4.139   0.207   5.885
  448SOL    HW2 2244   4.268   0.228   5.787
  449SOL     OW 2245   5.353   0.431   4.751
  449SOL    HW1 2246   5.288   0.409   4.824
  449SOL    HW2 2247   5.446   0.424   4.787
  450SOL     OW 2248   6.824   6.134   2.374
  450SOL    HW1 2249   6.750   6.197   2.394
  450SOL    HW2 2250   6.858   6.150   2.281
  451SOL     OW 2251   6.169   3.459   3.685
  451SOL    HW1 2252   6.258   3.476   3.727
  451SOL    HW2 2253   6.172   3.487   3.589
  452SOL     OW 2254   6.618   5.450   5.713
  452SOL    HW1 2255   6.594   5.409   5.801
  452SOL    HW2 2256   6.580   5.395   5.638
  453SOL     OW 2257   3.359   1.795   6.191
  453SOL    HW1 2258   3.354   1.862   6.265
  453SOL    HW2 2259   3.441   1.739   6.200
  454SOL     OW 2260   0.522   6.048   0.717
  454SOL    HW1 2261   0.599   5.987   0.699
  454SOL    HW2 2262   0.523   6.124   0.652
  455SOL     OW 2263   5.631   1.097   5.209
  455SOL    HW1 2264   5.705   1.101   5.143
  455SOL    HW2 2265   5.564   1.169   5.189
  456SOL     OW 2266   3.868   5.041   0.120
  456SOL    HW1 2267   3.894   4.946   0.138
  456SOL    HW2 2268   3.803   5.044   0.044
  457SOL     OW 2269   0.356   4.729   1.730
  457SOL    HW1 2270   0.346   4.708   1.633
  457SOL    HW2 2271   0.313   4.656   1.784
  458SOL     OW 2272   0.754   5.877   5.563
  458SOL    HW1 2273   0.669   5.857   5.611
  458SOL    HW2 2274   0.768   5.976   5.559
  459SOL     OW 2275   1.422   0.416   3.539
  459SOL    HW1 2276   1.364   0.469   3.601
  459SOL    HW2 2277   1.381   0.415   3.447
  460SOL     OW 2278   6.552   1.990   3.485
  460SOL    HW1 2279   6.629   2.053   3.496
  460SOL    HW2 2280   6.485   2.029   3.423
  461SOL     OW 2281   5.635   4.942   5.849
  461SOL    HW1 2282   5.611   5.036   5.826
  461SOL    HW2 2283   5.733   4.929   5.840
  462SOL     OW 2284   3.012   1.904   0.171
  462SOL    HW1 2285   2.979   1.942   0.085
  462SOL    HW2 2286   3.111   1.919   0.178
  463SOL     OW 2287   6.187   6.186   2.324
  463SOL    HW1 2288   6.173   6.087   2.324
  463SOL    HW2 2289   6.265   6.208   2.265
  464SOL     OW 2290   2.259   1.181   5.670
  464SOL    HW1 2291   2.203   1.256   5.635
  464SOL    HW2 2292   2.234   1.163   5.765
  465SOL     OW 2293   0.290   3.404   6.351
  465SOL    HW1 2294   0.350   3.325   6.335
  465SOL    HW2 2295   0.239   3.424   6.267
  466SOL     OW 2296   2.004   0.505   3.068
  466SOL    HW1 2297   2.000   0.575   2.997
  466SOL    HW2 2298   1.939   0.527   3.141
  467SOL     OW 2299   1.592   1.847   5.467
  467SOL    HW1 2300   1.681   1.806   5.446
  467SOL    HW2 2301   1.519   1.786   5.437
  468SOL     OW 2302   2.898   3.667   3.032
  468SOL    HW1 2303   2.929   3.576   3.002
  468SOL    HW2 2304   2.884   3.666   3.131
  469SOL     OW 2305   3.654   6.558   6.750
  469SOL    HW1 2306   3.664   6.653   6.778
  469SOL    HW2 2307   3.740   6.510   6.765
  470SOL     OW 2308   4.519   6.993   3.400
  470SOL    HW1 2309   4.493   0.052   3.355
  470SOL    HW2 2310   4.442   6.962   3.457
  471SOL     OW 2311   2.795   2.280   4.046
  471SOL    HW1 2312   2.891   2.252   4.054
  471SOL    HW2 2313   2.779   2.316   3.954
  472SOL     OW 2314   3.848   4.530   5.388
  472SOL    HW1 2315   3.929   4.480   5.356
  472SOL    HW2 2316   3.777   4.465   5.415
  473SOL     OW 2317   0.489   4.506   3.673
  473SOL    HW1 2318   0.474   4.460   3.586
  473SOL    HW2 2319   0.408   4.497   3.730
  474SOL     OW 2320   5.027   4.515   5.195
  474SOL    HW1 2321   5.091   4.525   5.119
  474SOL    HW2 2322   5.078   4.506   5.281
  475SOL     OW 2323   2.489   6.308   6.778
  475SOL    HW1 2324   2.434   6.391   6.771
  475SOL    HW2 2325   2.449   6.247   6.847
  476SOL     OW 2326   6.622   5.941   2.975
  476SOL    HW1 2327   6.688   5.965   2.904
  476SOL    HW2 2328   6.670   5.926   3.061
  477SOL     OW 2329   2.231   4.713   4.175
  477SOL    HW1 2330   2.311   4.726   4.117
  477SOL    HW2 2331   2.173   4.794   4.172
  478SOL     OW 2332   1.181   5.213   3.191
  478SOL    HW1 2333   1.151   5.194   3.097
  478SOL    HW2 2334   1.177   5.311   3.208
  479SOL     OW 2335   4.205   2.010   1.681
  479SOL    HW1 2336   4.236   1.961   1.762
  479SOL    HW2 2337   4.134   1.956   1.635
  480SOL     OW 2338   1.541   6.595   3.536
  480SOL    HW1 2339   1.594   6.538   3.599
  480SOL    HW2 2340   1.603   6.659   3.490
  481SOL     OW 2341   2.066   0.045   0.835
  481SOL    HW1 2342   1.969   0.055   0.811
  481SOL    HW2 2343   2.087   6.975   0.849
  482SOL     OW 2344   5.645   5.345   0.665
  482SOL    HW1 2345   5.709   5.420   0.683
  482SOL    HW2 2346   5.568   5.380   0.611
  483SOL     OW 2347   5.811   2.128   3.061
  483SOL    HW1 2348   5.902   2.098   3.034
  483SOL    HW2 2349   5.769   2.060   3.121
  484SOL     OW 2350   6.400   1.911   4.098
  484SOL    HW1 2351   6.463   1.915   4.020
  484SOL    HW2 2352   6.383   2.004   4.131
  485SOL     OW 2353   3.554   6.095   1.442
  485SOL    HW1 2354   3.613   6.065   1.517
  485SOL    HW2 2355   3.609   6.107   1.359
  486SOL     OW 2356   0.392   0.917   5.774
  486SOL    HW1 2357   0.389   0.908   5.874
  486SOL    HW2 2358   0.306   0.956   5.741
  487SOL     OW 2359   6.537   2.947   6.587
  487SOL    HW1 2360   6.621   2.974   6.635
  487SOL    HW2 2361   6.468   3.019   6.598
  488SOL     OW 2362   1.020   4.642   2.312
  488SOL    HW1 2363   0.923   4.627   2.329
  488SOL    HW2 2364   1.036   4.651   2.214
  489SOL     OW 2365   3.346   5.402   5.964
  489SOL    HW1 2366   3.429   5.454   5.943
  489SOL    HW2 2367   3.329   5.336   5.891
  490SOL     OW 2368   5.028   0.242   4.602
  490SOL    HW1 2369   5.026   0.314   4.671
  490SOL    HW2 2370   5.118   0.239   4.560
  491SOL     OW 2371   0.634   2.400   3.548
  491SOL    HW1 2372   0.670   2.409   3.455
  491SOL    HW2 2373   0.544   2.357   3.546
  492SOL     OW 2374   1.538   1.428   4.860
  492SOL    HW1 2375   1.621   1.381   4.889
  492SOL    HW2 2376   1.541   1.442   4.761
  493SOL     OW 2377   6.943   4.090   4.554
  493SOL    HW1 2378   0.004   4.134   4.537
  493SOL    HW2 2379   6.932   4.013   4.490
  494SOL     OW 2380   6.236   1.348   6.574
  494SOL    HW1 2381   6.248   1.274   6.508
  494SOL    HW2 2382   6.182   1.315   6.652
  495SOL     OW 2383   4.865   4.475   0.288
  495SOL    HW1 2384   4.910   4.462   0.376
  495SOL    HW2 2385   4.929   4.517   0.224
  496SOL     OW 2386   5.544   3.516   3.017
  496SOL    HW1 2387   5.568   3.452   3.090
  496SOL    HW2 2388   5.479   3.473   2.955
  497SOL     OW 2389   3.961   6.743   3.718
  497SOL    HW1 2390   3.932   6.830   3.758
  497SOL    HW2 2391   3.960   6.672   3.789
  498SOL     OW 2392   1.065   2.778   1.336
  498SOL    HW1 2393   1.054   2.750   1.241
  498SOL    HW2 2394   1.099   2.872   1.340
  499SOL     OW 2395   3.764   1.132   5.105
  499SOL    HW1 2396   3.709   1.052   5.129
  499SOL    HW2 2397   3.755   1.201   5.177
  500SOL     OW 2398   1.439   4.472   2.581
  500SOL    HW1 2399   1.527   4.430   2.602
  500SOL    HW2 2400   1.404   4.519   2.662
  501SOL     OW 2401   0.617   5.438   6.749
  501SOL    HW1 2402   0.597   5.368   6.816
  501SOL    HW2 2403   0.590   5.528   6.785
  502SOL     OW 2404   2.577   5.127   6.555
  502SOL    HW1 2405   2.657   5.169   6.513
  502SOL    HW2 2406   2.602   5.088   6.643
  503SOL     OW 2407   6.116   5.206   4.495
  503SOL    HW1 2408   6.111   5.117   4.541
  503SOL    HW2 2409   6.089   5.278   4.559
  504SOL     OW 2410   1.642   5.361   4.674
  504SOL    HW1 2411   1.630   5.379   4.772
  504SOL    HW2 2412   1.560   5.317   4.638
  505SOL     OW 2413   3.400   6.780   4.977
  505SOL    HW1 2414   3.410   6.687   4.943
  505SOL    HW2 2415   3.441   6.844   4.913
  506SOL     OW 2416   1.985   3.094   0.617
  506SOL    HW1 2417   1.919   3.061   0.685
  506SOL    HW2 2418   1.936   3.147   0.547
  507SOL     OW 2419   3.918   2.114   4.113
  507SOL    HW1 2420   3.884   2.113   4.207
  507SOL    HW2 2421   4.011   2.077   4.110
  508SOL     OW 2422   6.513   4.971   4.466
  508SOL    HW1 2423   6.455   5.021   4.402
  508SOL    HW2 2424   6.548   4.889   4.422
  509SOL     OW 2425   4.359   3.363   1.392
  509SOL    HW1 2426   4.331   3.300   1.319
  509SOL    HW2 2427   4.344   3.319   1.481
  510SOL     OW 2428   1.109   4.386   4.155
  510SOL    HW1 2429   1.113   4.289   4.131
  510SOL    HW2 2430   1.174   4.404   4.230
  511SOL     OW 2431   0.220   6.738   1.025
  511SOL    HW1 2432   0.163   6.661   0.999
  511SOL    HW2 2433   0.165   6.806   1.072
  512SOL     OW 2434   1.362   3.657   5.951
  512SOL    HW1 2435   1.327   3.710   6.028
  512SOL    HW2 2436   1.324   3.693   5.866
  513SOL     OW 2437   1.003   5.030   4.104
  513SOL    HW1 2438   0.922   5.084   4.127
  513SOL    HW2 2439   1.063   5.025   4.184
  514SOL     OW 2440   5.397   1.733   3.397
  514SOL    HW1 2441   5.381   1.637   3.375
  514SOL    HW2 2442   5.456   1.739   3.477
  515SOL     OW 2443   2.799   5.442   7.025
  515SOL    HW1 2444   2.754   5.477   0.080
  515SOL    HW2 2445   2.815   5.518   6.961
  516SOL     OW 2446   1.055   4.670   3.765
  516SOL    HW1 2447   1.047   4.704   3.672
  516SOL    HW2 2448   0.973   4.694   3.817
  517SOL     OW 2449   4.473   0.421   6.250
  517SOL    HW1 2450   4.401   0.435   6.318
  517SOL    HW2 2451   4.559   0.400   6.296
  518SOL     OW 2452   2.215   1.500   0.209
  518SOL    HW1 2453   2.216   1.589   0.164
  518SOL    HW2 2454   2.175   1.432   0.147
  519SOL     OW 2455   0.785   6.531   0.575
  519SOL    HW1 2456   0.781   6.545   0.476
  519SOL    HW2 2457   0.698   6.558   0.616
  520SOL     OW 2458   6.075   4.675   4.265
  520SOL    HW1 2459   6.101   4.603   4.201
  520SOL    HW2 2460   6.090   4.764   4.222
  521SOL     OW 2461   6.570   0.378   0.477
  521SOL    HW1 2462   6.556   0.443   0.552
  521SOL    HW2 2463   6.626   0.420   0.406
  522SOL     OW 2464   3.323   3.911   5.591
  522SOL    HW1 2465   3.373   3.964   5.659
  522SOL    HW2 2466   3.343   3.814   5.603
  523SOL     OW 2467   6.302   6.679   3.664
  523SOL    HW1 2468   6.360   6.605   3.697
  523SOL    HW2 2469   6.353   6.764   3.662
  524SOL     OW 2470   4.028   0.571   5.316
  524SOL    HW1 2471   4.052   0.637   5.386
  524SOL    HW2 2472   3.933   0.543   5.327
  525SOL     OW 2473   2.765   2.401   6.770
  525SOL    HW1 2474   2.731   2.323   6.718
  525SOL    HW2 2475   2.786   2.371   6.864
  526SOL     OW 2476   4.449   5.806   4.655
  526SOL    HW1 2477   4.351   5.820   4.667
  526SOL    HW2 2478   4.488   5.884   4.605
  527SOL     OW 2479   6.917   2.041   0.045
  527SOL    HW1 2480   7.014   2.057   0.024
  527SOL    HW2 2481   6.910   1.973   0.118
  528SOL     OW 2482   1.916   1.456   6.019
  528SOL    HW1 2483   1.828   1.431   5.978
  528SOL    HW2 2484   1.912   1.550   6.052
  529SOL     OW 2485   6.981   5.197   4.279
  529SOL    HW1 2486   6.901   5.171   4.334
  529SOL    HW2 2487   0.037   5.170   4.327
  530SOL     OW 2488   6.839   2.696   5.391
  530SOL    HW1 2489   6.758   2.676   5.446
  530SOL    HW2 2490   6.813   2.756   5.315
  531SOL     OW 2491   6.702   0.681   0.064
  531SOL    HW1 2492   6.759   0.629   7.027
  531SOL    HW2 2493   6.750   0.765   0.089
  532SOL     OW 2494   2.231   0.831   5.657
  532SOL    HW1 2495   2.313   0.804   5.708
  532SOL    HW2 2496   2.259   0.881   5.574
  533SOL     OW 2497   4.660   0.446   5.125
  533SOL    HW1 2498   4.645   0.426   5.222
  533SOL    HW2 2499   4.670   0.359   5.075
  534SOL     OW 2500   3.378   5.573   3.194
  534SOL    HW1 2501   3.370   5.601   3.290
  534SOL    HW2 2502   3.287   5.546   3.160
  535SOL     OW 2503   5.777   3.843   1.555
  535SOL    HW1 2504   5.768   3.843   1.455
  535SOL    HW2 2505   5.870   3.815   1.580
  536SOL     OW 2506   1.736   5.969   1.188
  536SOL    HW1 2507   1.644   5.986   1.223
  536SOL    HW2 2508   1.762   6.042   1.125
  537SOL     OW 2509   2.184   6.782   3.545
  537SOL    HW1 2510   2.247   6.708   3.570
  537SOL    HW2 2511   2.195   6.858   3.609
  538SOL     OW 2512   1.670   4.966   4.243
  538SOL    HW1 2513   1.632   4.880   4.279
  538SOL    HW2 2514   1.660   4.968   4.144
  539SOL     OW 2515   0.983   5.531   1.528
  539SOL    HW1 2516   1.031   5.612   1.496
  539SOL    HW2 2517   1.016   5.507   1.619
  540SOL     OW 2518   1.641   3.231   0.854
  540SOL    HW1 2519   1.726   3.266   0.815
  540SOL    HW2 2520   1.585   3.308   0.886
  541SOL     OW 2521   4.240   5.700   4.963
  541SOL    HW1 2522   4.233   5.797   4.987
  541SOL    HW2 2523   4.253   5.646   5.047
  542SOL     OW 2524   5.668   0.074   6.008
  542SOL    HW1 2525   5.572   0.068   6.038
  542SOL    HW2 2526   5.728   0.070   6.087
  543SOL     OW 2527   5.983   0.104   1.252
  543SOL    HW1 2528   6.000   0.018   1.300
  543SOL    HW2 2529   5.951   0.173   1.317
  544SOL     OW 2530   0.916   5.477   0.523
  544SOL    HW1 2531   0.933   5.478   0.621
  544SOL    HW2 2532   0.871   5.562   0.496
  545SOL     OW 2533   2.987   1.714   3.443
  545SOL    HW1 2534   2.891   1.739   3.450
  545SOL    HW2 2535   3.037   1.750   3.521
  546SOL     OW 2536   2.111   2.126   0.058
  546SOL    HW1 2537   2.126   2.225   0.058
  546SOL    HW2 2538   2.196   2.079   0.081
  547SOL     OW 2539   3.058   1.629   0.147
  547SOL    HW1 2540   2.978   1.581   0.183
  547SOL    HW2 2541   3.049   1.727   0.168
  548SOL     OW 2542   3.446   3.518   5.416
  548SOL    HW1 2543   3.545   3.529   5.415
  548SOL    HW2 2544   3.410   3.545   5.505
  549SOL     OW 2545   0.386   4.501   0.807
  549SOL    HW1 2546   0.374   4.410   0.767
  549SOL    HW2 2547   0.482   4.514   0.830
  550SOL     OW 2548   6.740   3.949   0.488
  550SOL    HW1 2549   6.643   3.941   0.512
  550SOL    HW2 2550   6.778   3.857   0.473
  551SOL     OW 2551   0.095   0.866   0.267
  551SOL    HW1 2552   0.153   0.786   0.285
  551SOL    HW2 2553   0.099   0.889   0.170
  552SOL     OW 2554   4.618   4.693   0.578
  552SOL    HW1 2555   4.665   4.721   0.493
  552SOL    HW2 2556   4.563   4.612   0.560
  553SOL     OW 2557   1.110   2.101   1.500
  553SOL    HW1 2558   1.128   2.049   1.583
  553SOL    HW2 2559   1.071   2.190   1.525
  554SOL     OW 2560   4.140   5.114   4.466
  554SOL    HW1 2561   4.054   5.071   4.492
  554SOL    HW2 2562   4.137   5.139   4.369
  555SOL     OW 2563   1.568   4.702   5.198
  555SOL    HW1 2564   1.648   4.704   5.259
  555SOL    HW2 2565   1.491   4.661   5.246
  556SOL     OW 2566   6.073   4.247   2.989
  556SOL    HW1 2567   6.111   4.205   3.072
  556SOL    HW2 2568   6.073   4.346   2.999
  557SOL     OW 2569   6.543   5.970   5.612
  557SOL    HW1 2570   6.473   6.022   5.660
  557SOL    HW2 2571   6.613   5.941   5.677
  558SOL     OW 2572   4.021   3.681   5.753
  558SOL    HW1 2573   4.094   3.633   5.802
  558SOL    HW2 2574   3.962   3.728   5.819
  559SOL     OW 2575   6.055   4.933   6.388
  559SOL    HW1 2576   6.045   4.845   6.342
  559SOL    HW2 2577   6.025   5.006   6.326
  560SOL     OW 2578   4.100   6.588   0.329
  560SOL    HW1 2579   4.169   6.620   0.264
  560SOL    HW2 2580   4.099   6.647   0.410
  561SOL     OW 2581   5.660   0.486   2.007
  561SOL    HW1 2582   5.585   0.517   2.066
  561SOL    HW2 2583   5.741   0.469   2.063
  562SOL     OW 2584   6.638   0.488   0.754
  562SOL    HW1 2585   6.635   0.557   0.826
  562SOL    HW2 2586   6.600   0.402   0.789
  563SOL     OW 2587   2.845   0.674   5.256
  563SOL    HW1 2588   2.823   0.716   5.344
  563SOL    HW2 2589   2.790   0.716   5.184
  564SOL     OW 2590   1.000   1.302   5.702
  564SOL    HW1 2591   0.912   1.317   5.747
  564SOL    HW2 2592   1.025   1.382   5.649
  565SOL     OW 2593   4.610   3.843   5.786
  565SOL    HW1 2594   4.700   3.804   5.808
  565SOL    HW2 2595   4.592   3.920   5.848
  566SOL     OW 2596   6.661   4.713   2.209
  566SOL    HW1 2597   6.736   4.736   2.147
  566SOL    HW2 2598   6.607   4.639   2.169
  567SOL     OW 2599   4.087   3.543   5.534
  567SOL    HW1 2600   4.051   3.610   5.599
  567SOL    HW2 2601   4.176   3.512   5.565
  568SOL     OW 2602   2.201   0.972   6.417
  568SOL    HW1 2603   2.113   1.019   6.428
  568SOL    HW2 2604   2.274   1.041   6.411
  569SOL     OW 2605   1.969   4.041   6.616
  569SOL    HW1 2606   1.997   4.061   6.521
  569SOL    HW2 2607   1.906   4.112   6.647
  570SOL     OW 2608   6.943   5.720   7.019
  570SOL    HW1 2609   6.859   5.719   6.966
  570SOL    HW2 2610   6.967   5.627   0.019
  571SOL     OW 2611   4.144   6.398   2.338
  571SOL    HW1 2612   4.100   6.336   2.403
  571SOL    HW2 2613   4.091   6.483   2.333
  572SOL     OW 2614   1.295   4.195   4.219
  572SOL    HW1 2615   1.370   4.131   4.203
  572SOL    HW2 2616   1.310   4.242   4.307
  573SOL     OW 2617   3.728   2.385   6.550
  573SOL    HW1 2618   3.639   2.349   6.524
  573SOL    HW2 2619   3.721   2.430   6.639
  574SOL     OW 2620   2.639   2.197   3.633
  574SOL    HW1 2621   2.547   2.157   3.631
  574SOL    HW2 2622   2.707   2.124   3.635
  575SOL     OW 2623   4.522   2.538   6.089
  575SOL    HW1 2624   4.490   2.443   6.086
  575SOL    HW2 2625   4.610   2.542   6.136
  576SOL     OW 2626   1.080   3.527   2.846
  576SOL    HW1 2627   1.109   3.607   2.898
  576SOL    HW2 2628   1.148   3.505   2.776
  577SOL     OW 2629   4.237   1.756   3.931
  577SOL    HW1 2630   4.198   1.664   3.924
  577SOL    HW2 2631   4.337   1.750   3.936
  578SOL     OW 2632   0.155   4.154   4.369
  578SOL    HW1 2633   0.236   4.175   4.423
  578SOL    HW2 2634   0.117   4.239   4.332
  579SOL     OW 2635   3.783   3.434   0.605
  579SOL    HW1 2636   3.752   3.528   0.588
  579SOL    HW2 2637   3.730   3.394   0.679
  580SOL     OW 2638   0.534   6.839   0.333
  580SOL    HW1 2639   0.453   6.883   0.373
  580SOL    HW2 2640   0.545   6.870   0.239
  581SOL     OW 2641   4.102   3.373   3.182
  581SOL    HW1 2642   4.109   3.466   3.145
  581SOL    HW2 2643   4.095   3.308   3.106
  582SOL     OW 2644   6.762   4.265   0.558
  582SOL    HW1 2645   6.770   4.361   0.588
  582SOL    HW2 2646   6.852   4.222   0.561
  583SOL     OW 2647   2.413   6.631   6.391
  583SOL    HW1 2648   2.509   6.608   6.408
  583SOL    HW2 2649   2.356   6.552   6.413
  584SOL     OW 2650   1.059   4.788   4.353
  584SOL    HW1 2651   1.007   4.707   4.380
  584SOL    HW2 2652   1.064   4.852   4.430
  585SOL     OW 2653   5.555   1.005   5.487
  585SOL    HW1 2654   5.620   1.064   5.439
  585SOL    HW2 2655   5.596   0.914   5.500
  586SOL     OW 2656   3.075   5.399   1.011
  586SOL    HW1 2657   3.054   5.357   0.922
  586SOL    HW2 2658   3.171   5.383   1.033
  587SOL     OW 2659   2.296   2.739   6.094
  587SOL    HW1 2660   2.359   2.734   6.016
  587SOL    HW2 2661   2.338   2.790   6.168
  588SOL     OW 2662   2.160   0.153   1.707
  588SOL    HW1 2663   2.251   0.187   1.686
  588SOL    HW2 2664   2.161   0.053   1.707
  589SOL     OW 2665   4.631   4.832   1.244
  589SOL    HW1 2666   4.549   4.871   1.286
  589SOL    HW2 2667   4.639   4.736   1.270
  590SOL     OW 2668   0.141   3.795   1.680
  590SOL    HW1 2669   0.088   3.753   1.754
  590SOL    HW2 2670   0.112   3.890   1.668
  591SOL     OW 2671   2.646   0.159   2.982
  591SOL    HW1 2672   2.562   0.145   3.034
  591SOL    HW2 2673   2.626   0.215   2.901
  592SOL     OW 2674   5.475   0.286   5.819
  592SOL    HW1 2675   5.521   0.275   5.731
  592SOL    HW2 2676   5.537   0.261   5.893
  593SOL     OW 2677   0.137   0.858   4.825
  593SOL    HW1 2678   0.143   0.948   4.870
  593SOL    HW2 2679   0.149   0.869   4.727
  594SOL     OW 2680   5.813   2.075   1.349
  594SOL    HW1 2681   5.779   2.000   1.406
  594SOL    HW2 2682   5.770   2.070   1.259
  595SOL     OW 2683   3.276   0.278   3.696
  595SOL    HW1 2684   3.190   0.257   3.742
  595SOL    HW2 2685   3.308   0.368   3.725
  596SOL     OW 2686   0.781   4.651   1.996
  596SOL    HW1 2687   0.690   4.669   2.034
  596SOL    HW2 2688   0.815   4.564   2.032
  597SOL     OW 2689   4.987   1.990   5.950
  597SOL    HW1 2690   4.900   2.016   5.993
  597SOL    HW2 2691   4.986   2.017   5.854
  598SOL     OW 2692   3.284   3.390   1.655
  598SOL    HW1 2693   3.353   3.357   1.591
  598SOL    HW2 2694   3.230   3.313   1.688
  599SOL     OW 2695   5.726   6.248   3.731
  599SOL    HW1 2696   5.790   6.256   3.807
  599SOL    HW2 2697   5.774   6.260   3.645
  600SOL     OW 2698   2.710   1.750   0.909
  600SOL    HW1 2699   2.643   1.776   0.839
  600SOL    HW2 2700   2.802   1.761   0.872
  601SOL     OW 2701   2.066   4.918   2.964
  601SOL    HW1 2702   2.073   4.952   3.058
  601SOL    HW2 2703   2.131   4.843   2.951
  602SOL     OW 2704   6.887   0.570   2.340
  602SOL    HW1 2705   6.955   0.643   2.332
  602SOL    HW2 2706   6.821   0.578   2.265
  603SOL     OW 2707   4.305   1.756   2.830
  603SOL    HW1 2708   4.223   1.809   2.810
  603SOL    HW2 2709   4.293   1.662   2.798
  604SOL     OW 2710   1.201   3.280   5.570
  604SOL    HW1 2711   1.266   3.356   5.560
  604SOL    HW2 2712   1.213   3.217   5.493
  605SOL     OW 2713   5.316   0.251   4.547
  605SOL    HW1 2714   5.367   0.165   4.555
  605SOL    HW2 2715   5.340   0.311   4.624
  606SOL     OW 2716   2.727   6.680   1.851
  606SOL    HW1 2717   2.804   6.738   1.823
  606SOL    HW2 2718   2.739   6.588   1.814
  607SOL     OW 2719   3.500   0.661   4.546
  607SOL    HW1 2720   3.438   0.598   4.500
  607SOL    HW2 2721   3.558   0.610   4.610
  608SOL     OW 2722   5.602   2.873   0.895
  608SOL    HW1 2723   5.683   2.926   0.868
  608SOL    HW2 2724   5.581   2.806   0.825
  609SOL     OW 2725   3.669   3.946   5.033
  609SOL    HW1 2726   3.706   4.029   4.990
  609SOL    HW2 2727   3.654   3.963   5.130
  610SOL     OW 2728   6.040   1.918   4.736
  610SOL    HW1 2729   6.126   1.943   4.781
  610SOL    HW2 2730   6.019   1.822   4.754
  611SOL     OW 2731   6.114   6.881   0.315
  611SOL    HW1 2732   6.201   6.884   0.365
  611SOL    HW2 2733   6.116   6.949   0.242
  612SOL     OW 2734   1.614   4.479   6.609
  612SOL    HW1 2735   1.613   4.567   6.658
  612SOL    HW2 2736   1.576   4.408   6.667
  613SOL     OW 2737   3.796   1.491   6.529
  613SOL    HW1 2738   3.827   1.411   6.479
  613SOL    HW2 2739   3.871   1.557   6.535
  614SOL     OW 2740   5.066   3.128   0.722
  614SOL    HW1 2741   5.163   3.104   0.720
  614SOL    HW2 2742   5.023   3.083   0.800
  615SOL     OW 2743   6.160   6.192   0.278
  615SOL    HW1 2744   6.106   6.176   0.195
  615SOL    HW2 2745   6.141   6.283   0.313
  616SOL     OW 2746   4.531   1.791   4.738
  616SOL    HW1 2747   4.610   1.846   4.714
  616SOL    HW2 2748   4.469   1.845   4.796
  617SOL     OW 2749   6.620   6.556   4.961
  617SOL    HW1 2750   6.676   6.503   5.025
  617SOL    HW2 2751   6.526   6.523   4.964
  618SOL     OW 2752   5.724   4.891   0.788
  618SOL    HW1 2753   5.807   4.836   0.782
  618SOL    HW2 2754   5.716   4.947   0.706
  619SOL     OW 2755   1.825   0.445   6.669
  619SOL    HW1 2756   1.760   0.457   6.744
  619SOL    HW2 2757   1.866   0.354   6.675
  620SOL     OW 2758   4.553   1.973   1.530
  620SOL    HW1 2759   4.561   1.994   1.628
  620SOL    HW2 2760   4.565   2.057   1.477
  621SOL     OW 2761   2.165   0.167   6.256
  621SOL    HW1 2762   2.239   0.144   6.320
  621SOL    HW2 2763   2.082   0.118   6.281
  622SOL     OW 2764   0.236   3.624   5.966
  622SOL    HW1 2765   0.210   3.654   5.874
  622SOL    HW2 2766   0.327   3.658   5.988
  623SOL     OW 2767   6.628   1.655   2.674
  623SOL    HW1 2768   6.718   1.669   2.715
  623SOL    HW2 2769   6.558   1.655   2.746
  624SOL     OW 2770   6.784   0.620   6.214
  624SOL    HW1 2771   6.755   0.674   6.293
  624SOL    HW2 2772   6.718   0.547   6.197
  625SOL     OW 2773   3.320   1.170   1.466
  625SOL    HW1 2774   3.352   1.081   1.433
  625SOL    HW2 2775   3.362   1.190   1.554
  626SOL     OW 2776   0.492   5.909   3.772
  626SOL    HW1 2777   0.551   5.883   3.695
  626SOL    HW2 2778   0.398   5.880   3.752
  627SOL     OW 2779   6.631   5.330   6.575
  627SOL    HW1 2780   6.656   5.291   6.664
  627SOL    HW2 2781   6.664   5.270   6.502
  628SOL     OW 2782   3.857   4.362   6.559
  628SOL    HW1 2783   3.851   4.461   6.572
  628SOL    HW2 2784   3.813   4.315   6.636
  629SOL     OW 2785   1.920   7.004   0.030
  629SOL    HW1 2786   1.830   7.021   7.015
  629SOL    HW2 2787   1.907   6.957   0.118
  630SOL     OW 2788   5.937   2.270   0.849
  630SOL    HW1 2789   6.007   2.206   0.817
  630SOL    HW2 2790   5.965   2.309   0.937
  631SOL     OW 2791   1.969   3.409   2.624
  631SOL    HW1 2792   2.015   3.412   2.713
  631SOL    HW2 2793   1.922   3.495   2.607
  632SOL     OW 2794   3.487   4.560   1.430
  632SOL    HW1 2795   3.484   4.642   1.373
  632SOL    HW2 2796   3.431   4.575   1.512
  633SOL     OW 2797   0.711   5.858   0.045
  633SOL    HW1 2798   0.743   5.846   0.139
  633SOL    HW2 2799   0.671   5.948   0.035
  634SOL     OW 2800   3.031   3.364   5.388
  634SOL    HW1 2801   2.933   3.378   5.403
  634SOL    HW2 2802   3.057   3.405   5.301
  635SOL     OW 2803   6.520   6.884   6.294
  635SOL    HW1 2804   6.441   6.828   6.317
  635SOL    HW2 2805   6.508   6.976   6.332
  636SOL     OW 2806   1.979   1.745   4.367
  636SOL    HW1 2807   1.930   1.696   4.438
  636SOL    HW2 2808   2.061   1.694   4.341
  637SOL     OW 2809   6.870   1.852   2.143
  637SOL    HW1 2810   6.917   1.792   2.078
  637SOL    HW2 2811   6.813   1.797   2.204
  638SOL     OW 2812   6.795   3.455   5.338
  638SOL    HW1 2813   6.847   3.448   5.252
  638SOL    HW2 2814   6.739   3.538   5.336
  639SOL     OW 2815   5.715   3.433   1.741
  639SOL    HW1 2816   5.650   3.366   1.776
  639SOL    HW2 2817   5.712   3.432   1.641
  640SOL     OW 2818   6.219   3.360   2.614
  640SOL    HW1 2819   6.287   3.397   2.677
  640SOL    HW2 2820   6.168   3.435   2.572
  641SOL     OW 2821   2.588   5.524   4.334
  641SOL    HW1 2822   2.586   5.501   4.236
  641SOL    HW2 2823   2.637   5.453   4.383
  642SOL     OW 2824   0.682   4.868   4.516
  642SOL    HW1 2825   0.692   4.838   4.611
  642SOL    HW2 2826   0.703   4.966   4.510
  643SOL     OW 2827   4.430   4.901   0.487
  643SOL    HW1 2828   4.467   4.856   0.569
  643SOL    HW2 2829   4.407   4.996   0.509
  644SOL     OW 2830   6.241   0.531   4.427
  644SOL    HW1 2831   6.225   0.462   4.356
  644SOL    HW2 2832   6.296   0.492   4.500
  645SOL     OW 2833   4.432   6.560   1.927
  645SOL    HW1 2834   4.407   6.563   2.023
  645SOL    HW2 2835   4.473   6.472   1.905
  646SOL     OW 2836   3.918   2.076   5.161
  646SOL    HW1 2837   3.855   2.152   5.175
  646SOL    HW2 2838   3.875   1.990   5.191
  647SOL     OW 2839   2.718   2.167   6.947
  647SOL    HW1 2840   2.668   2.168   0.006
  647SOL    HW2 2841   2.801   2.113   6.957
  648SOL     OW 2842   5.339   1.812   4.160
  648SOL    HW1 2843   5.356   1.892   4.103
  648SOL    HW2 2844   5.304   1.737   4.103
  649SOL     OW 2845   3.604   5.691   0.078
  649SOL    HW1 2846   3.682   5.670   0.137
  649SOL    HW2 2847   3.545   5.611   0.069
  650SOL     OW 2848   2.378   3.518   1.433
  650SOL    HW1 2849   2.452   3.523   1.500
  650SOL    HW2 2850   2.290   3.511   1.481
  651SOL     OW 2851   0.056   1.522   2.759
  651SOL    HW1 2852   6.995   1.568   2.753
  651SOL    HW2 2853   0.079   1.481   2.671
  652SOL     OW 2854   4.013   6.324   0.474
  652SOL    HW1 2855   4.039   6.237   0.431
  652SOL    HW2 2856   4.057   6.399   0.424
  653SOL     OW 2857   1.392   0.063   2.937
  653SOL    HW1 2858   1.472   0.035   2.991
  653SOL    HW2 2859   1.413   0.054   2.840
  654SOL     OW 2860   1.283   0.333   5.833
  654SOL    HW1 2861   1.271   0.321   5.734
  654SOL    HW2 2862   1.362   0.281   5.863
  655SOL     OW 2863   1.556   4.223   1.342
  655SOL    HW1 2864   1.616   4.272   1.279
  655SOL    HW2 2865   1.588   4.237   1.436
  656SOL     OW 2866   2.354   0.267   6.915
  656SOL    HW1 2867   2.371   0.363   6.938
  656SOL    HW2 2868   2.302   0.261   6.830
  657SOL     OW 2869   3.660   3.344   4.215
  657SOL    HW1 2870   3.590   3.294   4.166
  657SOL    HW2 2871   3.741   3.286   4.228
  658SOL     OW 2872   2.182   0.487   4.738
  658SOL    HW1 2873   2.087   0.509   4.715
  658SOL    HW2 2874   2.183   0.411   4.803
  659SOL     OW 2875   2.181   5.799   6.815
  659SOL    HW1 2876   2.094   5.757   6.842
  659SOL    HW2 2877   2.228   5.739   6.751
  660SOL     OW 2878   5.564   4.609   2.729
  660SOL    HW1 2879   5.571   4.685   2.665
  660SOL    HW2 2880   5.483   4.554   2.708
  661SOL     OW 2881   4.356   6.057   4.172
  661SOL    HW1 2882   4.261   6.079   4.153
  661SOL    HW2 2883   4.406   6.046   4.086
  662SOL     OW 2884   6.318   3.408   6.804
  662SOL    HW1 2885   6.352   3.444   6.891
  662SOL    HW2 2886   6.223   3.436   6.792
  663SOL     OW 2887   1.406   4.241   5.880
  663SOL    HW1 2888   1.361   4.298   5.812
  663SOL    HW2 2889   1.444   4.299   5.952
  664SOL     OW 2890   1.624   0.261   5.471
  664SOL    HW1 2891   1.568   0.220   5.398
  664SOL    HW2 2892   1.715   0.281   5.435
  665SOL     OW 2893   2.425   4.441   3.184
  665SOL    HW1 2894   2.426   4.456   3.085
  665SOL    HW2 2895   2.330   4.440   3.215
  666SOL     OW 2896   3.253   0.557   0.119
  666SOL    HW1 2897   3.286   0.520   0.206
  666SOL    HW2 2898   3.175   0.617   0.136
  667SOL     OW 2899   1.365   3.047   2.354
  667SOL    HW1 2900   1.368   2.981   2.278
  667SOL    HW2 2901   1.295   3.116   2.336
  668SOL     OW 2902   5.631   6.795   6.949
  668SOL    HW1 2903   5.643   6.774   0.019
  668SOL    HW2 2904   5.658   6.890   6.932
  669SOL     OW 2905   6.805   5.641   2.823
  669SOL    HW1 2906   6.828   5.698   2.902
  669SOL    HW2 2907   6.712   5.662   2.793
  670SOL     OW 2908   3.908   3.850   3.185
  670SOL    HW1 2909   3.942   3.895   3.268
  670SOL    HW2 2910   3.842   3.910   3.139
  671SOL     OW 2911   1.676   0.058   6.306
  671SOL    HW1 2912   1.692   0.147   6.263
  671SOL    HW2 2913   1.619   0.070   6.387
  672SOL     OW 2914   1.445   2.483   2.986
  672SOL    HW1 2915   1.468   2.506   2.891
  672SOL    HW2 2916   1.484   2.551   3.047
  673SOL     OW 2917   5.036   0.403   7.011
  673SOL    HW1 2918   5.027   0.464   6.932
  673SOL    HW2 2919   4.973   0.432   0.056
  674SOL     OW 2920   6.944   2.324   4.254
  674SOL    HW1 2921   6.878   2.385   4.297
  674SOL    HW2 2922   7.015   2.301   4.320
  675SOL     OW 2923   5.189   6.488   3.588
  675SOL    HW1 2924   5.237   6.565   3.629
  675SOL    HW2 2925   5.249   6.408   3.584
  676SOL     OW 2926   3.130   4.846   4.426
  676SOL    HW1 2927   3.149   4.899   4.509
  676SOL    HW2 2928   3.124   4.749   4.449
  677SOL     OW 2929   4.713   6.419   1.082
  677SOL    HW1 2930   4.771   6.478   1.026
  677SOL    HW2 2931   4.618   6.449   1.075
  678SOL     OW 2932   2.484   1.089   6.373
  678SOL    HW1 2933   2.539   1.016   6.333
  678SOL    HW2 2934   2.465   1.067   6.469
  679SOL     OW 2935   6.580   0.051   2.758
  679SOL    HW1 2936   6.599   0.011   2.848
  679SOL    HW2 2937   6.499   0.007   2.719
  680SOL     OW 2938   6.370   3.885   4.180
  680SOL    HW1 2939   6.385   3.788   4.159
  680SOL    HW2 2940   6.299   3.894   4.249
  681SOL     OW 2941   1.288   5.472   2.514
  681SOL    HW1 2942   1.335   5.558   2.494
  681SOL    HW2 2943   1.320   5.436   2.602
  682SOL     OW 2944   0.548   0.044   5.971
  682SOL    HW1 2945   0.517   6.979   5.995
  682SOL    HW2 2946   0.482   0.112   6.005
  683SOL     OW 2947   5.557   1.611   1.574
  683SOL    HW1 2948   5.558   1.518   1.610
  683SOL    HW2 2949   5.491   1.666   1.625
  684SOL     OW 2950   0.049   5.816   6.816
  684SOL    HW1 2951   7.021   5.826   6.900
  684SOL    HW2 2952   0.135   5.772   6.839
  685SOL     OW 2953   6.243   0.455   5.268
  685SOL    HW1 2954   6.179   0.471   5.343
  685SOL    HW2 2955   6.308   0.384   5.294
  686SOL     OW 2956   5.498   4.464   1.735
  686SOL    HW1 2957   5.553   4.389   1.772
  686SOL    HW2 2958   5.547   4.506   1.658
  687SOL     OW 2959   5.556   1.999   6.569
  687SOL    HW1 2960   5.571   1.901   6.583
  687SOL    HW2 2961   5.472   2.027   6.615
  688SOL     OW 2962   6.100   3.365   5.240
  688SOL    HW1 2963   6.051   3.410   5.316
  688SOL    HW2 2964   6.034   3.320   5.180
  689SOL     OW 2965   5.558   4.299   4.590
  689SOL    HW1 2966   5.497   4.226   4.624
  689SOL    HW2 2967   5.632   4.258   4.538
  690SOL     OW 2968   0.108   2.320   4.782
  690SOL    HW1 2969   0.177   2.254   4.809
  690SOL    HW2 2970   0.091   2.384   4.857
  691SOL     OW 2971   0.350   3.222   6.881
  691SOL    HW1 2972   0.338   3.290   6.954
  691SOL    HW2 2973   0.428   3.164   6.902
  692SOL     OW 2974   2.673   0.254   3.618
  692SOL    HW1 2975   2.633   0.166   3.644
  692SOL    HW2 2976   2.663   0.267   3.519
  693SOL     OW 2977   6.116   1.689   3.447
  693SOL    HW1 2978   6.062   1.644   3.376
  693SOL    HW2 2979   6.098   1.787   3.446
  694SOL     OW 2980   1.278   0.602   3.048
  694SOL    HW1 2981   1.306   0.582   2.954
  694SOL    HW2 2982   1.190   0.649   3.047
  695SOL     OW 2983   4.910   5.476   6.640
  695SOL    HW1 2984   4.845   5.482   6.564
  695SOL    HW2 2985   4.989   5.534   6.621
  696SOL     OW 2986   5.024   5.501   2.555
  696SOL    HW1 2987   5.036   5.591   2.597
  696SOL    HW2 2988   4.977   5.440   2.619
  697SOL     OW 2989   1.315   4.134   3.393
  697SOL    HW1 2990   1.329   4.166   3.299
  697SOL    HW2 2991   1.254   4.054   3.392
  698SOL     OW 2992   5.112   6.271   4.040
  698SOL    HW1 2993   5.079   6.325   3.962
  698SOL    HW2 2994   5.102   6.174   4.019
  699SOL     OW 2995   1.716   5.088   6.006
  699SOL    HW1 2996   1.814   5.074   5.990
  699SOL    HW2 2997   1.666   5.070   5.922
  700SOL     OW 2998   1.650   1.921   5.162
  700SOL    HW1 2999   1.556   1.947   5.184
  700SOL    HW2 3000   1.656   1.896   5.065
  701SOL     OW 3001   1.063   4.707   5.198
  701SOL    HW1 3002   1.060   4.611   5.226
  701SOL    HW2 3003   1.085   4.765   5.277
  702SOL     OW 3004   6.026   6.112   5.172
  702SOL    HW1 3005   5.961   6.038   5.192
  702SOL    HW2 3006   6.057   6.104   5.077
  703SOL     OW 3007   5.803   3.871   6.201
  703SOL    HW1 3008   5.781   3.793   6.142
  703SOL    HW2 3009   5.841   3.945   6.146
  704SOL     OW 3010   2.206   6.681   1.706
  704SOL    HW1 3011   2.224   6.768   1.659
  704SOL    HW2 3012   2.274   6.668   1.779
  705SOL     OW 3013   0.969   1.653   3.678
  705SOL    HW1 3014   0.935   1.741   3.645
  705SOL    HW2 3015   0.910   1.620   3.752
  706SOL     OW 3016   5.538   3.701   4.212
  706SOL    HW1 3017   5.465   3.682   4.146
  706SOL    HW2 3018   5.589   3.781   4.183
  707SOL     OW 3019   4.813   2.910   2.803
  707SOL    HW1 3020   4.843   3.006   2.802
  707SOL    HW2 3021   4.773   2.886   2.715
  708SOL     OW 3022   4.853   1.597   1.711
  708SOL    HW1 3023   4.824   1.502   1.721
  708SOL    HW2 3024   4.929   1.602   1.646
  709SOL     OW 3025   1.283   4.806   6.852
  709SOL    HW1 3026   1.272   4.719   6.803
  709SOL    HW2 3027   1.377   4.837   6.844
  710SOL     OW 3028   3.025   3.919   3.007
  710SOL    HW1 3029   2.989   3.826   3.000
  710SOL    HW2 3030   3.007   3.955   3.099
  711SOL     OW 3031   0.440   0.988   4.582
  711SOL    HW1 3032   0.498   0.910   4.561
  711SOL    HW2 3033   0.456   1.061   4.516
  712SOL     OW 3034   0.053   4.104   3.315
  712SOL    HW1 3035   0.032   4.182   3.375
  712SOL    HW2 3036   7.010   4.097   3.244
  713SOL     OW 3037   2.708   3.986   5.265
  713SOL    HW1 3038   2.617   3.971   5.227
  713SOL    HW2 3039   2.714   4.078   5.303
  714SOL     OW 3040   4.552   4.913   4.777
  714SOL    HW1 3041   4.463   4.870   4.792
  714SOL    HW2 3042   4.546   5.011   4.798
  715SOL     OW 3043   6.883   0.062   6.355
  715SOL    HW1 3044   6.843   7.004   6.388
  715SOL    HW2 3045   6.924   0.112   6.432
  716SOL     OW 3046   5.920   5.469   0.073
  716SOL    HW1 3047   5.992   5.405   0.049
  716SOL    HW2 3048   5.849   5.422   0.125
  717SOL     OW 3049   6.056   3.107   5.774
  717SOL    HW1 3050   5.996   3.040   5.817
  717SOL    HW2 3051   6.126   3.136   5.839
  718SOL     OW 3052   3.176   2.582   6.939
  718SOL    HW1 3053   3.274   2.590   6.957
  718SOL    HW2 3054   3.149   2.647   6.868
  719SOL     OW 3055   6.065   4.637   6.718
  719SOL    HW1 3056   6.113   4.587   6.645
  719SOL    HW2 3057   6.078   4.735   6.705
  720SOL     OW 3058   4.086   1.311   5.838
  720SOL    HW1 3059   4.124   1.242   5.776
  720SOL    HW2 3060   4.004   1.274   5.882
  721SOL     OW 3061   1.319   6.991   5.085
  721SOL    HW1 3062   1.238   0.002   5.039
  721SOL    HW2 3063   1.360   6.921   5.028
  722SOL     OW 3064   4.594   0.713   5.069
  722SOL    HW1 3065   4.670   0.773   5.045
  722SOL    HW2 3066   4.626   0.619   5.077
  723SOL     OW 3067   0.447   3.212   2.064
  723SOL    HW1 3068   0.435   3.156   1.982
  723SOL    HW2 3069   0.545   3.222   2.083
  724SOL     OW 3070   0.261   2.393   4.416
  724SOL    HW1 3071   0.183   2.336   4.442
  724SOL    HW2 3072   0.289   2.372   4.322
  725SOL     OW 3073   2.453   4.862   2.705
  725SOL    HW1 3074   2.467   4.927   2.780
  725SOL    HW2 3075   2.515   4.784   2.716
  726SOL     OW 3076   5.518   5.745   5.849
  726SOL    HW1 3077   5.483   5.728   5.941
  726SOL    HW2 3078   5.597   5.686   5.832
  727SOL     OW 3079   1.805   4.769   4.438
  727SOL    HW1 3080   1.816   4.673   4.465
  727SOL    HW2 3081   1.728   4.777   4.375
  728SOL     OW 3082   6.140   2.500   5.903
  728SOL    HW1 3083   6.079   2.437   5.952
  728SOL    HW2 3084   6.204   2.542   5.967
  729SOL     OW 3085   4.151   1.561   0.582
  729SOL    HW1 3086   4.228   1.530   0.526
  729SOL    HW2 3087   4.065   1.541   0.536
  730SOL     OW 3088   6.231   1.331   4.159
  730SOL    HW1 3089   6.134   1.337   4.183
  730SOL    HW2 3090   6.266   1.241   4.183
  731SOL     OW 3091   6.779   2.144   3.530
  731SOL    HW1 3092   6.856   2.205   3.548
  731SOL    HW2 3093   6.801   2.053   3.565
  732SOL     OW 3094   0.865   3.477   3.018
  732SOL    HW1 3095   0.794   3.519   2.962
  732SOL    HW2 3096   0.934   3.436   2.958
  733SOL     OW 3097   4.516   4.555   4.150
  733SOL    HW1 3098   4.544   4.635   4.097
  733SOL    HW2 3099   4.451   4.582   4.220
  734SOL     OW 3100   1.078   6.252   6.946
  734SOL    HW1 3101   1.036   6.163   6.961
  734SOL    HW2 3102   1.006   6.320   6.931
  735SOL     OW 3103   3.533   4.400   6.424
  735SOL    HW1 3104   3.560   4.324   6.483
  735SOL    HW2 3105   3.569   4.486   6.461
  736SOL     OW 3106   6.028   0.967   2.453
  736SOL    HW1 3107   5.947   0.912   2.432
  736SOL    HW2 3108   6.046   1.030   2.378
  737SOL     OW 3109   5.578   3.841   0.210
  737SOL    HW1 3110   5.602   3.849   0.113
  737SOL    HW2 3111   5.480   3.826   0.220
  738SOL     OW 3112   0.302   4.232   3.683
  738SOL    HW1 3113   0.251   4.201   3.764
  738SOL    HW2 3114   0.246   4.298   3.633
  739SOL     OW 3115   4.747   6.354   6.098
  739SOL    HW1 3116   4.838   6.325   6.128
  739SOL    HW2 3117   4.739   6.340   5.999
  740SOL     OW 3118   5.910   6.695   0.335
  740SOL    HW1 3119   5.925   6.706   0.433
  740SOL    HW2 3120   5.959   6.767   0.285
  741SOL     OW 3121   2.452   0.606   3.902
  741SOL    HW1 3122   2.465   0.509   3.925
  741SOL    HW2 3123   2.402   0.651   3.977
  742SOL     OW 3124   1.593   6.422   2.861
  742SOL    HW1 3125   1.665   6.430   2.929
  742SOL    HW2 3126   1.579   6.510   2.816
  743SOL     OW 3127   1.834   3.906   3.153
  743SOL    HW1 3128   1.933   3.893   3.146
  743SOL    HW2 3129   1.809   3.916   3.250
  744SOL     OW 3130   6.463   5.093   0.931
  744SOL    HW1 3131   6.456   4.999   0.896
  744SOL    HW2 3132   6.398   5.152   0.883
  745SOL     OW 3133   1.703   5.776   2.125
  745SOL    HW1 3134   1.735   5.869   2.106
  745SOL    HW2 3135   1.778   5.721   2.160
  746SOL     OW 3136   3.231   6.759   3.262
  746SOL    HW1 3137   3.263   6.725   3.350
  746SOL    HW2 3138   3.172   6.691   3.219
  747SOL     OW 3139   6.857   3.758   0.737
  747SOL    HW1 3140   6.788   3.819   0.774
  747SOL    HW2 3141   6.855   3.762   0.638
  748SOL     OW 3142   2.998   3.251   3.173
  748SOL    HW1 3143   3.061   3.320   3.209
  748SOL    HW2 3144   2.976   3.273   3.078
  749SOL     OW 3145   5.607   2.313   5.167
  749SOL    HW1 3146   5.609   2.369   5.250
  749SOL    HW2 3147   5.512   2.287   5.146
  750SOL     OW 3148   3.406   3.822   1.997
  750SOL    HW1 3149   3.339   3.752   2.019
  750SOL    HW2 3150   3.395   3.849   1.901
  751SOL     OW 3151   5.840   1.660   6.968
  751SOL    HW1 3152   5.753   1.628   7.006
  751SOL    HW2 3153   5.892   1.581   6.936
  752SOL     OW 3154   4.531   0.788   2.481
  752SOL    HW1 3155   4.474   0.862   2.515
  752SOL    HW2 3156   4.619   0.824   2.452
  753SOL     OW 3157   3.767   1.787   1.982
  753SOL    HW1 3158   3.708   1.851   2.030
  753SOL    HW2 3159   3.710   1.720   1.933
  754SOL     OW 3160   5.306   5.528   6.758
  754SOL    HW1 3161   5.241   5.493   6.826
  754SOL    HW2 3162   5.332   5.622   6.782
  755SOL     OW 3163   5.871   5.293   1.951
  755SOL    HW1 3164   5.924   5.369   1.988
  755SOL    HW2 3165   5.775   5.321   1.941
  756SOL     OW 3166   2.400   6.567   3.897
  756SOL    HW1 3167   2.467   6.616   3.954
  756SOL    HW2 3168   2.409   6.469   3.914
  757SOL     OW 3169   6.881   0.658   4.203
  757SOL    HW1 3170   6.814   0.631   4.272
  757SOL    HW2 3171   6.840   0.725   4.141
  758SOL     OW 3172   4.112   1.782   0.766
  758SOL    HW1 3173   4.152   1.734   0.844
  758SOL    HW2 3174   4.104   1.719   0.689
  759SOL     OW 3175   2.217   0.432   1.997
  759SOL    HW1 3176   2.295   0.495   2.001
  759SOL    HW2 3177   2.167   0.446   1.911
  760SOL     OW 3178   4.456   1.676   6.050
  760SOL    HW1 3179   4.519   1.745   6.086
  760SOL    HW2 3180   4.508   1.595   6.021
  761SOL     OW 3181   5.689   0.326   6.960
  761SOL    HW1 3182   5.610   0.384   6.939
  761SOL    HW2 3183   5.714   0.338   0.029
  762SOL     OW 3184   2.100   4.627   4.987
  762SOL    HW1 3185   2.001   4.637   4.997
  762SOL    HW2 3186   2.129   4.668   4.900
  763SOL     OW 3187   0.127   5.229   0.416
  763SOL    HW1 3188   0.078   5.147   0.386
  763SOL    HW2 3189   0.189   5.206   0.491
  764SOL     OW 3190   5.689   1.449   2.479
  764SOL    HW1 3191   5.631   1.371   2.503
  764SOL    HW2 3192   5.744   1.475   2.558
  765SOL     OW 3193   0.791   6.921   3.163
  765SOL    HW1 3194   0.855   6.995   3.179
  765SOL    HW2 3195   0.837   6.847   3.114
  766SOL     OW 3196   0.241   6.420   0.455
  766SOL    HW1 3197   0.245   6.321   0.466
  766SOL    HW2 3198   0.310   6.449   0.389
  767SOL     OW 3199   5.383   6.157   1.211
  767SOL    HW1 3200   5.284   6.172   1.205
  767SOL    HW2 3201   5.400   6.060   1.229
  768SOL     OW 3202   2.819   6.849   4.122
  768SOL    HW1 3203   2.909   6.858   4.166
  768SOL    HW2 3204   2.757   6.917   4.160
  769SOL     OW 3205   4.153   0.749   0.042
  769SOL    HW1 3206   4.123   0.721   0.133
  769SOL    HW2 3207   4.204   0.674   7.027
  770SOL     OW 3208   3.207   4.913   4.712
  770SOL    HW1 3209   3.123   4.920   4.765
  770SOL    HW2 3210   3.286   4.920   4.773
  771SOL     OW 3211   0.662   6.700   4.620
  771SOL    HW1 3212   0.590   6.761   4.654
  771SOL    HW2 3213   0.632   6.605   4.630
  772SOL     OW 3214   0.383   3.192   6.585
  772SOL    HW1 3215   0.422   3.284   6.585
  772SOL    HW2 3216   0.336   3.176   6.672
  773SOL     OW 3217   6.710   3.415   2.362
  773SOL    HW1 3218   6.661   3.483   2.308
  773SOL    HW2 3219   6.653   3.384   2.438
  774SOL     OW 3220   1.159   1.061   1.972
  774SOL    HW1 3221   1.127   1.073   1.878
  774SOL    HW2 3222   1.226   1.131   1.994
  775SOL     OW 3223   1.760   2.776   3.942
  775SOL    HW1 3224   1.839   2.765   4.001
  775SOL    HW2 3225   1.680   2.802   3.997
  776SOL     OW 3226   1.824   0.386   4.827
  776SOL    HW1 3227   1.875   0.458   4.875
  776SOL    HW2 3228   1.888   0.320   4.788
  777SOL     OW 3229   4.113   6.983   6.610
  777SOL    HW1 3230   4.191   6.989   6.673
  777SOL    HW2 3231   4.028   6.997   6.661
  778SOL     OW 3232   4.834   5.685   4.917
  778SOL    HW1 3233   4.739   5.678   4.888
  778SOL    HW2 3234   4.838   5.728   5.007
  779SOL     OW 3235   0.595   0.313   2.036
  779SOL    HW1 3236   0.625   0.365   1.957
  779SOL    HW2 3237   0.604   0.369   2.118
  780SOL     OW 3238   5.707   2.468   4.922
  780SOL    HW1 3239   5.745   2.378   4.899
  780SOL    HW2 3240   5.744   2.498   5.011
  781SOL     OW 3241   1.204   3.615   6.811
  781SOL    HW1 3242   1.193   3.527   6.764
  781SOL    HW2 3243   1.302   3.637   6.816
  782SOL     OW 3244   0.055   4.896   1.133
  782SOL    HW1 3245   0.019   4.891   1.039
  782SOL    HW2 3246   0.019   4.819   1.186
  783SOL     OW 3247   1.766   5.828   0.170
  783SOL    HW1 3248   1.774   5.833   0.070
  783SOL    HW2 3249   1.748   5.919   0.207
  784SOL     OW 3250   5.542   5.587   3.657
  784SOL    HW1 3251   5.456   5.586   3.708
  784SOL    HW2 3252   5.583   5.495   3.660
  785SOL     OW 3253   6.515   2.487   3.474
  785SOL    HW1 3254   6.531   2.491   3.573
  785SOL    HW2 3255   6.504   2.580   3.439
  786SOL     OW 3256   5.818   6.234   0.963
  786SOL    HW1 3257   5.904   6.191   0.990
  786SOL    HW2 3258   5.752   6.227   1.038
  787SOL     OW 3259   4.489   1.060   0.349
  787SOL    HW1 3260   4.583   1.094   0.337
  787SOL    HW2 3261   4.432   1.093   0.274
  788SOL     OW 3262   6.998   4.291   3.495
  788SOL    HW1 3263   6.918   4.346   3.470
  788SOL    HW2 3264   0.050   4.351   3.510
  789SOL     OW 3265   5.595   3.035   1.140
  789SOL    HW1 3266   5.582   3.013   1.043
  789SOL    HW2 3267   5.510   3.071   1.178
  790SOL     OW 3268   3.240   0.519   4.125
  790SOL    HW1 3269   3.200   0.610   4.112
  790SOL    HW2 3270   3.199   0.455   4.060
  791SOL     OW 3271   3.784   1.144   4.827
  791SOL    HW1 3272   3.789   1.142   4.927
  791SOL    HW2 3273   3.690   1.120   4.798
  792SOL     OW 3274   5.379   0.862   3.708
  792SOL    HW1 3275   5.362   0.821   3.798
  792SOL    HW2 3276   5.313   0.827   3.642
  793SOL     OW 3277   0.095   6.840   6.836
  793SOL    HW1 3278   0.161   6.884   6.775
  793SOL    HW2 3279   0.138   6.760   6.879
  794SOL     OW 3280   3.560   4.812   5.217
  794SOL    HW1 3281   3.533   4.740   5.282
  794SOL    HW2 3282   3.482   4.872   5.200
  795SOL     OW 3283   5.249   5.135   0.173
  795SOL    HW1 3284   5.309   5.170   0.101
  795SOL    HW2 3285   5.239   5.036   0.163
  796SOL     OW 3286   0.807   1.390   5.854
  796SOL    HW1 3287   0.752   1.472   5.837
  796SOL    HW2 3288   0.841   1.392   5.948
  797SOL     OW 3289   5.849   2.995   5.501
  797SOL    HW1 3290   5.902   3.078   5.479
  797SOL    HW2 3291   5.912   2.923   5.532
  798SOL     OW 3292   6.763   1.074   4.257
  798SOL    HW1 3293   6.777   1.032   4.347
  798SOL    HW2 3294   6.688   1.139   4.261
  799SOL     OW 3295   0.001   3.872   3.509
  799SOL    HW1 3296   7.019   3.778   3.478
  799SOL    HW2 3297   0.030   3.930   3.432
  800SOL     OW 3298   6.950   2.432   2.659
  800SOL    HW1 3299   6.965   2.530   2.647
  800SOL    HW2 3300   6.922   2.392   2.572
  801SOL     OW 3301   0.512   2.646   3.657
  801SOL    HW1 3302   0.505   2.722   3.592
  801SOL    HW2 3303   0.568   2.573   3.617
  802SOL     OW 3304   6.642   1.560   0.601
  802SOL    HW1 3305   6.656   1.603   0.690
  802SOL    HW2 3306   6.643   1.460   0.612
  803SOL     OW 3307   2.055   0.330   4.431
  803SOL    HW1 3308   2.075   0.421   4.468
  803SOL    HW2 3309   2.119   0.310   4.357
  804SOL     OW 3310   6.161   6.468   0.723
  804SOL    HW1 3311   6.171   6.452   0.821
  804SOL    HW2 3312   6.072   6.433   0.693
  805SOL     OW 3313   2.025   2.824   6.056
  805SOL    HW1 3314   2.125   2.817   6.062
  805SOL    HW2 3315   1.995   2.791   5.966
  806SOL     OW 3316   4.195   6.536   6.897
  806SOL    HW1 3317   4.134   6.520   6.974
  806SOL    HW2 3318   4.163   6.614   6.844
  807SOL     OW 3319   0.690   6.844   3.468
  807SOL    HW1 3320   0.644   6.907   3.405
  807SOL    HW2 3321   0.789   6.851   3.457
  808SOL     OW 3322   5.635   3.870   4.459
  808SOL    HW1 3323   5.542   3.862   4.422
  808SOL    HW2 3324   5.661   3.966   4.465
  809SOL     OW 3325   0.423   6.296   6.122
  809SOL    HW1 3326   0.373   6.382   6.120
  809SOL    HW2 3327   0.438   6.268   6.217
  810SOL     OW 3328   5.944   5.665   6.449
  810SOL    HW1 3329   6.004   5.596   6.407
  810SOL    HW2 3330   5.851   5.629   6.455
  811SOL     OW 3331   3.300   4.891   2.980
  811SOL    HW1 3332   3.225   4.853   2.927
  811SOL    HW2 3333   3.265   4.928   3.066
  812SOL     OW 3334   0.103   0.516   2.669
  812SOL    HW1 3335   0.046   0.456   2.613
  812SOL    HW2 3336   0.092   0.611   2.638
  813SOL     OW 3337   4.998   5.058   1.866
  813SOL    HW1 3338   4.900   5.064   1.883
  813SOL    HW2 3339   5.047   5.056   1.953
  814SOL     OW 3340   4.887   5.631   1.406
  814SOL    HW1 3341   4.881   5.639   1.307
  814SOL    HW2 3342   4.898   5.534   1.431
  815SOL     OW 3343   1.370   0.943   0.861
  815SOL    HW1 3344   1.440   1.012   0.844
  815SOL    HW2 3345   1.283   0.988   0.881
  816SOL     OW 3346   6.178   0.734   1.729
  816SOL    HW1 3347   6.221   0.768   1.646
  816SOL    HW2 3348   6.146   0.811   1.784
  817SOL     OW 3349   0.736   2.361   2.116
  817SOL    HW1 3350   0.820   2.337   2.166
  817SOL    HW2 3351   0.665   2.294   2.138
  818SOL     OW 3352   5.781   1.464   2.771
  818SOL    HW1 3353   5.781   1.426   2.864
  818SOL    HW2 3354   5.834   1.549   2.770
  819SOL     OW 3355   0.636   5.453   1.988
  819SOL    HW1 3356   0.550   5.501   1.973
  819SOL    HW2 3357   0.622   5.379   2.054
  820SOL     OW 3358   2.440   2.917   5.866
  820SOL    HW1 3359   2.476   2.968   5.787
  820SOL    HW2 3360   2.364   2.968   5.906
  821SOL     OW 3361   1.011   4.466   0.678
  821SOL    HW1 3362   1.033   4.403   0.603
  821SOL    HW2 3363   1.051   4.555   0.659
  822SOL     OW 3364   0.723   3.076   5.109
  822SOL    HW1 3365   0.749   3.109   5.200
  822SOL    HW2 3366   0.724   2.976   5.108
  823SOL     OW 3367   3.988   3.926   1.678
  823SOL    HW1 3368   4.045   3.862   1.730
  823SOL    HW2 3369   3.925   3.972   1.741
  824SOL     OW 3370   6.450   3.027   6.360
  824SOL    HW1 3371   6.481   3.006   6.267
  824SOL    HW2 3372   6.501   2.970   6.425
  825SOL     OW 3373   1.618   3.094   1.415
  825SOL    HW1 3374   1.664   3.005   1.403
  825SOL    HW2 3375   1.552   3.107   1.341
  826SOL     OW 3376   1.216   2.229   6.638
  826SOL    HW1 3377   1.189   2.172   6.715
  826SOL    HW2 3378   1.289   2.291   6.666
  827SOL     OW 3379   3.405   4.422   1.067
  827SOL    HW1 3380   3.396   4.327   1.038
  827SOL    HW2 3381   3.329   4.475   1.031
  828SOL     OW 3382   6.006   0.815   5.382
  828SOL    HW1 3383   5.949   0.794   5.303
  828SOL    HW2 3384   6.055   0.732   5.411
  829SOL     OW 3385   3.846   4.008   5.517
  829SOL    HW1 3386   3.818   4.055   5.600
  829SOL    HW2 3387   3.799   3.920   5.510
  830SOL     OW 3388   4.608   3.490   6.132
  830SOL    HW1 3389   4.628   3.392   6.134
  830SOL    HW2 3390   4.561   3.513   6.047
  831SOL     OW 3391   5.311   0.465   5.311
  831SOL    HW1 3392   5.346   0.454   5.404
  831SOL    HW2 3393   5.247   0.391   5.291
  832SOL     OW 3394   2.522   1.581   6.214
  832SOL    HW1 3395   2.562   1.492   6.193
  832SOL    HW2 3396   2.563   1.617   6.298
  833SOL     OW 3397   1.197   0.590   4.950
  833SOL    HW1 3398   1.236   0.520   5.010
  833SOL    HW2 3399   1.184   0.674   5.002
  834SOL     OW 3400   3.045   4.637   5.900
  834SOL    HW1 3401   3.089   4.549   5.914
  834SOL    HW2 3402   3.012   4.644   5.806
  835SOL     OW 3403   3.955   1.620   2.105
  835SOL    HW1 3404   3.901   1.537   2.117
  835SOL    HW2 3405   3.894   1.699   2.097
  836SOL     OW 3406   2.336   0.724   6.192
  836SOL    HW1 3407   2.309   0.628   6.206
  836SOL    HW2 3408   2.340   0.770   6.280
  837SOL     OW 3409   4.047   1.964   4.404
  837SOL    HW1 3410   4.006   1.896   4.344
  837SOL    HW2 3411   4.062   1.924   4.494
  838SOL     OW 3412   1.012   6.378   2.284
  838SOL    HW1 3413   1.094   6.344   2.330
  838SOL    HW2 3414   0.954   6.426   2.349
  839SOL     OW 3415   2.163   1.549   1.792
  839SOL    HW1 3416   2.146   1.518   1.699
  839SOL    HW2 3417   2.117   1.636   1.807
  840SOL     OW 3418   1.325   0.991   5.711
  840SOL    HW1 3419   1.259   1.042   5.656
  840SOL    HW2 3420   1.362   0.915   5.657
  841SOL     OW 3421   0.054   3.393   1.036
  841SOL    HW1 3422   0.015   3.301   1.037
  841SOL    HW2 3423   0.152   3.387   1.019
  842SOL     OW 3424   4.192   4.789   4.110
  842SOL    HW1 3425   4.209   4.878   4.068
  842SOL    HW2 3426   4.219   4.716   4.047
  843SOL     OW 3427   0.350   3.288   1.580
  843SOL    HW1 3428   0.335   3.250   1.671
  843SOL    HW2 3429   0.265   3.283   1.527
  844SOL     OW 3430   6.087   4.438   6.336
  844SOL    HW1 3431   6.181   4.404   6.336
  844SOL    HW2 3432   6.028   4.373   6.385
  845SOL     OW 3433   2.290   4.944   5.426
  845SOL    HW1 3434   2.232   4.864   5.444
  845SOL    HW2 3435   2.265   4.983   5.338
  846SOL     OW 3436   4.232   2.152   0.011
  846SOL    HW1 3437   4.170   2.225   0.040
  846SOL    HW2 3438   4.179   2.072   7.011
  847SOL     OW 3439   4.976   4.510   1.960
  847SOL    HW1 3440   5.032   4.428   1.960
  847SOL    HW2 3441   5.018   4.579   2.019
  848SOL     OW 3442   5.659   0.023   5.723
  848SOL    HW1 3443   5.611   0.098   5.677
  848SOL    HW2 3444   5.654   0.037   5.822
  849SOL     OW 3445   0.594   5.891   4.240
  849SOL    HW1 3446   0.529   5.947   4.189
  849SOL    HW2 3447   0.667   5.950   4.276
  850SOL     OW 3448   2.945   0.831   3.272
  850SOL    HW1 3449   2.897   0.752   3.311
  850SOL    HW2 3450   3.043   0.822   3.288
  851SOL     OW 3451   6.800   1.048   5.867
  851SOL    HW1 3452   6.700   1.059   5.870
  851SOL    HW2 3453   6.826   0.972   5.927
  852SOL     OW 3454   2.967   5.126   5.003
  852SOL    HW1 3455   2.943   5.175   4.919
  852SOL    HW2 3456   2.977   5.029   4.982
  853SOL     OW 3457   0.721   4.509   0.636
  853SOL    HW1 3458   0.692   4.426   0.588
  853SOL    HW2 3459   0.820   4.515   0.635
  854SOL     OW 3460   6.008   5.031   1.256
  854SOL    HW1 3461   5.976   5.124   1.241
  854SOL    HW2 3462   6.080   5.031   1.326
  855SOL     OW 3463   4.811   0.189   0.704
  855SOL    HW1 3464   4.894   0.184   0.647
  855SOL    HW2 3465   4.831   0.240   0.788
  856SOL     OW 3466   1.589   0.318   4.649
  856SOL    HW1 3467   1.636   0.231   4.630
  856SOL    HW2 3468   1.653   0.381   4.693
  857SOL     OW 3469   5.667   4.211   1.516
  857SOL    HW1 3470   5.701   4.291   1.467
  857SOL    HW2 3471   5.637   4.142   1.450
  858SOL     OW 3472   3.474   4.133   2.335
  858SOL    HW1 3473   3.398   4.100   2.279
  858SOL    HW2 3474   3.451   4.121   2.432
  859SOL     OW 3475   0.239   4.599   0.559
  859SOL    HW1 3476   0.210   4.694   0.567
  859SOL    HW2 3477   0.335   4.591   0.589
  860SOL     OW 3478   1.618   4.056   6.083
  860SOL    HW1 3479   1.543   4.117   6.055
  860SOL    HW2 3480   1.597   3.963   6.052
  861SOL     OW 3481   4.427   4.413   6.244
  861SOL    HW1 3482   4.451   4.336   6.303
  861SOL    HW2 3483   4.502   4.479   6.243
  862SOL     OW 3484   4.582   4.422   3.494
  862SOL    HW1 3485   4.508   4.462   3.548
  862SOL    HW2 3486   4.670   4.444   3.537
  863SOL     OW 3487   6.291   2.831   1.763
  863SOL    HW1 3488   6.225   2.904   1.744
  863SOL    HW2 3489   6.352   2.860   1.836
  864SOL     OW 3490   0.284   5.717   2.361
  864SOL    HW1 3491   0.192   5.755   2.373
  864SOL    HW2 3492   0.351   5.785   2.390
  865SOL     OW 3493   1.998   0.997   3.752
  865SOL    HW1 3494   2.061   1.060   3.707
  865SOL    HW2 3495   1.952   0.941   3.683
  866SOL     OW 3496   4.198   0.852   1.518
  866SOL    HW1 3497   4.293   0.858   1.549
  866SOL    HW2 3498   4.172   0.755   1.510
  867SOL     OW 3499   2.533   1.924   5.886
  867SOL    HW1 3500   2.578   2.010   5.860
  867SOL    HW2 3501   2.572   1.849   5.832
  868SOL     OW 3502   5.423   1.983   3.786
  868SOL    HW1 3503   5.393   2.013   3.876
  868SOL    HW2 3504   5.423   1.883   3.783
  869SOL     OW 3505   6.616   3.905   0.919
  869SOL    HW1 3506   6.588   3.974   0.986
  869SOL    HW2 3507   6.648   3.823   0.966
  870SOL     OW 3508   6.354   1.642   0.321
  870SOL    HW1 3509   6.367   1.651   0.420
  870SOL    HW2 3510   6.443   1.644   0.275
  871SOL     OW 3511   0.011   4.706   0.813
  871SOL    HW1 3512   0.100   4.669   0.786
  871SOL    HW2 3513   0.017   4.806   0.819
  872SOL     OW 3514   7.024   2.083   1.666
  872SOL    HW1 3515   0.034   2.001   1.621
  872SOL    HW2 3516   0.028   2.086   1.761
  873SOL     OW 3517   3.769   6.839   4.348
  873SOL    HW1 3518   3.703   6.914   4.346
  873SOL    HW2 3519   3.840   6.859   4.415
  874SOL     OW 3520   1.305   4.301   6.503
  874SOL    HW1 3521   1.323   4.399   6.510
  874SOL    HW2 3522   1.246   4.284   6.424
  875SOL     OW 3523   6.349   6.146   6.535
  875SOL    HW1 3524   6.306   6.059   6.560
  875SOL    HW2 3525   6.285   6.201   6.483
  876SOL     OW 3526   3.032   1.682   1.336
  876SOL    HW1 3527   2.984   1.595   1.322
  876SOL    HW2 3528   2.966   1.751   1.366
  877SOL     OW 3529   5.758   5.902   6.271
  877SOL    HW1 3530   5.845   5.908   6.321
  877SOL    HW2 3531   5.747   5.809   6.236
  878SOL     OW 3532   4.044   3.372   0.981
  878SOL    HW1 3533   4.001   3.336   1.064
  878SOL    HW2 3534   4.053   3.299   0.914
  879SOL     OW 3535   5.271   3.297   3.720
  879SOL    HW1 3536   5.210   3.340   3.652
  879SOL    HW2 3537   5.223   3.221   3.764
  880SOL     OW 3538   4.014   6.437   1.807
  880SOL    HW1 3539   4.098   6.401   1.847
  880SOL    HW2 3540   3.941   6.436   1.875
  881SOL     OW 3541   5.331   5.449   3.259
  881SOL    HW1 3542   5.308   5.528   3.202
  881SOL    HW2 3543   5.265   5.376   3.245
  882SOL     OW 3544   0.888   2.130   5.193
  882SOL    HW1 3545   0.827   2.196   5.148
  882SOL    HW2 3546   0.944   2.178   5.261
  883SOL     OW 3547   2.986   4.948   0.273
  883SOL    HW1 3548   2.890   4.937   0.247
  883SOL    HW2 3549   2.993   4.957   0.373
  884SOL     OW 3550   3.906   4.278   1.587
  884SOL    HW1 3551   3.827   4.313   1.637
  884SOL    HW2 3552   3.874   4.218   1.513
  885SOL     OW 3553   4.427   6.220   6.171
  885SOL    HW1 3554   4.435   6.151   6.099
  885SOL    HW2 3555   4.401   6.308   6.131
  886SOL     OW 3556   4.294   2.325   6.255
  886SOL    HW1 3557   4.241   2.391   6.308
  886SOL    HW2 3558   4.269   2.232   6.283
  887SOL     OW 3559   6.322   6.455   4.656
  887SOL    HW1 3560   6.267   6.496   4.583
  887SOL    HW2 3561   6.328   6.356   4.641
  888SOL     OW 3562   6.336   0.912   3.174
  888SOL    HW1 3563   6.405   0.979   3.147
  888SOL    HW2 3564   6.247   0.938   3.135
  889SOL     OW 3565   0.630   0.553   4.820
  889SOL    HW1 3566   0.655   0.464   4.782
  889SOL    HW2 3567   0.646   0.624   4.751
  890SOL     OW 3568   1.887   3.342   0.969
  890SOL    HW1 3569   1.882   3.294   1.056
  890SOL    HW2 3570   1.978   3.328   0.929
  891SOL     OW 3571   6.009   3.542   5.770
  891SOL    HW1 3572   5.981   3.634   5.742
  891SOL    HW2 3573   5.959   3.474   5.716
  892SOL     OW 3574   2.044   4.568   1.877
  892SOL    HW1 3575   1.995   4.492   1.919
  892SOL    HW2 3576   1.996   4.599   1.795
  893SOL     OW 3577   1.912   6.901   2.435
  893SOL    HW1 3578   1.958   6.846   2.365
  893SOL    HW2 3579   1.814   6.879   2.436
  894SOL     OW 3580   1.354   5.353   4.385
  894SOL    HW1 3581   1.431   5.317   4.333
  894SOL    HW2 3582   1.283   5.385   4.321
  895SOL     OW 3583   2.594   0.940   4.347
  895SOL    HW1 3584   2.571   0.993   4.266
  895SOL    HW2 3585   2.667   0.987   4.398
  896SOL     OW 3586   4.486   0.197   3.259
  896SOL    HW1 3587   4.465   0.244   3.173
  896SOL    HW2 3588   4.563   0.243   3.304
  897SOL     OW 3589   5.961   0.993   6.195
  897SOL    HW1 3590   5.941   0.915   6.254
  897SOL    HW2 3591   5.913   1.074   6.228
  898SOL     OW 3592   5.019   6.422   3.826
  898SOL    HW1 3593   5.090   6.412   3.757
  898SOL    HW2 3594   4.929   6.406   3.785
  899SOL     OW 3595   1.246   5.230   0.359
  899SOL    HW1 3596   1.231   5.327   0.337
  899SOL    HW2 3597   1.183   5.174   0.306
  900SOL     OW 3598   0.393   5.313   3.415
  900SOL    HW1 3599   0.489   5.314   3.387
  900SOL    HW2 3600   0.377   5.232   3.473
  901SOL     OW 3601   6.380   1.712   3.179
  901SOL    HW1 3602   6.445   1.727   3.254
  901SOL    HW2 3603   6.298   1.766   3.195
  902SOL     OW 3604   1.460   5.840   0.223
  902SOL    HW1 3605   1.376   5.785   0.225
  902SOL    HW2 3606   1.525   5.798   0.159
  903SOL     OW 3607   1.221   5.021   6.422
  903SOL    HW1 3608   1.200   5.048   6.516
  903SOL    HW2 3609   1.161   5.071   6.359
  904SOL     OW 3610   1.646   1.745   4.010
  904SOL    HW1 3611   1.625   1.651   3.982
  904SOL    HW2 3612   1.722   1.780   3.955
  905SOL     OW 3613   5.822   3.312   3.493
  905SOL    HW1 3614   5.895   3.288   3.557
  905SOL    HW2 3615   5.733   3.294   3.535
  906SOL     OW 3616   6.764   3.453   5.618
  906SOL    HW1 3617   6.683   3.404   5.647
  906SOL    HW2 3618   6.772   3.450   5.518
  907SOL     OW 3619   6.873   3.755   2.534
  907SOL    HW1 3620   6.816   3.693   2.587
  907SOL    HW2 3621   6.890   3.838   2.587
  908SOL     OW 3622   2.918   1.173   3.667
  908SOL    HW1 3623   2.991   1.185   3.735
  908SOL    HW2 3624   2.839   1.131   3.711
  909SOL     OW 3625   3.663   6.986   2.089
  909SOL    HW1 3626   3.624   6.894   2.083
  909SOL    HW2 3627   3.615   0.020   2.026
  910SOL     OW 3628   1.389   0.887   1.748
  910SOL    HW1 3629   1.365   0.838   1.831
  910SOL    HW2 3630   1.383   0.985   1.764
  911SOL     OW 3631   0.799   2.773   0.749
  911SOL    HW1 3632   0.850   2.840   0.696
  911SOL    HW2 3633   0.791   2.804   0.844
  912SOL     OW 3634   1.913   1.076   0.183
  912SOL    HW1 3635   1.905   1.005   0.113
  912SOL    HW2 3636   1.853   1.054   0.260
  913SOL     OW 3637   1.979   1.133   2.099
  913SOL    HW1 3638   1.974   1.034   2.111
  913SOL    HW2 3639   1.913   1.177   2.160
  914SOL     OW 3640   2.748   4.798   2.472
  914SOL    HW1 3641   2.665   4.750   2.442
  914SOL    HW2 3642   2.819   4.788   2.403
  915SOL     OW 3643   2.727   2.135   0.888
  915SOL    HW1 3644   2.793   2.210   0.881
  915SOL    HW2 3645   2.695   2.110   0.797
  916SOL     OW 3646   0.556   3.625   2.308
  916SOL    HW1 3647   0.529   3.641   2.403
  916SOL    HW2 3648   0.552   3.527   2.289
  917SOL     OW 3649   3.378   0.889   6.031
  917SOL    HW1 3650   3.438   0.883   5.952
  917SOL    HW2 3651   3.415   0.832   6.105
  918SOL     OW 3652   0.318   2.174   4.868
  918SOL    HW1 3653   0.312   2.148   4.965
  918SOL    HW2 3654   0.295   2.096   4.811
  919SOL     OW 3655   0.888   0.961   1.210
  919SOL    HW1 3656   0.914   0.879   1.260
  919SOL    HW2 3657   0.934   0.963   1.122
  920SOL     OW 3658   1.355   1.967   2.185
  920SOL    HW1 3659   1.324   1.874   2.164
  920SOL    HW2 3660   1.365   2.019   2.100
  921SOL     OW 3661   4.136   4.495   0.566
  921SOL    HW1 3662   4.045   4.508   0.526
  921SOL    HW2 3663   4.200   4.468   0.494
  922SOL     OW 3664   2.411   5.854   6.926
  922SOL    HW1 3665   2.473   5.847   6.848
  922SOL    HW2 3666   2.321   5.818   6.901
  923SOL     OW 3667   4.048   1.289   0.021
  923SOL    HW1 3668   4.084   1.221   6.985
  923SOL    HW2 3669   3.994   1.244   0.092
  924SOL     OW 3670   5.739   4.801   1.894
  924SOL    HW1 3671   5.787   4.812   1.980
  924SOL    HW2 3672   5.642   4.823   1.906
  925SOL     OW 3673   5.837   2.619   1.881
  925SOL    HW1 3674   5.779   2.546   1.844
  925SOL    HW2 3675   5.892   2.658   1.807
  926SOL     OW 3676   3.970   5.885   1.908
  926SOL    HW1 3677   3.910   5.809   1.932
  926SOL    HW2 3678   4.010   5.925   1.990
  927SOL     OW 3679   4.804   5.237   5.140
  927SOL    HW1 3680   4.809   5.218   5.041
  927SOL    HW2 3681   4.876   5.185   5.187
  928SOL     OW 3682   0.201   1.644   1.516
  928SOL    HW1 3683   0.140   1.605   1.584
  928SOL    HW2 3684   0.231   1.573   1.453
  929SOL     OW 3685   0.252   2.767   2.090
  929SOL    HW1 3686   0.286   2.697   2.153
  929SOL    HW2 3687   0.176   2.815   2.132
  930SOL     OW 3688   6.039   5.098   2.261
  930SOL    HW1 3689   6.078   5.007   2.246
  930SOL    HW2 3690   6.092   5.166   2.209
  931SOL     OW 3691   0.704   2.943   1.652
  931SOL    HW1 3692   0.606   2.938   1.671
  931SOL    HW2 3693   0.737   2.853   1.626
  932SOL     OW 3694   4.350   6.167   1.184
  932SOL    HW1 3695   4.444   6.144   1.206
  932SOL    HW2 3696   4.337   6.266   1.190
  933SOL     OW 3697   0.857   6.349   3.549
  933SOL    HW1 3698   0.915   6.413   3.499
  933SOL    HW2 3699   0.763   6.384   3.549
  934SOL     OW 3700   3.972   1.742   5.244
  934SOL    HW1 3701   3.960   1.643   5.254
  934SOL    HW2 3702   4.056   1.760   5.193
  935SOL     OW 3703   1.331   3.748   4.655
  935SOL    HW1 3704   1.331   3.827   4.595
  935SOL    HW2 3705   1.298   3.774   4.746
  936SOL     OW 3706   0.751   1.418   1.779
  936SOL    HW1 3707   0.799   1.390   1.861
  936SOL    HW2 3708   0.653   1.426   1.799
  937SOL     OW 3709   4.868   2.265   3.261
  937SOL    HW1 3710   4.856   2.288   3.164
  937SOL    HW2 3711   4.911   2.175   3.269
  938SOL     OW 3712   0.732   0.779   6.258
  938SOL    HW1 3713   0.715   0.735   6.170
  938SOL    HW2 3714   0.814   0.836   6.251
  939SOL     OW 3715   6.527   0.946   4.768
  939SOL    HW1 3716   6.616   0.932   4.811
  939SOL    HW2 3717   6.489   0.857   4.741
  940SOL     OW 3718   6.089   6.953   3.300
  940SOL    HW1 3719   5.990   6.970   3.300
  940SOL    HW2 3720   6.109   6.874   3.358
  941SOL     OW 3721   5.670   2.934   5.223
  941SOL    HW1 3722   5.615   2.854   5.247
  941SOL    HW2 3723   5.735   2.952   5.296
  942SOL     OW 3724   4.530   6.775   5.679
  942SOL    HW1 3725   4.585   6.856   5.700
  942SOL    HW2 3726   4.501   6.779   5.583
  943SOL     OW 3727   5.127   2.307   0.214
  943SOL    HW1 3728   5.174   2.261   0.289
  943SOL    HW2 3729   5.063   2.243   0.171
  944SOL     OW 3730   5.076   4.945   4.302
  944SOL    HW1 3731   5.113   5.035   4.327
  944SOL    HW2 3732   4.978   4.943   4.323
  945SOL     OW 3733   5.482   2.780   6.651
  945SOL    HW1 3734   5.435   2.859   6.612
  945SOL    HW2 3735   5.414   2.712   6.679
  946SOL     OW 3736   6.264   3.209   6.025
  946SOL    HW1 3737   6.298   3.272   6.094
  946SOL    HW2 3738   6.223   3.129   6.070
  947SOL     OW 3739   0.936   2.341   6.276
  947SOL    HW1 3740   0.918   2.408   6.348
  947SOL    HW2 3741   0.878   2.261   6.290
  948SOL     OW 3742   3.573   2.035   0.456
  948SOL    HW1 3743   3.481   2.063   0.481
  948SOL    HW2 3744   3.572   1.941   0.423
  949SOL     OW 3745   5.420   5.692   6.088
  949SOL    HW1 3746   5.415   5.593   6.079
  949SOL    HW2 3747   5.387   5.719   6.179
  950SOL     OW 3748   3.423   5.189   0.815
  950SOL    HW1 3749   3.502   5.132   0.839
  950SOL    HW2 3750   3.422   5.205   0.717
  951SOL     OW 3751   1.170   2.705   3.817
  951SOL    HW1 3752   1.264   2.676   3.801
  951SOL    HW2 3753   1.118   2.630   3.857
  952SOL     OW 3754   4.774   1.069   1.514
  952SOL    HW1 3755   4.821   1.101   1.432
  952SOL    HW2 3756   4.747   0.973   1.502
  953SOL     OW 3757   3.840   6.595   5.727
  953SOL    HW1 3758   3.908   6.562   5.792
  953SOL    HW2 3759   3.886   6.639   5.650
  954SOL     OW 3760   6.083   6.699   1.062
  954SOL    HW1 3761   6.005   6.661   1.112
  954SOL    HW2 3762   6.143   6.626   1.031
  955SOL     OW 3763   1.155   6.253   3.522
  955SOL    HW1 3764   1.186   6.346   3.503
  955SOL    HW2 3765   1.157   6.236   3.621
  956SOL     OW 3766   1.777   2.979   0.750
  956SOL    HW1 3767   1.749   2.912   0.680
  956SOL    HW2 3768   1.696   3.027   0.784
  957SOL     OW 3769   1.994   6.146   4.601
  957SOL    HW1 3770   1.960   6.240   4.594
  957SOL    HW2 3771   1.923   6.088   4.640
  958SOL     OW 3772   4.371   2.853   6.568
  958SOL    HW1 3773   4.412   2.800   6.642
  958SOL    HW2 3774   4.408   2.822   6.480
  959SOL     OW 3775   1.612   4.056   0.819
  959SOL    HW1 3776   1.706   4.049   0.853
  959SOL    HW2 3777   1.588   4.152   0.808
  960SOL     OW 3778   2.033   3.805   5.959
  960SOL    HW1 3779   2.018   3.890   5.907
  960SOL    HW2 3780   1.994   3.728   5.908
  961SOL     OW 3781   3.329   6.520   6.427
  961SOL    HW1 3782   3.365   6.466   6.351
  961SOL    HW2 3783   3.380   6.498   6.510
  962SOL     OW 3784   0.924   0.164   3.210
  962SOL    HW1 3785   0.960   0.257   3.204
  962SOL    HW2 3786   0.999   0.099   3.200
  963SOL     OW 3787   5.672   0.200   2.642
  963SOL    HW1 3788   5.764   0.172   2.669
  963SOL    HW2 3789   5.675   0.291   2.602
  964SOL     OW 3790   5.755   4.453   1.371
  964SOL    HW1 3791   5.741   4.497   1.283
  964SOL    HW2 3792   5.703   4.501   1.441
  965SOL     OW 3793   2.095   1.599   0.440
  965SOL    HW1 3794   2.146   1.551   0.369
  965SOL    HW2 3795   2.044   1.675   0.399
  966SOL     OW 3796   6.067   3.033   1.788
  966SOL    HW1 3797   6.080   3.121   1.743
  966SOL    HW2 3798   6.089   3.042   1.885
  967SOL     OW 3799   1.132   5.292   2.934
  967SOL    HW1 3800   1.140   5.224   2.862
  967SOL    HW2 3801   1.201   5.364   2.920
  968SOL     OW 3802   0.303   4.389   0.401
  968SOL    HW1 3803   0.268   4.468   0.451
  968SOL    HW2 3804   0.229   4.345   0.350
  969SOL     OW 3805   3.806   6.739   6.532
  969SOL    HW1 3806   3.851   6.774   6.451
  969SOL    HW2 3807   3.813   6.806   6.606
  970SOL     OW 3808   5.155   3.553   6.222
  970SOL    HW1 3809   5.078   3.522   6.167
  970SOL    HW2 3810   5.131   3.639   6.267
  971SOL     OW 3811   0.112   2.484   6.546
  971SOL    HW1 3812   0.091   2.422   6.621
  971SOL    HW2 3813   0.105   2.579   6.578
  972SOL     OW 3814   4.819   6.900   6.396
  972SOL    HW1 3815   4.865   6.864   6.478
  972SOL    HW2 3816   4.852   6.992   6.378
  973SOL     OW 3817   6.585   3.280   5.984
  973SOL    HW1 3818   6.489   3.299   6.003
  973SOL    HW2 3819   6.639   3.364   6.000
  974SOL     OW 3820   2.448   0.221   4.332
  974SOL    HW1 3821   2.452   0.291   4.261
  974SOL    HW2 3822   2.367   0.163   4.317
  975SOL     OW 3823   3.017   6.902   4.831
  975SOL    HW1 3824   3.061   6.934   4.747
  975SOL    HW2 3825   2.920   6.884   4.814
  976SOL     OW 3826   0.249   5.123   3.949
  976SOL    HW1 3827   0.306   5.109   4.030
  976SOL    HW2 3828   0.187   5.200   3.965
  977SOL     OW 3829   1.368   2.073   1.924
  977SOL    HW1 3830   1.456   2.116   1.903
  977SOL    HW2 3831   1.333   2.026   1.843
  978SOL     OW 3832   6.028   2.974   4.096
  978SOL    HW1 3833   6.038   3.070   4.069
  978SOL    HW2 3834   5.990   2.969   4.188
  979SOL     OW 3835   6.108   1.666   3.008
  979SOL    HW1 3836   6.163   1.639   3.087
  979SOL    HW2 3837   6.063   1.585   2.970
  980SOL     OW 3838   6.658   0.144   5.386
  980SOL    HW1 3839   6.718   0.175   5.460
  980SOL    HW2 3840   6.595   0.074   5.420
  981SOL     OW 3841   6.535   3.131   0.072
  981SOL    HW1 3842   6.491   3.149   7.011
  981SOL    HW2 3843   6.502   3.044   0.108
  982SOL     OW 3844   1.557   4.343   0.463
  982SOL    HW1 3845   1.578   4.285   0.384
  982SOL    HW2 3846   1.493   4.415   0.436
  983SOL     OW 3847   5.295   1.428   3.319
  983SOL    HW1 3848   5.224   1.472   3.264
  983SOL    HW2 3849   5.266   1.426   3.414
  984SOL     OW 3850   5.051   2.858   5.134
  984SOL    HW1 3851   5.123   2.790   5.147
  984SOL    HW2 3852   5.087   2.934   5.080
  985SOL     OW 3853   1.836   4.174   0.455
  985SOL    HW1 3854   1.904   4.106   0.427
  985SOL    HW2 3855   1.880   4.243   0.512
  986SOL     OW 3856   5.164   4.051   5.014
  986SOL    HW1 3857   5.149   4.099   4.927
  986SOL    HW2 3858   5.090   4.074   5.077
  987SOL     OW 3859   3.002   0.821   2.817
  987SOL    HW1 3860   2.988   0.918   2.837
  987SOL    HW2 3861   2.971   0.766   2.895
  988SOL     OW 3862   3.672   2.842   1.300
  988SOL    HW1 3863   3.713   2.911   1.240
  988SOL    HW2 3864   3.731   2.828   1.380
  989SOL     OW 3865   0.796   1.352   4.612
  989SOL    HW1 3866   0.831   1.405   4.535
  989SOL    HW2 3867   0.777   1.259   4.583
  990SOL     OW 3868   4.826   6.725   2.226
  990SOL    HW1 3869   4.867   6.817   2.233
  990SOL    HW2 3870   4.878   6.672   2.159
  991SOL     OW 3871   6.016   1.889   5.808
  991SOL    HW1 3872   6.002   1.860   5.714
  991SOL    HW2 3873   6.059   1.815   5.860
  992SOL     OW 3874   0.261   2.571   0.791
  992SOL    HW1 3875   0.212   2.615   0.866
  992SOL    HW2 3876   0.341   2.523   0.827
  993SOL     OW 3877   4.385   0.179   4.434
  993SOL    HW1 3878   4.400   0.215   4.526
  993SOL    HW2 3879   4.315   0.108   4.436
  994SOL     OW 3880   3.120   3.930   3.515
  994SOL    HW1 3881   3.152   3.921   3.610
  994SOL    HW2 3882   3.199   3.941   3.454
  995SOL     OW 3883   1.084   1.642   5.309
  995SOL    HW1 3884   1.104   1.734   5.276
  995SOL    HW2 3885   1.017   1.599   5.249
  996SOL     OW 3886   1.158   3.392   6.658
  996SOL    HW1 3887   1.238   3.332   6.654
  996SOL    HW2 3888   1.109   3.388   6.571
  997SOL     OW 3889   6.811   1.558   0.373
  997SOL    HW1 3890   6.854   1.469   0.356
  997SOL    HW2 3891   6.746   1.549   0.449
  998SOL     OW 3892   4.764   0.068   3.090
  998SOL    HW1 3893   4.778   0.082   3.188
  998SOL    HW2 3894   4.775   0.155   3.042
  999SOL     OW 3895   6.606   5.373   0.327
  999SOL    HW1 3896   6.652   5.454   0.361
  999SOL    HW2 3897   6.617   5.298   0.393
 1000SOL     OW 3898   3.980   1.929   4.903
 1000SOL    HW1 3899   4.002   2.027   4.909
 1000SOL    HW2 3900   3.896   1.911   4.955
 1001SOL     OW 3901   4.872   1.054   4.686
 1001SOL    HW1 3902   4.869   0.964   4.642
 1001SOL    HW2 3903   4.780   1.093   4.688
 1002SOL     OW 3904   0.527   1.240   0.271
 1002SOL    HW1 3905   0.453   1.175   0.285
 1002SOL    HW2 3906   0.566   1.267   0.359
 1003SOL     OW 3907   4.242   5.108   2.758
 1003SOL    HW1 3908   4.249   5.134   2.662
 1003SOL    HW2 3909   4.154   5.137   2.794
 1004SOL     OW 3910   5.907   5.922   0.223
 1004SOL    HW1 3911   5.808   5.935   0.238
 1004SOL    HW2 3912   5.953   5.920   0.311
 1005SOL     OW 3913   5.728   6.545   3.174
 1005SOL    HW1 3914   5.736   6.645   3.168
 1005SOL    HW2 3915   5.752   6.504   3.086
 1006SOL     OW 3916   1.806   5.177   0.219
 1006SOL    HW1 3917   1.761   5.182   0.130
 1006SOL    HW2 3918   1.864   5.257   0.231
 1007SOL     OW 3919   5.954   1.695   2.713
 1007SOL    HW1 3920   6.028   1.639   2.675
 1007SOL    HW2 3921   5.905   1.741   2.639
 1008SOL     OW 3922   3.378   1.797   4.983
 1008SOL    HW1 3923   3.357   1.877   4.928
 1008SOL    HW2 3924   3.432   1.824   5.062
 1009SOL     OW 3925   3.267   6.262   5.830
 1009SOL    HW1 3926   3.333   6.256   5.904
 1009SOL    HW2 3927   3.315   6.276   5.743
 1010SOL     OW 3928   5.410   6.730   5.454
 1010SOL    HW1 3929   5.336   6.693   5.510
 1010SOL    HW2 3930   5.372   6.766   5.368
 1011SOL     OW 3931   2.882   5.353   4.509
 1011SOL    HW1 3932   2.876   5.417   4.432
 1011SOL    HW2 3933   2.800   5.296   4.511
 1012SOL     OW 3934   3.597   6.468   1.341
 1012SOL    HW1 3935   3.606   6.478   1.440
 1012SOL    HW2 3936   3.687   6.449   1.301
 1013SOL     OW 3937   0.503   0.207   0.207
 1013SOL    HW1 3938   0.528   0.184   0.302
 1013SOL    HW2 3939   0.489   0.124   0.155
 1014SOL     OW 3940   6.062   0.129   5.914
 1014SOL    HW1 3941   6.149   0.152   5.870
 1014SOL    HW2 3942   6.044   0.196   5.987
 1015SOL     OW 3943   2.716   0.510   5.011
 1015SOL    HW1 3944   2.807   0.499   4.972
 1015SOL    HW2 3945   2.667   0.583   4.962
 1016SOL     OW 3946   4.267   2.961   0.994
 1016SOL    HW1 3947   4.201   2.989   0.925
 1016SOL    HW2 3948   4.227   2.892   1.054
 1017SOL     OW 3949   4.540   6.782   6.109
 1017SOL    HW1 3950   4.558   6.684   6.118
 1017SOL    HW2 3951   4.445   6.801   6.133
 1018SOL     OW 3952   1.282   1.953   1.684
 1018SOL    HW1 3953   1.272   1.855   1.666
 1018SOL    HW2 3954   1.321   1.997   1.604
 1019SOL     OW 3955   5.571   0.974   0.684
 1019SOL    HW1 3956   5.615   0.973   0.775
 1019SOL    HW2 3957   5.642   0.970   0.614
 1020SOL     OW 3958   3.712   2.164   1.670
 1020SOL    HW1 3959   3.707   2.219   1.753
 1020SOL    HW2 3960   3.624   2.167   1.622
 1021SOL     OW 3961   6.880   1.820   1.106
 1021SOL    HW1 3962   6.836   1.906   1.134
 1021SOL    HW2 3963   6.865   1.805   1.008
 1022SOL     OW 3964   3.544   3.186   0.224
 1022SOL    HW1 3965   3.454   3.188   0.180
 1022SOL    HW2 3966   3.536   3.143   0.314
 1023SOL     OW 3967   6.497   0.865   4.384
 1023SOL    HW1 3968   6.423   0.918   4.425
 1023SOL    HW2 3969   6.579   0.874   4.439
 1024SOL     OW 3970   6.364   2.269   3.494
 1024SOL    HW1 3971   6.357   2.208   3.416
 1024SOL    HW2 3972   6.389   2.361   3.463
 1025SOL     OW 3973   2.448   4.225   1.479
 1025SOL    HW1 3974   2.375   4.247   1.543
 1025SOL    HW2 3975   2.448   4.291   1.404
 1026SOL     OW 3976   0.725   2.561   6.420
 1026SOL    HW1 3977   0.825   2.568   6.417
 1026SOL    HW2 3978   0.698   2.484   6.478
 1027SOL     OW 3979   2.020   4.890   0.953
 1027SOL    HW1 3980   2.103   4.853   0.996
 1027SOL    HW2 3981   1.943   4.828   0.971
 1028SOL     OW 3982   0.520   5.264   6.949
 1028SOL    HW1 3983   0.506   5.280   0.020
 1028SOL    HW2 3984   0.532   5.166   6.933
 1029SOL     OW 3985   3.698   0.582   4.747
 1029SOL    HW1 3986   3.764   0.653   4.726
 1029SOL    HW2 3987   3.697   0.565   4.846
 1030SOL     OW 3988   4.529   5.168   4.847
 1030SOL    HW1 3989   4.438   5.189   4.881
 1030SOL    HW2 3990   4.574   5.252   4.817
 1031SOL     OW 3991   2.634   6.309   1.038
 1031SOL    HW1 3992   2.566   6.238   1.058
 1031SOL    HW2 3993   2.643   6.318   0.939
 1032SOL     OW 3994   0.933   1.789   5.576
 1032SOL    HW1 3995   0.976   1.852   5.512
 1032SOL    HW2 3996   0.926   1.698   5.534
 1033SOL     OW 3997   3.219   7.003   1.744
 1033SOL    HW1 3998   3.229   6.936   1.671
 1033SOL    HW2 3999   3.159   0.050   1.714
 1034SOL     OW 4000   0.109   5.977   2.458
 1034SOL    HW1 4001   0.105   6.051   2.526
 1034SOL    HW2 4002   0.116   6.016   2.367
 1035SOL     OW 4003   3.448   2.161   3.077
 1035SOL    HW1 4004   3.350   2.150   3.059
 1035SOL    HW2 4005   3.492   2.203   2.998
 1036SOL     OW 4006   4.788   0.110   6.644
 1036SOL    HW1 4007   4.692   0.130   6.660
 1036SOL    HW2 4008   4.817   0.035   6.704
 1037SOL     OW 4009   4.062   0.904   6.070
 1037SOL    HW1 4010   4.157   0.891   6.042
 1037SOL    HW2 4011   4.030   0.994   6.038
 1038SOL     OW 4012   2.752   1.792   5.094
 1038SOL    HW1 4013   2.772   1.810   4.998
 1038SOL    HW2 4014   2.812   1.720   5.128
 1039SOL     OW 4015   5.226   1.646   2.613
 1039SOL    HW1 4016   5.225   1.639   2.513
 1039SOL    HW2 4017   5.228   1.742   2.640
 1040SOL     OW 4018   5.978   4.411   4.400
 1040SOL    HW1 4019   5.881   4.415   4.379
 1040SOL    HW2 4020   6.022   4.497   4.373
 1041SOL     OW 4021   1.719   6.785   4.486
 1041SOL    HW1 4022   1.718   6.804   4.388
 1041SOL    HW2 4023   1.812   6.793   4.521
 1042SOL     OW 4024   4.408   4.222   0.704
 1042SOL    HW1 4025   4.438   4.137   0.748
 1042SOL    HW2 4026   4.325   4.204   0.651
 1043SOL     OW 4027   3.999   0.255   6.387
 1043SOL    HW1 4028   4.063   0.242   6.463
 1043SOL    HW2 4029   3.906   0.262   6.423
 1044SOL     OW 4030   3.598   3.987   3.527
 1044SOL    HW1 4031   3.544   4.054   3.578
 1044SOL    HW2 4032   3.695   4.013   3.531
 1045SOL     OW 4033   2.602   1.042   2.564
 1045SOL    HW1 4034   2.575   1.042   2.660
 1045SOL    HW2 4035   2.667   1.117   2.548
 1046SOL     OW 4036   2.664   0.769   1.833
 1046SOL    HW1 4037   2.683   0.761   1.931
 1046SOL    HW2 4038   2.668   0.678   1.791
 1047SOL     OW 4039   6.861   6.582   2.020
 1047SOL    HW1 4040   6.831   6.486   2.018
 1047SOL    HW2 4041   6.928   6.594   2.094
 1048SOL     OW 4042   6.263   3.956   4.898
 1048SOL    HW1 4043   6.332   3.895   4.938
 1048SOL    HW2 4044   6.203   3.903   4.838
 1049SOL     OW 4045   0.667   3.661   5.816
 1049SOL    HW1 4046   0.589   3.599   5.820
 1049SOL    HW2 4047   0.746   3.619   5.860
 1050SOL     OW 4048   2.761   0.325   1.283
 1050SOL    HW1 4049   2.758   0.227   1.298
 1050SOL    HW2 4050   2.814   0.369   1.356
 1051SOL     OW 4051   4.682   4.647   1.585
 1051SOL    HW1 4052   4.695   4.568   1.646
 1051SOL    HW2 4053   4.671   4.616   1.491
 1052SOL     OW 4054   3.017   0.159   3.721
 1052SOL    HW1 4055   2.947   0.208   3.668
 1052SOL    HW2 4056   2.983   0.142   3.813
 1053SOL     OW 4057   3.889   5.250   3.542
 1053SOL    HW1 4058   3.861   5.155   3.548
 1053SOL    HW2 4059   3.813   5.309   3.570
 1054SOL     OW 4060   4.100   6.046   5.106
 1054SOL    HW1 4061   4.051   6.120   5.152
 1054SOL    HW2 4062   4.035   5.977   5.074
 1055SOL     OW 4063   4.049   4.829   4.342
 1055SOL    HW1 4064   4.128   4.834   4.403
 1055SOL    HW2 4065   4.081   4.820   4.248
 1056SOL     OW 4066   3.091   5.828   0.359
 1056SOL    HW1 4067   3.030   5.798   0.285
 1056SOL    HW2 4068   3.168   5.879   0.320
 1057SOL     OW 4069   3.576   4.002   1.532
 1057SOL    HW1 4070   3.492   3.966   1.491
 1057SOL    HW2 4071   3.620   3.932   1.587
 1058SOL     OW 4072   3.099   0.181   2.117
 1058SOL    HW1 4073   3.022   0.166   2.180
 1058SOL    HW2 4074   3.161   0.102   2.122
 1059SOL     OW 4075   4.346   0.130   0.700
 1059SOL    HW1 4076   4.404   0.066   0.751
 1059SOL    HW2 4077   4.333   0.095   0.607
 1060SOL     OW 4078   3.494   1.618   4.095
 1060SOL    HW1 4079   3.530   1.582   4.009
 1060SOL    HW2 4080   3.542   1.702   4.119
 1061SOL     OW 4081   2.566   5.900   1.111
 1061SOL    HW1 4082   2.542   5.803   1.104
 1061SOL    HW2 4083   2.626   5.915   1.189
 1062SOL     OW 4084   5.080   4.152   4.713
 1062SOL    HW1 4085   5.044   4.104   4.633
 1062SOL    HW2 4086   5.042   4.245   4.717
 1063SOL     OW 4087   3.718   2.234   5.798
 1063SOL    HW1 4088   3.652   2.305   5.823
 1063SOL    HW2 4089   3.702   2.205   5.703
 1064SOL     OW 4090   0.515   3.840   2.896
 1064SOL    HW1 4091   0.476   3.870   2.983
 1064SOL    HW2 4092   0.466   3.885   2.821
 1065SOL     OW 4093   4.163   5.369   6.793
 1065SOL    HW1 4094   4.104   5.291   6.774
 1065SOL    HW2 4095   4.250   5.338   6.830
 1066SOL     OW 4096   4.979   0.339   3.673
 1066SOL    HW1 4097   4.983   0.242   3.697
 1066SOL    HW2 4098   4.885   0.371   3.675
 1067SOL     OW 4099   3.375   4.059   0.344
 1067SOL    HW1 4100   3.405   4.093   0.255
 1067SOL    HW2 4101   3.276   4.064   0.350
 1068SOL     OW 4102   1.025   5.504   1.795
 1068SOL    HW1 4103   0.963   5.544   1.862
 1068SOL    HW2 4104   1.114   5.549   1.800
 1069SOL     OW 4105   3.533   3.332   2.847
 1069SOL    HW1 4106   3.480   3.417   2.858
 1069SOL    HW2 4107   3.504   3.285   2.764
 1070SOL     OW 4108   1.517   6.309   0.610
 1070SOL    HW1 4109   1.537   6.246   0.535
 1070SOL    HW2 4110   1.597   6.317   0.669
 1071SOL     OW 4111   5.095   6.088   3.514
 1071SOL    HW1 4112   5.014   6.142   3.491
 1071SOL    HW2 4113   5.136   6.123   3.598
 1072SOL     OW 4114   4.139   5.827   3.505
 1072SOL    HW1 4115   4.203   5.902   3.517
 1072SOL    HW2 4116   4.152   5.786   3.415
 1073SOL     OW 4117   3.118   5.465   3.268
 1073SOL    HW1 4118   3.023   5.435   3.272
 1073SOL    HW2 4119   3.177   5.393   3.305
 1074SOL     OW 4120   2.043   4.717   3.624
 1074SOL    HW1 4121   1.960   4.662   3.620
 1074SOL    HW2 4122   2.046   4.780   3.546
 1075SOL     OW 4123   0.762   4.421   2.686
 1075SOL    HW1 4124   0.765   4.521   2.688
 1075SOL    HW2 4125   0.832   4.387   2.623
 1076SOL     OW 4126   5.886   3.422   3.195
 1076SOL    HW1 4127   5.795   3.392   3.223
 1076SOL    HW2 4128   5.953   3.399   3.266
 1077SOL     OW 4129   4.351   0.534   2.012
 1077SOL    HW1 4130   4.403   0.587   2.078
 1077SOL    HW2 4131   4.265   0.581   1.992
 1078SOL     OW 4132   6.676   2.697   2.437
 1078SOL    HW1 4133   6.641   2.605   2.457
 1078SOL    HW2 4134   6.722   2.696   2.347
 1079SOL     OW 4135   1.757   4.590   3.319
 1079SOL    HW1 4136   1.775   4.570   3.223
 1079SOL    HW2 4137   1.659   4.592   3.335
 1080SOL     OW 4138   2.208   5.442   3.886
 1080SOL    HW1 4139   2.204   5.541   3.896
 1080SOL    HW2 4140   2.267   5.418   3.810
 1081SOL     OW 4141   1.469   0.207   6.948
 1081SOL    HW1 4142   1.373   0.191   6.926
 1081SOL    HW2 4143   1.493   0.302   6.925
 1082SOL     OW 4144   2.059   0.241   1.013
 1082SOL    HW1 4145   2.057   0.164   0.949
 1082SOL    HW2 4146   2.150   0.250   1.052
 1083SOL     OW 4147   3.732   2.879   1.906
 1083SOL    HW1 4148   3.698   2.931   1.984
 1083SOL    HW2 4149   3.830   2.896   1.895
 1084SOL     OW 4150   6.113   3.864   1.349
 1084SOL    HW1 4151   6.141   3.837   1.441
 1084SOL    HW2 4152   6.034   3.926   1.355
 1085SOL     OW 4153   1.451   5.639   4.021
 1085SOL    HW1 4154   1.367   5.615   3.973
 1085SOL    HW2 4155   1.448   5.736   4.047
 1086SOL     OW 4156   2.864   5.447   2.664
 1086SOL    HW1 4157   2.921   5.499   2.727
 1086SOL    HW2 4158   2.821   5.372   2.713
 1087SOL     OW 4159   3.993   3.063   5.303
 1087SOL    HW1 4160   3.941   3.136   5.345
 1087SOL    HW2 4161   3.950   3.036   5.216
 1088SOL     OW 4162   6.994   4.509   2.513
 1088SOL    HW1 4163   0.027   4.571   2.463
 1088SOL    HW2 4164   0.004   4.493   2.605
 1089SOL     OW 4165   6.556   0.016   3.079
 1089SOL    HW1 4166   6.500   0.008   3.161
 1089SOL    HW2 4167   6.583   6.952   3.048
 1090SOL     OW 4168   2.699   2.214   6.545
 1090SOL    HW1 4169   2.725   2.131   6.496
 1090SOL    HW2 4170   2.688   2.289   6.480
 1091SOL     OW 4171   1.549   2.148   6.146
 1091SOL    HW1 4172   1.572   2.111   6.056
 1091SOL    HW2 4173   1.522   2.073   6.207
 1092SOL     OW 4174   3.178   4.921   1.641
 1092SOL    HW1 4175   3.147   4.853   1.708
 1092SOL    HW2 4176   3.258   4.969   1.677
 1093SOL     OW 4177   0.579   2.369   1.520
 1093SOL    HW1 4178   0.539   2.305   1.586
 1093SOL    HW2 4179   0.521   2.375   1.439
 1094SOL     OW 4180   1.098   6.039   2.694
 1094SOL    HW1 4181   1.084   6.076   2.602
 1094SOL    HW2 4182   1.013   5.996   2.725
 1095SOL     OW 4183   1.009   3.199   5.999
 1095SOL    HW1 4184   1.074   3.275   6.001
 1095SOL    HW2 4185   1.060   3.113   5.992
 1096SOL     OW 4186   3.564   2.942   2.630
 1096SOL    HW1 4187   3.536   3.038   2.640
 1096SOL    HW2 4188   3.542   2.891   2.713
 1097SOL     OW 4189   3.055   5.015   5.668
 1097SOL    HW1 4190   3.095   5.102   5.699
 1097SOL    HW2 4191   2.966   5.002   5.712
 1098SOL     OW 4192   2.981   0.654   2.572
 1098SOL    HW1 4193   2.995   0.717   2.648
 1098SOL    HW2 4194   3.063   0.599   2.559
 1099SOL     OW 4195   3.236   0.488   2.137
 1099SOL    HW1 4196   3.205   0.580   2.115
 1099SOL    HW2 4197   3.281   0.448   2.057
 1100SOL     OW 4198   6.685   0.885   0.362
 1100SOL    HW1 4199   6.755   0.837   0.415
 1100SOL    HW2 4200   6.721   0.906   0.271
 1101SOL     OW 4201   5.807   3.826   0.906
 1101SOL    HW1 4202   5.871   3.805   0.980
 1101SOL    HW2 4203   5.723   3.773   0.918
 1102SOL     OW 4204   0.264   3.965   4.190
 1102SOL    HW1 4205   0.209   4.037   4.233
 1102SOL    HW2 4206   0.286   3.895   4.258
 1103SOL     OW 4207   0.507   2.755   0.039
 1103SOL    HW1 4208   0.570   2.678   0.037
 1103SOL    HW2 4209   0.496   2.787   0.133
 1104SOL     OW 4210   2.573   5.488   5.623
 1104SOL    HW1 4211   2.555   5.581   5.593
 1104SOL    HW2 4212   2.631   5.442   5.556
 1105SOL     OW 4213   4.002   5.881   0.667
 1105SOL    HW1 4214   4.094   5.920   0.660
 1105SOL    HW2 4215   3.934   5.949   0.641
 1106SOL     OW 4216   0.632   1.453   6.859
 1106SOL    HW1 4217   0.721   1.453   6.905
 1106SOL    HW2 4218   0.571   1.389   6.905
 1107SOL     OW 4219   6.713   0.263   1.430
 1107SOL    HW1 4220   6.614   0.263   1.446
 1107SOL    HW2 4221   6.734   0.319   1.349
 1108SOL     OW 4222   1.418   1.149   0.483
 1108SOL    HW1 4223   1.321   1.124   0.478
 1108SOL    HW2 4224   1.431   1.219   0.553
 1109SOL     OW 4225   3.992   1.400   3.711
 1109SOL    HW1 4226   4.000   1.430   3.806
 1109SOL    HW2 4227   4.041   1.313   3.700
 1110SOL     OW 4228   3.784   3.212   3.176
 1110SOL    HW1 4229   3.785   3.123   3.221
 1110SOL    HW2 4230   3.821   3.281   3.239
 1111SOL     OW 4231   3.970   6.549   6.649
 1111SOL    HW1 4232   4.064   6.575   6.629
 1111SOL    HW2 4233   3.907   6.613   6.603
 1112SOL     OW 4234   1.007   1.631   2.689
 1112SOL    HW1 4235   1.074   1.706   2.681
 1112SOL    HW2 4236   1.005   1.599   2.783
 1113SOL     OW 4237   6.678   3.838   1.696
 1113SOL    HW1 4238   6.710   3.758   1.644
 1113SOL    HW2 4239   6.579   3.843   1.692
 1114SOL     OW 4240   5.880   1.039   5.705
 1114SOL    HW1 4241   5.875   1.111   5.775
 1114SOL    HW2 4242   5.974   1.003   5.702
 1115SOL     OW 4243   2.224   5.088   0.559
 1115SOL    HW1 4244   2.206   5.135   0.472
 1115SOL    HW2 4245   2.222   5.154   0.634
 1116SOL     OW 4246   3.589   6.173   6.496
 1116SOL    HW1 4247   3.536   6.092   6.470
 1116SOL    HW2 4248   3.656   6.148   6.567
 1117SOL     OW 4249   2.608   2.929   0.457
 1117SOL    HW1 4250   2.552   3.000   0.500
 1117SOL    HW2 4251   2.563   2.899   0.373
 1118SOL     OW 4252   1.617   2.649   1.270
 1118SOL    HW1 4253   1.650   2.728   1.218
 1118SOL    HW2 4254   1.690   2.615   1.329
 1119SOL     OW 4255   3.066   3.669   3.677
 1119SOL    HW1 4256   3.031   3.748   3.627
 1119SOL    HW2 4257   3.010   3.654   3.759
 1120SOL     OW 4258   3.373   1.062   3.781
 1120SOL    HW1 4259   3.350   1.145   3.730
 1120SOL    HW2 4260   3.310   0.989   3.757
 1121SOL     OW 4261   4.740   4.085   3.066
 1121SOL    HW1 4262   4.742   4.152   3.140
 1121SOL    HW2 4263   4.759   3.994   3.102
 1122SOL     OW 4264   4.627   4.881   6.495
 1122SOL    HW1 4265   4.642   4.979   6.503
 1122SOL    HW2 4266   4.705   4.832   6.534
 1123SOL     OW 4267   3.638   0.604   2.194
 1123SOL    HW1 4268   3.679   0.683   2.150
 1123SOL    HW2 4269   3.605   0.630   2.285
 1124SOL     OW 4270   2.210   5.200   3.629
 1124SOL    HW1 4271   2.256   5.117   3.658
 1124SOL    HW2 4272   2.174   5.188   3.537
 1125SOL     OW 4273   3.371   4.252   5.506
 1125SOL    HW1 4274   3.310   4.229   5.430
 1125SOL    HW2 4275   3.325   4.232   5.593
 1126SOL     OW 4276   6.595   0.571   1.911
 1126SOL    HW1 4277   6.605   0.643   1.979
 1126SOL    HW2 4278   6.666   0.581   1.841
 1127SOL     OW 4279   2.178   5.718   6.053
 1127SOL    HW1 4280   2.127   5.633   6.067
 1127SOL    HW2 4281   2.120   5.784   6.005
 1128SOL     OW 4282   2.194   2.429   5.089
 1128SOL    HW1 4283   2.279   2.466   5.052
 1128SOL    HW2 4284   2.181   2.336   5.054
 1129SOL     OW 4285   4.326   5.315   6.471
 1129SOL    HW1 4286   4.398   5.326   6.539
 1129SOL    HW2 4287   4.337   5.383   6.399
 1130SOL     OW 4288   1.414   5.441   5.667
 1130SOL    HW1 4289   1.323   5.456   5.704
 1130SOL    HW2 4290   1.453   5.528   5.637
 1131SOL     OW 4291   0.163   4.660   6.200
 1131SOL    HW1 4292   0.128   4.576   6.160
 1131SOL    HW2 4293   0.199   4.719   6.127
 1132SOL     OW 4294   5.297   6.781   5.169
 1132SOL    HW1 4295   5.215   6.835   5.149
 1132SOL    HW2 4296   5.285   6.689   5.133
 1133SOL     OW 4297   6.650   1.692   6.427
 1133SOL    HW1 4298   6.670   1.657   6.518
 1133SOL    HW2 4299   6.571   1.753   6.431
 1134SOL     OW 4300   0.023   3.135   5.235
 1134SOL    HW1 4301   0.008   3.226   5.194
 1134SOL    HW2 4302   0.094   3.141   5.305
 1135SOL     OW 4303   0.100   1.812   4.288
 1135SOL    HW1 4304   0.156   1.765   4.219
 1135SOL    HW2 4305   0.049   1.886   4.245
 1136SOL     OW 4306   3.775   5.304   3.965
 1136SOL    HW1 4307   3.698   5.292   4.028
 1136SOL    HW2 4308   3.788   5.220   3.912
 1137SOL     OW 4309   0.598   0.418   0.056
 1137SOL    HW1 4310   0.538   0.488   0.096
 1137SOL    HW2 4311   0.570   0.328   0.088
 1138SOL     OW 4312   0.955   3.245   5.726
 1138SOL    HW1 4313   0.984   3.257   5.821
 1138SOL    HW2 4314   1.033   3.256   5.665
 1139SOL     OW 4315   0.634   0.146   2.582
 1139SOL    HW1 4316   0.678   0.071   2.533
 1139SOL    HW2 4317   0.559   0.182   2.527
 1140SOL     OW 4318   4.288   1.902   3.297
 1140SOL    HW1 4319   4.216   1.862   3.353
 1140SOL    HW2 4320   4.278   1.873   3.202
 1141SOL     OW 4321   0.218   6.535   6.121
 1141SOL    HW1 4322   0.187   6.527   6.216
 1141SOL    HW2 4323   0.233   6.632   6.099
 1142SOL     OW 4324   6.376   6.991   5.177
 1142SOL    HW1 4325   6.411   0.039   5.120
 1142SOL    HW2 4326   6.448   6.924   5.191
 1143SOL     OW 4327   5.401   2.745   1.169
 1143SOL    HW1 4328   5.355   2.782   1.249
 1143SOL    HW2 4329   5.496   2.725   1.191
 1144SOL     OW 4330   0.987   6.455   4.799
 1144SOL    HW1 4331   0.993   6.379   4.864
 1144SOL    HW2 4332   0.979   6.419   4.706
 1145SOL     OW 4333   2.393   5.339   4.905
 1145SOL    HW1 4334   2.389   5.239   4.902
 1145SOL    HW2 4335   2.383   5.370   4.999
 1146SOL     OW 4336   5.810   1.956   1.907
 1146SOL    HW1 4337   5.880   1.908   1.961
 1146SOL    HW2 4338   5.843   1.968   1.813
 1147SOL     OW 4339   6.394   3.965   2.107
 1147SOL    HW1 4340   6.442   3.971   2.194
 1147SOL    HW2 4341   6.295   3.970   2.122
 1148SOL     OW 4342   6.448   0.100   6.364
 1148SOL    HW1 4343   6.400   0.111   6.277
 1148SOL    HW2 4344   6.468   0.190   6.403
 1149SOL     OW 4345   4.906   3.468   3.047
 1149SOL    HW1 4346   4.892   3.440   2.952
 1149SOL    HW2 4347   4.904   3.568   3.053
 1150SOL     OW 4348   1.886   6.234   5.393
 1150SOL    HW1 4349   1.798   6.220   5.438
 1150SOL    HW2 4350   1.873   6.236   5.294
 1151SOL     OW 4351   2.402   5.421   0.114
 1151SOL    HW1 4352   2.486   5.470   0.138
 1151SOL    HW2 4353   2.337   5.484   0.072
 1152SOL     OW 4354   6.523   0.672   3.546
 1152SOL    HW1 4355   6.510   0.610   3.623
 1152SOL    HW2 4356   6.457   0.747   3.552
 1153SOL     OW 4357   2.266   4.261   2.502
 1153SOL    HW1 4358   2.278   4.358   2.479
 1153SOL    HW2 4359   2.237   4.252   2.597
 1154SOL     OW 4360   1.784   4.322   2.270
 1154SOL    HW1 4361   1.838   4.375   2.334
 1154SOL    HW2 4362   1.700   4.290   2.315
 1155SOL     OW 4363   4.983   0.630   2.163
 1155SOL    HW1 4364   5.055   0.628   2.232
 1155SOL    HW2 4365   4.912   0.695   2.190
 1156SOL     OW 4366   2.383   0.622   4.634
 1156SOL    HW1 4367   2.354   0.716   4.617
 1156SOL    HW2 4368   2.307   0.570   4.671
 1157SOL     OW 4369   1.440   3.484   3.832
 1157SOL    HW1 4370   1.460   3.388   3.850
 1157SOL    HW2 4371   1.344   3.494   3.806
 1158SOL     OW 4372   4.567   5.246   5.807
 1158SOL    HW1 4373   4.491   5.182   5.818
 1158SOL    HW2 4374   4.626   5.243   5.888
 1159SOL     OW 4375   6.133   4.392   2.731
 1159SOL    HW1 4376   6.085   4.376   2.818
 1159SOL    HW2 4377   6.144   4.490   2.716
 1160SOL     OW 4378   2.730   2.292   1.354
 1160SOL    HW1 4379   2.735   2.242   1.440
 1160SOL    HW2 4380   2.640   2.280   1.313
 1161SOL     OW 4381   3.874   1.020   3.614
 1161SOL    HW1 4382   3.925   1.046   3.696
 1161SOL    HW2 4383   3.929   0.956   3.560
 1162SOL     OW 4384   3.678   5.194   1.746
 1162SOL    HW1 4385   3.767   5.234   1.722
 1162SOL    HW2 4386   3.611   5.267   1.759
 1163SOL     OW 4387   5.050   6.671   2.473
 1163SOL    HW1 4388   4.950   6.665   2.471
 1163SOL    HW2 4389   5.085   6.677   2.380
 1164SOL     OW 4390   6.788   4.319   4.641
 1164SOL    HW1 4391   6.828   4.410   4.628
 1164SOL    HW2 4392   6.860   4.250   4.635
 1165SOL     OW 4393   0.478   4.789   1.967
 1165SOL    HW1 4394   0.439   4.755   1.881
 1165SOL    HW2 4395   0.405   4.824   2.025
 1166SOL     OW 4396   3.343   0.509   6.624
 1166SOL    HW1 4397   3.413   0.464   6.679
 1166SOL    HW2 4398   3.263   0.528   6.681
 1167SOL     OW 4399   4.612   1.606   5.432
 1167SOL    HW1 4400   4.609   1.633   5.529
 1167SOL    HW2 4401   4.623   1.506   5.426
 1168SOL     OW 4402   5.641   0.987   3.724
 1168SOL    HW1 4403   5.553   0.943   3.710
 1168SOL    HW2 4404   5.648   1.068   3.665
 1169SOL     OW 4405   1.776   2.500   0.846
 1169SOL    HW1 4406   1.795   2.597   0.863
 1169SOL    HW2 4407   1.785   2.449   0.931
 1170SOL     OW 4408   2.615   0.930   1.489
 1170SOL    HW1 4409   2.574   0.968   1.572
 1170SOL    HW2 4410   2.632   1.004   1.423
 1171SOL     OW 4411   4.374   0.975   0.826
 1171SOL    HW1 4412   4.376   0.977   0.926
 1171SOL    HW2 4413   4.347   0.883   0.795
 1172SOL     OW 4414   3.309   3.286   5.820
 1172SOL    HW1 4415   3.299   3.273   5.721
 1172SOL    HW2 4416   3.392   3.240   5.852
 1173SOL     OW 4417   5.680   6.337   6.143
 1173SOL    HW1 4418   5.720   6.357   6.233
 1173SOL    HW2 4419   5.626   6.415   6.112
 1174SOL     OW 4420   3.713   5.911   6.761
 1174SOL    HW1 4421   3.708   5.816   6.733
 1174SOL    HW2 4422   3.743   5.916   6.857
 1175SOL     OW 4423   0.082   5.111   4.546
 1175SOL    HW1 4424   7.018   5.127   4.586
 1175SOL    HW2 4425   0.107   5.015   4.558
 1176SOL     OW 4426   6.220   3.606   1.782
 1176SOL    HW1 4427   6.287   3.583   1.852
 1176SOL    HW2 4428   6.155   3.530   1.773
 1177SOL     OW 4429   6.227   3.387   5.788
 1177SOL    HW1 4430   6.223   3.329   5.869
 1177SOL    HW2 4431   6.145   3.444   5.784
 1178SOL     OW 4432   4.279   5.155   2.498
 1178SOL    HW1 4433   4.263   5.253   2.496
 1178SOL    HW2 4434   4.231   5.112   2.421
 1179SOL     OW 4435   1.501   5.206   6.143
 1179SOL    HW1 4436   1.556   5.156   6.075
 1179SOL    HW2 4437   1.492   5.151   6.226
 1180SOL     OW 4438   2.016   1.051   4.018
 1180SOL    HW1 4439   1.995   1.007   3.931
 1180SOL    HW2 4440   2.109   1.089   4.014
 1181SOL     OW 4441   1.559   4.601   2.341
 1181SOL    HW1 4442   1.521   4.559   2.423
 1181SOL    HW2 4443   1.507   4.573   2.261
 1182SOL     OW 4444   0.625   3.479   4.448
 1182SOL    HW1 4445   0.654   3.438   4.361
 1182SOL    HW2 4446   0.653   3.575   4.450
 1183SOL     OW 4447   4.037   5.644   0.826
 1183SOL    HW1 4448   4.024   5.723   0.765
 1183SOL    HW2 4449   3.965   5.643   0.895
 1184SOL     OW 4450   3.817   2.731   6.371
 1184SOL    HW1 4451   3.731   2.684   6.353
 1184SOL    HW2 4452   3.852   2.771   6.286
 1185SOL     OW 4453   3.167   1.369   6.477
 1185SOL    HW1 4454   3.130   1.393   6.387
 1185SOL    HW2 4455   3.263   1.398   6.482
 1186SOL     OW 4456   3.918   6.859   4.851
 1186SOL    HW1 4457   3.877   6.774   4.885
 1186SOL    HW2 4458   3.909   6.931   4.920
 1187SOL     OW 4459   0.714   2.306   4.399
 1187SOL    HW1 4460   0.701   2.278   4.304
 1187SOL    HW2 4461   0.634   2.356   4.431
 1188SOL     OW 4462   2.059   0.956   5.302
 1188SOL    HW1 4463   2.048   0.857   5.289
 1188SOL    HW2 4464   1.969   0.998   5.313
 1189SOL     OW 4465   1.175   1.081   1.380
 1189SOL    HW1 4466   1.245   1.117   1.441
 1189SOL    HW2 4467   1.091   1.135   1.390
 1190SOL     OW 4468   3.478   6.035   2.556
 1190SOL    HW1 4469   3.561   5.997   2.595
 1190SOL    HW2 4470   3.434   5.966   2.498
 1191SOL     OW 4471   2.083   4.134   2.022
 1191SOL    HW1 4472   2.133   4.143   2.108
 1191SOL    HW2 4473   2.044   4.223   1.998
 1192SOL     OW 4474   3.650   5.812   2.840
 1192SOL    HW1 4475   3.589   5.809   2.919
 1192SOL    HW2 4476   3.738   5.771   2.863
 1193SOL     OW 4477   3.071   1.462   3.700
 1193SOL    HW1 4478   3.064   1.557   3.732
 1193SOL    HW2 4479   3.166   1.442   3.678
 1194SOL     OW 4480   6.527   1.969   2.766
 1194SOL    HW1 4481   6.611   1.962   2.713
 1194SOL    HW2 4482   6.461   2.026   2.718
 1195SOL     OW 4483   3.380   0.240   0.365
 1195SOL    HW1 4484   3.351   0.299   0.441
 1195SOL    HW2 4485   3.421   0.156   0.401
 1196SOL     OW 4486   1.857   5.397   3.418
 1196SOL    HW1 4487   1.906   5.477   3.452
 1196SOL    HW2 4488   1.810   5.420   3.333
 1197SOL     OW 4489   3.545   5.003   0.001
 1197SOL    HW1 4490   3.539   5.090   6.979
 1197SOL    HW2 4491   3.479   5.002   0.076
 1198SOL     OW 4492   3.223   0.824   3.233
 1198SOL    HW1 4493   3.305   0.774   3.204
 1198SOL    HW2 4494   3.243   0.922   3.235
 1199SOL     OW 4495   3.702   4.100   3.875
 1199SOL    HW1 4496   3.747   4.093   3.787
 1199SOL    HW2 4497   3.667   4.010   3.902
 1200SOL     OW 4498   4.570   3.863   1.299
 1200SOL    HW1 4499   4.644   3.810   1.339
 1200SOL    HW2 4500   4.605   3.913   1.219
 1201SOL     OW 4501   1.807   2.069   5.343
 1201SOL    HW1 4502   1.758   2.003   5.286
 1201SOL    HW2 4503   1.874   2.021   5.399
 1202SOL     OW 4504   6.183   6.522   4.432
 1202SOL    HW1 4505   6.092   6.483   4.421
 1202SOL    HW2 4506   6.211   6.566   4.346
 1203SOL     OW 4507   6.106   0.339   2.146
 1203SOL    HW1 4508   6.129   0.432   2.121
 1203SOL    HW2 4509   6.177   0.302   2.206
 1204SOL     OW 4510   2.209   6.697   0.210
 1204SOL    HW1 4511   2.286   6.758   0.228
 1204SOL    HW2 4512   2.161   6.678   0.295
 1205SOL     OW 4513   0.854   3.542   5.966
 1205SOL    HW1 4514   0.946   3.521   5.935
 1205SOL    HW2 4515   0.858   3.597   6.050
 1206SOL     OW 4516   6.121   1.272   5.260
 1206SOL    HW1 4517   6.133   1.371   5.252
 1206SOL    HW2 4518   6.152   1.241   5.350
 1207SOL     OW 4519   6.537   6.041   6.319
 1207SOL    HW1 4520   6.629   6.080   6.310
 1207SOL    HW2 4521   6.493   6.079   6.401
 1208SOL     OW 4522   3.601   3.519   2.519
 1208SOL    HW1 4523   3.539   3.556   2.450
 1208SOL    HW2 4524   3.687   3.570   2.517
 1209SOL     OW 4525   6.819   3.941   5.193
 1209SOL    HW1 4526   6.907   3.893   5.198
 1209SOL    HW2 4527   6.809   3.983   5.103
 1210SOL     OW 4528   2.336   0.336   3.457
 1210SOL    HW1 4529   2.237   0.324   3.451
 1210SOL    HW2 4530   2.377   0.314   3.369
 1211SOL     OW 4531   7.004   3.631   3.447
 1211SOL    HW1 4532   6.998   3.558   3.379
 1211SOL    HW2 4533   6.982   3.595   3.538
 1212SOL     OW 4534   0.891   4.445   3.201
 1212SOL    HW1 4535   0.846   4.401   3.279
 1212SOL    HW2 4536   0.982   4.406   3.188
 1213SOL     OW 4537   5.719   3.798   4.949
 1213SOL    HW1 4538   5.797   3.747   4.985
 1213SOL    HW2 4539   5.745   3.842   4.863
 1214SOL     OW 4540   0.805   1.849   1.163
 1214SOL    HW1 4541   0.752   1.922   1.206
 1214SOL    HW2 4542   0.795   1.765   1.217
 1215SOL     OW 4543   0.834   5.621   2.366
 1215SOL    HW1 4544   0.894   5.623   2.447
 1215SOL    HW2 4545   0.880   5.573   2.292
 1216SOL     OW 4546   2.280   6.821   1.310
 1216SOL    HW1 4547   2.338   6.879   1.366
 1216SOL    HW2 4548   2.303   6.835   1.213
 1217SOL     OW 4549   1.905   2.821   3.242
 1217SOL    HW1 4550   1.843   2.756   3.286
 1217SOL    HW2 4551   1.919   2.795   3.147
 1218SOL     OW 4552   0.404   3.979   3.071
 1218SOL    HW1 4553   0.320   3.941   3.110
 1218SOL    HW2 4554   0.469   3.998   3.144
 1219SOL     OW 4555   2.084   6.166   3.154
 1219SOL    HW1 4556   2.167   6.148   3.206
 1219SOL    HW2 4557   2.010   6.191   3.217
 1220SOL     OW 4558   6.427   4.997   2.496
 1220SOL    HW1 4559   6.452   4.957   2.408
 1220SOL    HW2 4560   6.425   5.097   2.488
 1221SOL     OW 4561   4.848   4.790   6.637
 1221SOL    HW1 4562   4.843   4.698   6.676
 1221SOL    HW2 4563   4.913   4.845   6.689
 1222SOL     OW 4564   6.644   4.562   1.570
 1222SOL    HW1 4565   6.586   4.493   1.527
 1222SOL    HW2 4566   6.740   4.536   1.557
 1223SOL     OW 4567   0.446   4.669   4.460
 1223SOL    HW1 4568   0.454   4.632   4.553
 1223SOL    HW2 4569   0.523   4.729   4.441
 1224SOL     OW 4570   4.523   4.244   1.394
 1224SOL    HW1 4571   4.481   4.158   1.421
 1224SOL    HW2 4572   4.475   4.320   1.438
 1225SOL     OW 4573   5.296   1.400   6.778
 1225SOL    HW1 4574   5.274   1.389   6.875
 1225SOL    HW2 4575   5.302   1.310   6.734
 1226SOL     OW 4576   5.800   5.579   0.751
 1226SOL    HW1 4577   5.871   5.594   0.682
 1226SOL    HW2 4578   5.840   5.534   0.831
 1227SOL     OW 4579   5.296   4.552   6.783
 1227SOL    HW1 4580   5.394   4.560   6.763
 1227SOL    HW2 4581   5.277   4.461   6.819
 1228SOL     OW 4582   4.072   3.812   4.943
 1228SOL    HW1 4583   4.061   3.765   5.030
 1228SOL    HW2 4584   4.140   3.885   4.953
 1229SOL     OW 4585   2.319   5.213   2.081
 1229SOL    HW1 4586   2.248   5.266   2.128
 1229SOL    HW2 4587   2.275   5.144   2.024
 1230SOL     OW 4588   5.013   4.613   0.100
 1230SOL    HW1 4589   4.940   4.677   0.076
 1230SOL    HW2 4590   5.094   4.634   0.046
 1231SOL     OW 4591   1.710   0.355   0.706
 1231SOL    HW1 4592   1.770   0.276   0.698
 1231SOL    HW2 4593   1.756   0.436   0.670
 1232SOL     OW 4594   2.274   1.657   5.792
 1232SOL    HW1 4595   2.221   1.575   5.817
 1232SOL    HW2 4596   2.249   1.732   5.853
 1233SOL     OW 4597   0.273   5.318   4.446
 1233SOL    HW1 4598   0.211   5.394   4.461
 1233SOL    HW2 4599   0.231   5.233   4.479
 1234SOL     OW 4600   0.058   4.563   5.420
 1234SOL    HW1 4601   7.025   4.584   5.498
 1234SOL    HW2 4602   0.084   4.466   5.423
 1235SOL     OW 4603   6.291   5.408   1.046
 1235SOL    HW1 4604   6.272   5.382   0.952
 1235SOL    HW2 4605   6.390   5.413   1.060
 1236SOL     OW 4606   0.146   0.806   2.644
 1236SOL    HW1 4607   0.241   0.818   2.614
 1236SOL    HW2 4608   0.134   0.852   2.732
 1237SOL     OW 4609   0.672   0.480   4.180
 1237SOL    HW1 4610   0.592   0.477   4.119
 1237SOL    HW2 4611   0.674   0.396   4.235
 1238SOL     OW 4612   0.487   1.083   4.305
 1238SOL    HW1 4613   0.395   1.102   4.272
 1238SOL    HW2 4614   0.513   0.990   4.281
 1239SOL     OW 4615   5.494   4.663   3.849
 1239SOL    HW1 4616   5.575   4.698   3.897
 1239SOL    HW2 4617   5.505   4.565   3.833
 1240SOL     OW 4618   0.795   4.500   1.461
 1240SOL    HW1 4619   0.739   4.500   1.378
 1240SOL    HW2 4620   0.738   4.524   1.540
 1241SOL     OW 4621   3.750   5.299   6.365
 1241SOL    HW1 4622   3.680   5.300   6.293
 1241SOL    HW2 4623   3.725   5.365   6.436
 1242SOL     OW 4624   2.283   5.387   1.126
 1242SOL    HW1 4625   2.221   5.453   1.085
 1242SOL    HW2 4626   2.317   5.423   1.213
 1243SOL     OW 4627   0.187   3.799   3.677
 1243SOL    HW1 4628   0.152   3.842   3.594
 1243SOL    HW2 4629   0.165   3.857   3.756
 1244SOL     OW 4630   0.083   6.890   4.608
 1244SOL    HW1 4631   0.130   6.971   4.645
 1244SOL    HW2 4632   7.012   6.899   4.622
 1245SOL     OW 4633   4.570   0.707   1.576
 1245SOL    HW1 4634   4.607   0.617   1.599
 1245SOL    HW2 4635   4.497   0.730   1.641
 1246SOL     OW 4636   4.963   2.691   2.096
 1246SOL    HW1 4637   5.004   2.694   2.005
 1246SOL    HW2 4638   5.004   2.618   2.149
 1247SOL     OW 4639   4.927   7.007   2.592
 1247SOL    HW1 4640   4.952   0.076   2.576
 1247SOL    HW2 4641   5.007   6.949   2.574
 1248SOL     OW 4642   0.517   0.196   4.745
 1248SOL    HW1 4643   0.608   0.231   4.767
 1248SOL    HW2 4644   0.483   0.142   4.822
 1249SOL     OW 4645   6.619   6.844   6.632
 1249SOL    HW1 4646   6.694   6.880   6.687
 1249SOL    HW2 4647   6.560   6.786   6.689
 1250SOL     OW 4648   0.658   4.441   5.262
 1250SOL    HW1 4649   0.691   4.413   5.171
 1250SOL    HW2 4650   0.600   4.369   5.299
 1251SOL     OW 4651   2.230   0.655   3.111
 1251SOL    HW1 4652   2.216   0.754   3.120
 1251SOL    HW2 4653   2.142   0.610   3.097
 1252SOL     OW 4654   2.210   5.242   6.315
 1252SOL    HW1 4655   2.260   5.166   6.357
 1252SOL    HW2 4656   2.220   5.236   6.216
 1253SOL     OW 4657   2.958   5.684   0.593
 1253SOL    HW1 4658   2.988   5.730   0.510
 1253SOL    HW2 4659   3.035   5.672   0.655
 1254SOL     OW 4660   6.522   0.730   3.923
 1254SOL    HW1 4661   6.422   0.733   3.928
 1254SOL    HW2 4662   6.561   0.795   3.988
 1255SOL     OW 4663   6.323   2.291   6.176
 1255SOL    HW1 4664   6.259   2.218   6.202
 1255SOL    HW2 4665   6.333   2.356   6.251
 1256SOL     OW 4666   0.060   5.694   6.309
 1256SOL    HW1 4667   0.074   5.783   6.266
 1256SOL    HW2 4668   0.127   5.629   6.274
 1257SOL     OW 4669   7.005   6.619   2.843
 1257SOL    HW1 4670   6.919   6.651   2.802
 1257SOL    HW2 4671   0.044   6.601   2.771
 1258SOL     OW 4672   5.354   5.485   6.495
 1258SOL    HW1 4673   5.294   5.523   6.425
 1258SOL    HW2 4674   5.316   5.504   6.585
 1259SOL     OW 4675   6.121   6.429   4.876
 1259SOL    HW1 4676   6.182   6.447   4.799
 1259SOL    HW2 4677   6.081   6.515   4.908
 1260SOL     OW 4678   3.480   0.914   0.686
 1260SOL    HW1 4679   3.494   1.007   0.721
 1260SOL    HW2 4680   3.508   0.848   0.755
 1261SOL     OW 4681   0.476   4.333   4.995
 1261SOL    HW1 4682   0.502   4.429   4.998
 1261SOL    HW2 4683   0.556   4.275   5.009
 1262SOL     OW 4684   4.190   6.317   1.441
 1262SOL    HW1 4685   4.190   6.344   1.344
 1262SOL    HW2 4686   4.128   6.376   1.492
 1263SOL     OW 4687   6.994   1.572   1.166
 1263SOL    HW1 4688   0.059   1.593   1.131
 1263SOL    HW2 4689   6.934   1.650   1.149
 1264SOL     OW 4690   5.795   2.911   4.962
 1264SOL    HW1 4691   5.722   2.939   4.900
 1264SOL    HW2 4692   5.760   2.909   5.056
 1265SOL     OW 4693   5.578   5.068   4.771
 1265SOL    HW1 4694   5.606   4.972   4.776
 1265SOL    HW2 4695   5.659   5.126   4.761
 1266SOL     OW 4696   2.807   0.422   3.793
 1266SOL    HW1 4697   2.820   0.519   3.769
 1266SOL    HW2 4698   2.760   0.376   3.717
 1267SOL     OW 4699   0.465   4.205   2.426
 1267SOL    HW1 4700   0.389   4.234   2.369
 1267SOL    HW2 4701   0.526   4.283   2.443
 1268SOL     OW 4702   6.078   4.709   0.012
 1268SOL    HW1 4703   6.031   4.680   6.955
 1268SOL    HW2 4704   6.171   4.672   0.011
 1269SOL     OW 4705   1.010   4.333   6.389
 1269SOL    HW1 4706   0.911   4.340   6.377
 1269SOL    HW2 4707   1.032   4.324   6.486
 1270SOL     OW 4708   1.778   2.495   4.508
 1270SOL    HW1 4709   1.767   2.456   4.599
 1270SOL    HW2 4710   1.797   2.421   4.443
 1271SOL     OW 4711   5.628   3.348   3.217
 1271SOL    HW1 4712   5.595   3.385   3.303
 1271SOL    HW2 4713   5.638   3.248   3.226
 1272SOL     OW 4714   6.066   6.772   6.847
 1272SOL    HW1 4715   6.028   6.863   6.866
 1272SOL    HW2 4716   6.129   6.746   6.920
 1273SOL     OW 4717   3.198   6.965   5.068
 1273SOL    HW1 4718   3.132   6.946   4.996
 1273SOL    HW2 4719   3.280   6.909   5.055
 1274SOL     OW 4720   5.453   2.677   1.884
 1274SOL    HW1 4721   5.397   2.706   1.961
 1274SOL    HW2 4722   5.401   2.688   1.799
 1275SOL     OW 4723   3.365   1.179   4.034
 1275SOL    HW1 4724   3.315   1.182   3.947
 1275SOL    HW2 4725   3.461   1.158   4.016
 1276SOL     OW 4726   5.175   6.729   2.685
 1276SOL    HW1 4727   5.124   6.678   2.754
 1276SOL    HW2 4728   5.157   6.690   2.595
 1277SOL     OW 4729   0.636   1.896   4.463
 1277SOL    HW1 4730   0.716   1.939   4.422
 1277SOL    HW2 4731   0.557   1.907   4.403
 1278SOL     OW 4732   3.311   1.763   4.482
 1278SOL    HW1 4733   3.301   1.664   4.496
 1278SOL    HW2 4734   3.225   1.809   4.504
 1279SOL     OW 4735   1.809   5.073   0.532
 1279SOL    HW1 4736   1.822   5.164   0.492
 1279SOL    HW2 4737   1.881   5.056   0.600
 1280SOL     OW 4738   1.108   6.071   3.301
 1280SOL    HW1 4739   1.108   6.130   3.381
 1280SOL    HW2 4740   1.139   6.123   3.221
 1281SOL     OW 4741   0.629   6.579   3.875
 1281SOL    HW1 4742   0.631   6.481   3.895
 1281SOL    HW2 4743   0.670   6.596   3.786
 1282SOL     OW 4744   1.340   6.493   2.481
 1282SOL    HW1 4745   1.269   6.454   2.539
 1282SOL    HW2 4746   1.430   6.459   2.510
 1283SOL     OW 4747   5.389   4.297   5.326
 1283SOL    HW1 4748   5.314   4.338   5.378
 1283SOL    HW2 4749   5.377   4.198   5.321
 1284SOL     OW 4750   2.849   1.986   2.796
 1284SOL    HW1 4751   2.862   2.083   2.817
 1284SOL    HW2 4752   2.919   1.933   2.843
 1285SOL     OW 4753   6.020   2.637   5.713
 1285SOL    HW1 4754   6.068   2.595   5.790
 1285SOL    HW2 4755   5.987   2.566   5.651
 1286SOL     OW 4756   5.527   5.824   0.969
 1286SOL    HW1 4757   5.613   5.826   0.917
 1286SOL    HW2 4758   5.459   5.881   0.922
 1287SOL     OW 4759   5.712   3.609   5.769
 1287SOL    HW1 4760   5.772   3.689   5.773
 1287SOL    HW2 4761   5.723   3.554   5.852
 1288SOL     OW 4762   6.915   3.546   3.680
 1288SOL    HW1 4763   6.877   3.453   3.685
 1288SOL    HW2 4764   6.943   3.576   3.771
 1289SOL     OW 4765   0.381   5.195   2.933
 1289SOL    HW1 4766   0.364   5.099   2.956
 1289SOL    HW2 4767   0.296   5.237   2.902
 1290SOL     OW 4768   6.277   6.883   1.922
 1290SOL    HW1 4769   6.314   6.803   1.875
 1290SOL    HW2 4770   6.347   6.923   1.980
 1291SOL     OW 4771   1.527   5.991   1.413
 1291SOL    HW1 4772   1.574   6.065   1.461
 1291SOL    HW2 4773   1.464   6.029   1.346
 1292SOL     OW 4774   1.733   5.950   0.700
 1292SOL    HW1 4775   1.773   5.947   0.792
 1292SOL    HW2 4776   1.638   5.920   0.703
 1293SOL     OW 4777   6.202   1.707   6.427
 1293SOL    HW1 4778   6.126   1.736   6.369
 1293SOL    HW2 4779   6.166   1.662   6.509
 1294SOL     OW 4780   0.507   1.732   3.545
 1294SOL    HW1 4781   0.446   1.810   3.556
 1294SOL    HW2 4782   0.457   1.655   3.506
 1295SOL     OW 4783   4.869   4.294   0.957
 1295SOL    HW1 4784   4.851   4.375   1.012
 1295SOL    HW2 4785   4.929   4.231   1.006
 1296SOL     OW 4786   3.865   1.616   0.692
 1296SOL    HW1 4787   3.900   1.616   0.786
 1296SOL    HW2 4788   3.794   1.686   0.683
 1297SOL     OW 4789   6.395   0.957   6.270
 1297SOL    HW1 4790   6.444   0.954   6.357
 1297SOL    HW2 4791   6.450   1.007   6.203
 1298SOL     OW 4792   6.300   2.726   3.400
 1298SOL    HW1 4793   6.375   2.758   3.458
 1298SOL    HW2 4794   6.223   2.696   3.457
 1299SOL     OW 4795   1.491   3.209   4.827
 1299SOL    HW1 4796   1.510   3.289   4.771
 1299SOL    HW2 4797   1.573   3.152   4.832
 1300SOL     OW 4798   3.586   2.856   3.443
 1300SOL    HW1 4799   3.600   2.767   3.487
 1300SOL    HW2 4800   3.576   2.927   3.514
 1301SOL     OW 4801   1.278   1.633   1.729
 1301SOL    HW1 4802   1.208   1.566   1.756
 1301SOL    HW2 4803   1.356   1.585   1.689
 1302SOL     OW 4804   2.650   6.046   5.524
 1302SOL    HW1 4805   2.708   6.123   5.552
 1302SOL    HW2 4806   2.554   6.069   5.542
 1303SOL     OW 4807   3.228   0.050   1.133
 1303SOL    HW1 4808   3.165   0.092   1.199
 1303SOL    HW2 4809   3.241   6.980   1.157
 1304SOL     OW 4810   3.135   0.863   5.913
 1304SOL    HW1 4811   3.207   0.859   5.982
 1304SOL    HW2 4812   3.157   0.802   5.837
 1305SOL     OW 4813   5.999   6.804   3.918
 1305SOL    HW1 4814   5.918   6.845   3.961
 1305SOL    HW2 4815   5.988   6.808   3.818
 1306SOL     OW 4816   1.628   5.246   3.970
 1306SOL    HW1 4817   1.632   5.310   4.046
 1306SOL    HW2 4818   1.692   5.275   3.899
 1307SOL     OW 4819   1.232   1.524   4.736
 1307SOL    HW1 4820   1.150   1.468   4.730
 1307SOL    HW2 4821   1.308   1.478   4.692
 1308SOL     OW 4822   4.806   6.343   2.932
 1308SOL    HW1 4823   4.731   6.277   2.932
 1308SOL    HW2 4824   4.800   6.401   2.851
 1309SOL     OW 4825   6.329   2.973   4.424
 1309SOL    HW1 4826   6.281   3.038   4.366
 1309SOL    HW2 4827   6.265   2.935   4.491
 1310SOL     OW 4828   5.285   3.193   5.618
 1310SOL    HW1 4829   5.191   3.159   5.622
 1310SOL    HW2 4830   5.345   3.132   5.669
 1311SOL     OW 4831   4.793   4.803   0.069
 1311SOL    HW1 4832   4.765   4.831   0.161
 1311SOL    HW2 4833   4.817   4.884   0.016
 1312SOL     OW 4834   6.849   0.582   1.812
 1312SOL    HW1 4835   6.944   0.596   1.838
 1312SOL    HW2 4836   6.817   0.661   1.759
 1313SOL     OW 4837   3.632   5.082   4.737
 1313SOL    HW1 4838   3.721   5.049   4.768
 1313SOL    HW2 4839   3.583   5.123   4.814
 1314SOL     OW 4840   0.019   1.189   5.816
 1314SOL    HW1 4841   7.018   1.269   5.763
 1314SOL    HW2 4842   6.965   1.149   5.859
 1315SOL     OW 4843   1.690   6.576   3.779
 1315SOL    HW1 4844   1.613   6.547   3.836
 1315SOL    HW2 4845   1.747   6.642   3.829
 1316SOL     OW 4846   3.245   6.227   4.065
 1316SOL    HW1 4847   3.155   6.254   4.098
 1316SOL    HW2 4848   3.240   6.136   4.024
 1317SOL     OW 4849   6.937   3.255   4.685
 1317SOL    HW1 4850   6.841   3.282   4.688
 1317SOL    HW2 4851   6.980   3.294   4.603
 1318SOL     OW 4852   0.615   6.954   1.768
 1318SOL    HW1 4853   0.632   6.855   1.774
 1318SOL    HW2 4854   0.653   6.989   1.682
 1319SOL     OW 4855   0.073   6.565   0.882
 1319SOL    HW1 4856   7.015   6.516   0.899
 1319SOL    HW2 4857   0.136   6.506   0.831
 1320SOL     OW 4858   5.388   5.671   5.222
 1320SOL    HW1 4859   5.300   5.626   5.212
 1320SOL    HW2 4860   5.375   5.769   5.238
 1321SOL     OW 4861   3.522   1.142   0.798
 1321SOL    HW1 4862   3.563   1.211   0.737
 1321SOL    HW2 4863   3.573   1.140   0.884
 1322SOL     OW 4864   5.177   0.780   6.534
 1322SOL    HW1 4865   5.087   0.819   6.552
 1322SOL    HW2 4866   5.203   0.799   6.439
 1323SOL     OW 4867   6.608   0.877   4.141
 1323SOL    HW1 4868   6.675   0.950   4.152
 1323SOL    HW2 4869   6.566   0.855   4.229
 1324SOL     OW 4870   1.410   2.663   0.394
 1324SOL    HW1 4871   1.401   2.566   0.374
 1324SOL    HW2 4872   1.375   2.683   0.485
 1325SOL     OW 4873   4.322   5.491   4.386
 1325SOL    HW1 4874   4.233   5.448   4.373
 1325SOL    HW2 4875   4.390   5.444   4.331
 1326SOL     OW 4876   5.712   4.132   4.430
 1326SOL    HW1 4877   5.810   4.138   4.410
 1326SOL    HW2 4878   5.660   4.158   4.349
 1327SOL     OW 4879   2.917   6.459   3.980
 1327SOL    HW1 4880   2.947   6.431   4.071
 1327SOL    HW2 4881   2.848   6.395   3.947
 1328SOL     OW 4882   2.646   1.543   1.495
 1328SOL    HW1 4883   2.617   1.639   1.501
 1328SOL    HW2 4884   2.617   1.494   1.578
 1329SOL     OW 4885   1.233   6.111   1.802
 1329SOL    HW1 4886   1.206   6.025   1.757
 1329SOL    HW2 4887   1.173   6.127   1.880
 1330SOL     OW 4888   5.382   6.633   1.277
 1330SOL    HW1 4889   5.331   6.630   1.192
 1330SOL    HW2 4890   5.397   6.728   1.305
 1331SOL     OW 4891   0.507   2.148   1.807
 1331SOL    HW1 4892   0.579   2.111   1.748
 1331SOL    HW2 4893   0.540   2.151   1.902
 1332SOL     OW 4894   4.678   2.057   0.711
 1332SOL    HW1 4895   4.676   2.133   0.647
 1332SOL    HW2 4896   4.696   1.972   0.661
 1333SOL     OW 4897   4.315   3.299   5.448
 1333SOL    HW1 4898   4.388   3.361   5.420
 1333SOL    HW2 4899   4.243   3.300   5.379
 1334SOL     OW 4900   1.574   3.463   4.277
 1334SOL    HW1 4901   1.554   3.532   4.346
 1334SOL    HW2 4902   1.661   3.419   4.297
 1335SOL     OW 4903   2.195   5.236   3.332
 1335SOL    HW1 4904   2.164   5.148   3.294
 1335SOL    HW2 4905   2.163   5.310   3.274
 1336SOL     OW 4906   0.436   6.281   5.165
 1336SOL    HW1 4907   0.516   6.221   5.164
 1336SOL    HW2 4908   0.361   6.236   5.213
 1337SOL     OW 4909   3.644   6.586   6.357
 1337SOL    HW1 4910   3.668   6.589   6.454
 1337SOL    HW2 4911   3.565   6.526   6.344
 1338SOL     OW 4912   3.806   5.062   0.679
 1338SOL    HW1 4913   3.799   5.126   0.603
 1338SOL    HW2 4914   3.860   5.104   0.752
 1339SOL     OW 4915   6.882   3.772   6.860
 1339SOL    HW1 4916   6.858   3.862   6.897
 1339SOL    HW2 4917   6.977   3.773   6.830
 1340SOL     OW 4918   2.778   1.684   5.990
 1340SOL    HW1 4919   2.794   1.747   6.066
 1340SOL    HW2 4920   2.820   1.719   5.907
 1341SOL     OW 4921   5.880   1.970   4.481
 1341SOL    HW1 4922   5.933   1.982   4.565
 1341SOL    HW2 4923   5.857   1.874   4.469
 1342SOL     OW 4924   0.412   6.973   0.968
 1342SOL    HW1 4925   0.406   6.877   0.996
 1342SOL    HW2 4926   0.320   7.012   0.962
 1343SOL     OW 4927   2.897   5.808   3.421
 1343SOL    HW1 4928   2.913   5.728   3.479
 1343SOL    HW2 4929   2.959   5.806   3.343
 1344SOL     OW 4930   5.350   1.963   2.370
 1344SOL    HW1 4931   5.287   1.934   2.442
 1344SOL    HW2 4932   5.443   1.967   2.407
 1345SOL     OW 4933   6.504   6.009   2.568
 1345SOL    HW1 4934   6.458   6.083   2.518
 1345SOL    HW2 4935   6.600   6.006   2.541
 1346SOL     OW 4936   6.849   1.717   2.813
 1346SOL    HW1 4937   6.863   1.815   2.794
 1346SOL    HW2 4938   6.804   1.707   2.902
 1347SOL     OW 4939   4.740   1.198   3.406
 1347SOL    HW1 4940   4.672   1.151   3.462
 1347SOL    HW2 4941   4.711   1.197   3.311
 1348SOL     OW 4942   5.095   6.109   4.998
 1348SOL    HW1 4943   5.073   6.124   4.902
 1348SOL    HW2 4944   5.115   6.012   5.013
 1349SOL     OW 4945   4.946   2.078   0.183
 1349SOL    HW1 4946   4.973   1.985   0.160
 1349SOL    HW2 4947   4.850   2.078   0.212
 1350SOL     OW 4948   3.248   1.129   4.528
 1350SOL    HW1 4949   3.213   1.210   4.576
 1350SOL    HW2 4950   3.249   1.146   4.430
 1351SOL     OW 4951   1.552   1.542   3.630
 1351SOL    HW1 4952   1.575   1.612   3.698
 1351SOL    HW2 4953   1.500   1.468   3.674
 1352SOL     OW 4954   1.311   6.118   4.575
 1352SOL    HW1 4955   1.318   6.027   4.614
 1352SOL    HW2 4956   1.381   6.130   4.505
 1353SOL     OW 4957   2.501   3.107   5.659
 1353SOL    HW1 4958   2.577   3.098   5.595
 1353SOL    HW2 4959   2.415   3.115   5.609
 1354SOL     OW 4960   0.200   6.598   6.924
 1354SOL    HW1 4961   0.118   6.544   6.906
 1354SOL    HW2 4962   0.281   6.540   6.917
 1355SOL     OW 4963   4.307   3.308   6.914
 1355SOL    HW1 4964   4.278   3.213   6.927
 1355SOL    HW2 4965   4.250   3.368   6.970
 1356SOL     OW 4966   3.337   2.883   2.118
 1356SOL    HW1 4967   3.374   2.882   2.211
 1356SOL    HW2 4968   3.386   2.817   2.061
 1357SOL     OW 4969   3.443   2.157   5.545
 1357SOL    HW1 4970   3.355   2.134   5.503
 1357SOL    HW2 4971   3.430   2.228   5.613
 1358SOL     OW 4972   1.826   3.142   5.860
 1358SOL    HW1 4973   1.876   3.125   5.945
 1358SOL    HW2 4974   1.776   3.060   5.834
 1359SOL     OW 4975   0.263   1.641   6.706
 1359SOL    HW1 4976   0.349   1.676   6.742
 1359SOL    HW2 4977   0.244   1.682   6.617
 1360SOL     OW 4978   3.323   3.487   4.242
 1360SOL    HW1 4979   3.332   3.518   4.147
 1360SOL    HW2 4980   3.388   3.413   4.259
 1361SOL     OW 4981   0.623   6.560   1.023
 1361SOL    HW1 4982   0.556   6.499   0.980
 1361SOL    HW2 4983   0.689   6.506   1.076
 1362SOL     OW 4984   3.358   1.231   6.766
 1362SOL    HW1 4985   3.452   1.202   6.781
 1362SOL    HW2 4986   3.347   1.263   6.672
 1363SOL     OW 4987   6.547   6.438   1.052
 1363SOL    HW1 4988   6.489   6.499   0.998
 1363SOL    HW2 4989   6.553   6.471   1.146
 1364SOL     OW 4990   1.166   3.622   1.246
 1364SOL    HW1 4991   1.176   3.608   1.344
 1364SOL    HW2 4992   1.248   3.591   1.199
 1365SOL     OW 4993   1.255   3.758   6.197
 1365SOL    HW1 4994   1.344   3.801   6.213
 1365SOL    HW2 4995   1.212   3.737   6.285
 1366SOL     OW 4996   3.905   0.789   1.365
 1366SOL    HW1 4997   3.943   0.755   1.451
 1366SOL    HW2 4998   3.814   0.828   1.382
 1367SOL     OW 4999   0.873   6.862   4.635
 1367SOL    HW1 5000   0.899   6.877   4.540
 1367SOL    HW2 5001   0.805   6.789   4.640
 1368SOL     OW 5002   1.463   6.165   4.878
 1368SOL    HW1 5003   1.533   6.099   4.903
 1368SOL    HW2 5004   1.488   6.209   4.792
 1369SOL     OW 5005   2.261   5.912   3.452
 1369SOL    HW1 5006   2.251   6.010   3.434
 1369SOL    HW2 5007   2.174   5.866   3.436
 1370SOL     OW 5008   0.178   2.897   2.638
 1370SOL    HW1 5009   0.193   2.912   2.540
 1370SOL    HW2 5010   0.118   2.967   2.674
 1371SOL     OW 5011   5.961   1.770   6.307
 1371SOL    HW1 5012   5.961   1.858   6.353
 1371SOL    HW2 5013   5.874   1.723   6.325
 1372SOL     OW 5014   5.116   2.667   1.889
 1372SOL    HW1 5015   5.161   2.736   1.831
 1372SOL    HW2 5016   5.145   2.576   1.860
 1373SOL     OW 5017   5.197   2.515   1.524
 1373SOL    HW1 5018   5.147   2.448   1.469
 1373SOL    HW2 5019   5.196   2.486   1.620
 1374SOL     OW 5020   4.069   3.590   2.586
 1374SOL    HW1 5021   4.093   3.537   2.667
 1374SOL    HW2 5022   4.096   3.539   2.504
 1375SOL     OW 5023   5.186   4.554   4.958
 1375SOL    HW1 5024   5.155   4.512   4.873
 1375SOL    HW2 5025   5.212   4.649   4.940
 1376SOL     OW 5026   3.191   4.401   5.957
 1376SOL    HW1 5027   3.270   4.458   5.977
 1376SOL    HW2 5028   3.143   4.379   6.043
 1377SOL     OW 5029   1.169   1.734   3.428
 1377SOL    HW1 5030   1.161   1.741   3.527
 1377SOL    HW2 5031   1.266   1.723   3.403
 1378SOL     OW 5032   4.365   2.065   4.316
 1378SOL    HW1 5033   4.312   2.061   4.401
 1378SOL    HW2 5034   4.323   2.005   4.248
 1379SOL     OW 5035   4.791   5.754   6.845
 1379SOL    HW1 5036   4.801   5.767   6.746
 1379SOL    HW2 5037   4.713   5.694   6.863
 1380SOL     OW 5038   6.951   6.066   3.848
 1380SOL    HW1 5039   6.925   6.159   3.874
 1380SOL    HW2 5040   6.900   6.000   3.904
 1381SOL     OW 5041   6.598   2.997   6.094
 1381SOL    HW1 5042   6.659   2.965   6.167
 1381SOL    HW2 5043   6.615   3.094   6.076
 1382SOL     OW 5044   4.365   1.734   5.814
 1382SOL    HW1 5045   4.368   1.831   5.788
 1382SOL    HW2 5046   4.394   1.724   5.909
 1383SOL     OW 5047   6.335   0.453   1.005
 1383SOL    HW1 5048   6.306   0.539   0.964
 1383SOL    HW2 5049   6.259   0.412   1.054
 1384SOL     OW 5050   5.874   2.553   2.139
 1384SOL    HW1 5051   5.892   2.597   2.051
 1384SOL    HW2 5052   5.788   2.587   2.176
 1385SOL     OW 5053   6.605   6.463   1.653
 1385SOL    HW1 5054   6.615   6.548   1.705
 1385SOL    HW2 5055   6.514   6.425   1.669
 1386SOL     OW 5056   2.009   0.066   3.806
 1386SOL    HW1 5057   2.036   7.002   3.837
 1386SOL    HW2 5058   2.086   0.110   3.760
 1387SOL     OW 5059   1.095   5.890   1.724
 1387SOL    HW1 5060   1.078   5.863   1.819
 1387SOL    HW2 5061   1.172   5.838   1.687
 1388SOL     OW 5062   6.526   0.877   1.746
 1388SOL    HW1 5063   6.545   0.967   1.708
 1388SOL    HW2 5064   6.482   0.886   1.835
 1389SOL     OW 5065   6.443   1.386   1.814
 1389SOL    HW1 5066   6.505   1.439   1.872
 1389SOL    HW2 5067   6.470   1.289   1.816
 1390SOL     OW 5068   1.267   1.813   4.232
 1390SOL    HW1 5069   1.267   1.909   4.262
 1390SOL    HW2 5070   1.174   1.776   4.241
 1391SOL     OW 5071   0.832   2.867   3.345
 1391SOL    HW1 5072   0.778   2.872   3.261
 1391SOL    HW2 5073   0.873   2.956   3.363
 1392SOL     OW 5074   5.337   4.810   4.131
 1392SOL    HW1 5075   5.286   4.786   4.213
 1392SOL    HW2 5076   5.397   4.733   4.106
 1393SOL     OW 5077   3.876   4.711   6.870
 1393SOL    HW1 5078   3.917   4.720   6.961
 1393SOL    HW2 5079   3.853   4.616   6.853
 1394SOL     OW 5080   1.404   6.407   6.962
 1394SOL    HW1 5081   1.481   6.347   6.981
 1394SOL    HW2 5082   1.336   6.400   0.008
 1395SOL     OW 5083   4.022   4.692   6.267
 1395SOL    HW1 5084   4.035   4.784   6.304
 1395SOL    HW2 5085   4.107   4.640   6.275
 1396SOL     OW 5086   5.215   5.871   3.808
 1396SOL    HW1 5087   5.273   5.876   3.727
 1396SOL    HW2 5088   5.264   5.910   3.886
 1397SOL     OW 5089   5.461   6.360   5.137
 1397SOL    HW1 5090   5.435   6.285   5.077
 1397SOL    HW2 5091   5.481   6.325   5.228
 1398SOL     OW 5092   1.617   0.267   5.003
 1398SOL    HW1 5093   1.676   0.325   4.948
 1398SOL    HW2 5094   1.655   0.175   5.008
 1399SOL     OW 5095   3.548   5.469   2.535
 1399SOL    HW1 5096   3.607   5.534   2.487
 1399SOL    HW2 5097   3.549   5.381   2.487
 1400SOL     OW 5098   1.239   0.285   2.967
 1400SOL    HW1 5099   1.309   0.222   2.933
 1400SOL    HW2 5100   1.262   0.378   2.939
 1401SOL     OW 5101   6.552   2.241   4.461
 1401SOL    HW1 5102   6.608   2.180   4.406
 1401SOL    HW2 5103   6.469   2.194   4.491
 1402SOL     OW 5104   5.988   2.471   0.036
 1402SOL    HW1 5105   5.937   2.501   0.117
 1402SOL    HW2 5106   5.987   2.543   6.994
 1403SOL     OW 5107   3.590   0.573   1.880
 1403SOL    HW1 5108   3.610   0.550   1.975
 1403SOL    HW2 5109   3.492   0.584   1.868
 1404SOL     OW 5110   4.998   1.462   0.362
 1404SOL    HW1 5111   5.030   1.390   0.300
 1404SOL    HW2 5112   5.076   1.519   0.389
 1405SOL     OW 5113   3.359   2.795   1.314
 1405SOL    HW1 5114   3.455   2.820   1.322
 1405SOL    HW2 5115   3.349   2.697   1.335
 1406SOL     OW 5116   0.890   3.765   2.301
 1406SOL    HW1 5117   0.917   3.846   2.353
 1406SOL    HW2 5118   0.803   3.782   2.255
 1407SOL     OW 5119   0.211   2.625   2.501
 1407SOL    HW1 5120   0.124   2.672   2.515
 1407SOL    HW2 5121   0.280   2.663   2.563
 1408SOL     OW 5122   6.410   5.609   6.471
 1408SOL    HW1 5123   6.371   5.684   6.525
 1408SOL    HW2 5124   6.437   5.535   6.532
 1409SOL     OW 5125   0.284   1.609   3.828
 1409SOL    HW1 5126   0.382   1.615   3.851
 1409SOL    HW2 5127   0.268   1.525   3.776
 1410SOL     OW 5128   6.457   1.823   6.744
 1410SOL    HW1 5129   6.531   1.816   6.811
 1410SOL    HW2 5130   6.410   1.735   6.737
 1411SOL     OW 5131   1.902   0.721   1.721
 1411SOL    HW1 5132   1.821   0.696   1.774
 1411SOL    HW2 5133   1.918   0.654   1.649
 1412SOL     OW 5134   1.591   2.768   0.227
 1412SOL    HW1 5135   1.558   2.730   0.140
 1412SOL    HW2 5136   1.563   2.708   0.302
 1413SOL     OW 5137   2.677   6.749   3.232
 1413SOL    HW1 5138   2.648   6.815   3.302
 1413SOL    HW2 5139   2.728   6.797   3.161
 1414SOL     OW 5140   1.413   0.945   2.479
 1414SOL    HW1 5141   1.430   0.892   2.562
 1414SOL    HW2 5142   1.401   1.041   2.503
 1415SOL     OW 5143   5.617   6.554   4.995
 1415SOL    HW1 5144   5.653   6.602   5.075
 1415SOL    HW2 5145   5.567   6.473   5.025
 1416SOL     OW 5146   4.785   5.307   3.647
 1416SOL    HW1 5147   4.772   5.402   3.674
 1416SOL    HW2 5148   4.761   5.247   3.724
 1417SOL     OW 5149   3.429   2.809   5.989
 1417SOL    HW1 5150   3.384   2.895   6.013
 1417SOL    HW2 5151   3.395   2.735   6.048
 1418SOL     OW 5152   3.380   3.861   3.428
 1418SOL    HW1 5153   3.369   3.865   3.329
 1418SOL    HW2 5154   3.477   3.866   3.451
 1419SOL     OW 5155   3.488   6.496   3.953
 1419SOL    HW1 5156   3.475   6.398   3.965
 1419SOL    HW2 5157   3.584   6.514   3.929
 1420SOL     OW 5158   0.708   6.000   2.602
 1420SOL    HW1 5159   0.659   6.061   2.665
 1420SOL    HW2 5160   0.786   5.960   2.650
 1421SOL     OW 5161   3.917   0.980   2.727
 1421SOL    HW1 5162   3.966   1.064   2.701
 1421SOL    HW2 5163   3.969   0.932   2.797
 1422SOL     OW 5164   2.588   6.296   0.764
 1422SOL    HW1 5165   2.547   6.207   0.743
 1422SOL    HW2 5166   2.681   6.299   0.729
 1423SOL     OW 5167   5.209   1.069   2.417
 1423SOL    HW1 5168   5.253   1.153   2.388
 1423SOL    HW2 5169   5.125   1.055   2.364
 1424SOL     OW 5170   6.700   5.272   2.609
 1424SOL    HW1 5171   6.612   5.243   2.572
 1424SOL    HW2 5172   6.689   5.298   2.705
 1425SOL     OW 5173   1.622   0.765   4.552
 1425SOL    HW1 5174   1.585   0.715   4.631
 1425SOL    HW2 5175   1.677   0.842   4.585
 1426SOL     OW 5176   1.906   1.379   5.353
 1426SOL    HW1 5177   1.819   1.365   5.400
 1426SOL    HW2 5178   1.972   1.420   5.417
 1427SOL     OW 5179   5.450   1.813   5.712
 1427SOL    HW1 5180   5.414   1.779   5.799
 1427SOL    HW2 5181   5.548   1.794   5.706
 1428SOL     OW 5182   5.823   0.887   0.489
 1428SOL    HW1 5183   5.856   0.829   0.415
 1428SOL    HW2 5184   5.766   0.960   0.451
 1429SOL     OW 5185   5.585   6.087   0.107
 1429SOL    HW1 5186   5.608   6.061   0.201
 1429SOL    HW2 5187   5.654   6.049   0.044
 1430SOL     OW 5188   2.686   4.658   2.747
 1430SOL    HW1 5189   2.766   4.650   2.688
 1430SOL    HW2 5190   2.623   4.583   2.730
 1431SOL     OW 5191   1.554   6.985   1.023
 1431SOL    HW1 5192   1.564   0.053   1.053
 1431SOL    HW2 5193   1.634   6.933   1.052
 1432SOL     OW 5194   3.074   0.383   1.334
 1432SOL    HW1 5195   3.035   0.474   1.348
 1432SOL    HW2 5196   3.107   0.374   1.240
 1433SOL     OW 5197   4.959   7.018   3.887
 1433SOL    HW1 5198   4.876   6.988   3.840
 1433SOL    HW2 5199   4.939   0.072   3.943
 1434SOL     OW 5200   1.011   1.233   5.260
 1434SOL    HW1 5201   0.945   1.296   5.220
 1434SOL    HW2 5202   0.964   1.151   5.294
 1435SOL     OW 5203   0.060   2.191   3.338
 1435SOL    HW1 5204   0.120   2.267   3.312
 1435SOL    HW2 5205   7.024   2.172   3.263
 1436SOL     OW 5206   4.892   3.826   1.096
 1436SOL    HW1 5207   4.957   3.754   1.070
 1436SOL    HW2 5208   4.819   3.830   1.029
 1437SOL     OW 5209   4.650   1.197   2.596
 1437SOL    HW1 5210   4.557   1.166   2.580
 1437SOL    HW2 5211   4.677   1.176   2.690
 1438SOL     OW 5212   2.654   0.209   1.928
 1438SOL    HW1 5213   2.683   0.276   1.997
 1438SOL    HW2 5214   2.586   0.147   1.968
 1439SOL     OW 5215   0.416   5.691   1.950
 1439SOL    HW1 5216   0.401   5.785   1.981
 1439SOL    HW2 5217   0.490   5.690   1.883
 1440SOL     OW 5218   2.192   2.865   1.445
 1440SOL    HW1 5219   2.205   2.951   1.396
 1440SOL    HW2 5220   2.261   2.858   1.517
 1441SOL     OW 5221   5.067   5.915   6.807
 1441SOL    HW1 5222   4.985   5.860   6.828
 1441SOL    HW2 5223   5.065   5.942   6.711
 1442SOL     OW 5224   5.145   5.500   1.109
 1442SOL    HW1 5225   5.186   5.481   1.020
 1442SOL    HW2 5226   5.102   5.417   1.144
 1443SOL     OW 5227   0.044   2.808   2.292
 1443SOL    HW1 5228   0.027   2.777   2.385
 1443SOL    HW2 5229   6.989   2.852   2.256
 1444SOL     OW 5230   0.642   6.211   5.998
 1444SOL    HW1 5231   0.727   6.262   6.011
 1444SOL    HW2 5232   0.565   6.269   6.025
 1445SOL     OW 5233   0.734   2.892   1.044
 1445SOL    HW1 5234   0.798   2.968   1.057
 1445SOL    HW2 5235   0.650   2.926   1.001
 1446SOL     OW 5236   6.776   5.476   1.398
 1446SOL    HW1 5237   6.818   5.554   1.350
 1446SOL    HW2 5238   6.766   5.400   1.335
 1447SOL     OW 5239   6.613   6.444   4.001
 1447SOL    HW1 5240   6.553   6.375   3.962
 1447SOL    HW2 5241   6.579   6.535   3.977
 1448SOL     OW 5242   1.149   1.143   5.547
 1448SOL    HW1 5243   1.090   1.205   5.598
 1448SOL    HW2 5244   1.229   1.193   5.513
 1449SOL     OW 5245   2.187   3.170   2.914
 1449SOL    HW1 5246   2.162   3.125   3.000
 1449SOL    HW2 5247   2.225   3.103   2.851
 1450SOL     OW 5248   3.394   1.745   3.215
 1450SOL    HW1 5249   3.394   1.843   3.235
 1450SOL    HW2 5250   3.457   1.727   3.139
 1451SOL     OW 5251   3.656   1.221   2.460
 1451SOL    HW1 5252   3.640   1.286   2.535
 1451SOL    HW2 5253   3.591   1.145   2.468
 1452SOL     OW 5254   4.286   2.667   5.976
 1452SOL    HW1 5255   4.361   2.604   5.998
 1452SOL    HW2 5256   4.276   2.673   5.877
 1453SOL     OW 5257   1.138   3.512   5.078
 1453SOL    HW1 5258   1.045   3.509   5.040
 1453SOL    HW2 5259   1.149   3.595   5.132
 1454SOL     OW 5260   3.138   2.167   2.784
 1454SOL    HW1 5261   3.080   2.183   2.704
 1454SOL    HW2 5262   3.227   2.133   2.753
 1455SOL     OW 5263   0.242   5.273   2.307
 1455SOL    HW1 5264   0.299   5.338   2.257
 1455SOL    HW2 5265   0.196   5.320   2.383
 1456SOL     OW 5266   6.726   5.895   4.303
 1456SOL    HW1 5267   6.638   5.895   4.258
 1456SOL    HW2 5268   6.772   5.807   4.290
 1457SOL     OW 5269   1.182   5.448   5.813
 1457SOL    HW1 5270   1.126   5.531   5.815
 1457SOL    HW2 5271   1.194   5.414   5.907
 1458SOL     OW 5272   6.773   5.003   4.986
 1458SOL    HW1 5273   6.728   4.921   4.952
 1458SOL    HW2 5274   6.756   5.013   5.084
 1459SOL     OW 5275   6.705   6.041   5.162
 1459SOL    HW1 5276   6.624   6.023   5.219
 1459SOL    HW2 5277   6.788   6.020   5.214
 1460SOL     OW 5278   1.935   6.148   5.100
 1460SOL    HW1 5279   1.857   6.167   5.040
 1460SOL    HW2 5280   2.019   6.170   5.052
 1461SOL     OW 5281   6.001   3.630   3.860
 1461SOL    HW1 5282   5.903   3.608   3.863
 1461SOL    HW2 5283   6.043   3.586   3.781
 1462SOL     OW 5284   0.269   1.697   2.086
 1462SOL    HW1 5285   0.354   1.726   2.128
 1462SOL    HW2 5286   0.259   1.742   1.996
 1463SOL     OW 5287   1.503   4.948   6.840
 1463SOL    HW1 5288   1.529   4.981   6.931
 1463SOL    HW2 5289   1.517   5.021   6.773
 1464SOL     OW 5290   1.335   4.871   4.827
 1464SOL    HW1 5291   1.324   4.803   4.900
 1464SOL    HW2 5292   1.249   4.921   4.814
 1465SOL     OW 5293   1.388   2.381   5.933
 1465SOL    HW1 5294   1.355   2.291   5.903
 1465SOL    HW2 5295   1.438   2.424   5.858
 1466SOL     OW 5296   5.575   1.134   2.796
 1466SOL    HW1 5297   5.563   1.160   2.700
 1466SOL    HW2 5298   5.640   1.058   2.802
 1467SOL     OW 5299   0.149   0.267   3.537
 1467SOL    HW1 5300   0.242   0.288   3.567
 1467SOL    HW2 5301   0.116   0.186   3.585
 1468SOL     OW 5302   3.640   6.638   3.333
 1468SOL    HW1 5303   3.592   6.726   3.331
 1468SOL    HW2 5304   3.739   6.655   3.333
 1469SOL     OW 5305   6.186   4.140   3.263
 1469SOL    HW1 5306   6.193   4.187   3.351
 1469SOL    HW2 5307   6.118   4.067   3.270
 1470SOL     OW 5308   6.576   2.459   2.465
 1470SOL    HW1 5309   6.500   2.426   2.409
 1470SOL    HW2 5310   6.659   2.408   2.441
 1471SOL     OW 5311   4.517   0.159   6.737
 1471SOL    HW1 5312   4.497   0.228   6.807
 1471SOL    HW2 5313   4.477   0.188   6.650
 1472SOL     OW 5314   2.282   0.400   6.650
 1472SOL    HW1 5315   2.201   0.455   6.634
 1472SOL    HW2 5316   2.344   0.407   6.572
 1473SOL     OW 5317   2.011   5.905   3.346
 1473SOL    HW1 5318   2.007   5.934   3.250
 1473SOL    HW2 5319   1.925   5.927   3.391
 1474SOL     OW 5320   1.816   4.046   2.204
 1474SOL    HW1 5321   1.800   4.014   2.111
 1474SOL    HW2 5322   1.819   4.146   2.204
 1475SOL     OW 5323   6.089   0.046   6.623
 1475SOL    HW1 5324   6.182   0.050   6.659
 1475SOL    HW2 5325   6.024   0.033   6.698
 1476SOL     OW 5326   5.670   0.480   6.557
 1476SOL    HW1 5327   5.584   0.529   6.541
 1476SOL    HW2 5328   5.695   0.428   6.476
 1477SOL     OW 5329   3.072   4.112   1.769
 1477SOL    HW1 5330   3.118   4.200   1.762
 1477SOL    HW2 5331   3.134   4.039   1.742
 1478SOL     OW 5332   5.218   4.134   5.901
 1478SOL    HW1 5333   5.198   4.044   5.939
 1478SOL    HW2 5334   5.209   4.203   5.973
 1479SOL     OW 5335   4.623   4.438   1.044
 1479SOL    HW1 5336   4.619   4.429   0.944
 1479SOL    HW2 5337   4.530   4.436   1.081
 1480SOL     OW 5338   2.565   1.425   4.242
 1480SOL    HW1 5339   2.512   1.488   4.185
 1480SOL    HW2 5340   2.533   1.331   4.227
 1481SOL     OW 5341   4.139   1.568   5.948
 1481SOL    HW1 5342   4.203   1.612   5.886
 1481SOL    HW2 5343   4.124   1.473   5.921
 1482SOL     OW 5344   6.572   1.171   1.447
 1482SOL    HW1 5345   6.494   1.221   1.410
 1482SOL    HW2 5346   6.573   1.079   1.410
 1483SOL     OW 5347   6.570   0.267   0.167
 1483SOL    HW1 5348   6.639   0.230   0.104
 1483SOL    HW2 5349   6.544   0.359   0.136
 1484SOL     OW 5350   3.092   6.082   4.857
 1484SOL    HW1 5351   3.003   6.040   4.838
 1484SOL    HW2 5352   3.164   6.012   4.849
 1485SOL     OW 5353   5.139   3.705   3.254
 1485SOL    HW1 5354   5.066   3.692   3.320
 1485SOL    HW2 5355   5.109   3.769   3.183
 1486SOL     OW 5356   5.488   6.073   4.400
 1486SOL    HW1 5357   5.475   6.018   4.317
 1486SOL    HW2 5358   5.583   6.104   4.404
 1487SOL     OW 5359   6.386   0.827   0.152
 1487SOL    HW1 5360   6.475   0.812   0.109
 1487SOL    HW2 5361   6.320   0.854   0.082
 1488SOL     OW 5362   6.877   2.785   2.840
 1488SOL    HW1 5363   6.778   2.787   2.848
 1488SOL    HW2 5364   6.917   2.752   2.926
 1489SOL     OW 5365   3.214   5.186   6.594
 1489SOL    HW1 5366   3.225   5.267   6.536
 1489SOL    HW2 5367   3.130   5.195   6.647
 1490SOL     OW 5368   6.257   3.061   1.998
 1490SOL    HW1 5369   6.330   2.994   1.986
 1490SOL    HW2 5370   6.288   3.135   2.057
 1491SOL     OW 5371   4.987   2.888   3.991
 1491SOL    HW1 5372   4.989   2.960   4.061
 1491SOL    HW2 5373   5.063   2.902   3.928
 1492SOL     OW 5374   0.822   2.609   2.109
 1492SOL    HW1 5375   0.778   2.657   2.033
 1492SOL    HW2 5376   0.821   2.510   2.090
 1493SOL     OW 5377   6.132   2.250   6.770
 1493SOL    HW1 5378   6.069   2.178   6.741
 1493SOL    HW2 5379   6.211   2.253   6.709
 1494SOL     OW 5380   0.996   4.044   6.389
 1494SOL    HW1 5381   1.059   4.036   6.466
 1494SOL    HW2 5382   0.961   4.137   6.383
 1495SOL     OW 5383   6.622   4.170   3.802
 1495SOL    HW1 5384   6.697   4.210   3.750
 1495SOL    HW2 5385   6.625   4.202   3.896
 1496SOL     OW 5386   6.577   6.453   5.480
 1496SOL    HW1 5387   6.677   6.450   5.484
 1496SOL    HW2 5388   6.543   6.515   5.551
 1497SOL     OW 5389   4.936   2.436   2.222
 1497SOL    HW1 5390   4.850   2.476   2.254
 1497SOL    HW2 5391   4.961   2.359   2.280
 1498SOL     OW 5392   3.629   4.133   0.704
 1498SOL    HW1 5393   3.572   4.064   0.749
 1498SOL    HW2 5394   3.665   4.196   0.772
 1499SOL     OW 5395   0.870   4.487   4.030
 1499SOL    HW1 5396   0.877   4.587   4.024
 1499SOL    HW2 5397   0.943   4.452   4.088
 1500SOL     OW 5398   2.568   5.307   2.085
 1500SOL    HW1 5399   2.474   5.274   2.075
 1500SOL    HW2 5400   2.624   5.237   2.128
 1501SOL     OW 5401   5.935   1.416   0.753
 1501SOL    HW1 5402   5.838   1.432   0.769
 1501SOL    HW2 5403   5.985   1.421   0.840
 1502SOL     OW 5404   0.667   6.157   6.705
 1502SOL    HW1 5405   0.594   6.214   6.669
 1502SOL    HW2 5406   0.683   6.080   6.642
 1503SOL     OW 5407   0.155   5.451   1.626
 1503SOL    HW1 5408   0.072   5.507   1.623
 1503SOL    HW2 5409   0.166   5.403   1.538
 1504SOL     OW 5410   1.767   0.215   3.335
 1504SOL    HW1 5411   1.789   0.118   3.326
 1504SOL    HW2 5412   1.688   0.226   3.396
 1505SOL     OW 5413   6.926   4.545   4.911
 1505SOL    HW1 5414   6.966   4.635   4.898
 1505SOL    HW2 5415   6.891   4.536   5.004
 1506SOL     OW 5416   1.501   0.789   1.065
 1506SOL    HW1 5417   1.593   0.762   1.038
 1506SOL    HW2 5418   1.457   0.838   0.990
 1507SOL     OW 5419   2.694   2.080   3.138
 1507SOL    HW1 5420   2.672   2.004   3.076
 1507SOL    HW2 5421   2.613   2.104   3.192
 1508SOL     OW 5422   1.594   0.655   2.110
 1508SOL    HW1 5423   1.537   0.574   2.109
 1508SOL    HW2 5424   1.588   0.701   2.021
 1509SOL     OW 5425   4.819   1.611   4.258
 1509SOL    HW1 5426   4.817   1.706   4.289
 1509SOL    HW2 5427   4.773   1.553   4.327
 1510SOL     OW 5428   3.025   6.975   5.293
 1510SOL    HW1 5429   3.075   6.971   5.207
 1510SOL    HW2 5430   3.043   6.892   5.346
 1511SOL     OW 5431   3.657   4.230   5.249
 1511SOL    HW1 5432   3.636   4.287   5.329
 1511SOL    HW2 5433   3.662   4.135   5.277
 1512SOL     OW 5434   5.059   6.245   0.769
 1512SOL    HW1 5435   4.970   6.203   0.753
 1512SOL    HW2 5436   5.059   6.339   0.735
 1513SOL     OW 5437   2.641   0.579   5.821
 1513SOL    HW1 5438   2.668   0.508   5.756
 1513SOL    HW2 5439   2.631   0.539   5.912
 1514SOL     OW 5440   3.292   1.731   6.676
 1514SOL    HW1 5441   3.243   1.814   6.652
 1514SOL    HW2 5442   3.379   1.728   6.626
 1515SOL     OW 5443   3.532   0.924   2.716
 1515SOL    HW1 5444   3.593   1.000   2.739
 1515SOL    HW2 5445   3.438   0.950   2.737
 1516SOL     OW 5446   6.627   6.814   6.070
 1516SOL    HW1 5447   6.579   6.829   6.156
 1516SOL    HW2 5448   6.724   6.839   6.082
 1517SOL     OW 5449   2.739   6.390   3.109
 1517SOL    HW1 5450   2.797   6.316   3.075
 1517SOL    HW2 5451   2.679   6.422   3.036
 1518SOL     OW 5452   1.122   3.078   6.776
 1518SOL    HW1 5453   1.099   3.156   6.718
 1518SOL    HW2 5454   1.219   3.055   6.763
 1519SOL     OW 5455   0.562   4.275   6.728
 1519SOL    HW1 5456   0.637   4.341   6.733
 1519SOL    HW2 5457   0.510   4.289   6.644
 1520SOL     OW 5458   6.921   6.795   3.241
 1520SOL    HW1 5459   7.013   6.769   3.212
 1520SOL    HW2 5460   6.854   6.739   3.194
 1521SOL     OW 5461   1.932   4.798   6.619
 1521SOL    HW1 5462   1.927   4.882   6.565
 1521SOL    HW2 5463   1.844   4.780   6.663
 1522SOL     OW 5464   5.407   6.521   4.281
 1522SOL    HW1 5465   5.412   6.506   4.380
 1522SOL    HW2 5466   5.316   6.556   4.258
 1523SOL     OW 5467   2.210   6.384   0.520
 1523SOL    HW1 5468   2.276   6.389   0.445
 1523SOL    HW2 5469   2.226   6.459   0.584
 1524SOL     OW 5470   1.956   2.732   4.473
 1524SOL    HW1 5471   1.906   2.647   4.490
 1524SOL    HW2 5472   1.894   2.801   4.436
 1525SOL     OW 5473   5.475   4.093   6.667
 1525SOL    HW1 5474   5.433   4.164   6.611
 1525SOL    HW2 5475   5.568   4.075   6.634
 1526SOL     OW 5476   0.836   1.705   0.923
 1526SOL    HW1 5477   0.858   1.745   1.012
 1526SOL    HW2 5478   0.860   1.771   0.851
 1527SOL     OW 5479   5.346   1.479   4.569
 1527SOL    HW1 5480   5.341   1.457   4.667
 1527SOL    HW2 5481   5.261   1.524   4.541
 1528SOL     OW 5482   3.817   2.928   2.590
 1528SOL    HW1 5483   3.842   2.891   2.500
 1528SOL    HW2 5484   3.718   2.923   2.602
 1529SOL     OW 5485   4.233   1.367   5.389
 1529SOL    HW1 5486   4.296   1.436   5.353
 1529SOL    HW2 5487   4.257   1.277   5.353
 1530SOL     OW 5488   2.947   6.863   1.792
 1530SOL    HW1 5489   2.936   6.958   1.821
 1530SOL    HW2 5490   3.040   6.832   1.814
 1531SOL     OW 5491   4.889   6.427   4.676
 1531SOL    HW1 5492   4.892   6.373   4.592
 1531SOL    HW2 5493   4.928   6.518   4.659
 1532SOL     OW 5494   3.044   5.378   2.141
 1532SOL    HW1 5495   3.012   5.393   2.234
 1532SOL    HW2 5496   3.090   5.460   2.108
 1533SOL     OW 5497   5.646   6.214   1.272
 1533SOL    HW1 5498   5.658   6.306   1.234
 1533SOL    HW2 5499   5.558   6.176   1.242
 1534SOL     OW 5500   2.182   4.707   6.908
 1534SOL    HW1 5501   2.235   4.768   6.850
 1534SOL    HW2 5502   2.146   4.759   6.986
 1535SOL     OW 5503   5.203   4.313   3.493
 1535SOL    HW1 5504   5.291   4.309   3.445
 1535SOL    HW2 5505   5.192   4.403   3.534
 1536SOL     OW 5506   4.361   3.912   6.598
 1536SOL    HW1 5507   4.412   3.856   6.533
 1536SOL    HW2 5508   4.421   3.982   6.635
 1537SOL     OW 5509   3.174   5.537   2.736
 1537SOL    HW1 5510   3.186   5.441   2.713
 1537SOL    HW2 5511   3.262   5.578   2.761
 1538SOL     OW 5512   2.185   1.129   0.424
 1538SOL    HW1 5513   2.161   1.183   0.344
 1538SOL    HW2 5514   2.233   1.046   0.394
 1539SOL     OW 5515   6.974   3.142   1.034
 1539SOL    HW1 5516   0.010   3.093   0.974
 1539SOL    HW2 5517   6.883   3.104   1.025
 1540SOL     OW 5518   3.658   6.331   3.574
 1540SOL    HW1 5519   3.726   6.271   3.616
 1540SOL    HW2 5520   3.687   6.426   3.585
 1541SOL     OW 5521   4.402   2.236   5.776
 1541SOL    HW1 5522   4.501   2.224   5.772
 1541SOL    HW2 5523   4.381   2.319   5.828
 1542SOL     OW 5524   6.850   4.750   2.954
 1542SOL    HW1 5525   6.934   4.707   2.920
 1542SOL    HW2 5526   6.778   4.743   2.885
 1543SOL     OW 5527   3.066   5.336   0.516
 1543SOL    HW1 5528   3.002   5.334   0.593
 1543SOL    HW2 5529   3.119   5.251   0.515
 1544SOL     OW 5530   4.136   3.446   3.703
 1544SOL    HW1 5531   4.183   3.363   3.736
 1544SOL    HW2 5532   4.144   3.451   3.604
 1545SOL     OW 5533   6.227   5.082   1.461
 1545SOL    HW1 5534   6.197   5.169   1.423
 1545SOL    HW2 5535   6.193   5.073   1.555
 1546SOL     OW 5536   6.454   6.626   5.299
 1546SOL    HW1 5537   6.378   6.577   5.256
 1546SOL    HW2 5538   6.501   6.565   5.364
 1547SOL     OW 5539   1.427   3.316   6.381
 1547SOL    HW1 5540   1.521   3.306   6.348
 1547SOL    HW2 5541   1.396   3.410   6.365
 1548SOL     OW 5542   6.439   2.306   0.403
 1548SOL    HW1 5543   6.505   2.277   0.334
 1548SOL    HW2 5544   6.361   2.244   0.402
 1549SOL     OW 5545   4.972   1.322   4.457
 1549SOL    HW1 5546   4.891   1.305   4.400
 1549SOL    HW2 5547   4.972   1.260   4.535
 1550SOL     OW 5548   3.023   3.834   4.280
 1550SOL    HW1 5549   3.025   3.810   4.377
 1550SOL    HW2 5550   3.013   3.750   4.225
 1551SOL     OW 5551   0.055   5.381   5.877
 1551SOL    HW1 5552   0.118   5.453   5.848
 1551SOL    HW2 5553   0.002   5.412   5.955
 1552SOL     OW 5554   1.916   4.159   1.630
 1552SOL    HW1 5555   2.012   4.186   1.637
 1552SOL    HW2 5556   1.877   4.147   1.721
 1553SOL     OW 5557   1.802   1.702   5.394
 1553SOL    HW1 5558   1.771   1.648   5.315
 1553SOL    HW2 5559   1.895   1.734   5.377
 1554SOL     OW 5560   4.456   2.130   3.199
 1554SOL    HW1 5561   4.405   2.048   3.224
 1554SOL    HW2 5562   4.434   2.204   3.263
 1555SOL     OW 5563   5.870   5.399   5.739
 1555SOL    HW1 5564   5.858   5.346   5.655
 1555SOL    HW2 5565   5.814   5.359   5.812
 1556SOL     OW 5566   1.939   0.962   5.785
 1556SOL    HW1 5567   2.037   0.947   5.790
 1556SOL    HW2 5568   1.905   0.991   5.874
 1557SOL     OW 5569   1.045   1.881   5.804
 1557SOL    HW1 5570   0.995   1.833   5.877
 1557SOL    HW2 5571   1.027   1.836   5.717
 1558SOL     OW 5572   7.000   6.538   4.742
 1558SOL    HW1 5573   0.036   6.554   4.666
 1558SOL    HW2 5574   6.911   6.578   4.720
 1559SOL     OW 5575   1.818   1.124   5.978
 1559SOL    HW1 5576   1.751   1.198   5.973
 1559SOL    HW2 5577   1.887   1.148   6.046
 1560SOL     OW 5578   0.266   0.679   0.379
 1560SOL    HW1 5579   0.258   0.720   0.470
 1560SOL    HW2 5580   0.361   0.655   0.362
 1561SOL     OW 5581   6.032   5.987   1.558
 1561SOL    HW1 5582   6.028   5.983   1.459
 1561SOL    HW2 5583   5.950   6.032   1.594
 1562SOL     OW 5584   5.403   0.364   4.317
 1562SOL    HW1 5585   5.367   0.324   4.401
 1562SOL    HW2 5586   5.438   0.291   4.258
 1563SOL     OW 5587   2.971   6.969   5.956
 1563SOL    HW1 5588   3.008   6.876   5.956
 1563SOL    HW2 5589   2.879   6.968   5.995
 1564SOL     OW 5590   1.962   2.361   2.934
 1564SOL    HW1 5591   1.917   2.434   2.984
 1564SOL    HW2 5592   2.035   2.400   2.877
 1565SOL     OW 5593   6.236   4.869   1.059
 1565SOL    HW1 5594   6.240   4.881   1.159
 1565SOL    HW2 5595   6.328   4.876   1.021
 1566SOL     OW 5596   6.143   4.873   2.088
 1566SOL    HW1 5597   6.235   4.905   2.067
 1566SOL    HW2 5598   6.077   4.915   2.025
 1567SOL     OW 5599   6.922   5.992   5.332
 1567SOL    HW1 5600   6.940   5.944   5.418
 1567SOL    HW2 5601   7.008   6.012   5.286
 1568SOL     OW 5602   0.340   6.797   0.741
 1568SOL    HW1 5603   0.244   6.774   0.757
 1568SOL    HW2 5604   0.374   6.852   0.817
 1569SOL     OW 5605   3.090   6.132   5.345
 1569SOL    HW1 5606   3.134   6.220   5.356
 1569SOL    HW2 5607   3.117   6.071   5.420
 1570SOL     OW 5608   2.964   2.061   2.017
 1570SOL    HW1 5609   2.948   2.152   2.054
 1570SOL    HW2 5610   2.952   1.993   2.089
 1571SOL     OW 5611   6.949   3.071   0.675
 1571SOL    HW1 5612   0.001   3.041   0.728
 1571SOL    HW2 5613   6.896   2.991   0.646
 1572SOL     OW 5614   0.318   5.596   3.409
 1572SOL    HW1 5615   0.340   5.502   3.384
 1572SOL    HW2 5616   0.287   5.599   3.504
 1573SOL     OW 5617   4.742   6.588   0.242
 1573SOL    HW1 5618   4.674   6.582   0.316
 1573SOL    HW2 5619   4.826   6.629   0.278
 1574SOL     OW 5620   5.321   3.610   2.046
 1574SOL    HW1 5621   5.335   3.531   1.987
 1574SOL    HW2 5622   5.236   3.599   2.098
 1575SOL     OW 5623   3.743   2.253   0.452
 1575SOL    HW1 5624   3.685   2.172   0.437
 1575SOL    HW2 5625   3.830   2.242   0.404
 1576SOL     OW 5626   6.496   5.187   2.945
 1576SOL    HW1 5627   6.443   5.237   2.877
 1576SOL    HW2 5628   6.593   5.195   2.924
 1577SOL     OW 5629   1.840   0.588   0.606
 1577SOL    HW1 5630   1.928   0.628   0.580
 1577SOL    HW2 5631   1.770   0.660   0.608
 1578SOL     OW 5632   6.073   6.026   4.512
 1578SOL    HW1 5633   5.997   5.969   4.543
 1578SOL    HW2 5634   6.038   6.100   4.454
 1579SOL     OW 5635   6.959   0.734   3.191
 1579SOL    HW1 5636   0.002   0.801   3.215
 1579SOL    HW2 5637   6.975   0.649   3.242
 1580SOL     OW 5638   3.202   4.259   5.742
 1580SOL    HW1 5639   3.119   4.295   5.698
 1580SOL    HW2 5640   3.217   4.307   5.829
 1581SOL     OW 5641   6.228   3.316   4.609
 1581SOL    HW1 5642   6.219   3.270   4.520
 1581SOL    HW2 5643   6.176   3.401   4.608
 1582SOL     OW 5644   5.891   6.588   4.101
 1582SOL    HW1 5645   5.880   6.620   4.195
 1582SOL    HW2 5646   5.893   6.666   4.039
 1583SOL     OW 5647   2.065   2.799   1.700
 1583SOL    HW1 5648   2.046   2.785   1.603
 1583SOL    HW2 5649   1.993   2.855   1.741
 1584SOL     OW 5650   2.514   0.029   6.727
 1584SOL    HW1 5651   2.520   7.017   6.819
 1584SOL    HW2 5652   2.511   6.982   6.660
 1585SOL     OW 5653   5.624   0.889   6.290
 1585SOL    HW1 5654   5.718   0.897   6.321
 1585SOL    HW2 5655   5.592   0.795   6.306
 1586SOL     OW 5656   3.844   3.031   2.908
 1586SOL    HW1 5657   3.911   2.973   2.862
 1586SOL    HW2 5658   3.772   2.973   2.947
 1587SOL     OW 5659   1.671   6.933   6.046
 1587SOL    HW1 5660   1.630   6.844   6.065
 1587SOL    HW2 5661   1.688   6.981   6.133
 1588SOL     OW 5662   6.098   4.093   0.411
 1588SOL    HW1 5663   6.027   4.051   0.355
 1588SOL    HW2 5664   6.061   4.173   0.458
 1589SOL     OW 5665   4.841   4.837   3.086
 1589SOL    HW1 5666   4.892   4.835   3.173
 1589SOL    HW2 5667   4.744   4.854   3.105
 1590SOL     OW 5668   2.246   6.015   4.589
 1590SOL    HW1 5669   2.254   5.982   4.495
 1590SOL    HW2 5670   2.153   6.048   4.606
 1591SOL     OW 5671   2.233   3.438   0.108
 1591SOL    HW1 5672   2.258   3.507   0.039
 1591SOL    HW2 5673   2.137   3.413   0.096
 1592SOL     OW 5674   3.668   3.567   4.063
 1592SOL    HW1 5675   3.638   3.640   4.125
 1592SOL    HW2 5676   3.667   3.480   4.112
 1593SOL     OW 5677   1.555   4.018   4.129
 1593SOL    HW1 5678   1.586   4.093   4.187
 1593SOL    HW2 5679   1.566   4.042   4.033
 1594SOL     OW 5680   0.575   5.515   2.667
 1594SOL    HW1 5681   0.644   5.535   2.598
 1594SOL    HW2 5682   0.553   5.598   2.718
 1595SOL     OW 5683   6.952   3.524   4.838
 1595SOL    HW1 5684   7.026   3.532   4.771
 1595SOL    HW2 5685   6.879   3.467   4.800
 1596SOL     OW 5686   2.896   5.115   6.573
 1596SOL    HW1 5687   2.944   5.038   6.530
 1596SOL    HW2 5688   2.894   5.103   6.672
 1597SOL     OW 5689   2.642   6.990   0.628
 1597SOL    HW1 5690   2.567   6.960   0.568
 1597SOL    HW2 5691   2.713   6.920   0.629
 1598SOL     OW 5692   0.118   5.848   1.536
 1598SOL    HW1 5693   0.026   5.836   1.574
 1598SOL    HW2 5694   0.149   5.941   1.554
 1599SOL     OW 5695   2.765   5.373   0.408
 1599SOL    HW1 5696   2.857   5.383   0.370
 1599SOL    HW2 5697   2.758   5.425   0.493
 1600SOL     OW 5698   3.582   1.592   4.907
 1600SOL    HW1 5699   3.597   1.598   4.808
 1600SOL    HW2 5700   3.517   1.662   4.935
 1601SOL     OW 5701   2.010   5.124   5.021
 1601SOL    HW1 5702   2.012   5.138   4.922
 1601SOL    HW2 5703   2.004   5.213   5.067
 1602SOL     OW 5704   0.316   3.438   2.007
 1602SOL    HW1 5705   0.355   3.355   2.047
 1602SOL    HW2 5706   0.295   3.504   2.079
 1603SOL     OW 5707   6.309   6.889   0.494
 1603SOL    HW1 5708   6.381   6.825   0.518
 1603SOL    HW2 5709   6.340   6.983   0.511
 1604SOL     OW 5710   0.632   5.314   4.300
 1604SOL    HW1 5711   0.712   5.262   4.269
 1604SOL    HW2 5712   0.648   5.345   4.394
 1605SOL     OW 5713   4.662   5.064   2.548
 1605SOL    HW1 5714   4.611   5.150   2.545
 1605SOL    HW2 5715   4.730   5.068   2.622
 1606SOL     OW 5716   5.853   5.866   4.558
 1606SOL    HW1 5717   5.806   5.860   4.646
 1606SOL    HW2 5718   5.786   5.867   4.484
 1607SOL     OW 5719   4.840   3.428   1.500
 1607SOL    HW1 5720   4.875   3.393   1.414
 1607SOL    HW2 5721   4.805   3.352   1.555
 1608SOL     OW 5722   2.534   0.004   0.876
 1608SOL    HW1 5723   2.576   7.008   0.788
 1608SOL    HW2 5724   2.456   0.065   0.861
 1609SOL     OW 5725   5.490   1.384   4.830
 1609SOL    HW1 5726   5.576   1.427   4.859
 1609SOL    HW2 5727   5.413   1.440   4.862
 1610SOL     OW 5728   4.542   6.507   3.083
 1610SOL    HW1 5729   4.518   6.598   3.049
 1610SOL    HW2 5730   4.517   6.438   3.015
 1611SOL     OW 5731   4.388   4.012   1.469
 1611SOL    HW1 5732   4.294   3.978   1.470
 1611SOL    HW2 5733   4.443   3.956   1.408
 1612SOL     OW 5734   3.107   0.670   4.673
 1612SOL    HW1 5735   3.097   0.760   4.632
 1612SOL    HW2 5736   3.087   0.599   4.605
 1613SOL     OW 5737   2.004   0.563   1.523
 1613SOL    HW1 5738   1.954   0.488   1.478
 1613SOL    HW2 5739   2.078   0.593   1.463
 1614SOL     OW 5740   7.012   2.273   5.347
 1614SOL    HW1 5741   6.975   2.251   5.257
 1614SOL    HW2 5742   0.041   2.197   5.380
 1615SOL     OW 5743   6.762   5.707   5.439
 1615SOL    HW1 5744   6.668   5.703   5.473
 1615SOL    HW2 5745   6.785   5.621   5.394
 1616SOL     OW 5746   2.295   1.937   6.264
 1616SOL    HW1 5747   2.322   1.876   6.189
 1616SOL    HW2 5748   2.374   1.991   6.294
 1617SOL     OW 5749   2.776   0.879   3.518
 1617SOL    HW1 5750   2.740   0.961   3.563
 1617SOL    HW2 5751   2.802   0.902   3.424
 1618SOL     OW 5752   5.301   2.787   2.099
 1618SOL    HW1 5753   5.205   2.759   2.093
 1618SOL    HW2 5754   5.314   2.844   2.180
 1619SOL     OW 5755   1.454   2.632   4.734
 1619SOL    HW1 5756   1.361   2.641   4.770
 1619SOL    HW2 5757   1.499   2.720   4.736
 1620SOL     OW 5758   3.468   6.028   1.758
 1620SOL    HW1 5759   3.457   6.122   1.724
 1620SOL    HW2 5760   3.558   5.994   1.733
 1621SOL     OW 5761   2.128   2.568   1.527
 1621SOL    HW1 5762   2.158   2.513   1.449
 1621SOL    HW2 5763   2.208   2.597   1.580
 1622SOL     OW 5764   2.238   2.046   5.128
 1622SOL    HW1 5765   2.222   2.065   5.225
 1622SOL    HW2 5766   2.190   2.113   5.072
 1623SOL     OW 5767   2.051   1.881   4.644
 1623SOL    HW1 5768   2.008   1.801   4.685
 1623SOL    HW2 5769   1.980   1.943   4.610
 1624SOL     OW 5770   2.084   0.692   0.527
 1624SOL    HW1 5771   2.166   0.640   0.502
 1624SOL    HW2 5772   2.093   0.786   0.494
 1625SOL     OW 5773   1.166   6.952   1.358
 1625SOL    HW1 5774   1.145   6.887   1.431
 1625SOL    HW2 5775   1.081   6.982   1.314
 1626SOL     OW 5776   2.630   3.037   6.263
 1626SOL    HW1 5777   2.655   3.101   6.190
 1626SOL    HW2 5778   2.705   3.032   6.329
 1627SOL     OW 5779   4.661   4.276   3.259
 1627SOL    HW1 5780   4.614   4.311   3.178
 1627SOL    HW2 5781   4.614   4.309   3.341
 1628SOL     OW 5782   3.244   3.461   0.251
 1628SOL    HW1 5783   3.192   3.415   0.323
 1628SOL    HW2 5784   3.274   3.394   0.183
 1629SOL     OW 5785   2.883   2.244   2.847
 1629SOL    HW1 5786   2.858   2.327   2.898
 1629SOL    HW2 5787   2.981   2.229   2.853
 1630SOL     OW 5788   5.657   4.909   4.197
 1630SOL    HW1 5789   5.690   5.002   4.182
 1630SOL    HW2 5790   5.558   4.909   4.206
 1631SOL     OW 5791   1.063   0.300   6.014
 1631SOL    HW1 5792   1.020   0.216   6.046
 1631SOL    HW2 5793   1.149   0.278   5.968
 1632SOL     OW 5794   4.212   6.682   6.626
 1632SOL    HW1 5795   4.188   6.773   6.592
 1632SOL    HW2 5796   4.305   6.660   6.597
 1633SOL     OW 5797   6.196   4.028   2.885
 1633SOL    HW1 5798   6.164   4.120   2.908
 1633SOL    HW2 5799   6.259   3.996   2.955
 1634SOL     OW 5800   3.573   1.123   1.076
 1634SOL    HW1 5801   3.495   1.107   1.137
 1634SOL    HW2 5802   3.657   1.130   1.129
 1635SOL     OW 5803   1.482   4.566   3.355
 1635SOL    HW1 5804   1.476   4.475   3.397
 1635SOL    HW2 5805   1.390   4.602   3.341
 1636SOL     OW 5806   3.261   6.188   0.734
 1636SOL    HW1 5807   3.191   6.194   0.664
 1636SOL    HW2 5808   3.227   6.136   0.812
 1637SOL     OW 5809   0.936   3.098   2.843
 1637SOL    HW1 5810   1.009   3.155   2.804
 1637SOL    HW2 5811   0.961   3.002   2.834
 1638SOL     OW 5812   1.313   2.380   6.233
 1638SOL    HW1 5813   1.295   2.289   6.270
 1638SOL    HW2 5814   1.346   2.372   6.139
 1639SOL     OW 5815   4.127   4.806   2.754
 1639SOL    HW1 5816   4.169   4.896   2.764
 1639SOL    HW2 5817   4.128   4.758   2.842
 1640SOL     OW 5818   5.957   7.003   1.001
 1640SOL    HW1 5819   5.962   0.011   1.094
 1640SOL    HW2 5820   5.890   6.929   0.997
 1641SOL     OW 5821   6.596   2.609   4.718
 1641SOL    HW1 5822   6.654   2.604   4.798
 1641SOL    HW2 5823   6.641   2.663   4.647
 1642SOL     OW 5824   0.884   2.252   1.856
 1642SOL    HW1 5825   0.974   2.257   1.900
 1642SOL    HW2 5826   0.817   2.299   1.913
 1643SOL     OW 5827   3.768   0.443   5.890
 1643SOL    HW1 5828   3.768   0.516   5.823
 1643SOL    HW2 5829   3.746   0.480   5.980
 1644SOL     OW 5830   4.059   1.294   1.202
 1644SOL    HW1 5831   3.971   1.246   1.195
 1644SOL    HW2 5832   4.126   1.234   1.245
 1645SOL     OW 5833   2.174   6.007   6.205
 1645SOL    HW1 5834   2.212   5.983   6.295
 1645SOL    HW2 5835   2.105   5.940   6.180
 1646SOL     OW 5836   2.433   3.500   0.303
 1646SOL    HW1 5837   2.370   3.458   0.238
 1646SOL    HW2 5838   2.387   3.574   0.351
 1647SOL     OW 5839   5.508   3.592   2.692
 1647SOL    HW1 5840   5.455   3.535   2.755
 1647SOL    HW2 5841   5.451   3.666   2.658
 1648SOL     OW 5842   2.940   0.685   3.043
 1648SOL    HW1 5843   2.948   0.758   3.111
 1648SOL    HW2 5844   2.941   0.596   3.089
 1649SOL     OW 5845   2.776   0.290   4.236
 1649SOL    HW1 5846   2.767   0.374   4.290
 1649SOL    HW2 5847   2.740   0.305   4.144
 1650SOL     OW 5848   3.138   0.217   4.222
 1650SOL    HW1 5849   3.110   0.246   4.131
 1650SOL    HW2 5850   3.070   0.246   4.289
 1651SOL     OW 5851   1.407   6.626   2.213
 1651SOL    HW1 5852   1.390   6.622   2.311
 1651SOL    HW2 5853   1.471   6.553   2.187
 1652SOL     OW 5854   3.483   3.373   1.870
 1652SOL    HW1 5855   3.518   3.431   1.944
 1652SOL    HW2 5856   3.413   3.424   1.819
 1653SOL     OW 5857   0.847   4.580   1.067
 1653SOL    HW1 5858   0.925   4.544   1.017
 1653SOL    HW2 5859   0.872   4.668   1.109
 1654SOL     OW 5860   0.809   2.028   3.782
 1654SOL    HW1 5861   0.787   2.125   3.768
 1654SOL    HW2 5862   0.725   1.977   3.800
 1655SOL     OW 5863   4.375   4.247   5.321
 1655SOL    HW1 5864   4.326   4.160   5.319
 1655SOL    HW2 5865   4.342   4.306   5.247
 1656SOL     OW 5866   0.372   3.666   2.509
 1656SOL    HW1 5867   0.274   3.682   2.498
 1656SOL    HW2 5868   0.386   3.589   2.572
 1657SOL     OW 5869   1.112   0.883   5.391
 1657SOL    HW1 5870   1.147   0.970   5.424
 1657SOL    HW2 5871   1.016   0.893   5.364
 1658SOL     OW 5872   5.891   0.157   2.824
 1658SOL    HW1 5873   5.817   0.162   2.891
 1658SOL    HW2 5874   5.961   0.225   2.846
 1659SOL     OW 5875   5.232   2.284   6.681
 1659SOL    HW1 5876   5.166   2.303   6.608
 1659SOL    HW2 5877   5.190   2.303   6.770
 1660SOL     OW 5878   2.231   5.939   3.707
 1660SOL    HW1 5879   2.250   6.033   3.736
 1660SOL    HW2 5880   2.250   5.929   3.610
 1661SOL     OW 5881   2.440   0.745   3.237
 1661SOL    HW1 5882   2.360   0.708   3.191
 1661SOL    HW2 5883   2.456   0.695   3.322
 1662SOL     OW 5884   6.640   0.482   3.239
 1662SOL    HW1 5885   6.726   0.449   3.200
 1662SOL    HW2 5886   6.565   0.462   3.176
 1663SOL     OW 5887   2.065   0.259   3.415
 1663SOL    HW1 5888   2.025   0.347   3.438
 1663SOL    HW2 5889   1.994   0.196   3.383
 1664SOL     OW 5890   2.219   5.742   4.475
 1664SOL    HW1 5891   2.258   5.669   4.419
 1664SOL    HW2 5892   2.151   5.704   4.538
 1665SOL     OW 5893   6.621   1.046   3.684
 1665SOL    HW1 5894   6.655   1.126   3.634
 1665SOL    HW2 5895   6.693   0.977   3.690
 1666SOL     OW 5896   5.434   2.210   6.182
 1666SOL    HW1 5897   5.508   2.262   6.225
 1666SOL    HW2 5898   5.359   2.271   6.159
 1667SOL     OW 5899   7.024   0.352   1.333
 1667SOL    HW1 5900   0.083   0.357   1.385
 1667SOL    HW2 5901   6.954   0.307   1.387
 1668SOL     OW 5902   1.965   0.560   4.589
 1668SOL    HW1 5903   1.907   0.488   4.550
 1668SOL    HW2 5904   1.923   0.649   4.573
 1669SOL     OW 5905   5.460   6.027   5.819
 1669SOL    HW1 5906   5.460   6.049   5.916
 1669SOL    HW2 5907   5.511   5.943   5.803
 1670SOL     OW 5908   6.849   3.009   6.542
 1670SOL    HW1 5909   6.848   3.025   6.641
 1670SOL    HW2 5910   6.942   3.020   6.507
 1671SOL     OW 5911   5.582   5.101   0.279
 1671SOL    HW1 5912   5.592   5.020   0.336
 1671SOL    HW2 5913   5.521   5.166   0.324
 1672SOL     OW 5914   1.709   4.638   2.718
 1672SOL    HW1 5915   1.622   4.687   2.713
 1672SOL    HW2 5916   1.773   4.678   2.652
 1673SOL     OW 5917   6.500   2.996   3.605
 1673SOL    HW1 5918   6.428   3.025   3.542
 1673SOL    HW2 5919   6.576   2.956   3.553
 1674SOL     OW 5920   2.550   5.624   0.452
 1674SOL    HW1 5921   2.571   5.542   0.505
 1674SOL    HW2 5922   2.606   5.700   0.485
 1675SOL     OW 5923   5.011   1.370   6.670
 1675SOL    HW1 5924   5.098   1.334   6.701
 1675SOL    HW2 5925   5.004   1.467   6.696
 1676SOL     OW 5926   2.894   2.095   3.654
 1676SOL    HW1 5927   2.958   2.058   3.722
 1676SOL    HW2 5928   2.937   2.092   3.564
 1677SOL     OW 5929   5.678   0.547   5.740
 1677SOL    HW1 5930   5.702   0.460   5.781
 1677SOL    HW2 5931   5.586   0.574   5.770
 1678SOL     OW 5932   5.010   6.740   1.993
 1678SOL    HW1 5933   5.069   6.668   1.956
 1678SOL    HW2 5934   5.023   6.824   1.941
 1679SOL     OW 5935   6.137   4.475   0.331
 1679SOL    HW1 5936   6.086   4.549   0.287
 1679SOL    HW2 5937   6.080   4.434   0.403
 1680SOL     OW 5938   0.478   2.331   5.799
 1680SOL    HW1 5939   0.524   2.253   5.841
 1680SOL    HW2 5940   0.511   2.416   5.842
 1681SOL     OW 5941   4.359   5.698   0.013
 1681SOL    HW1 5942   4.278   5.750   7.014
 1681SOL    HW2 5943   4.355   5.677   0.111
 1682SOL     OW 5944   0.077   3.019   5.732
 1682SOL    HW1 5945   0.082   2.962   5.814
 1682SOL    HW2 5946   0.046   2.962   5.655
 1683SOL     OW 5947   5.470   5.411   6.105
 1683SOL    HW1 5948   5.485   5.357   6.187
 1683SOL    HW2 5949   5.548   5.402   6.043
 1684SOL     OW 5950   0.379   6.592   4.403
 1684SOL    HW1 5951   0.438   6.672   4.408
 1684SOL    HW2 5952   0.359   6.571   4.307
 1685SOL     OW 5953   1.270   1.986   0.501
 1685SOL    HW1 5954   1.279   1.962   0.598
 1685SOL    HW2 5955   1.174   1.999   0.479
 1686SOL     OW 5956   1.625   6.706   6.193
 1686SOL    HW1 5957   1.576   6.683   6.277
 1686SOL    HW2 5958   1.573   6.673   6.114
 1687SOL     OW 5959   3.056   6.461   2.458
 1687SOL    HW1 5960   2.959   6.473   2.478
 1687SOL    HW2 5961   3.066   6.415   2.370
 1688SOL     OW 5962   0.593   1.391   3.867
 1688SOL    HW1 5963   0.562   1.314   3.812
 1688SOL    HW2 5964   0.583   1.369   3.964
 1689SOL     OW 5965   2.992   1.296   1.416
 1689SOL    HW1 5966   2.931   1.343   1.351
 1689SOL    HW2 5967   3.036   1.219   1.370
 1690SOL     OW 5968   1.063   2.318   0.525
 1690SOL    HW1 5969   1.034   2.223   0.536
 1690SOL    HW2 5970   0.983   2.378   0.527
 1691SOL     OW 5971   4.538   4.479   3.851
 1691SOL    HW1 5972   4.599   4.410   3.810
 1691SOL    HW2 5973   4.515   4.452   3.944
 1692SOL     OW 5974   1.001   0.125   3.737
 1692SOL    HW1 5975   0.951   0.144   3.653
 1692SOL    HW2 5976   0.939   0.090   3.807
 1693SOL     OW 5977   3.607   2.133   4.035
 1693SOL    HW1 5978   3.549   2.062   3.995
 1693SOL    HW2 5979   3.697   2.130   3.992
 1694SOL     OW 5980   6.411   5.961   4.977
 1694SOL    HW1 5981   6.395   5.910   4.892
 1694SOL    HW2 5982   6.486   6.026   4.962
 1695SOL     OW 5983   4.131   1.541   6.346
 1695SOL    HW1 5984   4.155   1.607   6.418
 1695SOL    HW2 5985   4.126   1.588   6.258
 1696SOL     OW 5986   3.894   5.705   1.603
 1696SOL    HW1 5987   3.993   5.701   1.611
 1696SOL    HW2 5988   3.853   5.632   1.657
 1697SOL     OW 5989   1.292   1.712   2.113
 1697SOL    HW1 5990   1.209   1.660   2.096
 1697SOL    HW2 5991   1.352   1.660   2.174
 1698SOL     OW 5992   4.678   1.832   0.238
 1698SOL    HW1 5993   4.713   1.739   0.249
 1698SOL    HW2 5994   4.612   1.852   0.311
 1699SOL     OW 5995   2.509   4.746   0.993
 1699SOL    HW1 5996   2.530   4.650   1.010
 1699SOL    HW2 5997   2.588   4.791   0.953
 1700SOL     OW 5998   6.167   2.871   4.633
 1700SOL    HW1 5999   6.234   2.831   4.697
 1700SOL    HW2 6000   6.080   2.823   4.642
 1701SOL     OW 6001   6.184   3.100   4.978
 1701SOL    HW1 6002   6.113   3.080   4.910
 1701SOL    HW2 6003   6.188   3.199   4.994
 1702SOL     OW 6004   5.180   2.758   1.373
 1702SOL    HW1 6005   5.105   2.751   1.307
 1702SOL    HW2 6006   5.196   2.668   1.413
 1703SOL     OW 6007   2.036   3.555   0.716
 1703SOL    HW1 6008   2.010   3.493   0.790
 1703SOL    HW2 6009   1.953   3.594   0.675
 1704SOL     OW 6010   6.874   1.988   2.397
 1704SOL    HW1 6011   6.869   1.992   2.297
 1704SOL    HW2 6012   6.836   1.901   2.429
 1705SOL     OW 6013   4.019   3.101   2.661
 1705SOL    HW1 6014   4.068   3.120   2.577
 1705SOL    HW2 6015   3.946   3.034   2.643
 1706SOL     OW 6016   2.168   0.891   6.020
 1706SOL    HW1 6017   2.180   0.982   5.978
 1706SOL    HW2 6018   2.254   0.862   6.062
 1707SOL     OW 6019   5.298   1.557   2.241
 1707SOL    HW1 6020   5.232   1.490   2.275
 1707SOL    HW2 6021   5.280   1.575   2.144
 1708SOL     OW 6022   0.470   4.425   1.431
 1708SOL    HW1 6023   0.378   4.403   1.396
 1708SOL    HW2 6024   0.519   4.480   1.363
 1709SOL     OW 6025   3.506   5.431   3.690
 1709SOL    HW1 6026   3.520   5.501   3.761
 1709SOL    HW2 6027   3.575   5.443   3.618
 1710SOL     OW 6028   6.751   4.605   4.655
 1710SOL    HW1 6029   6.766   4.693   4.610
 1710SOL    HW2 6030   6.808   4.598   4.736
 1711SOL     OW 6031   1.330   4.878   5.540
 1711SOL    HW1 6032   1.362   4.954   5.483
 1711SOL    HW2 6033   1.337   4.792   5.490
 1712SOL     OW 6034   1.756   4.717   2.112
 1712SOL    HW1 6035   1.707   4.653   2.171
 1712SOL    HW2 6036   1.853   4.717   2.136
 1713SOL     OW 6037   2.704   3.058   0.854
 1713SOL    HW1 6038   2.712   3.128   0.925
 1713SOL    HW2 6039   2.682   3.102   0.766
 1714SOL     OW 6040   4.129   1.257   1.744
 1714SOL    HW1 6041   4.144   1.285   1.650
 1714SOL    HW2 6042   4.205   1.288   1.801
 1715SOL     OW 6043   1.163   3.064   3.490
 1715SOL    HW1 6044   1.110   3.070   3.405
 1715SOL    HW2 6045   1.165   3.153   3.535
 1716SOL     OW 6046   0.268   0.009   6.674
 1716SOL    HW1 6047   0.284   0.034   6.579
 1716SOL    HW2 6048   0.332   0.059   6.733
 1717SOL     OW 6049   2.773   0.477   6.471
 1717SOL    HW1 6050   2.839   0.539   6.513
 1717SOL    HW2 6051   2.744   0.514   6.383
 1718SOL     OW 6052   2.070   3.944   5.660
 1718SOL    HW1 6053   2.137   3.994   5.605
 1718SOL    HW2 6054   2.100   3.850   5.673
 1719SOL     OW 6055   1.856   3.608   1.030
 1719SOL    HW1 6056   1.820   3.642   0.943
 1719SOL    HW2 6057   1.866   3.509   1.025
 1720SOL     OW 6058   0.102   2.423   2.359
 1720SOL    HW1 6059   0.138   2.504   2.407
 1720SOL    HW2 6060   0.178   2.369   2.324
 1721SOL     OW 6061   0.983   6.638   4.415
 1721SOL    HW1 6062   1.073   6.681   4.410
 1721SOL    HW2 6063   0.988   6.555   4.471
 1722SOL     OW 6064   5.696   0.269   1.845
 1722SOL    HW1 6065   5.793   0.243   1.840
 1722SOL    HW2 6066   5.688   0.355   1.896
 1723SOL     OW 6067   5.766   1.335   3.020
 1723SOL    HW1 6068   5.708   1.257   3.043
 1723SOL    HW2 6069   5.768   1.400   3.096
 1724SOL     OW 6070   5.116   0.821   0.470
 1724SOL    HW1 6071   5.165   0.771   0.399
 1724SOL    HW2 6072   5.020   0.830   0.444
 1725SOL     OW 6073   3.705   5.650   2.425
 1725SOL    HW1 6074   3.715   5.700   2.339
 1725SOL    HW2 6075   3.791   5.656   2.477
 1726SOL     OW 6076   6.696   3.961   4.672
 1726SOL    HW1 6077   6.710   4.050   4.714
 1726SOL    HW2 6078   6.785   3.924   4.643
 1727SOL     OW 6079   2.682   3.873   5.538
 1727SOL    HW1 6080   2.693   3.922   5.452
 1727SOL    HW2 6081   2.766   3.881   5.592
 1728SOL     OW 6082   4.719   5.584   3.757
 1728SOL    HW1 6083   4.620   5.580   3.771
 1728SOL    HW2 6084   4.741   5.659   3.695
 1729SOL     OW 6085   0.254   3.208   2.478
 1729SOL    HW1 6086   0.174   3.250   2.436
 1729SOL    HW2 6087   0.228   3.170   2.567
 1730SOL     OW 6088   5.005   2.122   4.550
 1730SOL    HW1 6089   5.045   2.132   4.641
 1730SOL    HW2 6090   5.069   2.071   4.491
 1731SOL     OW 6091   0.824   6.776   0.146
 1731SOL    HW1 6092   0.923   6.776   0.160
 1731SOL    HW2 6093   0.795   6.866   0.112
 1732SOL     OW 6094   0.743   4.180   6.981
 1732SOL    HW1 6095   0.714   4.156   0.046
 1732SOL    HW2 6096   0.663   4.200   6.924
 1733SOL     OW 6097   1.277   4.542   6.737
 1733SOL    HW1 6098   1.280   4.535   6.637
 1733SOL    HW2 6099   1.346   4.481   6.777
 1734SOL     OW 6100   5.206   4.385   0.960
 1734SOL    HW1 6101   5.110   4.379   0.931
 1734SOL    HW2 6102   5.212   4.371   1.059
 1735SOL     OW 6103   4.696   5.304   0.077
 1735SOL    HW1 6104   4.760   5.364   0.124
 1735SOL    HW2 6105   4.708   5.314   7.005
 1736SOL     OW 6106   3.503   3.035   0.443
 1736SOL    HW1 6107   3.569   2.966   0.471
 1736SOL    HW2 6108   3.434   3.047   0.515
 1737SOL     OW 6109   1.089   5.854   3.018
 1737SOL    HW1 6110   1.009   5.810   3.058
 1737SOL    HW2 6111   1.098   5.947   3.056
 1738SOL     OW 6112   0.680   1.473   2.204
 1738SOL    HW1 6113   0.755   1.490   2.267
 1738SOL    HW2 6114   0.602   1.435   2.254
 1739SOL     OW 6115   4.264   1.901   6.191
 1739SOL    HW1 6116   4.327   1.827   6.214
 1739SOL    HW2 6117   4.174   1.863   6.170
 1740SOL     OW 6118   0.696   2.348   6.560
 1740SOL    HW1 6119   0.777   2.296   6.588
 1740SOL    HW2 6120   0.631   2.352   6.636
 1741SOL     OW 6121   1.022   0.994   2.206
 1741SOL    HW1 6122   1.093   0.935   2.246
 1741SOL    HW2 6123   1.062   1.048   2.132
 1742SOL     OW 6124   5.731   6.201   4.048
 1742SOL    HW1 6125   5.699   6.289   4.082
 1742SOL    HW2 6126   5.823   6.182   4.083
 1743SOL     OW 6127   4.557   1.216   0.704
 1743SOL    HW1 6128   4.632   1.235   0.766
 1743SOL    HW2 6129   4.494   1.150   0.745
 1744SOL     OW 6130   3.734   5.957   1.692
 1744SOL    HW1 6131   3.812   5.993   1.744
 1744SOL    HW2 6132   3.766   5.890   1.626
 1745SOL     OW 6133   0.091   2.531   5.353
 1745SOL    HW1 6134   0.092   2.432   5.361
 1745SOL    HW2 6135   7.024   2.563   5.342
 1746SOL     OW 6136   2.725   1.013   6.079
 1746SOL    HW1 6137   2.800   1.031   6.142
 1746SOL    HW2 6138   2.750   0.937   6.018
 1747SOL     OW 6139   4.492   6.772   5.404
 1747SOL    HW1 6140   4.540   6.844   5.354
 1747SOL    HW2 6141   4.396   6.768   5.375
 1748SOL     OW 6142   5.520   1.039   1.907
 1748SOL    HW1 6143   5.453   1.035   1.832
 1748SOL    HW2 6144   5.473   1.027   1.994
 1749SOL     OW 6145   4.869   0.150   6.388
 1749SOL    HW1 6146   4.842   0.129   6.482
 1749SOL    HW2 6147   4.808   0.219   6.350
 1750SOL     OW 6148   3.755   0.713   3.554
 1750SOL    HW1 6149   3.719   0.799   3.591
 1750SOL    HW2 6150   3.738   0.639   3.619
 1751SOL     OW 6151   1.999   5.904   4.402
 1751SOL    HW1 6152   1.934   5.963   4.450
 1751SOL    HW2 6153   2.044   5.844   4.468
 1752SOL     OW 6154   0.227   2.021   6.620
 1752SOL    HW1 6155   0.277   2.082   6.557
 1752SOL    HW2 6156   0.242   1.926   6.592
 1753SOL     OW 6157   2.100   6.261   2.439
 1753SOL    HW1 6158   2.061   6.341   2.485
 1753SOL    HW2 6159   2.087   6.180   2.496
 1754SOL     OW 6160   3.160   3.321   2.863
 1754SOL    HW1 6161   3.081   3.285   2.814
 1754SOL    HW2 6162   3.223   3.246   2.886
 1755SOL     OW 6163   6.556   4.319   0.313
 1755SOL    HW1 6164   6.639   4.325   0.369
 1755SOL    HW2 6165   6.561   4.237   0.256
 1756SOL     OW 6166   6.230   4.732   5.332
 1756SOL    HW1 6167   6.134   4.741   5.307
 1756SOL    HW2 6168   6.237   4.680   5.417
 1757SOL     OW 6169   4.089   0.298   5.552
 1757SOL    HW1 6170   4.188   0.313   5.549
 1757SOL    HW2 6171   4.047   0.370   5.606
 1758SOL     OW 6172   2.781   1.532   3.159
 1758SOL    HW1 6173   2.868   1.503   3.117
 1758SOL    HW2 6174   2.793   1.621   3.202
 1759SOL     OW 6175   6.909   6.011   6.075
 1759SOL    HW1 6176   6.912   5.970   5.984
 1759SOL    HW2 6177   6.983   5.975   6.131
 1760SOL     OW 6178   4.534   6.111   2.603
 1760SOL    HW1 6179   4.561   6.206   2.588
 1760SOL    HW2 6180   4.591   6.050   2.548
 1761SOL     OW 6181   5.536   3.229   1.427
 1761SOL    HW1 6182   5.575   3.313   1.466
 1761SOL    HW2 6183   5.606   3.157   1.426
 1762SOL     OW 6184   5.673   3.246   0.215
 1762SOL    HW1 6185   5.593   3.267   0.271
 1762SOL    HW2 6186   5.744   3.314   0.231
 1763SOL     OW 6187   2.354   2.808   4.615
 1763SOL    HW1 6188   2.301   2.868   4.555
 1763SOL    HW2 6189   2.321   2.817   4.709
 1764SOL     OW 6190   6.678   3.587   3.330
 1764SOL    HW1 6191   6.675   3.509   3.393
 1764SOL    HW2 6192   6.750   3.574   3.263
 1765SOL     OW 6193   1.675   3.481   5.726
 1765SOL    HW1 6194   1.716   3.417   5.661
 1765SOL    HW2 6195   1.638   3.560   5.677
 1766SOL     OW 6196   5.863   3.778   5.422
 1766SOL    HW1 6197   5.775   3.761   5.465
 1766SOL    HW2 6198   5.854   3.771   5.323
 1767SOL     OW 6199   6.483   4.777   1.274
 1767SOL    HW1 6200   6.538   4.846   1.226
 1767SOL    HW2 6201   6.520   4.686   1.256
 1768SOL     OW 6202   6.015   6.670   3.069
 1768SOL    HW1 6203   6.050   6.608   3.139
 1768SOL    HW2 6204   6.085   6.739   3.047
 1769SOL     OW 6205   4.596   1.051   3.549
 1769SOL    HW1 6206   4.553   1.043   3.639
 1769SOL    HW2 6207   4.614   0.959   3.513
 1770SOL     OW 6208   3.653   6.157   5.486
 1770SOL    HW1 6209   3.585   6.223   5.452
 1770SOL    HW2 6210   3.729   6.152   5.422
 1771SOL     OW 6211   4.557   6.239   6.829
 1771SOL    HW1 6212   4.472   6.291   6.819
 1771SOL    HW2 6213   4.556   6.188   6.915
 1772SOL     OW 6214   2.584   5.790   3.050
 1772SOL    HW1 6215   2.501   5.835   3.016
 1772SOL    HW2 6216   2.642   5.858   3.094
 1773SOL     OW 6217   1.266   0.027   0.469
 1773SOL    HW1 6218   1.270   6.957   0.443
 1773SOL    HW2 6219   1.352   0.072   0.444
 1774SOL     OW 6220   2.674   5.189   2.411
 1774SOL    HW1 6221   2.696   5.137   2.328
 1774SOL    HW2 6222   2.648   5.282   2.385
 1775SOL     OW 6223   0.892   5.183   0.549
 1775SOL    HW1 6224   0.984   5.158   0.578
 1775SOL    HW2 6225   0.878   5.281   0.564
 1776SOL     OW 6226   3.004   5.581   4.987
 1776SOL    HW1 6227   3.059   5.612   5.064
 1776SOL    HW2 6228   2.931   5.520   5.019
 1777SOL     OW 6229   3.535   6.117   0.545
 1777SOL    HW1 6230   3.532   6.207   0.500
 1777SOL    HW2 6231   3.523   6.130   0.644
 1778SOL     OW 6232   0.150   3.495   5.581
 1778SOL    HW1 6233   0.078   3.436   5.545
 1778SOL    HW2 6234   0.109   3.565   5.640
 1779SOL     OW 6235   3.911   0.052   5.603
 1779SOL    HW1 6236   3.958   0.138   5.582
 1779SOL    HW2 6237   3.870   0.016   5.519
 1780SOL     OW 6238   3.822   2.727   0.107
 1780SOL    HW1 6239   3.870   2.685   0.183
 1780SOL    HW2 6240   3.764   2.801   0.141
 1781SOL     OW 6241   2.309   5.600   3.224
 1781SOL    HW1 6242   2.272   5.583   3.315
 1781SOL    HW2 6243   2.409   5.607   3.230
 1782SOL     OW 6244   2.861   1.796   4.269
 1782SOL    HW1 6245   2.809   1.722   4.312
 1782SOL    HW2 6246   2.958   1.774   4.270
 1783SOL     OW 6247   2.090   5.891   0.416
 1783SOL    HW1 6248   1.993   5.909   0.433
 1783SOL    HW2 6249   2.144   5.972   0.441
 1784SOL     OW 6250   1.845   0.076   5.933
 1784SOL    HW1 6251   1.795   0.009   5.987
 1784SOL    HW2 6252   1.874   0.151   5.992
 1785SOL     OW 6253   6.857   5.311   2.397
 1785SOL    HW1 6254   6.847   5.234   2.334
 1785SOL    HW2 6255   6.789   5.302   2.471
 1786SOL     OW 6256   3.851   2.776   1.496
 1786SOL    HW1 6257   3.770   2.825   1.529
 1786SOL    HW2 6258   3.903   2.741   1.574
 1787SOL     OW 6259   3.361   0.615   5.480
 1787SOL    HW1 6260   3.432   0.626   5.410
 1787SOL    HW2 6261   3.273   0.598   5.436
 1788SOL     OW 6262   1.498   5.133   5.323
 1788SOL    HW1 6263   1.596   5.152   5.311
 1788SOL    HW2 6264   1.461   5.095   5.238
 1789SOL     OW 6265   5.556   6.364   0.065
 1789SOL    HW1 6266   5.577   6.267   0.077
 1789SOL    HW2 6267   5.627   6.406   0.009
 1790SOL     OW 6268   2.257   6.824   2.484
 1790SOL    HW1 6269   2.317   6.883   2.538
 1790SOL    HW2 6270   2.264   6.730   2.519
 1791SOL     OW 6271   0.344   6.782   3.374
 1791SOL    HW1 6272   0.362   6.832   3.459
 1791SOL    HW2 6273   0.378   6.834   3.296
 1792SOL     OW 6274   0.696   3.203   4.511
 1792SOL    HW1 6275   0.707   3.141   4.589
 1792SOL    HW2 6276   0.638   3.280   4.538
 1793SOL     OW 6277   0.229   0.782   3.721
 1793SOL    HW1 6278   0.203   0.726   3.799
 1793SOL    HW2 6279   0.149   0.834   3.689
 1794SOL     OW 6280   4.827   5.944   6.636
 1794SOL    HW1 6281   4.916   5.975   6.602
 1794SOL    HW2 6282   4.765   6.022   6.641
 1795SOL     OW 6283   1.500   3.746   6.806
 1795SOL    HW1 6284   1.469   3.734   6.900
 1795SOL    HW2 6285   1.571   3.816   6.803
 1796SOL     OW 6286   3.975   0.253   5.911
 1796SOL    HW1 6287   3.941   0.171   5.866
 1796SOL    HW2 6288   3.912   0.329   5.894
 1797SOL     OW 6289   0.239   1.411   2.033
 1797SOL    HW1 6290   0.330   1.398   1.995
 1797SOL    HW2 6291   0.225   1.507   2.056
 1798SOL     OW 6292   5.938   1.664   3.236
 1798SOL    HW1 6293   5.962   1.676   3.140
 1798SOL    HW2 6294   5.856   1.606   3.243
 1799SOL     OW 6295   2.500   0.876   6.905
 1799SOL    HW1 6296   2.584   0.827   6.879
 1799SOL    HW2 6297   2.420   0.823   6.876
 1800SOL     OW 6298   3.133   5.064   2.380
 1800SOL    HW1 6299   3.107   5.073   2.284
 1800SOL    HW2 6300   3.155   5.154   2.417
 1801SOL     OW 6301   5.548   6.947   0.567
 1801SOL    HW1 6302   5.586   6.856   0.583
 1801SOL    HW2 6303   5.587   7.012   0.633
 1802SOL     OW 6304   5.968   5.087   4.293
 1802SOL    HW1 6305   6.015   5.160   4.343
 1802SOL    HW2 6306   6.036   5.022   4.258
 1803SOL     OW 6307   6.138   4.970   0.659
 1803SOL    HW1 6308   6.096   4.987   0.748
 1803SOL    HW2 6309   6.143   4.871   0.643
 1804SOL     OW 6310   3.192   3.409   6.282
 1804SOL    HW1 6311   3.118   3.380   6.222
 1804SOL    HW2 6312   3.253   3.331   6.299
 1805SOL     OW 6313   6.109   2.875   0.053
 1805SOL    HW1 6314   6.048   2.953   0.040
 1805SOL    HW2 6315   6.070   2.795   0.007
 1806SOL     OW 6316   6.693   6.702   0.040
 1806SOL    HW1 6317   6.779   6.712   0.091
 1806SOL    HW2 6318   6.714   6.682   6.971
 1807SOL     OW 6319   6.866   2.083   5.578
 1807SOL    HW1 6320   6.936   2.081   5.650
 1807SOL    HW2 6321   6.881   2.007   5.515
 1808SOL     OW 6322   2.404   4.623   4.508
 1808SOL    HW1 6323   2.362   4.714   4.509
 1808SOL    HW2 6324   2.378   4.574   4.591
 1809SOL     OW 6325   3.744   0.313   6.501
 1809SOL    HW1 6326   3.665   0.254   6.489
 1809SOL    HW2 6327   3.715   0.409   6.499
 1810SOL     OW 6328   2.787   6.432   2.785
 1810SOL    HW1 6329   2.787   6.485   2.700
 1810SOL    HW2 6330   2.746   6.342   2.768
 1811SOL     OW 6331   5.862   5.813   3.270
 1811SOL    HW1 6332   5.961   5.801   3.264
 1811SOL    HW2 6333   5.840   5.910   3.279
 1812SOL     OW 6334   4.448   4.726   5.571
 1812SOL    HW1 6335   4.355   4.690   5.562
 1812SOL    HW2 6336   4.491   4.730   5.481
 1813SOL     OW 6337   6.818   6.108   5.601
 1813SOL    HW1 6338   6.867   6.168   5.538
 1813SOL    HW2 6339   6.871   6.024   5.616
 1814SOL     OW 6340   4.991   6.692   2.894
 1814SOL    HW1 6341   4.970   6.789   2.897
 1814SOL    HW2 6342   5.060   6.670   2.963
 1815SOL     OW 6343   0.239   1.322   2.831
 1815SOL    HW1 6344   0.179   1.402   2.822
 1815SOL    HW2 6345   0.187   1.239   2.811
 1816SOL     OW 6346   1.335   5.336   0.704
 1816SOL    HW1 6347   1.397   5.382   0.767
 1816SOL    HW2 6348   1.317   5.395   0.625
 1817SOL     OW 6349   1.775   5.099   1.664
 1817SOL    HW1 6350   1.848   5.152   1.620
 1817SOL    HW2 6351   1.815   5.041   1.734
 1818SOL     OW 6352   0.997   1.387   3.376
 1818SOL    HW1 6353   0.973   1.436   3.292
 1818SOL    HW2 6354   0.926   1.401   3.444
 1819SOL     OW 6355   1.156   4.339   2.763
 1819SOL    HW1 6356   1.137   4.401   2.839
 1819SOL    HW2 6357   1.161   4.391   2.677
 1820SOL     OW 6358   5.751   6.784   3.069
 1820SOL    HW1 6359   5.717   6.745   2.983
 1820SOL    HW2 6360   5.843   6.749   3.087
 1821SOL     OW 6361   1.866   1.909   3.221
 1821SOL    HW1 6362   1.882   2.007   3.210
 1821SOL    HW2 6363   1.796   1.895   3.291
 1822SOL     OW 6364   3.128   3.448   2.336
 1822SOL    HW1 6365   3.172   3.500   2.263
 1822SOL    HW2 6366   3.180   3.458   2.421
 1823SOL     OW 6367   4.204   0.092   2.414
 1823SOL    HW1 6368   4.204   0.128   2.321
 1823SOL    HW2 6369   4.288   0.041   2.430
 1824SOL     OW 6370   5.382   1.787   1.396
 1824SOL    HW1 6371   5.369   1.757   1.302
 1824SOL    HW2 6372   5.372   1.708   1.457
 1825SOL     OW 6373   0.314   0.229   1.941
 1825SOL    HW1 6374   0.384   0.271   1.883
 1825SOL    HW2 6375   0.227   0.227   1.893
 1826SOL     OW 6376   2.818   5.868   5.774
 1826SOL    HW1 6377   2.735   5.813   5.769
 1826SOL    HW2 6378   2.795   5.964   5.782
 1827SOL     OW 6379   5.688   0.101   0.724
 1827SOL    HW1 6380   5.784   0.098   0.699
 1827SOL    HW2 6381   5.658   0.196   0.734
 1828SOL     OW 6382   2.239   3.188   0.363
 1828SOL    HW1 6383   2.197   3.256   0.422
 1828SOL    HW2 6384   2.339   3.196   0.368
 1829SOL     OW 6385   5.469   5.540   2.575
 1829SOL    HW1 6386   5.401   5.468   2.562
 1829SOL    HW2 6387   5.427   5.629   2.558
 1830SOL     OW 6388   5.037   6.683   4.641
 1830SOL    HW1 6389   5.108   6.697   4.573
 1830SOL    HW2 6390   5.077   6.684   4.732
 1831SOL     OW 6391   5.068   1.188   3.113
 1831SOL    HW1 6392   5.054   1.263   3.177
 1831SOL    HW2 6393   5.161   1.191   3.078
 1832SOL     OW 6394   5.186   2.676   6.833
 1832SOL    HW1 6395   5.222   2.620   6.759
 1832SOL    HW2 6396   5.258   2.696   6.899
 1833SOL     OW 6397   5.716   1.798   5.725
 1833SOL    HW1 6398   5.731   1.845   5.812
 1833SOL    HW2 6399   5.779   1.833   5.657
 1834SOL     OW 6400   2.593   4.015   0.207
 1834SOL    HW1 6401   2.499   3.982   0.210
 1834SOL    HW2 6402   2.602   4.082   0.133
 1835SOL     OW 6403   1.907   4.675   6.897
 1835SOL    HW1 6404   2.002   4.706   6.898
 1835SOL    HW2 6405   1.862   4.702   6.983
 1836SOL     OW 6406   0.919   6.842   0.589
 1836SOL    HW1 6407   0.840   6.806   0.638
 1836SOL    HW2 6408   0.893   6.924   0.538
 1837SOL     OW 6409   0.461   2.727   4.760
 1837SOL    HW1 6410   0.409   2.808   4.785
 1837SOL    HW2 6411   0.559   2.747   4.764
 1838SOL     OW 6412   0.700   2.789   4.873
 1838SOL    HW1 6413   0.797   2.777   4.849
 1838SOL    HW2 6414   0.691   2.797   4.972
 1839SOL     OW 6415   1.093   1.696   6.791
 1839SOL    HW1 6416   1.050   1.615   6.753
 1839SOL    HW2 6417   1.145   1.743   6.719
 1840SOL     OW 6418   0.944   5.002   1.644
 1840SOL    HW1 6419   0.976   4.961   1.730
 1840SOL    HW2 6420   0.939   5.101   1.654
 1841SOL     OW 6421   1.363   3.029   3.696
 1841SOL    HW1 6422   1.409   2.940   3.693
 1841SOL    HW2 6423   1.297   3.034   3.621
 1842SOL     OW 6424   1.072   6.233   6.243
 1842SOL    HW1 6425   1.154   6.223   6.298
 1842SOL    HW2 6426   1.098   6.256   6.149
 1843SOL     OW 6427   4.560   1.981   4.999
 1843SOL    HW1 6428   4.565   2.067   5.049
 1843SOL    HW2 6429   4.647   1.932   5.007
 1844SOL     OW 6430   5.952   4.352   3.568
 1844SOL    HW1 6431   5.889   4.293   3.518
 1844SOL    HW2 6432   5.916   4.369   3.660
 1845SOL     OW 6433   4.589   6.325   0.732
 1845SOL    HW1 6434   4.595   6.421   0.759
 1845SOL    HW2 6435   4.622   6.268   0.806
 1846SOL     OW 6436   3.908   1.655   5.670
 1846SOL    HW1 6437   3.970   1.579   5.651
 1846SOL    HW2 6438   3.961   1.739   5.680
 1847SOL     OW 6439   1.607   6.225   6.369
 1847SOL    HW1 6440   1.681   6.157   6.373
 1847SOL    HW2 6441   1.644   6.316   6.383
 1848SOL     OW 6442   2.265   1.019   3.873
 1848SOL    HW1 6443   2.230   0.925   3.871
 1848SOL    HW2 6444   2.355   1.022   3.830
 1849SOL     OW 6445   2.521   0.717   6.605
 1849SOL    HW1 6446   2.432   0.733   6.563
 1849SOL    HW2 6447   2.524   0.624   6.643
 1850SOL     OW 6448   5.717   1.641   1.838
 1850SOL    HW1 6449   5.755   1.734   1.837
 1850SOL    HW2 6450   5.631   1.641   1.888
 1851SOL     OW 6451   6.603   4.213   2.507
 1851SOL    HW1 6452   6.694   4.252   2.493
 1851SOL    HW2 6453   6.537   4.287   2.521
 1852SOL     OW 6454   5.238   1.558   5.734
 1852SOL    HW1 6455   5.285   1.627   5.788
 1852SOL    HW2 6456   5.224   1.592   5.641
 1853SOL     OW 6457   0.814   4.849   0.810
 1853SOL    HW1 6458   0.824   4.931   0.866
 1853SOL    HW2 6459   0.899   4.832   0.761
 1854SOL     OW 6460   2.433   4.960   3.960
 1854SOL    HW1 6461   2.399   5.018   4.034
 1854SOL    HW2 6462   2.425   4.864   3.987
 1855SOL     OW 6463   6.116   4.545   1.659
 1855SOL    HW1 6464   6.139   4.523   1.754
 1855SOL    HW2 6465   6.042   4.613   1.658
 1856SOL     OW 6466   5.414   2.956   6.943
 1856SOL    HW1 6467   5.371   2.869   6.966
 1856SOL    HW2 6468   5.442   2.955   6.848
 1857SOL     OW 6469   5.357   1.399   2.991
 1857SOL    HW1 6470   5.427   1.467   2.969
 1857SOL    HW2 6471   5.401   1.316   3.024
 1858SOL     OW 6472   5.573   4.597   3.075
 1858SOL    HW1 6473   5.637   4.534   3.119
 1858SOL    HW2 6474   5.624   4.661   3.017
 1859SOL     OW 6475   6.009   1.416   2.979
 1859SOL    HW1 6476   6.077   1.354   3.018
 1859SOL    HW2 6477   5.917   1.381   2.997
 1860SOL     OW 6478   4.069   2.237   4.663
 1860SOL    HW1 6479   4.032   2.218   4.754
 1860SOL    HW2 6480   4.147   2.177   4.645
 1861SOL     OW 6481   4.950   5.966   2.381
 1861SOL    HW1 6482   4.966   6.026   2.303
 1861SOL    HW2 6483   4.983   5.874   2.360
 1862SOL     OW 6484   2.747   1.352   0.613
 1862SOL    HW1 6485   2.804   1.270   0.607
 1862SOL    HW2 6486   2.655   1.331   0.579
 1863SOL     OW 6487   1.969   1.845   1.247
 1863SOL    HW1 6488   2.064   1.870   1.226
 1863SOL    HW2 6489   1.921   1.825   1.162
 1864SOL     OW 6490   0.425   6.478   3.038
 1864SOL    HW1 6491   0.385   6.474   2.946
 1864SOL    HW2 6492   0.448   6.572   3.060
 1865SOL     OW 6493   4.979   3.285   6.325
 1865SOL    HW1 6494   5.036   3.300   6.245
 1865SOL    HW2 6495   4.884   3.269   6.296
 1866SOL     OW 6496   5.394   5.768   1.644
 1866SOL    HW1 6497   5.417   5.738   1.737
 1866SOL    HW2 6498   5.471   5.750   1.583
 1867SOL     OW 6499   1.117   4.528   6.210
 1867SOL    HW1 6500   1.079   4.443   6.245
 1867SOL    HW2 6501   1.076   4.606   6.258
 1868SOL     OW 6502   0.032   4.291   5.749
 1868SOL    HW1 6503   0.055   4.204   5.793
 1868SOL    HW2 6504   6.994   4.341   5.806
 1869SOL     OW 6505   6.155   1.482   4.435
 1869SOL    HW1 6506   6.093   1.411   4.402
 1869SOL    HW2 6507   6.208   1.519   4.359
 1870SOL     OW 6508   2.114   3.953   4.869
 1870SOL    HW1 6509   2.074   3.861   4.877
 1870SOL    HW2 6510   2.182   3.966   4.941
 1871SOL     OW 6511   1.714   0.691   0.950
 1871SOL    HW1 6512   1.720   0.721   0.855
 1871SOL    HW2 6513   1.708   0.591   0.953
 1872SOL     OW 6514   1.768   5.331   6.542
 1872SOL    HW1 6515   1.797   5.251   6.595
 1872SOL    HW2 6516   1.669   5.340   6.548
 1873SOL     OW 6517   5.010   6.983   6.783
 1873SOL    HW1 6518   5.096   7.003   6.737
 1873SOL    HW2 6519   5.008   0.002   6.872
 1874SOL     OW 6520   0.617   3.704   2.664
 1874SOL    HW1 6521   0.580   3.775   2.605
 1874SOL    HW2 6522   0.620   3.737   2.759
 1875SOL     OW 6523   0.628   6.924   2.186
 1875SOL    HW1 6524   0.569   6.860   2.137
 1875SOL    HW2 6525   0.671   6.986   2.121
 1876SOL     OW 6526   1.673   6.270   4.051
 1876SOL    HW1 6527   1.644   6.359   4.016
 1876SOL    HW2 6528   1.669   6.202   3.977
 1877SOL     OW 6529   0.539   6.982   4.051
 1877SOL    HW1 6530   0.516   6.902   3.996
 1877SOL    HW2 6531   0.458   7.012   4.102
 1878SOL     OW 6532   6.147   2.954   6.145
 1878SOL    HW1 6533   6.160   2.904   6.059
 1878SOL    HW2 6534   6.136   2.888   6.220
 1879SOL     OW 6535   2.033   5.279   5.932
 1879SOL    HW1 6536   2.132   5.282   5.948
 1879SOL    HW2 6537   2.002   5.184   5.932
 1880SOL     OW 6538   6.582   0.250   4.607
 1880SOL    HW1 6539   6.671   0.285   4.577
 1880SOL    HW2 6540   6.594   0.157   4.642
 1881SOL     OW 6541   6.832   2.353   6.733
 1881SOL    HW1 6542   6.792   2.355   6.641
 1881SOL    HW2 6543   6.926   2.319   6.728
 1882SOL     OW 6544   1.103   6.634   0.623
 1882SOL    HW1 6545   1.061   6.552   0.583
 1882SOL    HW2 6546   1.036   6.707   0.627
 1883SOL     OW 6547   0.345   1.934   3.567
 1883SOL    HW1 6548   0.363   2.026   3.532
 1883SOL    HW2 6549   0.268   1.937   3.630
 1884SOL     OW 6550   6.220   2.235   1.362
 1884SOL    HW1 6551   6.167   2.271   1.286
 1884SOL    HW2 6552   6.158   2.208   1.436
 1885SOL     OW 6553   2.885   1.376   4.590
 1885SOL    HW1 6554   2.982   1.361   4.610
 1885SOL    HW2 6555   2.830   1.339   4.665
 1886SOL     OW 6556   0.443   6.142   3.344
 1886SOL    HW1 6557   0.485   6.222   3.302
 1886SOL    HW2 6558   0.395   6.169   3.428
 1887SOL     OW 6559   2.581   5.683   6.468
 1887SOL    HW1 6560   2.519   5.652   6.396
 1887SOL    HW2 6561   2.666   5.716   6.427
 1888SOL     OW 6562   2.069   6.805   3.071
 1888SOL    HW1 6563   2.088   6.755   3.155
 1888SOL    HW2 6564   2.060   6.903   3.091
 1889SOL     OW 6565   0.037   3.564   2.740
 1889SOL    HW1 6566   0.085   3.645   2.706
 1889SOL    HW2 6567   6.980   3.592   2.786
 1890SOL     OW 6568   1.551   5.716   4.817
 1890SOL    HW1 6569   1.468   5.663   4.835
 1890SOL    HW2 6570   1.610   5.666   4.755
 1891SOL     OW 6571   4.000   3.201   3.546
 1891SOL    HW1 6572   4.010   3.175   3.450
 1891SOL    HW2 6573   4.023   3.298   3.557
 1892SOL     OW 6574   0.525   0.738   2.558
 1892SOL    HW1 6575   0.597   0.716   2.492
 1892SOL    HW2 6576   0.545   0.694   2.646
 1893SOL     OW 6577   3.832   3.087   4.237
 1893SOL    HW1 6578   3.812   3.047   4.147
 1893SOL    HW2 6579   3.758   3.065   4.300
 1894SOL     OW 6580   2.989   3.375   4.335
 1894SOL    HW1 6581   2.945   3.394   4.423
 1894SOL    HW2 6582   2.996   3.460   4.283
 1895SOL     OW 6583   0.985   6.106   1.562
 1895SOL    HW1 6584   1.004   6.019   1.608
 1895SOL    HW2 6585   0.935   6.167   1.624
 1896SOL     OW 6586   5.920   2.707   1.333
 1896SOL    HW1 6587   6.012   2.715   1.371
 1896SOL    HW2 6588   5.864   2.651   1.394
 1897SOL     OW 6589   1.648   4.357   3.742
 1897SOL    HW1 6590   1.718   4.287   3.727
 1897SOL    HW2 6591   1.581   4.354   3.667
 1898SOL     OW 6592   1.584   5.915   2.339
 1898SOL    HW1 6593   1.574   5.897   2.241
 1898SOL    HW2 6594   1.593   5.828   2.387
 1899SOL     OW 6595   6.960   1.150   2.264
 1899SOL    HW1 6596   6.941   1.068   2.210
 1899SOL    HW2 6597   7.010   1.124   2.347
 1900SOL     OW 6598   2.859   6.420   6.333
 1900SOL    HW1 6599   2.841   6.326   6.361
 1900SOL    HW2 6600   2.943   6.424   6.279
 1901SOL     OW 6601   3.180   3.009   2.762
 1901SOL    HW1 6602   3.222   3.040   2.677
 1901SOL    HW2 6603   3.085   2.982   2.744
 1902SOL     OW 6604   1.460   6.479   5.206
 1902SOL    HW1 6605   1.525   6.517   5.272
 1902SOL    HW2 6606   1.499   6.397   5.164
 1903SOL     OW 6607   1.215   1.830   3.727
 1903SOL    HW1 6608   1.142   1.877   3.678
 1903SOL    HW2 6609   1.303   1.866   3.699
 1904SOL     OW 6610   5.846   5.597   1.485
 1904SOL    HW1 6611   5.895   5.684   1.497
 1904SOL    HW2 6612   5.871   5.534   1.559
 1905SOL     OW 6613   0.757   2.724   4.105
 1905SOL    HW1 6614   0.753   2.760   4.011
 1905SOL    HW2 6615   0.665   2.724   4.144
 1906SOL     OW 6616   0.217   6.132   3.892
 1906SOL    HW1 6617   0.210   6.142   3.793
 1906SOL    HW2 6618   0.158   6.056   3.921
 1907SOL     OW 6619   5.781   3.031   0.790
 1907SOL    HW1 6620   5.858   2.967   0.784
 1907SOL    HW2 6621   5.816   3.123   0.810
 1908SOL     OW 6622   3.669   0.932   1.379
 1908SOL    HW1 6623   3.636   0.917   1.472
 1908SOL    HW2 6624   3.724   1.015   1.377
 1909SOL     OW 6625   6.307   5.648   5.363
 1909SOL    HW1 6626   6.373   5.670   5.435
 1909SOL    HW2 6627   6.299   5.725   5.300
 1910SOL     OW 6628   0.487   6.048   5.402
 1910SOL    HW1 6629   0.437   6.006   5.478
 1910SOL    HW2 6630   0.557   6.110   5.438
 1911SOL     OW 6631   5.628   6.452   4.143
 1911SOL    HW1 6632   5.553   6.466   4.209
 1911SOL    HW2 6633   5.694   6.526   4.152
 1912SOL     OW 6634   3.395   5.012   2.321
 1912SOL    HW1 6635   3.437   5.099   2.345
 1912SOL    HW2 6636   3.298   5.014   2.344
 1913SOL     OW 6637   3.262   4.308   6.467
 1913SOL    HW1 6638   3.197   4.384   6.472
 1913SOL    HW2 6639   3.341   4.336   6.412
 1914SOL     OW 6640   3.942   4.230   0.443
 1914SOL    HW1 6641   4.038   4.205   0.431
 1914SOL    HW2 6642   3.885   4.175   0.382
 1915SOL     OW 6643   3.790   2.267   6.967
 1915SOL    HW1 6644   3.883   2.302   6.982
 1915SOL    HW2 6645   3.795   2.190   6.903
 1916SOL     OW 6646   4.012   1.220   2.603
 1916SOL    HW1 6647   3.979   1.196   2.511
 1916SOL    HW2 6648   4.090   1.282   2.595
 1917SOL     OW 6649   2.270   3.749   1.343
 1917SOL    HW1 6650   2.317   3.671   1.385
 1917SOL    HW2 6651   2.275   3.828   1.404
 1918SOL     OW 6652   5.218   2.433   4.094
 1918SOL    HW1 6653   5.279   2.389   4.028
 1918SOL    HW2 6654   5.163   2.503   4.047
 1919SOL     OW 6655   6.276   2.060   6.299
 1919SOL    HW1 6656   6.357   2.097   6.345
 1919SOL    HW2 6657   6.302   1.979   6.247
 1920SOL     OW 6658   4.740   3.628   0.574
 1920SOL    HW1 6659   4.657   3.684   0.581
 1920SOL    HW2 6660   4.751   3.574   0.658
 1921SOL     OW 6661   3.067   2.552   6.658
 1921SOL    HW1 6662   3.112   2.642   6.658
 1921SOL    HW2 6663   3.008   2.545   6.739
 1922SOL     OW 6664   3.227   3.227   4.607
 1922SOL    HW1 6665   3.145   3.206   4.553
 1922SOL    HW2 6666   3.308   3.221   4.549
 1923SOL     OW 6667   3.182   0.684   3.849
 1923SOL    HW1 6668   3.174   0.740   3.767
 1923SOL    HW2 6669   3.094   0.683   3.897
 1924SOL     OW 6670   5.388   0.773   0.695
 1924SOL    HW1 6671   5.306   0.820   0.731
 1924SOL    HW2 6672   5.453   0.842   0.663
 1925SOL     OW 6673   1.041   4.135   0.949
 1925SOL    HW1 6674   0.987   4.056   0.977
 1925SOL    HW2 6675   1.118   4.104   0.892
 1926SOL     OW 6676   3.319   6.802   1.568
 1926SOL    HW1 6677   3.270   6.723   1.530
 1926SOL    HW2 6678   3.413   6.803   1.534
 1927SOL     OW 6679   2.451   5.417   0.776
 1927SOL    HW1 6680   2.358   5.455   0.778
 1927SOL    HW2 6681   2.454   5.334   0.831
 1928SOL     OW 6682   0.164   4.551   3.089
 1928SOL    HW1 6683   0.132   4.645   3.101
 1928SOL    HW2 6684   0.085   4.489   3.088
 1929SOL     OW 6685   3.743   0.500   3.356
 1929SOL    HW1 6686   3.748   0.568   3.430
 1929SOL    HW2 6687   3.836   0.474   3.328
 1930SOL     OW 6688   3.743   3.610   0.177
 1930SOL    HW1 6689   3.755   3.536   0.243
 1930SOL    HW2 6690   3.719   3.572   0.088
 1931SOL     OW 6691   6.594   3.404   3.565
 1931SOL    HW1 6692   6.571   3.358   3.480
 1931SOL    HW2 6693   6.669   3.356   3.610
 1932SOL     OW 6694   4.935   0.620   1.887
 1932SOL    HW1 6695   4.969   0.623   1.981
 1932SOL    HW2 6696   4.836   0.604   1.888
 1933SOL     OW 6697   1.746   1.244   1.264
 1933SOL    HW1 6698   1.728   1.177   1.336
 1933SOL    HW2 6699   1.674   1.314   1.264
 1934SOL     OW 6700   6.591   0.957   6.948
 1934SOL    HW1 6701   6.574   1.055   6.941
 1934SOL    HW2 6702   6.660   0.939   7.018
 1935SOL     OW 6703   5.904   4.867   3.840
 1935SOL    HW1 6704   5.905   4.956   3.793
 1935SOL    HW2 6705   5.997   4.834   3.852
 1936SOL     OW 6706   5.333   3.283   6.407
 1936SOL    HW1 6707   5.308   3.365   6.460
 1936SOL    HW2 6708   5.282   3.283   6.321
 1937SOL     OW 6709   0.736   4.767   6.543
 1937SOL    HW1 6710   0.796   4.805   6.614
 1937SOL    HW2 6711   0.773   4.680   6.512
 1938SOL     OW 6712   6.533   2.320   6.784
 1938SOL    HW1 6713   6.499   2.325   6.878
 1938SOL    HW2 6714   6.604   2.249   6.779
 1939SOL     OW 6715   0.366   0.260   4.275
 1939SOL    HW1 6716   0.412   0.284   4.360
 1939SOL    HW2 6717   0.343   0.343   4.224
 1940SOL     OW 6718   0.891   5.244   1.765
 1940SOL    HW1 6719   0.792   5.249   1.749
 1940SOL    HW2 6720   0.928   5.336   1.773
 1941SOL     OW 6721   5.899   0.666   4.260
 1941SOL    HW1 6722   5.844   0.615   4.325
 1941SOL    HW2 6723   5.957   0.731   4.309
 1942SOL     OW 6724   0.612   5.280   1.721
 1942SOL    HW1 6725   0.609   5.346   1.796
 1942SOL    HW2 6726   0.545   5.207   1.738
 1943SOL     OW 6727   1.004   3.481   4.252
 1943SOL    HW1 6728   1.021   3.430   4.167
 1943SOL    HW2 6729   0.962   3.419   4.319
 1944SOL     OW 6730   0.231   3.244   4.105
 1944SOL    HW1 6731   0.279   3.157   4.108
 1944SOL    HW2 6732   0.249   3.296   4.188
 1945SOL     OW 6733   5.248   1.539   1.935
 1945SOL    HW1 6734   5.219   1.458   1.884
 1945SOL    HW2 6735   5.198   1.619   1.901
 1946SOL     OW 6736   5.851   5.600   6.877
 1946SOL    HW1 6737   5.767   5.548   6.858
 1946SOL    HW2 6738   5.893   5.566   6.961
 1947SOL     OW 6739   5.727   5.512   2.687
 1947SOL    HW1 6740   5.724   5.587   2.753
 1947SOL    HW2 6741   5.655   5.527   2.618
 1948SOL     OW 6742   5.503   3.440   3.464
 1948SOL    HW1 6743   5.423   3.478   3.418
 1948SOL    HW2 6744   5.477   3.354   3.509
 1949SOL     OW 6745   3.583   4.127   6.285
 1949SOL    HW1 6746   3.572   4.108   6.383
 1949SOL    HW2 6747   3.610   4.222   6.273
 1950SOL     OW 6748   4.003   3.842   3.573
 1950SOL    HW1 6749   4.050   3.817   3.658
 1950SOL    HW2 6750   3.942   3.767   3.546
 1951SOL     OW 6751   6.910   5.480   6.080
 1951SOL    HW1 6752   6.909   5.390   6.123
 1951SOL    HW2 6753   6.978   5.538   6.124
 1952SOL     OW 6754   5.922   3.891   6.979
 1952SOL    HW1 6755   5.936   3.990   6.977
 1952SOL    HW2 6756   6.001   3.848   7.022
 1953SOL     OW 6757   7.023   0.816   7.000
 1953SOL    HW1 6758   7.020   0.717   7.007
 1953SOL    HW2 6759   0.051   0.843   6.921
 1954SOL     OW 6760   3.337   6.882   2.577
 1954SOL    HW1 6761   3.349   6.797   2.525
 1954SOL    HW2 6762   3.421   6.904   2.625
 1955SOL     OW 6763   6.474   3.453   4.329
 1955SOL    HW1 6764   6.469   3.356   4.352
 1955SOL    HW2 6765   6.551   3.469   4.267
 1956SOL     OW 6766   4.387   1.498   1.312
 1956SOL    HW1 6767   4.413   1.595   1.309
 1956SOL    HW2 6768   4.322   1.478   1.238
 1957SOL     OW 6769   6.686   3.009   4.783
 1957SOL    HW1 6770   6.601   3.061   4.785
 1957SOL    HW2 6771   6.756   3.058   4.836
 1958SOL     OW 6772   4.790   2.452   6.874
 1958SOL    HW1 6773   4.805   2.547   6.844
 1958SOL    HW2 6774   4.719   2.451   6.944
 1959SOL     OW 6775   1.618   1.470   6.322
 1959SOL    HW1 6776   1.607   1.494   6.226
 1959SOL    HW2 6777   1.616   1.370   6.331
 1960SOL     OW 6778   4.737   4.687   2.285
 1960SOL    HW1 6779   4.641   4.691   2.311
 1960SOL    HW2 6780   4.752   4.609   2.223
 1961SOL     OW 6781   0.479   3.789   4.463
 1961SOL    HW1 6782   0.553   3.846   4.428
 1961SOL    HW2 6783   0.458   3.815   4.557
 1962SOL     OW 6784   0.445   0.200   2.384
 1962SOL    HW1 6785   0.374   0.141   2.347
 1962SOL    HW2 6786   0.413   0.295   2.384
 1963SOL     OW 6787   0.923   1.946   0.221
 1963SOL    HW1 6788   0.999   1.889   0.252
 1963SOL    HW2 6789   0.928   1.955   0.121
 1964SOL     OW 6790   5.407   3.212   0.425
 1964SOL    HW1 6791   5.415   3.147   0.501
 1964SOL    HW2 6792   5.367   3.166   0.346
 1965SOL     OW 6793   5.594   4.798   4.811
 1965SOL    HW1 6794   5.533   4.727   4.776
 1965SOL    HW2 6795   5.592   4.798   4.911
 1966SOL     OW 6796   1.238   5.434   6.504
 1966SOL    HW1 6797   1.207   5.461   6.412
 1966SOL    HW2 6798   1.160   5.400   6.556
 1967SOL     OW 6799   6.888   2.310   4.651
 1967SOL    HW1 6800   6.980   2.296   4.687
 1967SOL    HW2 6801   6.821   2.301   4.725
 1968SOL     OW 6802   2.657   1.285   6.034
 1968SOL    HW1 6803   2.684   1.189   6.028
 1968SOL    HW2 6804   2.576   1.301   5.977
 1969SOL     OW 6805   0.102   6.032   1.928
 1969SOL    HW1 6806   0.119   6.130   1.943
 1969SOL    HW2 6807   0.188   5.982   1.935
 1970SOL     OW 6808   5.453   4.357   2.898
 1970SOL    HW1 6809   5.521   4.286   2.879
 1970SOL    HW2 6810   5.499   4.438   2.935
 1971SOL     OW 6811   1.628   5.256   4.364
 1971SOL    HW1 6812   1.609   5.159   4.345
 1971SOL    HW2 6813   1.719   5.265   4.403
 1972SOL     OW 6814   5.207   1.885   3.096
 1972SOL    HW1 6815   5.153   1.924   3.021
 1972SOL    HW2 6816   5.159   1.807   3.134
 1973SOL     OW 6817   4.157   2.486   0.371
 1973SOL    HW1 6818   4.254   2.505   0.357
 1973SOL    HW2 6819   4.143   2.445   0.462
 1974SOL     OW 6820   2.305   6.467   4.564
 1974SOL    HW1 6821   2.311   6.539   4.634
 1974SOL    HW2 6822   2.266   6.385   4.604
 1975SOL     OW 6823   2.321   2.434   2.225
 1975SOL    HW1 6824   2.344   2.526   2.256
 1975SOL    HW2 6825   2.386   2.405   2.153
 1976SOL     OW 6826   1.651   0.887   4.851
 1976SOL    HW1 6827   1.626   0.799   4.892
 1976SOL    HW2 6828   1.744   0.911   4.878
 1977SOL     OW 6829   0.897   3.953   6.906
 1977SOL    HW1 6830   0.832   4.025   6.931
 1977SOL    HW2 6831   0.884   3.874   6.966
 1978SOL     OW 6832   2.690   0.340   2.425
 1978SOL    HW1 6833   2.708   0.398   2.504
 1978SOL    HW2 6834   2.699   0.393   2.341
 1979SOL     OW 6835   5.525   3.542   6.501
 1979SOL    HW1 6836   5.428   3.538   6.476
 1979SOL    HW2 6837   5.547   3.466   6.562
 1980SOL     OW 6838   4.085   0.587   1.494
 1980SOL    HW1 6839   4.061   0.496   1.460
 1980SOL    HW2 6840   4.025   0.612   1.570
 1981SOL     OW 6841   4.271   2.490   1.830
 1981SOL    HW1 6842   4.237   2.396   1.831
 1981SOL    HW2 6843   4.245   2.534   1.744
 1982SOL     OW 6844   2.127   2.776   6.709
 1982SOL    HW1 6845   2.211   2.723   6.694
 1982SOL    HW2 6846   2.049   2.726   6.672
 1983SOL     OW 6847   0.075   2.330   1.574
 1983SOL    HW1 6848   0.066   2.230   1.580
 1983SOL    HW2 6849   7.016   2.373   1.601
 1984SOL     OW 6850   4.856   3.462   5.563
 1984SOL    HW1 6851   4.762   3.433   5.582
 1984SOL    HW2 6852   4.859   3.562   5.559
 1985SOL     OW 6853   5.627   5.194   4.451
 1985SOL    HW1 6854   5.563   5.197   4.529
 1985SOL    HW2 6855   5.690   5.118   4.463
 1986SOL     OW 6856   2.939   3.325   2.690
 1986SOL    HW1 6857   2.922   3.417   2.655
 1986SOL    HW2 6858   2.917   3.258   2.620
 1987SOL     OW 6859   2.106   1.779   2.050
 1987SOL    HW1 6860   2.192   1.729   2.045
 1987SOL    HW2 6861   2.062   1.780   1.960
 1988SOL     OW 6862   1.049   2.082   3.045
 1988SOL    HW1 6863   0.951   2.080   3.025
 1988SOL    HW2 6864   1.097   2.024   2.979
 1989SOL     OW 6865   3.162   5.611   3.767
 1989SOL    HW1 6866   3.253   5.651   3.759
 1989SOL    HW2 6867   3.168   5.524   3.815
 1990SOL     OW 6868   4.237   6.775   0.571
 1990SOL    HW1 6869   4.304   6.842   0.538
 1990SOL    HW2 6870   4.145   6.810   0.555
 1991SOL     OW 6871   3.128   5.612   2.000
 1991SOL    HW1 6872   3.218   5.642   2.031
 1991SOL    HW2 6873   3.134   5.581   1.905
 1992SOL     OW 6874   1.127   0.011   3.511
 1992SOL    HW1 6875   1.206   0.062   3.477
 1992SOL    HW2 6876   1.052   0.074   3.531
 1993SOL     OW 6877   1.560   1.082   1.994
 1993SOL    HW1 6878   1.529   1.148   1.925
 1993SOL    HW2 6879   1.629   1.124   2.053
 1994SOL     OW 6880   2.602   3.284   1.556
 1994SOL    HW1 6881   2.507   3.253   1.561
 1994SOL    HW2 6882   2.622   3.342   1.635
 1995SOL     OW 6883   6.065   0.951   4.276
 1995SOL    HW1 6884   5.996   0.985   4.212
 1995SOL    HW2 6885   6.121   0.883   4.230
 1996SOL     OW 6886   4.795   6.944   1.320
 1996SOL    HW1 6887   4.799   6.918   1.224
 1996SOL    HW2 6888   4.877   6.912   1.367
 1997SOL     OW 6889   3.438   1.403   2.817
 1997SOL    HW1 6890   3.399   1.345   2.888
 1997SOL    HW2 6891   3.522   1.445   2.850
 1998SOL     OW 6892   2.534   3.280   1.284
 1998SOL    HW1 6893   2.476   3.358   1.305
 1998SOL    HW2 6894   2.559   3.233   1.369
 1999SOL     OW 6895   0.800   0.037   5.860
 1999SOL    HW1 6896   0.710   0.034   5.903
 1999SOL    HW2 6897   0.869   0.057   5.930
 2000SOL     OW 6898   4.507   4.169   6.348
 2000SOL    HW1 6899   4.417   4.138   6.320
 2000SOL    HW2 6900   4.519   4.156   6.446
 2001SOL     OW 6901   1.560   2.424   0.729
 2001SOL    HW1 6902   1.629   2.466   0.789
 2001SOL    HW2 6903   1.604   2.388   0.647
 2002SOL     OW 6904   6.279   4.914   0.107
 2002SOL    HW1 6905   6.191   4.869   0.118
 2002SOL    HW2 6906   6.319   4.889   0.019
 2003SOL     OW 6907   6.236   5.298   1.298
 2003SOL    HW1 6908   6.253   5.350   1.214
 2003SOL    HW2 6909   6.232   5.361   1.376
 2004SOL     OW 6910   3.666   0.694   2.851
 2004SOL    HW1 6911   3.611   0.771   2.819
 2004SOL    HW2 6912   3.667   0.622   2.782
 2005SOL     OW 6913   1.485   6.092   0.148
 2005SOL    HW1 6914   1.401   6.145   0.134
 2005SOL    HW2 6915   1.463   6.006   0.193
 2006SOL     OW 6916   5.991   6.952   1.901
 2006SOL    HW1 6917   5.943   6.876   1.856
 2006SOL    HW2 6918   6.090   6.942   1.887
 2007SOL     OW 6919   5.727   5.385   6.008
 2007SOL    HW1 6920   5.778   5.301   6.029
 2007SOL    HW2 6921   5.792   5.458   5.985
 2008SOL     OW 6922   1.920   3.075   2.854
 2008SOL    HW1 6923   1.865   3.145   2.898
 2008SOL    HW2 6924   2.017   3.101   2.858
 2009SOL     OW 6925   5.897   0.226   3.244
 2009SOL    HW1 6926   5.874   0.284   3.323
 2009SOL    HW2 6927   5.881   0.130   3.267
 2010SOL     OW 6928   0.009   1.342   1.295
 2010SOL    HW1 6929   7.016   1.439   1.281
 2010SOL    HW2 6930   0.107   1.327   1.290
 2011SOL     OW 6931   0.711   0.071   4.954
 2011SOL    HW1 6932   0.801   0.066   4.997
 2011SOL    HW2 6933   0.716   0.032   4.862
 2012SOL     OW 6934   6.903   2.436   0.432
 2012SOL    HW1 6935   6.995   2.419   0.397
 2012SOL    HW2 6936   6.861   2.349   0.459
 2013SOL     OW 6937   0.784   2.953   2.139
 2013SOL    HW1 6938   0.840   2.922   2.216
 2013SOL    HW2 6939   0.688   2.928   2.156
 2014SOL     OW 6940   3.832   1.762   3.602
 2014SOL    HW1 6941   3.822   1.766   3.702
 2014SOL    HW2 6942   3.770   1.693   3.565
 2015SOL     OW 6943   3.885   6.186   1.727
 2015SOL    HW1 6944   3.935   6.248   1.787
 2015SOL    HW2 6945   3.910   6.205   1.632
 2016SOL     OW 6946   1.620   1.182   4.707
 2016SOL    HW1 6947   1.637   1.090   4.744
 2016SOL    HW2 6948   1.706   1.230   4.695
 2017SOL     OW 6949   2.213   6.915   4.839
 2017SOL    HW1 6950   2.272   6.987   4.801
 2017SOL    HW2 6951   2.124   6.954   4.863
 2018SOL     OW 6952   0.634   0.728   4.602
 2018SOL    HW1 6953   0.553   0.668   4.601
 2018SOL    HW2 6954   0.695   0.701   4.527
 2019SOL     OW 6955   0.555   5.005   6.870
 2019SOL    HW1 6956   0.627   4.964   6.925
 2019SOL    HW2 6957   0.481   4.939   6.856
 2020SOL     OW 6958   1.453   6.761   1.532
 2020SOL    HW1 6959   1.411   6.842   1.573
 2020SOL    HW2 6960   1.487   6.701   1.605
 2021SOL     OW 6961   6.829   5.325   3.815
 2021SOL    HW1 6962   6.840   5.279   3.903
 2021SOL    HW2 6963   6.734   5.351   3.803
 2022SOL     OW 6964   2.265   2.858   4.148
 2022SOL    HW1 6965   2.257   2.937   4.086
 2022SOL    HW2 6966   2.232   2.883   4.239
 2023SOL     OW 6967   0.799   5.383   0.028
 2023SOL    HW1 6968   0.715   5.402   0.078
 2023SOL    HW2 6969   0.787   5.301   6.998
 2024SOL     OW 6970   6.512   6.022   3.766
 2024SOL    HW1 6971   6.496   6.095   3.700
 2024SOL    HW2 6972   6.586   5.963   3.733
 2025SOL     OW 6973   1.765   0.209   4.303
 2025SOL    HW1 6974   1.834   0.136   4.306
 2025SOL    HW2 6975   1.801   0.291   4.349
 2026SOL     OW 6976   1.667   6.925   5.424
 2026SOL    HW1 6977   1.615   7.003   5.391
 2026SOL    HW2 6978   1.759   6.955   5.450
 2027SOL     OW 6979   6.263   6.616   2.721
 2027SOL    HW1 6980   6.211   6.583   2.799
 2027SOL    HW2 6981   6.278   6.540   2.657
 2028SOL     OW 6982   2.433   6.124   4.764
 2028SOL    HW1 6983   2.394   6.215   4.775
 2028SOL    HW2 6984   2.369   6.066   4.713
 2029SOL     OW 6985   6.669   2.080   6.896
 2029SOL    HW1 6986   6.688   2.020   6.819
 2029SOL    HW2 6987   6.750   2.086   6.955
 2030SOL     OW 6988   1.601   6.153   2.709
 2030SOL    HW1 6989   1.593   6.213   2.789
 2030SOL    HW2 6990   1.696   6.123   2.699
 2031SOL     OW 6991   0.213   6.988   5.417
 2031SOL    HW1 6992   0.266   6.912   5.456
 2031SOL    HW2 6993   0.173   6.959   5.330
 2032SOL     OW 6994   2.825   2.972   6.428
 2032SOL    HW1 6995   2.856   2.990   6.521
 2032SOL    HW2 6996   2.903   2.945   6.372
 2033SOL     OW 6997   2.455   7.000   1.383
 2033SOL    HW1 6998   2.425   0.036   1.311
 2033SOL    HW2 6999   2.538   0.008   1.426
 2034SOL     OW 7000   0.642   4.008   4.919
 2034SOL    HW1 7001   0.733   4.037   4.947
 2034SOL    HW2 7002   0.573   4.065   4.965
 2035SOL     OW 7003   5.445   5.828   3.101
 2035SOL    HW1 7004   5.538   5.790   3.103
 2035SOL    HW2 7005   5.379   5.754   3.106
 2036SOL     OW 7006   0.133   3.466   6.154
 2036SOL    HW1 7007   0.177   3.522   6.084
 2036SOL    HW2 7008   0.050   3.510   6.186
 2037SOL     OW 7009   1.377   2.112   6.984
 2037SOL    HW1 7010   1.434   2.102   0.039
 2037SOL    HW2 7011   1.421   2.176   6.921
 2038SOL     OW 7012   1.714   0.996   5.607
 2038SOL    HW1 7013   1.655   0.928   5.651
 2038SOL    HW2 7014   1.801   1.001   5.656
 2039SOL     OW 7015   5.028   6.020   4.439
 2039SOL    HW1 7016   5.070   5.948   4.493
 2039SOL    HW2 7017   5.068   6.022   4.347
 2040SOL     OW 7018   2.735   1.523   1.060
 2040SOL    HW1 7019   2.797   1.496   0.986
 2040SOL    HW2 7020   2.682   1.603   1.032
 2041SOL     OW 7021   3.140   6.878   0.205
 2041SOL    HW1 7022   3.130   6.972   0.239
 2041SOL    HW2 7023   3.225   6.870   0.153
 2042SOL     OW 7024   0.275   0.356   5.201
 2042SOL    HW1 7025   0.355   0.404   5.165
 2042SOL    HW2 7026   0.304   0.296   5.275
 2043SOL     OW 7027   0.757   3.673   0.250
 2043SOL    HW1 7028   0.766   3.704   0.155
 2043SOL    HW2 7029   0.824   3.601   0.268
 2044SOL     OW 7030   3.858   0.932   2.296
 2044SOL    HW1 7031   3.812   0.908   2.382
 2044SOL    HW2 7032   3.894   1.025   2.303
 2045SOL     OW 7033   1.886   5.552   3.181
 2045SOL    HW1 7034   1.965   5.492   3.176
 2045SOL    HW2 7035   1.894   5.624   3.112
 2046SOL     OW 7036   0.669   2.526   6.151
 2046SOL    HW1 7037   0.706   2.615   6.124
 2046SOL    HW2 7038   0.663   2.522   6.251
 2047SOL     OW 7039   6.924   0.157   2.147
 2047SOL    HW1 7040   6.863   0.233   2.123
 2047SOL    HW2 7041   6.935   0.096   2.069
 2048SOL     OW 7042   1.708   0.861   3.492
 2048SOL    HW1 7043   1.642   0.907   3.433
 2048SOL    HW2 7044   1.666   0.779   3.532
 2049SOL     OW 7045   4.557   2.081   5.352
 2049SOL    HW1 7046   4.482   2.112   5.293
 2049SOL    HW2 7047   4.634   2.144   5.342
 2050SOL     OW 7048   0.417   1.099   2.545
 2050SOL    HW1 7049   0.407   1.088   2.644
 2050SOL    HW2 7050   0.511   1.081   2.519
 2051SOL     OW 7051   3.026   0.023   6.581
 2051SOL    HW1 7052   3.044   6.989   6.504
 2051SOL    HW2 7053   2.959   7.008   6.643
 2052SOL     OW 7054   0.074   4.429   0.740
 2052SOL    HW1 7055   0.142   4.422   0.668
 2052SOL    HW2 7056   0.099   4.369   0.816
 2053SOL     OW 7057   4.650   5.233   1.882
 2053SOL    HW1 7058   4.566   5.284   1.865
 2053SOL    HW2 7059   4.630   5.135   1.878
 2054SOL     OW 7060   3.324   4.143   3.453
 2054SOL    HW1 7061   3.380   4.093   3.519
 2054SOL    HW2 7062   3.309   4.237   3.486
 2055SOL     OW 7063   3.441   3.076   5.605
 2055SOL    HW1 7064   3.495   3.022   5.669
 2055SOL    HW2 7065   3.344   3.065   5.625
 2056SOL     OW 7066   2.568   5.427   2.335
 2056SOL    HW1 7067   2.569   5.422   2.235
 2056SOL    HW2 7068   2.622   5.505   2.365
 2057SOL     OW 7069   6.438   3.322   3.790
 2057SOL    HW1 7070   6.492   3.322   3.706
 2057SOL    HW2 7071   6.360   3.260   3.779
 2058SOL     OW 7072   5.201   0.045   3.969
 2058SOL    HW1 7073   5.118   0.003   3.932
 2058SOL    HW2 7074   5.229   0.120   3.909
 2059SOL     OW 7075   2.505   1.328   5.821
 2059SOL    HW1 7076   2.528   1.425   5.817
 2059SOL    HW2 7077   2.455   1.302   5.739
 2060SOL     OW 7078   1.297   2.555   6.460
 2060SOL    HW1 7079   1.280   2.475   6.518
 2060SOL    HW2 7080   1.293   2.528   6.364
 2061SOL     OW 7081   1.994   2.762   4.105
 2061SOL    HW1 7082   2.038   2.829   4.045
 2061SOL    HW2 7083   2.063   2.716   4.160
 2062SOL     OW 7084   5.158   5.438   3.908
 2062SOL    HW1 7085   5.143   5.347   3.948
 2062SOL    HW2 7086   5.073   5.489   3.908
 2063SOL     OW 7087   1.067   1.763   4.426
 2063SOL    HW1 7088   1.016   1.847   4.406
 2063SOL    HW2 7089   1.146   1.786   4.483
 2064SOL     OW 7090   0.462   3.880   4.717
 2064SOL    HW1 7091   0.558   3.903   4.701
 2064SOL    HW2 7092   0.456   3.790   4.761
 2065SOL     OW 7093   3.559   3.761   6.123
 2065SOL    HW1 7094   3.606   3.751   6.036
 2065SOL    HW2 7095   3.513   3.676   6.148
 2066SOL     OW 7096   2.077   2.318   4.571
 2066SOL    HW1 7097   2.015   2.255   4.618
 2066SOL    HW2 7098   2.049   2.412   4.590
 2067SOL     OW 7099   6.480   4.929   2.236
 2067SOL    HW1 7100   6.438   4.944   2.146
 2067SOL    HW2 7101   6.521   4.838   2.239
 2068SOL     OW 7102   3.104   6.954   4.042
 2068SOL    HW1 7103   3.077   6.861   4.017
 2068SOL    HW2 7104   3.138   6.955   4.136
 2069SOL     OW 7105   6.039   1.946   2.993
 2069SOL    HW1 7106   6.099   2.023   2.969
 2069SOL    HW2 7107   6.074   1.862   2.950
 2070SOL     OW 7108   0.217   5.094   1.976
 2070SOL    HW1 7109   0.131   5.132   1.943
 2070SOL    HW2 7110   0.282   5.087   1.900
 2071SOL     OW 7111   6.655   2.182   3.960
 2071SOL    HW1 7112   6.609   2.222   4.039
 2071SOL    HW2 7113   6.620   2.223   3.876
 2072SOL     OW 7114   5.093   3.078   5.400
 2072SOL    HW1 7115   5.120   2.993   5.446
 2072SOL    HW2 7116   5.165   3.104   5.335
 2073SOL     OW 7117   3.435   5.038   6.724
 2073SOL    HW1 7118   3.393   5.058   6.635
 2073SOL    HW2 7119   3.491   5.115   6.753
 2074SOL     OW 7120   3.729   4.715   5.566
 2074SOL    HW1 7121   3.790   4.651   5.520
 2074SOL    HW2 7122   3.782   4.792   5.603
 2075SOL     OW 7123   5.131   1.047   0.984
 2075SOL    HW1 7124   5.044   1.027   1.030
 2075SOL    HW2 7125   5.142   0.986   0.906
 2076SOL     OW 7126   6.867   6.935   4.063
 2076SOL    HW1 7127   6.966   6.932   4.049
 2076SOL    HW2 7128   6.840   0.000   4.090
 2077SOL     OW 7129   0.728   4.221   0.890
 2077SOL    HW1 7130   0.680   4.306   0.911
 2077SOL    HW2 7131   0.806   4.210   0.952
 2078SOL     OW 7132   0.883   2.515   0.067
 2078SOL    HW1 7133   0.806   2.535   0.007
 2078SOL    HW2 7134   0.857   2.534   0.162
 2079SOL     OW 7135   5.673   2.016   3.671
 2079SOL    HW1 7136   5.724   1.955   3.733
 2079SOL    HW2 7137   5.577   2.016   3.697
 2080SOL     OW 7138   2.317   2.692   5.671
 2080SOL    HW1 7139   2.226   2.734   5.675
 2080SOL    HW2 7140   2.380   2.755   5.627
 2081SOL     OW 7141   0.350   6.096   3.081
 2081SOL    HW1 7142   0.359   6.096   3.181
 2081SOL    HW2 7143   0.351   6.002   3.048
 2082SOL     OW 7144   6.575   6.658   3.528
 2082SOL    HW1 7145   6.593   6.756   3.533
 2082SOL    HW2 7146   6.658   6.610   3.501
 2083SOL     OW 7147   0.922   5.632   3.127
 2083SOL    HW1 7148   0.911   5.569   3.050
 2083SOL    HW2 7149   0.948   5.580   3.209
 2084SOL     OW 7150   5.984   2.219   1.511
 2084SOL    HW1 7151   5.925   2.183   1.439
 2084SOL    HW2 7152   5.928   2.247   1.589
 2085SOL     OW 7153   6.247   5.712   0.265
 2085SOL    HW1 7154   6.148   5.704   0.278
 2085SOL    HW2 7155   6.289   5.622   0.277
 2086SOL     OW 7156   5.801   0.380   5.546
 2086SOL    HW1 7157   5.758   0.290   5.552
 2086SOL    HW2 7158   5.739   0.449   5.583
 2087SOL     OW 7159   5.195   1.118   6.427
 2087SOL    HW1 7160   5.214   1.217   6.432
 2087SOL    HW2 7161   5.219   1.084   6.336
 2088SOL     OW 7162   0.192   3.159   5.446
 2088SOL    HW1 7163   0.277   3.201   5.477
 2088SOL    HW2 7164   0.117   3.185   5.506
 2089SOL     OW 7165   3.061   5.133   4.531
 2089SOL    HW1 7166   3.108   5.097   4.451
 2089SOL    HW2 7167   3.006   5.212   4.505
 2090SOL     OW 7168   5.005   2.170   6.333
 2090SOL    HW1 7169   5.084   2.111   6.317
 2090SOL    HW2 7170   5.029   2.239   6.402
 2091SOL     OW 7171   5.453   6.500   0.824
 2091SOL    HW1 7172   5.553   6.508   0.815
 2091SOL    HW2 7173   5.410   6.528   0.739
 2092SOL     OW 7174   3.645   2.904   3.060
 2092SOL    HW1 7175   3.568   2.901   2.996
 2092SOL    HW2 7176   3.611   2.920   3.153
 2093SOL     OW 7177   4.791   6.904   0.360
 2093SOL    HW1 7178   4.705   6.954   0.370
 2093SOL    HW2 7179   4.813   6.894   0.263
 2094SOL     OW 7180   4.654   2.991   1.254
 2094SOL    HW1 7181   4.678   3.042   1.171
 2094SOL    HW2 7182   4.558   3.005   1.275
 2095SOL     OW 7183   4.523   5.660   3.303
 2095SOL    HW1 7184   4.481   5.749   3.321
 2095SOL    HW2 7185   4.551   5.656   3.207
 2096SOL     OW 7186   3.535   6.943   2.927
 2096SOL    HW1 7187   3.616   6.893   2.957
 2096SOL    HW2 7188   3.453   6.888   2.943
 2097SOL     OW 7189   2.391   5.720   5.231
 2097SOL    HW1 7190   2.464   5.760   5.286
 2097SOL    HW2 7191   2.307   5.716   5.285
 2098SOL     OW 7192   1.551   6.865   3.818
 2098SOL    HW1 7193   1.639   6.823   3.841
 2098SOL    HW2 7194   1.506   6.895   3.902
 2099SOL     OW 7195   4.422   1.583   6.745
 2099SOL    HW1 7196   4.429   1.515   6.818
 2099SOL    HW2 7197   4.431   1.675   6.784
 2100SOL     OW 7198   4.244   0.332   0.941
 2100SOL    HW1 7199   4.201   0.384   0.867
 2100SOL    HW2 7200   4.226   0.234   0.927
 2101SOL     OW 7201   1.446   0.551   2.491
 2101SOL    HW1 7202   1.523   0.595   2.444
 2101SOL    HW2 7203   1.360   0.593   2.462
 2102SOL     OW 7204   3.428   2.868   2.383
 2102SOL    HW1 7205   3.378   2.846   2.466
 2102SOL    HW2 7206   3.525   2.883   2.405
 2103SOL     OW 7207   1.774   7.011   1.609
 2103SOL    HW1 7208   1.686   7.011   1.561
 2103SOL    HW2 7209   1.815   0.075   1.602
 2104SOL     OW 7210   1.316   4.245   2.475
 2104SOL    HW1 7211   1.239   4.184   2.491
 2104SOL    HW2 7212   1.340   4.292   2.560
 2105SOL     OW 7213   5.149   6.447   5.220
 2105SOL    HW1 7214   5.177   6.496   5.137
 2105SOL    HW2 7215   5.229   6.407   5.264
 2106SOL     OW 7216   3.342   2.577   0.960
 2106SOL    HW1 7217   3.418   2.612   1.014
 2106SOL    HW2 7218   3.378   2.534   0.877
 2107SOL     OW 7219   6.320   4.632   4.960
 2107SOL    HW1 7220   6.263   4.710   4.936
 2107SOL    HW2 7221   6.385   4.614   4.887
 2108SOL     OW 7222   4.547   6.480   5.429
 2108SOL    HW1 7223   4.547   6.578   5.451
 2108SOL    HW2 7224   4.641   6.447   5.422
 2109SOL     OW 7225   2.440   5.864   2.225
 2109SOL    HW1 7226   2.452   5.964   2.228
 2109SOL    HW2 7227   2.478   5.823   2.307
 2110SOL     OW 7228   3.830   5.723   6.602
 2110SOL    HW1 7229   3.882   5.641   6.579
 2110SOL    HW2 7230   3.889   5.788   6.649
 2111SOL     OW 7231   0.510   2.531   0.464
 2111SOL    HW1 7232   0.549   2.588   0.536
 2111SOL    HW2 7233   0.428   2.575   0.427
 2112SOL     OW 7234   0.579   0.725   6.697
 2112SOL    HW1 7235   0.492   0.691   6.733
 2112SOL    HW2 7236   0.593   0.688   6.605
 2113SOL     OW 7237   6.613   2.007   4.326
 2113SOL    HW1 7238   6.538   1.943   4.342
 2113SOL    HW2 7239   6.686   1.962   4.276
 2114SOL     OW 7240   3.198   1.062   5.312
 2114SOL    HW1 7241   3.159   1.131   5.373
 2114SOL    HW2 7242   3.126   1.028   5.250
 2115SOL     OW 7243   6.695   0.024   3.648
 2115SOL    HW1 7244   6.627   7.003   3.592
 2115SOL    HW2 7245   6.671   0.121   3.654
 2116SOL     OW 7246   1.868   0.695   5.738
 2116SOL    HW1 7247   1.961   0.714   5.709
 2116SOL    HW2 7248   1.826   0.778   5.774
 2117SOL     OW 7249   5.751   3.556   1.243
 2117SOL    HW1 7250   5.820   3.627   1.228
 2117SOL    HW2 7251   5.704   3.537   1.157
 2118SOL     OW 7252   6.951   3.350   2.556
 2118SOL    HW1 7253   6.976   3.425   2.617
 2118SOL    HW2 7254   6.861   3.368   2.517
 2119SOL     OW 7255   2.456   2.353   6.907
 2119SOL    HW1 7256   2.416   2.264   6.927
 2119SOL    HW2 7257   2.469   2.362   6.808
 2120SOL     OW 7258   5.936   1.663   0.656
 2120SOL    HW1 7259   5.982   1.652   0.568
 2120SOL    HW2 7260   5.938   1.577   0.706
 2121SOL     OW 7261   3.252   5.453   1.514
 2121SOL    HW1 7262   3.215   5.530   1.463
 2121SOL    HW2 7263   3.183   5.381   1.522
 2122SOL     OW 7264   0.493   0.528   5.130
 2122SOL    HW1 7265   0.533   0.539   5.221
 2122SOL    HW2 7266   0.518   0.607   5.074
 2123SOL     OW 7267   1.030   4.715   3.500
 2123SOL    HW1 7268   0.957   4.647   3.494
 2123SOL    HW2 7269   0.990   4.807   3.501
 2124SOL     OW 7270   5.237   3.242   6.157
 2124SOL    HW1 7271   5.327   3.201   6.146
 2124SOL    HW2 7272   5.194   3.253   6.067
 2125SOL     OW 7273   2.458   5.693   6.030
 2125SOL    HW1 7274   2.469   5.744   5.945
 2125SOL    HW2 7275   2.365   5.704   6.064
 2126SOL     OW 7276   2.759   5.105   1.872
 2126SOL    HW1 7277   2.748   5.161   1.790
 2126SOL    HW2 7278   2.818   5.027   1.851
 2127SOL     OW 7279   1.328   3.836   4.158
 2127SOL    HW1 7280   1.405   3.896   4.138
 2127SOL    HW2 7281   1.348   3.743   4.129
 2128SOL     OW 7282   5.270   2.974   0.974
 2128SOL    HW1 7283   5.325   2.932   1.047
 2128SOL    HW2 7284   5.329   3.004   0.900
 2129SOL     OW 7285   6.213   4.315   3.976
 2129SOL    HW1 7286   6.277   4.349   3.908
 2129SOL    HW2 7287   6.218   4.215   3.979
 2130SOL     OW 7288   1.676   0.141   2.811
 2130SOL    HW1 7289   1.584   0.153   2.775
 2130SOL    HW2 7290   1.689   0.197   2.893
 2131SOL     OW 7291   6.018   0.249   6.855
 2131SOL    HW1 7292   5.988   0.308   6.779
 2131SOL    HW2 7293   6.097   0.291   6.899
 2132SOL     OW 7294   3.429   1.666   6.914
 2132SOL    HW1 7295   3.375   1.649   6.997
 2132SOL    HW2 7296   3.369   1.675   6.836
 2133SOL     OW 7297   4.153   2.977   1.595
 2133SOL    HW1 7298   4.150   2.940   1.502
 2133SOL    HW2 7299   4.247   2.997   1.620
 2134SOL     OW 7300   2.516   0.296   5.213
 2134SOL    HW1 7301   2.418   0.311   5.222
 2134SOL    HW2 7302   2.537   0.271   5.119
 2135SOL     OW 7303   0.242   6.000   4.269
 2135SOL    HW1 7304   0.190   6.055   4.204
 2135SOL    HW2 7305   0.305   6.059   4.319
 2136SOL     OW 7306   0.424   5.121   3.614
 2136SOL    HW1 7307   0.460   5.028   3.621
 2136SOL    HW2 7308   0.348   5.132   3.677
 2137SOL     OW 7309   0.020   0.540   4.616
 2137SOL    HW1 7310   0.085   0.517   4.543
 2137SOL    HW2 7311   0.069   0.551   4.702
 2138SOL     OW 7312   0.947   2.073   6.976
 2138SOL    HW1 7313   1.021   2.065   6.908
 2138SOL    HW2 7314   0.965   2.150   0.010
 2139SOL     OW 7315   3.553   6.155   4.422
 2139SOL    HW1 7316   3.498   6.084   4.379
 2139SOL    HW2 7317   3.536   6.242   4.375
 2140SOL     OW 7318   1.542   5.477   3.320
 2140SOL    HW1 7319   1.482   5.417   3.373
 2140SOL    HW2 7320   1.498   5.499   3.233
 2141SOL     OW 7321   6.721   0.574   6.620
 2141SOL    HW1 7322   6.723   0.639   6.544
 2141SOL    HW2 7323   6.766   0.489   6.592
 2142SOL     OW 7324   4.005   0.913   3.382
 2142SOL    HW1 7325   3.925   0.867   3.345
 2142SOL    HW2 7326   4.085   0.853   3.374
 2143SOL     OW 7327   3.769   5.692   0.314
 2143SOL    HW1 7328   3.716   5.776   0.328
 2143SOL    HW2 7329   3.825   5.673   0.394
 2144SOL     OW 7330   0.533   1.445   1.954
 2144SOL    HW1 7331   0.546   1.441   2.053
 2144SOL    HW2 7332   0.582   1.524   1.916
 2145SOL     OW 7333   2.495   5.739   3.726
 2145SOL    HW1 7334   2.409   5.745   3.776
 2145SOL    HW2 7335   2.479   5.755   3.629
 2146SOL     OW 7336   2.990   2.301   1.236
 2146SOL    HW1 7337   3.019   2.356   1.315
 2146SOL    HW2 7338   2.892   2.283   1.243
 2147SOL     OW 7339   6.898   0.148   4.453
 2147SOL    HW1 7340   6.925   0.094   4.533
 2147SOL    HW2 7341   6.875   0.241   4.482
 2148SOL     OW 7342   6.942   4.022   3.717
 2148SOL    HW1 7343   6.850   3.996   3.747
 2148SOL    HW2 7344   6.963   3.974   3.632
 2149SOL     OW 7345   2.471   1.032   2.315
 2149SOL    HW1 7346   2.516   1.037   2.404
 2149SOL    HW2 7347   2.377   0.999   2.327
 2150SOL     OW 7348   5.133   0.223   3.074
 2150SOL    HW1 7349   5.217   0.264   3.107
 2150SOL    HW2 7350   5.055   0.279   3.102
 2151SOL     OW 7351   4.324   4.319   5.591
 2151SOL    HW1 7352   4.357   4.299   5.498
 2151SOL    HW2 7353   4.243   4.265   5.610
 2152SOL     OW 7354   6.974   6.122   2.961
 2152SOL    HW1 7355   6.930   6.090   2.877
 2152SOL    HW2 7356   0.030   6.173   2.938
 2153SOL     OW 7357   4.455   1.345   3.869
 2153SOL    HW1 7358   4.416   1.361   3.778
 2153SOL    HW2 7359   4.555   1.355   3.865
 2154SOL     OW 7360   4.107   0.077   4.212
 2154SOL    HW1 7361   4.025   0.129   4.187
 2154SOL    HW2 7362   4.165   0.066   4.131
 2155SOL     OW 7363   5.580   3.814   0.662
 2155SOL    HW1 7364   5.489   3.788   0.629
 2155SOL    HW2 7365   5.611   3.750   0.732
 2156SOL     OW 7366   6.035   5.873   2.620
 2156SOL    HW1 7367   6.131   5.871   2.649
 2156SOL    HW2 7368   5.995   5.961   2.645
 2157SOL     OW 7369   5.354   1.367   3.964
 2157SOL    HW1 7370   5.303   1.317   4.035
 2157SOL    HW2 7371   5.367   1.308   3.885
 2158SOL     OW 7372   4.076   0.598   3.585
 2158SOL    HW1 7373   4.030   0.509   3.580
 2158SOL    HW2 7374   4.083   0.637   3.494
 2159SOL     OW 7375   2.562   1.398   5.040
 2159SOL    HW1 7376   2.501   1.477   5.050
 2159SOL    HW2 7377   2.657   1.430   5.035
 2160SOL     OW 7378   2.483   3.908   0.649
 2160SOL    HW1 7379   2.511   3.864   0.564
 2160SOL    HW2 7380   2.543   3.880   0.723
 2161SOL     OW 7381   4.760   2.579   2.825
 2161SOL    HW1 7382   4.708   2.583   2.910
 2161SOL    HW2 7383   4.795   2.671   2.802
 2162SOL     OW 7384   2.547   1.635   2.154
 2162SOL    HW1 7385   2.482   1.578   2.104
 2162SOL    HW2 7386   2.605   1.684   2.089
 2163SOL     OW 7387   4.283   2.031   1.200
 2163SOL    HW1 7388   4.327   1.974   1.132
 2163SOL    HW2 7389   4.206   1.981   1.241
 2164SOL     OW 7390   6.425   0.650   1.336
 2164SOL    HW1 7391   6.440   0.700   1.251
 2164SOL    HW2 7392   6.512   0.612   1.369
 2165SOL     OW 7393   2.211   0.667   2.157
 2165SOL    HW1 7394   2.199   0.703   2.064
 2165SOL    HW2 7395   2.146   0.593   2.172
 2166SOL     OW 7396   5.292   2.796   5.009
 2166SOL    HW1 7397   5.334   2.719   4.960
 2166SOL    HW2 7398   5.223   2.839   4.951
 2167SOL     OW 7399   3.609   1.654   1.231
 2167SOL    HW1 7400   3.642   1.700   1.314
 2167SOL    HW2 7401   3.554   1.574   1.257
 2168SOL     OW 7402   5.680   6.764   4.598
 2168SOL    HW1 7403   5.609   6.825   4.563
 2168SOL    HW2 7404   5.637   6.688   4.647
 2169SOL     OW 7405   5.362   1.686   5.951
 2169SOL    HW1 7406   5.280   1.731   5.986
 2169SOL    HW2 7407   5.437   1.698   6.017
 2170SOL     OW 7408   4.833   5.571   4.459
 2170SOL    HW1 7409   4.734   5.565   4.473
 2170SOL    HW2 7410   4.872   5.640   4.520
 2171SOL     OW 7411   0.345   3.559   0.058
 2171SOL    HW1 7412   0.305   3.473   0.090
 2171SOL    HW2 7413   0.315   3.578   6.992
 2172SOL     OW 7414   2.028   0.083   3.105
 2172SOL    HW1 7415   2.084   0.159   3.139
 2172SOL    HW2 7416   2.000   0.102   3.010
 2173SOL     OW 7417   4.287   2.078   4.576
 2173SOL    HW1 7418   4.375   2.057   4.617
 2173SOL    HW2 7419   4.227   1.998   4.581
 2174SOL     OW 7420   0.908   5.703   4.966
 2174SOL    HW1 7421   0.934   5.755   5.047
 2174SOL    HW2 7422   0.809   5.686   4.968
 2175SOL     OW 7423   1.035   0.236   7.003
 2175SOL    HW1 7424   1.098   0.265   6.930
 2175SOL    HW2 7425   1.082   0.170   0.035
 2176SOL     OW 7426   2.184   2.754   2.218
 2176SOL    HW1 7427   2.176   2.714   2.127
 2176SOL    HW2 7428   2.270   2.723   2.261
 2177SOL     OW 7429   0.847   1.570   1.579
 2177SOL    HW1 7430   0.850   1.665   1.612
 2177SOL    HW2 7431   0.822   1.509   1.654
 2178SOL     OW 7432   6.898   6.086   0.041
 2178SOL    HW1 7433   6.830   6.016   0.018
 2178SOL    HW2 7434   6.860   6.149   0.108
 2179SOL     OW 7435   2.173   3.795   4.282
 2179SOL    HW1 7436   2.121   3.710   4.287
 2179SOL    HW2 7437   2.188   3.819   4.185
 2180SOL     OW 7438   3.010   3.245   2.209
 2180SOL    HW1 7439   3.072   3.304   2.261
 2180SOL    HW2 7440   3.062   3.171   2.167
 2181SOL     OW 7441   3.634   0.017   1.147
 2181SOL    HW1 7442   3.561   0.085   1.138
 2181SOL    HW2 7443   3.715   0.048   1.097
 2182SOL     OW 7444   3.993   3.637   0.586
 2182SOL    HW1 7445   3.972   3.697   0.663
 2182SOL    HW2 7446   3.911   3.584   0.561
 2183SOL     OW 7447   4.852   3.049   1.465
 2183SOL    HW1 7448   4.813   3.005   1.384
 2183SOL    HW2 7449   4.921   2.988   1.505
 2184SOL     OW 7450   4.797   2.728   6.051
 2184SOL    HW1 7451   4.700   2.712   6.066
 2184SOL    HW2 7452   4.844   2.735   6.140
 2185SOL     OW 7453   6.445   6.606   2.240
 2185SOL    HW1 7454   6.444   6.513   2.278
 2185SOL    HW2 7455   6.467   6.602   2.143
 2186SOL     OW 7456   6.969   4.422   3.060
 2186SOL    HW1 7457   6.926   4.361   2.994
 2186SOL    HW2 7458   6.900   4.457   3.123
 2187SOL     OW 7459   6.475   0.642   6.750
 2187SOL    HW1 7460   6.452   0.546   6.769
 2187SOL    HW2 7461   6.560   0.645   6.697
 2188SOL     OW 7462   4.544   2.014   3.746
 2188SOL    HW1 7463   4.494   2.094   3.778
 2188SOL    HW2 7464   4.502   1.979   3.662
 2189SOL     OW 7465   3.899   6.093   6.650
 2189SOL    HW1 7466   3.837   6.036   6.705
 2189SOL    HW2 7467   3.993   6.064   6.665
 2190SOL     OW 7468   5.633   3.470   0.891
 2190SOL    HW1 7469   5.596   3.554   0.930
 2190SOL    HW2 7470   5.560   3.420   0.843
 2191SOL     OW 7471   3.454   0.784   6.625
 2191SOL    HW1 7472   3.364   0.811   6.591
 2191SOL    HW2 7473   3.459   0.684   6.630
 2192SOL     OW 7474   4.253   6.280   1.860
 2192SOL    HW1 7475   4.181   6.231   1.909
 2192SOL    HW2 7476   4.333   6.291   1.918
 2193SOL     OW 7477   0.112   6.126   4.722
 2193SOL    HW1 7478   0.184   6.086   4.779
 2193SOL    HW2 7479   0.145   6.213   4.684
 2194SOL     OW 7480   2.490   0.061   2.105
 2194SOL    HW1 7481   2.463   0.140   2.158
 2194SOL    HW2 7482   2.449   7.005   2.143
 2195SOL     OW 7483   0.386   5.073   2.504
 2195SOL    HW1 7484   0.480   5.104   2.516
 2195SOL    HW2 7485   0.335   5.139   2.449
 2196SOL     OW 7486   4.370   3.900   0.521
 2196SOL    HW1 7487   4.366   3.868   0.427
 2196SOL    HW2 7488   4.372   3.822   0.583
 2197SOL     OW 7489   4.811   3.319   6.822
 2197SOL    HW1 7490   4.855   3.305   6.734
 2197SOL    HW2 7491   4.830   3.412   6.854
 2198SOL     OW 7492   0.427   4.484   6.904
 2198SOL    HW1 7493   0.329   4.474   6.921
 2198SOL    HW2 7494   0.458   4.410   6.845
 2199SOL     OW 7495   4.037   1.471   2.912
 2199SOL    HW1 7496   3.968   1.402   2.932
 2199SOL    HW2 7497   3.993   1.561   2.907
 2200SOL     OW 7498   3.928   0.226   4.043
 2200SOL    HW1 7499   3.863   0.262   3.977
 2200SOL    HW2 7500   3.966   0.300   4.097
 2201SOL     OW 7501   5.149   4.558   4.348
 2201SOL    HW1 7502   5.054   4.570   4.377
 2201SOL    HW2 7503   5.199   4.644   4.360
 2202SOL     OW 7504   4.556   6.254   4.023
 2202SOL    HW1 7505   4.604   6.187   3.966
 2202SOL    HW2 7506   4.460   6.257   3.995
 2203SOL     OW 7507   2.019   1.178   2.514
 2203SOL    HW1 7508   1.946   1.243   2.533
 2203SOL    HW2 7509   2.083   1.218   2.449
 2204SOL     OW 7510   3.480   2.251   1.047
 2204SOL    HW1 7511   3.475   2.192   0.967
 2204SOL    HW2 7512   3.397   2.241   1.101
 2205SOL     OW 7513   3.326   0.748   2.350
 2205SOL    HW1 7514   3.303   0.663   2.304
 2205SOL    HW2 7515   3.259   0.818   2.325
 2206SOL     OW 7516   1.279   3.895   0.195
 2206SOL    HW1 7517   1.184   3.867   0.214
 2206SOL    HW2 7518   1.283   3.940   0.106
 2207SOL     OW 7519   6.740   4.870   5.418
 2207SOL    HW1 7520   6.689   4.839   5.499
 2207SOL    HW2 7521   6.810   4.802   5.396
 2208SOL     OW 7522   6.721   5.337   2.097
 2208SOL    HW1 7523   6.688   5.293   2.013
 2208SOL    HW2 7524   6.821   5.332   2.100
 2209SOL     OW 7525   6.563   6.718   1.841
 2209SOL    HW1 7526   6.605   6.754   1.924
 2209SOL    HW2 7527   6.612   6.754   1.761
 2210SOL     OW 7528   2.369   4.691   3.940
 2210SOL    HW1 7529   2.272   4.709   3.921
 2210SOL    HW2 7530   2.411   4.648   3.861
 2211SOL     OW 7531   6.304   0.717   5.985
 2211SOL    HW1 7532   6.240   0.793   5.981
 2211SOL    HW2 7533   6.376   0.738   6.051
 2212SOL     OW 7534   2.268   6.888   6.263
 2212SOL    HW1 7535   2.311   6.970   6.226
 2212SOL    HW2 7536   2.338   6.828   6.302
 2213SOL     OW 7537   4.640   0.774   3.492
 2213SOL    HW1 7538   4.574   0.756   3.565
 2213SOL    HW2 7539   4.731   0.742   3.520
 2214SOL     OW 7540   3.650   0.319   4.564
 2214SOL    HW1 7541   3.713   0.391   4.594
 2214SOL    HW2 7542   3.686   0.230   4.591
 2215SOL     OW 7543   5.736   1.949   5.960
 2215SOL    HW1 7544   5.785   2.027   5.921
 2215SOL    HW2 7545   5.800   1.874   5.975
 2216SOL     OW 7546   3.053   1.304   2.201
 2216SOL    HW1 7547   2.986   1.373   2.227
 2216SOL    HW2 7548   3.145   1.337   2.222
 2217SOL     OW 7549   3.003   6.856   1.108
 2217SOL    HW1 7550   3.100   6.844   1.127
 2217SOL    HW2 7551   2.970   6.777   1.056
 2218SOL     OW 7552   6.910   0.921   2.132
 2218SOL    HW1 7553   6.826   0.963   2.097
 2218SOL    HW2 7554   6.951   0.865   2.061
 2219SOL     OW 7555   2.674   1.857   2.969
 2219SOL    HW1 7556   2.611   1.788   2.935
 2219SOL    HW2 7557   2.710   1.910   2.891
 2220SOL     OW 7558   1.818   6.401   3.030
 2220SOL    HW1 7559   1.789   6.413   3.125
 2220SOL    HW2 7560   1.916   6.418   3.022
 2221SOL     OW 7561   0.371   6.332   4.885
 2221SOL    HW1 7562   0.393   6.236   4.870
 2221SOL    HW2 7563   0.350   6.347   4.982
 2222SOL     OW 7564   5.744   5.191   4.146
 2222SOL    HW1 7565   5.716   5.256   4.216
 2222SOL    HW2 7566   5.841   5.170   4.157
 2223SOL     OW 7567   6.569   6.547   2.500
 2223SOL    HW1 7568   6.549   6.599   2.417
 2223SOL    HW2 7569   6.484   6.527   2.548
 2224SOL     OW 7570   0.999   5.828   1.329
 2224SOL    HW1 7571   0.992   5.928   1.329
 2224SOL    HW2 7572   1.095   5.801   1.335
 2225SOL     OW 7573   0.510   4.363   0.135
 2225SOL    HW1 7574   0.475   4.395   0.047
 2225SOL    HW2 7575   0.488   4.429   0.206
 2226SOL     OW 7576   3.710   3.736   2.810
 2226SOL    HW1 7577   3.693   3.809   2.876
 2226SOL    HW2 7578   3.728   3.775   2.720
 2227SOL     OW 7579   1.381   1.724   5.173
 2227SOL    HW1 7580   1.299   1.760   5.130
 2227SOL    HW2 7581   1.452   1.709   5.104
 2228SOL     OW 7582   1.845   4.504   4.505
 2228SOL    HW1 7583   1.779   4.502   4.580
 2228SOL    HW2 7584   1.938   4.503   4.543
 2229SOL     OW 7585   5.658   5.704   2.867
 2229SOL    HW1 7586   5.561   5.727   2.854
 2229SOL    HW2 7587   5.671   5.667   2.959
 2230SOL     OW 7588   2.007   5.765   2.808
 2230SOL    HW1 7589   1.983   5.675   2.770
 2230SOL    HW2 7590   2.099   5.761   2.846
 2231SOL     OW 7591   1.959   5.568   1.054
 2231SOL    HW1 7592   1.883   5.625   1.025
 2231SOL    HW2 7593   1.953   5.551   1.153
 2232SOL     OW 7594   6.012   2.155   3.728
 2232SOL    HW1 7595   6.085   2.224   3.732
 2232SOL    HW2 7596   5.966   2.150   3.816
 2233SOL     OW 7597   3.860   0.997   0.522
 2233SOL    HW1 7598   3.807   0.989   0.607
 2233SOL    HW2 7599   3.948   1.041   0.541
 2234SOL     OW 7600   4.685   2.146   0.990
 2234SOL    HW1 7601   4.639   2.082   1.050
 2234SOL    HW2 7602   4.676   2.116   0.895
 2235SOL     OW 7603   1.891   2.276   2.201
 2235SOL    HW1 7604   1.890   2.313   2.294
 2235SOL    HW2 7605   1.980   2.234   2.182
 2236SOL     OW 7606   0.591   3.827   5.562
 2236SOL    HW1 7607   0.632   3.788   5.645
 2236SOL    HW2 7608   0.638   3.913   5.539
 2237SOL     OW 7609   6.307   3.069   3.410
 2237SOL    HW1 7610   6.233   3.077   3.477
 2237SOL    HW2 7611   6.268   3.054   3.319
 2238SOL     OW 7612   5.247   6.238   6.579
 2238SOL    HW1 7613   5.342   6.239   6.609
 2238SOL    HW2 7614   5.186   6.244   6.658
 2239SOL     OW 7615   0.549   5.625   1.388
 2239SOL    HW1 7616   0.622   5.601   1.452
 2239SOL    HW2 7617   0.463   5.634   1.438
 2240SOL     OW 7618   6.367   3.536   1.109
 2240SOL    HW1 7619   6.446   3.565   1.055
 2240SOL    HW2 7620   6.339   3.609   1.170
 2241SOL     OW 7621   0.680   0.256   3.701
 2241SOL    HW1 7622   0.658   0.168   3.660
 2241SOL    HW2 7623   0.712   0.243   3.795
 2242SOL     OW 7624   2.081   1.753   3.167
 2242SOL    HW1 7625   2.013   1.821   3.194
 2242SOL    HW2 7626   2.140   1.792   3.097
 2243SOL     OW 7627   1.711   0.067   4.626
 2243SOL    HW1 7628   1.665   0.053   4.539
 2243SOL    HW2 7629   1.695   7.016   4.686
 2244SOL     OW 7630   3.688   0.509   5.181
 2244SOL    HW1 7631   3.600   0.526   5.137
 2244SOL    HW2 7632   3.674   0.489   5.278
 2245SOL     OW 7633   0.994   2.788   2.219
 2245SOL    HW1 7634   1.054   2.744   2.286
 2245SOL    HW2 7635   0.928   2.721   2.186
 2246SOL     OW 7636   0.890   4.113   5.229
 2246SOL    HW1 7637   0.967   4.081   5.173
 2246SOL    HW2 7638   0.925   4.150   5.315
 2247SOL     OW 7639   1.820   2.304   4.320
 2247SOL    HW1 7640   1.886   2.234   4.345
 2247SOL    HW2 7641   1.818   2.313   4.220
 2248SOL     OW 7642   5.395   3.545   6.096
 2248SOL    HW1 7643   5.420   3.618   6.032
 2248SOL    HW2 7644   5.303   3.561   6.130
 2249SOL     OW 7645   5.564   5.735   5.000
 2249SOL    HW1 7646   5.530   5.823   4.965
 2249SOL    HW2 7647   5.526   5.720   5.092
 2250SOL     OW 7648   4.398   4.519   1.951
 2250SOL    HW1 7649   4.427   4.424   1.945
 2250SOL    HW2 7650   4.353   4.547   1.866
 2251SOL     OW 7651   0.553   0.941   5.329
 2251SOL    HW1 7652   0.570   0.899   5.418
 2251SOL    HW2 7653   0.542   1.039   5.340
 2252SOL     OW 7654   3.506   1.156   6.415
 2252SOL    HW1 7655   3.432   1.194   6.360
 2252SOL    HW2 7656   3.535   1.068   6.376
 2253SOL     OW 7657   0.501   4.047   0.528
 2253SOL    HW1 7658   0.439   3.973   0.503
 2253SOL    HW2 7659   0.572   4.013   0.589
 2254SOL     OW 7660   1.500   4.561   6.244
 2254SOL    HW1 7661   1.469   4.631   6.180
 2254SOL    HW2 7662   1.593   4.582   6.275
 2255SOL     OW 7663   6.434   3.493   6.543
 2255SOL    HW1 7664   6.394   3.578   6.576
 2255SOL    HW2 7665   6.382   3.415   6.577
 2256SOL     OW 7666   3.239   5.329   2.399
 2256SOL    HW1 7667   3.234   5.312   2.498
 2256SOL    HW2 7668   3.315   5.392   2.381
 2257SOL     OW 7669   1.353   4.632   5.382
 2257SOL    HW1 7670   1.306   4.555   5.338
 2257SOL    HW2 7671   1.397   4.600   5.467
 2258SOL     OW 7672   2.199   6.512   6.158
 2258SOL    HW1 7673   2.286   6.531   6.113
 2258SOL    HW2 7674   2.124   6.548   6.103
 2259SOL     OW 7675   6.068   1.554   6.164
 2259SOL    HW1 7676   6.010   1.596   6.233
 2259SOL    HW2 7677   6.139   1.500   6.208
 2260SOL     OW 7678   4.158   3.138   0.415
 2260SOL    HW1 7679   4.144   3.193   0.333
 2260SOL    HW2 7680   4.219   3.187   0.478
 2261SOL     OW 7681   2.656   6.748   5.219
 2261SOL    HW1 7682   2.710   6.816   5.269
 2261SOL    HW2 7683   2.703   6.660   5.222
 2262SOL     OW 7684   2.684   1.837   3.599
 2262SOL    HW1 7685   2.741   1.884   3.666
 2262SOL    HW2 7686   2.604   1.894   3.576
 2263SOL     OW 7687   1.000   4.468   5.529
 2263SOL    HW1 7688   0.932   4.535   5.498
 2263SOL    HW2 7689   0.959   4.409   5.598
 2264SOL     OW 7690   3.428   3.565   3.745
 2264SOL    HW1 7691   3.493   3.635   3.716
 2264SOL    HW2 7692   3.383   3.525   3.665
 2265SOL     OW 7693   1.145   5.900   4.361
 2265SOL    HW1 7694   1.162   5.968   4.432
 2265SOL    HW2 7695   1.052   5.910   4.326
 2266SOL     OW 7696   6.742   0.526   5.529
 2266SOL    HW1 7697   6.673   0.547   5.459
 2266SOL    HW2 7698   6.770   0.611   5.574
 2267SOL     OW 7699   6.286   1.830   5.580
 2267SOL    HW1 7700   6.274   1.731   5.583
 2267SOL    HW2 7701   6.273   1.863   5.487
 2268SOL     OW 7702   0.097   6.415   0.173
 2268SOL    HW1 7703   0.191   6.407   0.205
 2268SOL    HW2 7704   0.048   6.479   0.233
 2269SOL     OW 7705   6.628   6.242   2.711
 2269SOL    HW1 7706   6.677   6.329   2.712
 2269SOL    HW2 7707   6.561   6.243   2.637
 2270SOL     OW 7708   3.148   3.075   3.361
 2270SOL    HW1 7709   3.110   3.122   3.281
 2270SOL    HW2 7710   3.229   3.024   3.334
 2271SOL     OW 7711   1.855   4.057   2.851
 2271SOL    HW1 7712   1.802   4.064   2.936
 2271SOL    HW2 7713   1.848   3.964   2.815
 2272SOL     OW 7714   5.206   0.781   5.676
 2272SOL    HW1 7715   5.241   0.795   5.583
 2272SOL    HW2 7716   5.121   0.833   5.687
 2273SOL     OW 7717   0.448   1.370   2.344
 2273SOL    HW1 7718   0.372   1.318   2.306
 2273SOL    HW2 7719   0.517   1.306   2.380
 2274SOL     OW 7720   0.247   4.641   3.331
 2274SOL    HW1 7721   0.289   4.614   3.244
 2274SOL    HW2 7722   0.197   4.726   3.318
 2275SOL     OW 7723   4.532   6.569   3.369
 2275SOL    HW1 7724   4.566   6.662   3.381
 2275SOL    HW2 7725   4.522   6.550   3.271
 2276SOL     OW 7726   3.496   6.304   2.708
 2276SOL    HW1 7727   3.416   6.364   2.705
 2276SOL    HW2 7728   3.500   6.249   2.625
 2277SOL     OW 7729   3.232   3.158   2.511
 2277SOL    HW1 7730   3.138   3.148   2.478
 2277SOL    HW2 7731   3.287   3.202   2.441
 2278SOL     OW 7732   4.181   4.752   1.254
 2278SOL    HW1 7733   4.124   4.704   1.186
 2278SOL    HW2 7734   4.197   4.846   1.223
 2279SOL     OW 7735   5.588   3.859   5.445
 2279SOL    HW1 7736   5.551   3.868   5.353
 2279SOL    HW2 7737   5.568   3.769   5.481
 2280SOL     OW 7738   5.731   0.896   6.019
 2280SOL    HW1 7739   5.821   0.940   6.021
 2280SOL    HW2 7740   5.689   0.901   6.109
 2281SOL     OW 7741   2.626   0.561   0.901
 2281SOL    HW1 7742   2.639   0.490   0.832
 2281SOL    HW2 7743   2.579   0.639   0.861
 2282SOL     OW 7744   3.624   0.493   2.658
 2282SOL    HW1 7745   3.583   0.402   2.670
 2282SOL    HW2 7746   3.601   0.528   2.567
 2283SOL     OW 7747   0.847   3.331   1.258
 2283SOL    HW1 7748   0.829   3.243   1.301
 2283SOL    HW2 7749   0.769   3.392   1.272
 2284SOL     OW 7750   2.119   3.307   0.861
 2284SOL    HW1 7751   2.216   3.294   0.882
 2284SOL    HW2 7752   2.095   3.257   0.778
 2285SOL     OW 7753   2.436   2.766   6.832
 2285SOL    HW1 7754   2.358   2.715   6.866
 2285SOL    HW2 7755   2.501   2.704   6.789
 2286SOL     OW 7756   6.440   6.246   3.920
 2286SOL    HW1 7757   6.345   6.228   3.945
 2286SOL    HW2 7758   6.473   6.172   3.862
 2287SOL     OW 7759   2.788   1.608   0.501
 2287SOL    HW1 7760   2.703   1.657   0.517
 2287SOL    HW2 7761   2.786   1.520   0.548
 2288SOL     OW 7762   2.509   5.874   4.199
 2288SOL    HW1 7763   2.571   5.855   4.275
 2288SOL    HW2 7764   2.552   5.939   4.137
 2289SOL     OW 7765   3.704   7.022   6.333
 2289SOL    HW1 7766   3.794   6.987   6.361
 2289SOL    HW2 7767   3.716   0.061   6.259
 2290SOL     OW 7768   2.594   3.650   5.436
 2290SOL    HW1 7769   2.500   3.653   5.402
 2290SOL    HW2 7770   2.617   3.737   5.480
 2291SOL     OW 7771   3.279   1.668   0.386
 2291SOL    HW1 7772   3.181   1.648   0.393
 2291SOL    HW2 7773   3.308   1.719   0.467
 2292SOL     OW 7774   5.509   2.163   2.870
 2292SOL    HW1 7775   5.493   2.261   2.883
 2292SOL    HW2 7776   5.551   2.125   2.952
 2293SOL     OW 7777   0.610   0.919   0.272
 2293SOL    HW1 7778   0.671   0.954   0.201
 2293SOL    HW2 7779   0.656   0.924   0.360
 2294SOL     OW 7780   6.475   2.964   5.615
 2294SOL    HW1 7781   6.459   2.919   5.703
 2294SOL    HW2 7782   6.545   3.034   5.625
 2295SOL     OW 7783   5.612   5.416   0.386
 2295SOL    HW1 7784   5.615   5.514   0.403
 2295SOL    HW2 7785   5.519   5.389   0.361
 2296SOL     OW 7786   3.836   5.657   4.096
 2296SOL    HW1 7787   3.843   5.757   4.093
 2296SOL    HW2 7788   3.853   5.619   4.005
 2297SOL     OW 7789   6.370   2.718   6.895
 2297SOL    HW1 7790   6.287   2.673   6.928
 2297SOL    HW2 7791   6.384   2.804   6.944
 2298SOL     OW 7792   2.350   3.836   5.386
 2298SOL    HW1 7793   2.392   3.897   5.319
 2298SOL    HW2 7794   2.259   3.810   5.355
 2299SOL     OW 7795   5.927   3.660   4.641
 2299SOL    HW1 7796   5.875   3.744   4.661
 2299SOL    HW2 7797   5.906   3.591   4.710
 2300SOL     OW 7798   4.008   0.426   3.295
 2300SOL    HW1 7799   3.992   0.362   3.220
 2300SOL    HW2 7800   4.075   0.494   3.268
 2301SOL     OW 7801   4.188   3.134   5.666
 2301SOL    HW1 7802   4.218   3.186   5.587
 2301SOL    HW2 7803   4.140   3.194   5.730
 2302SOL     OW 7804   0.174   2.956   5.077
 2302SOL    HW1 7805   0.268   2.942   5.109
 2302SOL    HW2 7806   0.126   3.015   5.141
 2303SOL     OW 7807   2.969   1.771   6.397
 2303SOL    HW1 7808   2.983   1.748   6.301
 2303SOL    HW2 7809   2.992   1.691   6.454
 2304SOL     OW 7810   4.026   6.573   2.681
 2304SOL    HW1 7811   4.027   6.574   2.781
 2304SOL    HW2 7812   4.007   6.665   2.647
 2305SOL     OW 7813   2.852   5.973   4.790
 2305SOL    HW1 7814   2.800   6.006   4.711
 2305SOL    HW2 7815   2.828   5.878   4.808
 2306SOL     OW 7816   1.015   4.825   5.442
 2306SOL    HW1 7817   1.067   4.837   5.527
 2306SOL    HW2 7818   0.973   4.734   5.442
 2307SOL     OW 7819   5.910   4.063   5.041
 2307SOL    HW1 7820   5.943   4.153   5.067
 2307SOL    HW2 7821   5.884   4.063   4.945
 2308SOL     OW 7822   1.130   6.358   2.577
 2308SOL    HW1 7823   1.041   6.400   2.595
 2308SOL    HW2 7824   1.116   6.273   2.525
 2309SOL     OW 7825   1.935   1.009   4.730
 2309SOL    HW1 7826   1.970   1.101   4.713
 2309SOL    HW2 7827   1.916   0.998   4.827
 2310SOL     OW 7828   5.305   6.076   0.421
 2310SOL    HW1 7829   5.395   6.059   0.461
 2310SOL    HW2 7830   5.313   6.147   0.352
 2311SOL     OW 7831   2.694   5.831   0.583
 2311SOL    HW1 7832   2.654   5.888   0.654
 2311SOL    HW2 7833   2.783   5.796   0.614
 2312SOL     OW 7834   2.501   4.482   2.665
 2312SOL    HW1 7835   2.404   4.488   2.642
 2312SOL    HW2 7836   2.554   4.461   2.582
 2313SOL     OW 7837   4.704   5.248   1.228
 2313SOL    HW1 7838   4.787   5.265   1.175
 2313SOL    HW2 7839   4.647   5.180   1.181
 2314SOL     OW 7840   2.410   4.430   2.915
 2314SOL    HW1 7841   2.320   4.388   2.902
 2314SOL    HW2 7842   2.457   4.436   2.826
 2315SOL     OW 7843   3.929   1.711   6.661
 2315SOL    HW1 7844   3.931   1.800   6.616
 2315SOL    HW2 7845   3.912   1.723   6.759
 2316SOL     OW 7846   5.401   3.909   1.412
 2316SOL    HW1 7847   5.332   3.876   1.348
 2316SOL    HW2 7848   5.357   3.935   1.498
 2317SOL     OW 7849   0.304   6.521   3.679
 2317SOL    HW1 7850   0.266   6.610   3.653
 2317SOL    HW2 7851   0.305   6.462   3.599
 2318SOL     OW 7852   6.828   1.643   3.427
 2318SOL    HW1 7853   6.829   1.597   3.516
 2318SOL    HW2 7854   6.734   1.644   3.391
 2319SOL     OW 7855   1.005   5.624   2.806
 2319SOL    HW1 7856   1.068   5.676   2.864
 2319SOL    HW2 7857   0.974   5.543   2.856
 2320SOL     OW 7858   6.408   5.007   3.664
 2320SOL    HW1 7859   6.472   4.946   3.617
 2320SOL    HW2 7860   6.459   5.075   3.717
 2321SOL     OW 7861   3.240   4.951   4.001
 2321SOL    HW1 7862   3.209   5.014   3.930
 2321SOL    HW2 7863   3.164   4.932   4.064
 2322SOL     OW 7864   2.242   1.637   4.393
 2322SOL    HW1 7865   2.323   1.603   4.441
 2322SOL    HW2 7866   2.257   1.732   4.365
 2323SOL     OW 7867   5.072   3.537   1.648
 2323SOL    HW1 7868   5.010   3.520   1.572
 2323SOL    HW2 7869   5.058   3.468   1.718
 2324SOL     OW 7870   0.310   5.507   4.216
 2324SOL    HW1 7871   0.376   5.523   4.143
 2324SOL    HW2 7872   0.342   5.432   4.274
 2325SOL     OW 7873   6.159   1.946   0.905
 2325SOL    HW1 7874   6.067   1.950   0.866
 2325SOL    HW2 7875   6.174   1.855   0.945
 2326SOL     OW 7876   0.430   5.384   0.636
 2326SOL    HW1 7877   0.454   5.290   0.659
 2326SOL    HW2 7878   0.381   5.386   0.548
 2327SOL     OW 7879   4.525   1.628   3.199
 2327SOL    HW1 7880   4.586   1.706   3.203
 2327SOL    HW2 7881   4.577   1.545   3.178
 2328SOL     OW 7882   6.165   4.964   4.174
 2328SOL    HW1 7883   6.231   4.894   4.201
 2328SOL    HW2 7884   6.186   4.996   4.082
 2329SOL     OW 7885   1.300   6.502   3.427
 2329SOL    HW1 7886   1.336   6.488   3.334
 2329SOL    HW2 7887   1.375   6.528   3.488
 2330SOL     OW 7888   1.519   4.181   0.225
 2330SOL    HW1 7889   1.467   4.157   0.307
 2330SOL    HW2 7890   1.472   4.145   0.144
 2331SOL     OW 7891   2.044   5.126   4.729
 2331SOL    HW1 7892   1.989   5.171   4.658
 2331SOL    HW2 7893   2.141   5.144   4.713
 2332SOL     OW 7894   6.832   3.735   6.079
 2332SOL    HW1 7895   6.897   3.713   6.152
 2332SOL    HW2 7896   6.840   3.668   6.005
 2333SOL     OW 7897   2.575   4.555   4.083
 2333SOL    HW1 7898   2.552   4.484   4.150
 2333SOL    HW2 7899   2.492   4.580   4.032
 2334SOL     OW 7900   2.697   0.014   5.643
 2334SOL    HW1 7901   2.661   6.972   5.707
 2334SOL    HW2 7902   2.637   0.093   5.643
 2335SOL     OW 7903   4.790   4.911   4.365
 2335SOL    HW1 7904   4.743   4.896   4.452
 2335SOL    HW2 7905   4.722   4.923   4.293
 2336SOL     OW 7906   4.713   1.332   5.405
 2336SOL    HW1 7907   4.786   1.288   5.352
 2336SOL    HW2 7908   4.752   1.371   5.489
 2337SOL     OW 7909   5.500   0.858   5.129
 2337SOL    HW1 7910   5.548   0.786   5.180
 2337SOL    HW2 7911   5.537   0.947   5.155
 2338SOL     OW 7912   1.659   0.034   6.812
 2338SOL    HW1 7913   1.590   0.073   6.874
 2338SOL    HW2 7914   1.647   6.962   6.808
 2339SOL     OW 7915   3.838   4.651   6.485
 2339SOL    HW1 7916   3.866   4.654   6.389
 2339SOL    HW2 7917   3.750   4.699   6.496
 2340SOL     OW 7918   4.330   5.035   4.059
 2340SOL    HW1 7919   4.346   5.082   3.972
 2340SOL    HW2 7920   4.366   5.090   4.134
 2341SOL     OW 7921   0.402   4.252   6.122
 2341SOL    HW1 7922   0.343   4.284   6.196
 2341SOL    HW2 7923   0.406   4.323   6.051
 2342SOL     OW 7924   6.109   0.941   5.965
 2342SOL    HW1 7925   6.132   1.028   5.922
 2342SOL    HW2 7926   6.092   0.956   6.063
 2343SOL     OW 7927   1.571   5.651   1.648
 2343SOL    HW1 7928   1.550   5.554   1.638
 2343SOL    HW2 7929   1.662   5.670   1.610
 2344SOL     OW 7930   2.282   0.821   2.617
 2344SOL    HW1 7931   2.240   0.895   2.669
 2344SOL    HW2 7932   2.266   0.834   2.520
 2345SOL     OW 7933   0.981   2.299   2.250
 2345SOL    HW1 7934   0.966   2.203   2.276
 2345SOL    HW2 7935   1.050   2.303   2.177
 2346SOL     OW 7936   5.132   3.141   5.006
 2346SOL    HW1 7937   5.206   3.202   4.979
 2346SOL    HW2 7938   5.047   3.193   5.017
 2347SOL     OW 7939   1.275   4.059   0.796
 2347SOL    HW1 7940   1.324   4.076   0.882
 2347SOL    HW2 7941   1.257   3.962   0.786
 2348SOL     OW 7942   2.739   0.063   1.393
 2348SOL    HW1 7943   2.825   0.024   1.426
 2348SOL    HW2 7944   2.726   0.039   1.297
 2349SOL     OW 7945   5.555   3.395   6.734
 2349SOL    HW1 7946   5.603   3.369   6.818
 2349SOL    HW2 7947   5.460   3.363   6.738
 2350SOL     OW 7948   2.134   6.128   5.490
 2350SOL    HW1 7949   2.094   6.075   5.565
 2350SOL    HW2 7950   2.060   6.167   5.435
 2351SOL     OW 7951   1.846   5.107   3.369
 2351SOL    HW1 7952   1.867   5.075   3.462
 2351SOL    HW2 7953   1.850   5.206   3.366
 2352SOL     OW 7954   5.847   6.225   6.574
 2352SOL    HW1 7955   5.890   6.142   6.538
 2352SOL    HW2 7956   5.910   6.301   6.564
 2353SOL     OW 7957   3.362   2.667   5.729
 2353SOL    HW1 7958   3.291   2.735   5.710
 2353SOL    HW2 7959   3.429   2.706   5.792
 2354SOL     OW 7960   3.666   1.608   2.261
 2354SOL    HW1 7961   3.659   1.510   2.243
 2354SOL    HW2 7962   3.576   1.651   2.249
 2355SOL     OW 7963   0.034   1.637   2.379
 2355SOL    HW1 7964   0.045   1.541   2.406
 2355SOL    HW2 7965   0.114   1.665   2.326
 2356SOL     OW 7966   3.889   5.006   4.162
 2356SOL    HW1 7967   3.926   4.955   4.240
 2356SOL    HW2 7968   3.943   5.089   4.148
 2357SOL     OW 7969   1.172   5.105   1.402
 2357SOL    HW1 7970   1.187   5.056   1.489
 2357SOL    HW2 7971   1.242   5.175   1.391
 2358SOL     OW 7972   2.078   0.535   5.418
 2358SOL    HW1 7973   2.121   0.527   5.508
 2358SOL    HW2 7974   2.148   0.530   5.347
 2359SOL     OW 7975   2.891   2.511   5.988
 2359SOL    HW1 7976   2.818   2.509   5.920
 2359SOL    HW2 7977   2.943   2.596   5.979
 2360SOL     OW 7978   3.456   4.872   0.960
 2360SOL    HW1 7979   3.371   4.851   0.910
 2360SOL    HW2 7980   3.527   4.897   0.894
 2361SOL     OW 7981   3.808   4.883   1.333
 2361SOL    HW1 7982   3.774   4.804   1.385
 2361SOL    HW2 7983   3.887   4.922   1.380
 2362SOL     OW 7984   2.655   4.702   4.552
 2362SOL    HW1 7985   2.665   4.685   4.650
 2362SOL    HW2 7986   2.571   4.660   4.520
 2363SOL     OW 7987   2.480   4.097   1.216
 2363SOL    HW1 7988   2.511   4.183   1.256
 2363SOL    HW2 7989   2.556   4.031   1.216
 2364SOL     OW 7990   5.176   0.838   2.660
 2364SOL    HW1 7991   5.080   0.813   2.655
 2364SOL    HW2 7992   5.185   0.937   2.664
 2365SOL     OW 7993   5.806   4.419   3.100
 2365SOL    HW1 7994   5.808   4.321   3.081
 2365SOL    HW2 7995   5.899   4.453   3.112
 2366SOL     OW 7996   3.423   4.910   4.870
 2366SOL    HW1 7997   3.428   4.825   4.922
 2366SOL    HW2 7998   3.515   4.937   4.842
 2367SOL     OW 7999   6.013   4.757   5.624
 2367SOL    HW1 8000   5.937   4.768   5.560
 2367SOL    HW2 8001   6.064   4.674   5.602
 2368SOL     OW 8002   5.063   0.353   5.277
 2368SOL    HW1 8003   5.016   0.439   5.295
 2368SOL    HW2 8004   4.997   0.279   5.272
 2369SOL     OW 8005   3.855   1.699   4.320
 2369SOL    HW1 8006   3.799   1.618   4.340
 2369SOL    HW2 8007   3.946   1.670   4.290
 2370SOL     OW 8008   4.085   2.252   1.131
 2370SOL    HW1 8009   4.039   2.214   1.212
 2370SOL    HW2 8010   4.153   2.319   1.160
 2371SOL     OW 8011   2.318   6.546   2.572
 2371SOL    HW1 8012   2.232   6.498   2.589
 2371SOL    HW2 8013   2.380   6.532   2.650
 2372SOL     OW 8014   6.475   6.999   5.562
 2372SOL    HW1 8015   6.412   0.012   5.629
 2372SOL    HW2 8016   6.457   6.901   5.554
 2373SOL     OW 8017   6.269   4.074   5.874
 2373SOL    HW1 8018   6.365   4.048   5.889
 2373SOL    HW2 8019   6.213   3.991   5.869
 2374SOL     OW 8020   6.774   5.916   2.527
 2374SOL    HW1 8021   6.796   5.824   2.494
 2374SOL    HW2 8022   6.826   5.983   2.474
 2375SOL     OW 8023   1.956   0.208   4.675
 2375SOL    HW1 8024   1.991   0.246   4.589
 2375SOL    HW2 8025   1.873   0.155   4.657
 2376SOL     OW 8026   5.577   3.329   4.035
 2376SOL    HW1 8027   5.654   3.284   3.990
 2376SOL    HW2 8028   5.518   3.371   3.966
 2377SOL     OW 8029   3.570   4.425   5.485
 2377SOL    HW1 8030   3.531   4.506   5.530
 2377SOL    HW2 8031   3.515   4.345   5.506
 2378SOL     OW 8032   1.153   1.111   0.568
 2378SOL    HW1 8033   1.057   1.085   0.562
 2378SOL    HW2 8034   1.178   1.125   0.664
 2379SOL     OW 8035   0.920   4.849   2.587
 2379SOL    HW1 8036   0.981   4.791   2.533
 2379SOL    HW2 8037   0.893   4.800   2.670
 2380SOL     OW 8038   4.513   5.366   6.664
 2380SOL    HW1 8039   4.457   5.316   6.730
 2380SOL    HW2 8040   4.566   5.436   6.711
 2381SOL     OW 8041   2.041   3.826   3.729
 2381SOL    HW1 8042   2.073   3.892   3.661
 2381SOL    HW2 8043   2.051   3.733   3.692
 2382SOL     OW 8044   6.067   6.373   2.502
 2382SOL    HW1 8045   6.082   6.287   2.454
 2382SOL    HW2 8046   6.027   6.440   2.439
 2383SOL     OW 8047   5.236   4.358   6.117
 2383SOL    HW1 8048   5.246   4.451   6.154
 2383SOL    HW2 8049   5.297   4.296   6.167
 2384SOL     OW 8050   0.775   2.352   3.282
 2384SOL    HW1 8051   0.783   2.376   3.185
 2384SOL    HW2 8052   0.862   2.318   3.315
 2385SOL     OW 8053   0.645   1.090   0.885
 2385SOL    HW1 8054   0.620   1.174   0.933
 2385SOL    HW2 8055   0.590   1.082   0.802
 2386SOL     OW 8056   6.671   5.116   5.685
 2386SOL    HW1 8057   6.580   5.131   5.646
 2386SOL    HW2 8058   6.684   5.176   5.764
 2387SOL     OW 8059   6.962   0.533   3.412
 2387SOL    HW1 8060   0.031   0.545   3.384
 2387SOL    HW2 8061   6.938   0.436   3.407
 2388SOL     OW 8062   1.819   3.595   4.659
 2388SOL    HW1 8063   1.863   3.663   4.600
 2388SOL    HW2 8064   1.745   3.638   4.710
 2389SOL     OW 8065   3.475   0.133   3.069
 2389SOL    HW1 8066   3.496   0.050   3.016
 2389SOL    HW2 8067   3.497   0.117   3.165
 2390SOL     OW 8068   5.111   2.805   5.467
 2390SOL    HW1 8069   5.146   2.755   5.387
 2390SOL    HW2 8070   5.014   2.825   5.454
 2391SOL     OW 8071   2.736   3.806   6.302
 2391SOL    HW1 8072   2.810   3.836   6.242
 2391SOL    HW2 8073   2.774   3.776   6.390
 2392SOL     OW 8074   4.333   5.128   5.870
 2392SOL    HW1 8075   4.256   5.191   5.865
 2392SOL    HW2 8076   4.350   5.105   5.966
 2393SOL     OW 8077   4.481   4.197   0.403
 2393SOL    HW1 8078   4.557   4.144   0.365
 2393SOL    HW2 8079   4.455   4.159   0.492
 2394SOL     OW 8080   6.918   2.856   3.154
 2394SOL    HW1 8081   6.919   2.756   3.145
 2394SOL    HW2 8082   6.825   2.890   3.140
 2395SOL     OW 8083   1.507   2.256   3.680
 2395SOL    HW1 8084   1.431   2.275   3.742
 2395SOL    HW2 8085   1.472   2.241   3.588
 2396SOL     OW 8086   0.457   0.345   6.384
 2396SOL    HW1 8087   0.528   0.292   6.431
 2396SOL    HW2 8088   0.455   0.438   6.420
 2397SOL     OW 8089   2.186   4.803   6.014
 2397SOL    HW1 8090   2.272   4.851   6.031
 2397SOL    HW2 8091   2.155   4.824   5.921
 2398SOL     OW 8092   3.718   6.210   4.629
 2398SOL    HW1 8093   3.659   6.190   4.550
 2398SOL    HW2 8094   3.667   6.194   4.713
 2399SOL     OW 8095   3.283   1.463   2.256
 2399SOL    HW1 8096   3.335   1.474   2.341
 2399SOL    HW2 8097   3.327   1.514   2.183
 2400SOL     OW 8098   1.008   2.280   0.101
 2400SOL    HW1 8099   0.946   2.235   0.165
 2400SOL    HW2 8100   0.974   2.373   0.082
 2401SOL     OW 8101   1.173   6.337   0.924
 2401SOL    HW1 8102   1.078   6.367   0.915
 2401SOL    HW2 8103   1.229   6.413   0.957
 2402SOL     OW 8104   0.686   3.364   2.398
 2402SOL    HW1 8105   0.699   3.417   2.481
 2402SOL    HW2 8106   0.627   3.286   2.417
 2403SOL     OW 8107   3.130   4.456   5.301
 2403SOL    HW1 8108   3.060   4.496   5.242
 2403SOL    HW2 8109   3.122   4.496   5.393
 2404SOL     OW 8110   6.299   2.210   2.040
 2404SOL    HW1 8111   6.277   2.211   1.942
 2404SOL    HW2 8112   6.253   2.132   2.083
 2405SOL     OW 8113   2.076   2.986   0.338
 2405SOL    HW1 8114   2.126   3.064   0.300
 2405SOL    HW2 8115   2.063   2.998   0.436
 2406SOL     OW 8116   4.344   5.928   5.126
 2406SOL    HW1 8117   4.255   5.973   5.118
 2406SOL    HW2 8118   4.341   5.861   5.200
 2407SOL     OW 8119   2.044   1.705   3.661
 2407SOL    HW1 8120   2.002   1.740   3.744
 2407SOL    HW2 8121   1.987   1.632   3.623
 2408SOL     OW 8122   4.711   6.865   5.267
 2408SOL    HW1 8123   4.699   6.773   5.229
 2408SOL    HW2 8124   4.700   6.933   5.194
 2409SOL     OW 8125   1.089   2.964   6.333
 2409SOL    HW1 8126   1.118   3.047   6.286
 2409SOL    HW2 8127   1.157   2.892   6.320
 2410SOL     OW 8128   6.886   3.888   4.381
 2410SOL    HW1 8129   6.922   3.808   4.334
 2410SOL    HW2 8130   6.815   3.931   4.325
 2411SOL     OW 8131   3.551   1.536   0.457
 2411SOL    HW1 8132   3.454   1.556   0.463
 2411SOL    HW2 8133   3.587   1.517   0.548
 2412SOL     OW 8134   3.396   2.625   6.636
 2412SOL    HW1 8135   3.379   2.582   6.725
 2412SOL    HW2 8136   3.399   2.724   6.647
 2413SOL     OW 8137   6.703   3.854   6.276
 2413SOL    HW1 8138   6.762   3.804   6.339
 2413SOL    HW2 8139   6.735   3.842   6.183
 2414SOL     OW 8140   6.470   1.527   4.690
 2414SOL    HW1 8141   6.488   1.589   4.766
 2414SOL    HW2 8142   6.502   1.569   4.605
 2415SOL     OW 8143   2.814   4.142   5.668
 2415SOL    HW1 8144   2.791   4.101   5.756
 2415SOL    HW2 8145   2.856   4.231   5.683
 2416SOL     OW 8146   6.987   3.660   3.942
 2416SOL    HW1 8147   6.932   3.741   3.920
 2416SOL    HW2 8148   0.057   3.685   3.942
 2417SOL     OW 8149   3.678   2.595   1.739
 2417SOL    HW1 8150   3.748   2.572   1.671
 2417SOL    HW2 8151   3.666   2.518   1.802
 2418SOL     OW 8152   6.126   3.359   6.483
 2418SOL    HW1 8153   6.111   3.416   6.564
 2418SOL    HW2 8154   6.213   3.310   6.492
 2419SOL     OW 8155   3.675   1.154   2.819
 2419SOL    HW1 8156   3.670   1.253   2.803
 2419SOL    HW2 8157   3.765   1.121   2.793
 2420SOL     OW 8158   0.895   3.271   1.783
 2420SOL    HW1 8159   0.921   3.274   1.687
 2420SOL    HW2 8160   0.880   3.175   1.810
 2421SOL     OW 8161   2.391   0.231   2.774
 2421SOL    HW1 8162   2.389   0.244   2.874
 2421SOL    HW2 8163   2.483   0.254   2.740
 2422SOL     OW 8164   3.778   6.602   0.334
 2422SOL    HW1 8165   3.785   6.535   0.408
 2422SOL    HW2 8166   3.809   6.691   0.367
 2423SOL     OW 8167   3.859   4.957   4.824
 2423SOL    HW1 8168   3.953   4.968   4.856
 2423SOL    HW2 8169   3.801   4.928   4.900
 2424SOL     OW 8170   5.450   0.294   6.162
 2424SOL    HW1 8171   5.355   0.311   6.137
 2424SOL    HW2 8172   5.454   0.232   6.241
 2425SOL     OW 8173   4.149   5.322   5.181
 2425SOL    HW1 8174   4.193   5.401   5.225
 2425SOL    HW2 8175   4.156   5.242   5.241
 2426SOL     OW 8176   2.984   2.389   5.341
 2426SOL    HW1 8177   2.980   2.486   5.364
 2426SOL    HW2 8178   3.070   2.368   5.294
 2427SOL     OW 8179   4.465   2.146   6.855
 2427SOL    HW1 8180   4.555   2.140   6.897
 2427SOL    HW2 8181   4.397   2.169   6.924
 2428SOL     OW 8182   1.800   2.005   2.318
 2428SOL    HW1 8183   1.862   2.076   2.285
 2428SOL    HW2 8184   1.706   2.038   2.310
 2429SOL     OW 8185   5.021   6.053   1.617
 2429SOL    HW1 8186   5.091   6.115   1.583
 2429SOL    HW2 8187   4.948   6.044   1.550
 2430SOL     OW 8188   6.962   0.301   0.199
 2430SOL    HW1 8189   6.958   0.386   0.250
 2430SOL    HW2 8190   0.012   0.246   0.232
 2431SOL     OW 8191   1.761   2.861   1.416
 2431SOL    HW1 8192   1.748   2.856   1.317
 2431SOL    HW2 8193   1.787   2.771   1.451
 2432SOL     OW 8194   3.037   6.155   2.311
 2432SOL    HW1 8195   2.969   6.162   2.385
 2432SOL    HW2 8196   3.044   6.060   2.281
 2433SOL     OW 8197   0.452   4.513   4.225
 2433SOL    HW1 8198   0.444   4.559   4.313
 2433SOL    HW2 8199   0.455   4.414   4.240
 2434SOL     OW 8200   4.022   1.781   2.479
 2434SOL    HW1 8201   4.078   1.853   2.439
 2434SOL    HW2 8202   4.007   1.801   2.576
 2435SOL     OW 8203   5.567   6.998   6.648
 2435SOL    HW1 8204   5.656   7.019   6.689
 2435SOL    HW2 8205   5.572   6.909   6.602
 2436SOL     OW 8206   6.899   2.616   0.878
 2436SOL    HW1 8207   6.953   2.532   0.869
 2436SOL    HW2 8208   6.863   2.641   0.788
 2437SOL     OW 8209   1.097   4.486   1.371
 2437SOL    HW1 8210   1.002   4.505   1.400
 2437SOL    HW2 8211   1.116   4.389   1.383
 2438SOL     OW 8212   3.641   1.830   4.203
 2438SOL    HW1 8213   3.720   1.785   4.245
 2438SOL    HW2 8214   3.650   1.929   4.213
 2439SOL     OW 8215   0.206   5.594   0.204
 2439SOL    HW1 8216   0.193   5.607   0.106
 2439SOL    HW2 8217   0.294   5.548   0.220
 2440SOL     OW 8218   6.356   2.613   5.306
 2440SOL    HW1 8219   6.285   2.648   5.367
 2440SOL    HW2 8220   6.335   2.639   5.211
 2441SOL     OW 8221   6.501   0.500   0.039
 2441SOL    HW1 8222   6.560   0.578   0.061
 2441SOL    HW2 8223   6.413   0.534   0.004
 2442SOL     OW 8224   5.496   3.061   2.474
 2442SOL    HW1 8225   5.513   3.104   2.562
 2442SOL    HW2 8226   5.583   3.040   2.429
 2443SOL     OW 8227   0.250   3.027   1.165
 2443SOL    HW1 8228   0.231   2.941   1.117
 2443SOL    HW2 8229   0.276   3.008   1.260
 2444SOL     OW 8230   3.719   4.923   2.754
 2444SOL    HW1 8231   3.665   5.007   2.754
 2444SOL    HW2 8232   3.760   4.910   2.664
 2445SOL     OW 8233   0.685   2.087   1.212
 2445SOL    HW1 8234   0.595   2.048   1.235
 2445SOL    HW2 8235   0.726   2.128   1.294
 2446SOL     OW 8236   6.571   5.489   1.034
 2446SOL    HW1 8237   6.608   5.570   0.988
 2446SOL    HW2 8238   6.624   5.408   1.006
 2447SOL     OW 8239   1.804   6.630   0.303
 2447SOL    HW1 8240   1.832   6.706   0.361
 2447SOL    HW2 8241   1.742   6.663   0.232
 2448SOL     OW 8242   5.936   0.989   4.036
 2448SOL    HW1 8243   5.991   1.026   3.961
 2448SOL    HW2 8244   5.869   0.924   4.000
 2449SOL     OW 8245   2.066   4.084   1.377
 2449SOL    HW1 8246   2.147   4.050   1.425
 2449SOL    HW2 8247   2.059   4.039   1.288
 2450SOL     OW 8248   0.028   6.622   5.203
 2450SOL    HW1 8249   0.075   6.558   5.142
 2450SOL    HW2 8250   0.073   6.711   5.199
 2451SOL     OW 8251   1.422   6.935   0.038
 2451SOL    HW1 8252   1.403   6.848   0.084
 2451SOL    HW2 8253   1.506   6.974   0.075
 2452SOL     OW 8254   2.474   1.984   3.546
 2452SOL    HW1 8255   2.423   1.972   3.461
 2452SOL    HW2 8256   2.415   1.961   3.624
 2453SOL     OW 8257   1.686   1.882   6.427
 2453SOL    HW1 8258   1.693   1.940   6.508
 2453SOL    HW2 8259   1.745   1.802   6.438
 2454SOL     OW 8260   2.930   6.787   0.058
 2454SOL    HW1 8261   2.883   6.865   0.016
 2454SOL    HW2 8262   3.020   6.816   0.090
 2455SOL     OW 8263   4.594   2.442   0.022
 2455SOL    HW1 8264   4.522   2.505   7.020
 2455SOL    HW2 8265   4.554   2.365   0.070
 2456SOL     OW 8266   0.421   3.211   6.220
 2456SOL    HW1 8267   0.480   3.134   6.244
 2456SOL    HW2 8268   0.392   3.202   6.125
 2457SOL     OW 8269   4.979   1.304   6.044
 2457SOL    HW1 8270   5.072   1.314   6.010
 2457SOL    HW2 8271   4.947   1.391   6.082
 2458SOL     OW 8272   0.886   0.332   2.374
 2458SOL    HW1 8273   0.908   0.353   2.279
 2458SOL    HW2 8274   0.821   0.256   2.377
 2459SOL     OW 8275   1.565   6.525   1.694
 2459SOL    HW1 8276   1.606   6.461   1.629
 2459SOL    HW2 8277   1.502   6.475   1.754
 2460SOL     OW 8278   0.111   0.333   4.050
 2460SOL    HW1 8279   0.013   0.348   4.035
 2460SOL    HW2 8280   0.123   0.281   4.135
 2461SOL     OW 8281   2.650   0.986   3.243
 2461SOL    HW1 8282   2.658   0.892   3.279
 2461SOL    HW2 8283   2.678   1.051   3.314
 2462SOL     OW 8284   6.857   6.459   0.956
 2462SOL    HW1 8285   6.806   6.381   0.919
 2462SOL    HW2 8286   6.844   6.463   1.055
 2463SOL     OW 8287   0.055   6.794   0.751
 2463SOL    HW1 8288   0.065   6.707   0.799
 2463SOL    HW2 8289   0.055   6.778   0.652
 2464SOL     OW 8290   0.841   2.489   4.828
 2464SOL    HW1 8291   0.776   2.416   4.848
 2464SOL    HW2 8292   0.812   2.537   4.745
 2465SOL     OW 8293   6.397   1.477   0.072
 2465SOL    HW1 8294   6.479   1.531   0.090
 2465SOL    HW2 8295   6.317   1.537   0.068
 2466SOL     OW 8296   1.178   2.226   1.092
 2466SOL    HW1 8297   1.260   2.264   1.133
 2466SOL    HW2 8298   1.112   2.299   1.076
 2467SOL     OW 8299   5.167   2.157   5.372
 2467SOL    HW1 8300   5.198   2.062   5.374
 2467SOL    HW2 8301   5.086   2.165   5.314
 2468SOL     OW 8302   3.040   0.175   5.076
 2468SOL    HW1 8303   2.995   0.093   5.042
 2468SOL    HW2 8304   3.138   0.169   5.060
 2469SOL     OW 8305   2.960   2.092   6.089
 2469SOL    HW1 8306   3.034   2.032   6.060
 2469SOL    HW2 8307   2.996   2.183   6.110
 2470SOL     OW 8308   2.000   5.401   6.372
 2470SOL    HW1 8309   1.946   5.366   6.449
 2470SOL    HW2 8310   2.076   5.339   6.355
 2471SOL     OW 8311   3.477   5.819   3.041
 2471SOL    HW1 8312   3.407   5.889   3.028
 2471SOL    HW2 8313   3.434   5.729   3.049
 2472SOL     OW 8314   5.086   1.675   2.864
 2472SOL    HW1 8315   5.091   1.660   2.765
 2472SOL    HW2 8316   5.046   1.765   2.882
 2473SOL     OW 8317   0.786   4.180   4.604
 2473SOL    HW1 8318   0.871   4.140   4.571
 2473SOL    HW2 8319   0.712   4.112   4.599
 2474SOL     OW 8320   1.601   6.111   0.935
 2474SOL    HW1 8321   1.546   6.125   0.853
 2474SOL    HW2 8322   1.549   6.058   1.002
 2475SOL     OW 8323   5.715   2.067   1.098
 2475SOL    HW1 8324   5.764   1.980   1.092
 2475SOL    HW2 8325   5.643   2.070   1.029
 2476SOL     OW 8326   4.633   0.067   0.087
 2476SOL    HW1 8327   4.679   0.149   0.051
 2476SOL    HW2 8328   4.698   7.018   0.091
 2477SOL     OW 8329   3.749   1.174   3.436
 2477SOL    HW1 8330   3.797   1.261   3.425
 2477SOL    HW2 8331   3.807   1.110   3.488
 2478SOL     OW 8332   3.361   0.354   4.604
 2478SOL    HW1 8333   3.459   0.339   4.598
 2478SOL    HW2 8334   3.328   0.398   4.520
 2479SOL     OW 8335   5.536   4.158   1.266
 2479SOL    HW1 8336   5.463   4.111   1.315
 2479SOL    HW2 8337   5.503   4.248   1.235
 2480SOL     OW 8338   3.055   2.498   1.416
 2480SOL    HW1 8339   3.058   2.483   1.515
 2480SOL    HW2 8340   3.006   2.583   1.397
 2481SOL     OW 8341   3.375   6.985   1.986
 2481SOL    HW1 8342   3.315   6.977   1.907
 2481SOL    HW2 8343   3.393   6.893   2.023
 2482SOL     OW 8344   6.885   2.835   0.200
 2482SOL    HW1 8345   6.844   2.744   0.205
 2482SOL    HW2 8346   6.941   2.842   0.118
 2483SOL     OW 8347   2.719   2.174   1.597
 2483SOL    HW1 8348   2.728   2.187   1.696
 2483SOL    HW2 8349   2.630   2.133   1.577
 2484SOL     OW 8350   4.170   0.303   6.615
 2484SOL    HW1 8351   4.190   0.400   6.604
 2484SOL    HW2 8352   4.191   0.274   6.708
 2485SOL     OW 8353   0.317   1.671   6.218
 2485SOL    HW1 8354   0.277   1.582   6.235
 2485SOL    HW2 8355   0.252   1.728   6.168
 2486SOL     OW 8356   6.763   5.969   3.202
 2486SOL    HW1 8357   6.816   6.023   3.267
 2486SOL    HW2 8358   6.824   5.906   3.153
 2487SOL     OW 8359   4.685   6.109   0.215
 2487SOL    HW1 8360   4.666   6.037   0.281
 2487SOL    HW2 8361   4.695   6.069   0.124
 2488SOL     OW 8362   6.895   3.931   1.019
 2488SOL    HW1 8363   6.841   3.947   0.937
 2488SOL    HW2 8364   6.864   3.847   1.064
 2489SOL     OW 8365   6.028   5.370   4.702
 2489SOL    HW1 8366   6.000   5.464   4.681
 2489SOL    HW2 8367   6.091   5.371   4.780
 2490SOL     OW 8368   2.663   5.692   2.118
 2490SOL    HW1 8369   2.703   5.664   2.206
 2490SOL    HW2 8370   2.587   5.754   2.135
 2491SOL     OW 8371   3.982   4.537   1.698
 2491SOL    HW1 8372   3.955   4.442   1.715
 2491SOL    HW2 8373   3.980   4.555   1.599
 2492SOL     OW 8374   0.116   5.625   1.154
 2492SOL    HW1 8375   0.021   5.628   1.186
 2492SOL    HW2 8376   0.149   5.718   1.137
 2493SOL     OW 8377   5.762   6.458   0.504
 2493SOL    HW1 8378   5.788   6.398   0.428
 2493SOL    HW2 8379   5.816   6.434   0.585
 2494SOL     OW 8380   6.579   4.108   1.071
 2494SOL    HW1 8381   6.516   4.143   1.141
 2494SOL    HW2 8382   6.597   4.180   1.004
 2495SOL     OW 8383   6.890   3.419   2.099
 2495SOL    HW1 8384   6.850   3.510   2.103
 2495SOL    HW2 8385   6.832   3.360   2.043
 2496SOL     OW 8386   5.762   4.146   6.548
 2496SOL    HW1 8387   5.834   4.154   6.617
 2496SOL    HW2 8388   5.803   4.126   6.459
 2497SOL     OW 8389   0.392   6.989   3.038
 2497SOL    HW1 8390   0.471   6.985   2.976
 2497SOL    HW2 8391   0.323   6.924   3.007
 2498SOL     OW 8392   1.900   3.281   4.532
 2498SOL    HW1 8393   1.984   3.227   4.540
 2498SOL    HW2 8394   1.886   3.333   4.617
 2499SOL     OW 8395   5.942   3.696   2.383
 2499SOL    HW1 8396   6.010   3.750   2.333
 2499SOL    HW2 8397   5.881   3.651   2.318
 2500SOL     OW 8398   3.395   3.297   2.299
 2500SOL    HW1 8399   3.384   3.246   2.214
 2500SOL    HW2 8400   3.444   3.382   2.281
 2501SOL     OW 8401   6.052   5.637   5.472
 2501SOL    HW1 8402   6.147   5.656   5.448
 2501SOL    HW2 8403   6.034   5.539   5.463
 2502SOL     OW 8404   2.519   5.420   3.956
 2502SOL    HW1 8405   2.618   5.424   3.967
 2502SOL    HW2 8406   2.477   5.503   3.994
 2503SOL     OW 8407   2.306   0.107   5.392
 2503SOL    HW1 8408   2.363   0.036   5.351
 2503SOL    HW2 8409   2.277   0.078   5.484
 2504SOL     OW 8410   3.758   0.173   3.263
 2504SOL    HW1 8411   3.684   0.241   3.262
 2504SOL    HW2 8412   3.783   0.152   3.357
 2505SOL     OW 8413   6.074   4.536   4.038
 2505SOL    HW1 8414   5.987   4.503   4.076
 2505SOL    HW2 8415   6.135   4.458   4.023
 2506SOL     OW 8416   6.378   5.423   6.661
 2506SOL    HW1 8417   6.294   5.380   6.627
 2506SOL    HW2 8418   6.456   5.390   6.607
 2507SOL     OW 8419   6.501   3.273   3.344
 2507SOL    HW1 8420   6.447   3.200   3.385
 2507SOL    HW2 8421   6.443   3.327   3.283
 2508SOL     OW 8422   6.232   0.682   3.887
 2508SOL    HW1 8423   6.191   0.705   3.799
 2508SOL    HW2 8424   6.159   0.672   3.956
 2509SOL     OW 8425   0.045   3.131   6.408
 2509SOL    HW1 8426   0.101   3.114   6.327
 2509SOL    HW2 8427   0.079   3.212   6.456
 2510SOL     OW 8428   3.528   3.779   2.352
 2510SOL    HW1 8429   3.463   3.817   2.419
 2510SOL    HW2 8430   3.599   3.847   2.332
 2511SOL     OW 8431   1.949   0.810   4.504
 2511SOL    HW1 8432   1.915   0.847   4.417
 2511SOL    HW2 8433   1.941   0.879   4.575
 2512SOL     OW 8434   3.815   4.907   3.911
 2512SOL    HW1 8435   3.718   4.889   3.924
 2512SOL    HW2 8436   3.857   4.932   3.998
 2513SOL     OW 8437   1.962   5.719   6.558
 2513SOL    HW1 8438   1.921   5.809   6.576
 2513SOL    HW2 8439   1.928   5.653   6.625
 2514SOL     OW 8440   1.783   1.791   2.730
 2514SOL    HW1 8441   1.869   1.742   2.714
 2514SOL    HW2 8442   1.765   1.795   2.828
 2515SOL     OW 8443   0.185   2.066   0.999
 2515SOL    HW1 8444   0.111   2.117   1.041
 2515SOL    HW2 8445   0.273   2.107   1.024
 2516SOL     OW 8446   6.417   2.455   5.004
 2516SOL    HW1 8447   6.350   2.384   4.981
 2516SOL    HW2 8448   6.373   2.545   5.003
 2517SOL     OW 8449   0.532   1.313   4.150
 2517SOL    HW1 8450   0.462   1.371   4.192
 2517SOL    HW2 8451   0.528   1.221   4.191
 2518SOL     OW 8452   2.715   3.944   1.229
 2518SOL    HW1 8453   2.656   3.866   1.206
 2518SOL    HW2 8454   2.767   3.971   1.148
 2519SOL     OW 8455   1.154   1.151   0.859
 2519SOL    HW1 8456   1.147   1.240   0.815
 2519SOL    HW2 8457   1.172   1.163   0.957
 2520SOL     OW 8458   2.659   2.824   0.701
 2520SOL    HW1 8459   2.674   2.904   0.759
 2520SOL    HW2 8460   2.665   2.852   0.605
 2521SOL     OW 8461   4.943   0.493   5.069
 2521SOL    HW1 8462   4.976   0.585   5.089
 2521SOL    HW2 8463   4.857   0.477   5.119
 2522SOL     OW 8464   1.161   2.031   6.824
 2522SOL    HW1 8465   1.218   2.045   6.905
 2522SOL    HW2 8466   1.142   1.933   6.814
 2523SOL     OW 8467   1.014   5.666   6.090
 2523SOL    HW1 8468   0.942   5.733   6.106
 2523SOL    HW2 8469   1.071   5.696   6.013
 2524SOL     OW 8470   1.136   1.836   5.049
 2524SOL    HW1 8471   1.062   1.897   5.076
 2524SOL    HW2 8472   1.100   1.761   4.994
 2525SOL     OW 8473   6.195   2.891   5.880
 2525SOL    HW1 8474   6.165   2.880   5.785
 2525SOL    HW2 8475   6.295   2.891   5.883
 2526SOL     OW 8476   1.653   0.758   0.679
 2526SOL    HW1 8477   1.561   0.728   0.657
 2526SOL    HW2 8478   1.661   0.857   0.662
 2527SOL     OW 8479   4.034   4.790   6.651
 2527SOL    HW1 8480   4.017   4.759   6.744
 2527SOL    HW2 8481   3.980   4.735   6.587
 2528SOL     OW 8482   4.679   5.568   6.508
 2528SOL    HW1 8483   4.641   5.488   6.460
 2528SOL    HW2 8484   4.748   5.612   6.450
 2529SOL     OW 8485   0.583   6.327   5.758
 2529SOL    HW1 8486   0.620   6.285   5.841
 2529SOL    HW2 8487   0.499   6.375   5.780
 2530SOL     OW 8488   2.699   6.179   6.638
 2530SOL    HW1 8489   2.621   6.221   6.684
 2530SOL    HW2 8490   2.771   6.159   6.705
 2531SOL     OW 8491   0.151   4.970   6.315
 2531SOL    HW1 8492   0.244   4.994   6.342
 2531SOL    HW2 8493   0.128   4.880   6.351
 2532SOL     OW 8494   5.489   5.680   1.877
 2532SOL    HW1 8495   5.403   5.676   1.927
 2532SOL    HW2 8496   5.562   5.642   1.934
 2533SOL     OW 8497   4.488   1.074   3.815
 2533SOL    HW1 8498   4.424   1.001   3.838
 2533SOL    HW2 8499   4.447   1.162   3.838
 2534SOL     OW 8500   4.268   1.640   2.484
 2534SOL    HW1 8501   4.188   1.697   2.502
 2534SOL    HW2 8502   4.259   1.598   2.393
 2535SOL     OW 8503   3.895   2.866   6.132
 2535SOL    HW1 8504   3.937   2.944   6.086
 2535SOL    HW2 8505   3.957   2.787   6.129
 2536SOL     OW 8506   1.318   0.158   0.788
 2536SOL    HW1 8507   1.276   0.217   0.857
 2536SOL    HW2 8508   1.292   0.063   0.805
 2537SOL     OW 8509   3.928   6.735   5.495
 2537SOL    HW1 8510   3.951   6.829   5.470
 2537SOL    HW2 8511   3.936   6.676   5.415
 2538SOL     OW 8512   6.018   3.900   3.777
 2538SOL    HW1 8513   6.098   3.923   3.722
 2538SOL    HW2 8514   6.018   3.802   3.797
 2539SOL     OW 8515   4.651   2.453   5.248
 2539SOL    HW1 8516   4.604   2.528   5.200
 2539SOL    HW2 8517   4.663   2.376   5.185
 2540SOL     OW 8518   3.000   2.083   1.542
 2540SOL    HW1 8519   2.933   2.139   1.592
 2540SOL    HW2 8520   2.951   2.018   1.483
 2541SOL     OW 8521   3.333   6.918   3.578
 2541SOL    HW1 8522   3.343   6.821   3.559
 2541SOL    HW2 8523   3.341   6.934   3.676
 2542SOL     OW 8524   1.799   5.806   5.922
 2542SOL    HW1 8525   1.715   5.800   5.976
 2542SOL    HW2 8526   1.810   5.723   5.868
 2543SOL     OW 8527   0.434   0.762   4.057
 2543SOL    HW1 8528   0.515   0.767   4.116
 2543SOL    HW2 8529   0.460   0.728   3.967
 2544SOL     OW 8530   0.608   5.300   6.283
 2544SOL    HW1 8531   0.672   5.299   6.360
 2544SOL    HW2 8532   0.623   5.382   6.228
 2545SOL     OW 8533   2.510   5.783   3.454
 2545SOL    HW1 8534   2.421   5.800   3.413
 2545SOL    HW2 8535   2.570   5.737   3.388
 2546SOL     OW 8536   6.981   0.920   1.591
 2546SOL    HW1 8537   6.897   0.866   1.586
 2546SOL    HW2 8538   6.989   0.977   1.510
 2547SOL     OW 8539   0.477   3.379   5.243
 2547SOL    HW1 8540   0.454   3.354   5.337
 2547SOL    HW2 8541   0.533   3.462   5.243
 2548SOL     OW 8542   1.011   0.478   6.215
 2548SOL    HW1 8543   1.021   0.391   6.167
 2548SOL    HW2 8544   1.026   0.553   6.151
 2549SOL     OW 8545   5.889   2.954   2.281
 2549SOL    HW1 8546   5.825   3.023   2.315
 2549SOL    HW2 8547   5.848   2.905   2.204
 2550SOL     OW 8548   5.735   5.325   6.879
 2550SOL    HW1 8549   5.641   5.314   6.846
 2550SOL    HW2 8550   5.741   5.295   6.974
 2551SOL     OW 8551   1.048   5.101   0.222
 2551SOL    HW1 8552   0.951   5.083   0.237
 2551SOL    HW2 8553   1.085   5.034   0.158
 2552SOL     OW 8554   1.719   5.769   3.331
 2552SOL    HW1 8555   1.624   5.742   3.314
 2552SOL    HW2 8556   1.781   5.698   3.296
 2553SOL     OW 8557   4.052   3.702   6.844
 2553SOL    HW1 8558   4.131   3.749   6.884
 2553SOL    HW2 8559   4.061   3.702   6.744
 2554SOL     OW 8560   1.312   2.270   0.434
 2554SOL    HW1 8561   1.222   2.309   0.456
 2554SOL    HW2 8562   1.308   2.171   0.442
 2555SOL     OW 8563   0.316   0.082   6.425
 2555SOL    HW1 8564   0.283   0.024   6.351
 2555SOL    HW2 8565   0.351   0.168   6.387
 2556SOL     OW 8566   3.966   4.760   0.089
 2556SOL    HW1 8567   3.894   4.715   0.142
 2556SOL    HW2 8568   4.052   4.710   0.100
 2557SOL     OW 8569   1.677   4.748   6.743
 2557SOL    HW1 8570   1.620   4.812   6.794
 2557SOL    HW2 8571   1.738   4.700   6.806
 2558SOL     OW 8572   4.314   0.709   5.333
 2558SOL    HW1 8573   4.245   0.636   5.333
 2558SOL    HW2 8574   4.394   0.679   5.386
 2559SOL     OW 8575   0.519   4.819   5.171
 2559SOL    HW1 8576   0.487   4.889   5.235
 2559SOL    HW2 8577   0.465   4.736   5.183
 2560SOL     OW 8578   6.139   0.960   0.287
 2560SOL    HW1 8579   6.168   0.895   0.217
 2560SOL    HW2 8580   6.182   0.936   0.374
 2561SOL     OW 8581   3.163   6.000   3.901
 2561SOL    HW1 8582   3.136   6.057   3.823
 2561SOL    HW2 8583   3.087   5.992   3.964
 2562SOL     OW 8584   2.112   3.802   0.112
 2562SOL    HW1 8585   2.055   3.884   0.107
 2562SOL    HW2 8586   2.076   3.740   0.181
 2563SOL     OW 8587   1.241   0.628   1.621
 2563SOL    HW1 8588   1.340   0.641   1.610
 2563SOL    HW2 8589   1.198   0.715   1.644
 2564SOL     OW 8590   1.540   6.662   2.738
 2564SOL    HW1 8591   1.443   6.681   2.726
 2564SOL    HW2 8592   1.588   6.745   2.766
 2565SOL     OW 8593   0.518   0.952   1.641
 2565SOL    HW1 8594   0.539   0.903   1.726
 2565SOL    HW2 8595   0.481   1.042   1.664
 2566SOL     OW 8596   1.973   6.998   5.249
 2566SOL    HW1 8597   1.944   6.945   5.169
 2566SOL    HW2 8598   2.019   6.938   5.314
 2567SOL     OW 8599   1.006   0.646   0.611
 2567SOL    HW1 8600   1.046   0.562   0.575
 2567SOL    HW2 8601   1.073   0.692   0.670
 2568SOL     OW 8602   5.117   3.715   0.025
 2568SOL    HW1 8603   5.106   3.662   0.109
 2568SOL    HW2 8604   5.202   3.767   0.030
 2569SOL     OW 8605   2.376   0.499   2.529
 2569SOL    HW1 8606   2.441   0.422   2.532
 2569SOL    HW2 8607   2.376   0.545   2.618
 2570SOL     OW 8608   5.275   2.134   5.948
 2570SOL    HW1 8609   5.240   2.218   5.989
 2570SOL    HW2 8610   5.316   2.077   6.020
 2571SOL     OW 8611   0.737   3.852   4.663
 2571SOL    HW1 8612   0.789   3.897   4.736
 2571SOL    HW2 8613   0.801   3.811   4.598
 2572SOL     OW 8614   1.817   4.546   3.611
 2572SOL    HW1 8615   1.805   4.542   3.511
 2572SOL    HW2 8616   1.757   4.479   3.654
 2573SOL     OW 8617   1.650   6.985   0.197
 2573SOL    HW1 8618   1.744   6.992   0.231
 2573SOL    HW2 8619   1.587   7.003   0.273
 2574SOL     OW 8620   6.486   3.649   0.555
 2574SOL    HW1 8621   6.575   3.609   0.579
 2574SOL    HW2 8622   6.486   3.747   0.575
 2575SOL     OW 8623   0.635   6.453   6.347
 2575SOL    HW1 8624   0.610   6.511   6.424
 2575SOL    HW2 8625   0.733   6.463   6.328
 2576SOL     OW 8626   4.126   6.572   5.065
 2576SOL    HW1 8627   4.131   6.630   4.984
 2576SOL    HW2 8628   4.141   6.476   5.038
 2577SOL     OW 8629   1.551   3.554   2.671
 2577SOL    HW1 8630   1.528   3.614   2.747
 2577SOL    HW2 8631   1.627   3.594   2.619
 2578SOL     OW 8632   4.285   1.838   2.167
 2578SOL    HW1 8633   4.331   1.750   2.157
 2578SOL    HW2 8634   4.349   1.905   2.206
 2579SOL     OW 8635   0.154   6.272   2.893
 2579SOL    HW1 8636   0.224   6.227   2.948
 2579SOL    HW2 8637   0.179   6.368   2.879
 2580SOL     OW 8638   2.715   1.615   5.579
 2580SOL    HW1 8639   2.638   1.610   5.643
 2580SOL    HW2 8640   2.681   1.616   5.485
 2581SOL     OW 8641   3.131   0.365   5.814
 2581SOL    HW1 8642   3.114   0.301   5.888
 2581SOL    HW2 8643   3.112   0.321   5.726
 2582SOL     OW 8644   0.011   3.688   1.133
 2582SOL    HW1 8645   0.044   3.594   1.127
 2582SOL    HW2 8646   7.023   3.712   1.229
 2583SOL     OW 8647   5.212   0.313   1.026
 2583SOL    HW1 8648   5.145   0.375   0.987
 2583SOL    HW2 8649   5.273   0.280   0.954
 2584SOL     OW 8650   3.567   4.169   6.575
 2584SOL    HW1 8651   3.665   4.152   6.581
 2584SOL    HW2 8652   3.524   4.149   6.663
 2585SOL     OW 8653   2.648   5.178   0.266
 2585SOL    HW1 8654   2.699   5.256   0.304
 2585SOL    HW2 8655   2.558   5.208   0.236
 2586SOL     OW 8656   2.708   1.029   3.869
 2586SOL    HW1 8657   2.760   1.060   3.948
 2586SOL    HW2 8658   2.733   0.935   3.847
 2587SOL     OW 8659   5.964   1.038   4.815
 2587SOL    HW1 8660   6.055   1.033   4.856
 2587SOL    HW2 8661   5.922   0.948   4.813
 2588SOL     OW 8662   4.346   0.796   6.851
 2588SOL    HW1 8663   4.384   0.827   6.938
 2588SOL    HW2 8664   4.353   0.870   6.784
 2589SOL     OW 8665   1.607   6.183   0.375
 2589SOL    HW1 8666   1.680   6.250   0.360
 2589SOL    HW2 8667   1.580   6.143   0.288
 2590SOL     OW 8668   2.658   5.618   0.187
 2590SOL    HW1 8669   2.615   5.595   0.274
 2590SOL    HW2 8670   2.639   5.713   0.163
 2591SOL     OW 8671   5.131   6.078   3.129
 2591SOL    HW1 8672   5.107   6.165   3.173
 2591SOL    HW2 8673   5.210   6.092   3.069
 2592SOL     OW 8674   2.900   3.378   0.878
 2592SOL    HW1 8675   2.954   3.312   0.931
 2592SOL    HW2 8676   2.863   3.448   0.939
 2593SOL     OW 8677   3.513   4.502   6.908
 2593SOL    HW1 8678   3.527   4.598   6.933
 2593SOL    HW2 8679   3.456   4.498   6.826
 2594SOL     OW 8680   2.169   3.309   3.532
 2594SOL    HW1 8681   2.104   3.320   3.607
 2594SOL    HW2 8682   2.191   3.212   3.521
 2595SOL     OW 8683   2.025   1.047   2.934
 2595SOL    HW1 8684   2.012   1.145   2.948
 2595SOL    HW2 8685   2.044   1.030   2.838
 2596SOL     OW 8686   0.116   1.937   0.540
 2596SOL    HW1 8687   0.058   1.912   0.617
 2596SOL    HW2 8688   0.157   1.855   0.500
 2597SOL     OW 8689   6.545   6.308   0.606
 2597SOL    HW1 8690   6.617   6.354   0.553
 2597SOL    HW2 8691   6.457   6.348   0.584
 2598SOL     OW 8692   4.699   2.690   2.009
 2598SOL    HW1 8693   4.785   2.660   2.048
 2598SOL    HW2 8694   4.685   2.787   2.028
 2599SOL     OW 8695   2.521   5.779   2.527
 2599SOL    HW1 8696   2.449   5.801   2.593
 2599SOL    HW2 8697   2.567   5.695   2.555
 2600SOL     OW 8698   6.010   4.147   4.363
 2600SOL    HW1 8699   6.027   4.245   4.370
 2600SOL    HW2 8700   5.978   4.126   4.271
 2601SOL     OW 8701   6.919   1.315   4.317
 2601SOL    HW1 8702   6.851   1.241   4.312
 2601SOL    HW2 8703   6.979   1.300   4.395
 2602SOL     OW 8704   1.162   4.846   2.789
 2602SOL    HW1 8705   1.202   4.877   2.703
 2602SOL    HW2 8706   1.077   4.897   2.806
 2603SOL     OW 8707   1.857   5.770   1.863
 2603SOL    HW1 8708   1.882   5.808   1.952
 2603SOL    HW2 8709   1.861   5.841   1.794
 2604SOL     OW 8710   4.951   3.088   3.338
 2604SOL    HW1 8711   4.916   3.038   3.259
 2604SOL    HW2 8712   4.946   3.029   3.419
 2605SOL     OW 8713   1.387   2.843   1.229
 2605SOL    HW1 8714   1.334   2.789   1.164
 2605SOL    HW2 8715   1.479   2.804   1.237
 2606SOL     OW 8716   5.026   4.049   0.938
 2606SOL    HW1 8717   5.119   4.017   0.957
 2606SOL    HW2 8718   4.960   3.990   0.984
 2607SOL     OW 8719   2.505   2.966   1.454
 2607SOL    HW1 8720   2.550   2.886   1.414
 2607SOL    HW2 8721   2.456   3.016   1.383
 2608SOL     OW 8722   3.222   5.273   4.725
 2608SOL    HW1 8723   3.277   5.232   4.797
 2608SOL    HW2 8724   3.158   5.206   4.688
 2609SOL     OW 8725   0.339   1.899   1.569
 2609SOL    HW1 8726   0.400   1.888   1.648
 2609SOL    HW2 8727   0.263   1.835   1.577
 2610SOL     OW 8728   1.275   4.376   4.759
 2610SOL    HW1 8729   1.187   4.405   4.721
 2610SOL    HW2 8730   1.274   4.389   4.858
 2611SOL     OW 8731   5.723   0.769   5.519
 2611SOL    HW1 8732   5.808   0.822   5.512
 2611SOL    HW2 8733   5.739   0.688   5.575
 2612SOL     OW 8734   6.688   6.414   0.389
 2612SOL    HW1 8735   6.708   6.511   0.382
 2612SOL    HW2 8736   6.723   6.367   0.308
 2613SOL     OW 8737   1.481   6.551   0.453
 2613SOL    HW1 8738   1.514   6.469   0.498
 2613SOL    HW2 8739   1.536   6.629   0.480
 2614SOL     OW 8740   5.520   2.062   0.895
 2614SOL    HW1 8741   5.455   2.112   0.838
 2614SOL    HW2 8742   5.472   1.989   0.945
 2615SOL     OW 8743   1.040   3.433   6.414
 2615SOL    HW1 8744   0.972   3.506   6.410
 2615SOL    HW2 8745   0.994   3.345   6.425
 2616SOL     OW 8746   1.227   0.846   4.396
 2616SOL    HW1 8747   1.318   0.878   4.368
 2616SOL    HW2 8748   1.236   0.785   4.475
 2617SOL     OW 8749   5.121   0.104   0.275
 2617SOL    HW1 8750   5.154   0.018   0.312
 2617SOL    HW2 8751   5.146   0.179   0.337
 2618SOL     OW 8752   1.225   0.497   0.006
 2618SOL    HW1 8753   1.148   0.529   6.978
 2618SOL    HW2 8754   1.194   0.429   0.072
 2619SOL     OW 8755   4.929   1.416   2.880
 2619SOL    HW1 8756   4.863   1.464   2.823
 2619SOL    HW2 8757   5.019   1.459   2.872
 2620SOL     OW 8758   5.815   2.409   2.385
 2620SOL    HW1 8759   5.875   2.346   2.335
 2620SOL    HW2 8760   5.733   2.428   2.330
 2621SOL     OW 8761   2.763   6.439   1.240
 2621SOL    HW1 8762   2.706   6.392   1.173
 2621SOL    HW2 8763   2.776   6.534   1.212
 2622SOL     OW 8764   2.615   3.681   6.747
 2622SOL    HW1 8765   2.593   3.731   6.831
 2622SOL    HW2 8766   2.694   3.725   6.703
 2623SOL     OW 8767   6.906   1.271   3.647
 2623SOL    HW1 8768   6.817   1.312   3.625
 2623SOL    HW2 8769   6.939   1.219   3.569
 2624SOL     OW 8770   1.489   1.784   5.755
 2624SOL    HW1 8771   1.576   1.757   5.795
 2624SOL    HW2 8772   1.500   1.871   5.706
 2625SOL     OW 8773   3.025   5.413   5.697
 2625SOL    HW1 8774   3.041   5.512   5.702
 2625SOL    HW2 8775   2.947   5.389   5.754
 2626SOL     OW 8776   0.088   6.817   0.425
 2626SOL    HW1 8777   0.058   6.904   0.386
 2626SOL    HW2 8778   0.188   6.813   0.421
 2627SOL     OW 8779   2.205   0.525   5.647
 2627SOL    HW1 8780   2.173   0.447   5.702
 2627SOL    HW2 8781   2.227   0.601   5.708
 2628SOL     OW 8782   0.252   5.394   1.115
 2628SOL    HW1 8783   0.207   5.476   1.151
 2628SOL    HW2 8784   0.344   5.386   1.155
 2629SOL     OW 8785   3.330   4.072   3.177
 2629SOL    HW1 8786   3.242   4.079   3.129
 2629SOL    HW2 8787   3.320   4.111   3.269
 2630SOL     OW 8788   3.406   0.526   5.068
 2630SOL    HW1 8789   3.350   0.503   4.988
 2630SOL    HW2 8790   3.407   0.448   5.131
 2631SOL     OW 8791   4.597   5.892   0.364
 2631SOL    HW1 8792   4.677   5.891   0.424
 2631SOL    HW2 8793   4.564   5.799   0.351
 2632SOL     OW 8794   5.430   5.124   1.988
 2632SOL    HW1 8795   5.341   5.165   1.970
 2632SOL    HW2 8796   5.497   5.197   2.006
 2633SOL     OW 8797   0.213   3.245   5.748
 2633SOL    HW1 8798   0.173   3.318   5.692
 2633SOL    HW2 8799   0.164   3.160   5.730
 2634SOL     OW 8800   1.796   1.922   6.140
 2634SOL    HW1 8801   1.746   1.962   6.064
 2634SOL    HW2 8802   1.742   1.930   6.224
 2635SOL     OW 8803   3.968   5.101   2.900
 2635SOL    HW1 8804   3.887   5.151   2.934
 2635SOL    HW2 8805   3.952   5.003   2.909
 2636SOL     OW 8806   3.387   6.361   6.230
 2636SOL    HW1 8807   3.451   6.293   6.192
 2636SOL    HW2 8808   3.296   6.346   6.192
 2637SOL     OW 8809   0.267   1.929   3.043
 2637SOL    HW1 8810   0.261   1.851   3.105
 2637SOL    HW2 8811   0.215   1.911   2.960
 2638SOL     OW 8812   0.627   6.268   4.465
 2638SOL    HW1 8813   0.588   6.331   4.533
 2638SOL    HW2 8814   0.554   6.212   4.426
 2639SOL     OW 8815   4.984   5.463   4.976
 2639SOL    HW1 8816   4.934   5.381   4.948
 2639SOL    HW2 8817   4.936   5.544   4.943
 2640SOL     OW 8818   2.171   0.924   3.149
 2640SOL    HW1 8819   2.114   0.963   3.077
 2640SOL    HW2 8820   2.131   0.946   3.238
 2641SOL     OW 8821   5.302   1.925   0.064
 2641SOL    HW1 8822   5.233   1.889   0.126
 2641SOL    HW2 8823   5.345   2.006   0.105
 2642SOL     OW 8824   0.359   0.449   2.375
 2642SOL    HW1 8825   0.309   0.527   2.338
 2642SOL    HW2 8826   0.371   0.461   2.474
 2643SOL     OW 8827   1.911   4.402   4.276
 2643SOL    HW1 8828   1.881   4.446   4.361
 2643SOL    HW2 8829   2.007   4.375   4.284
 2644SOL     OW 8830   5.684   5.401   3.797
 2644SOL    HW1 8831   5.739   5.322   3.771
 2644SOL    HW2 8832   5.610   5.372   3.857
 2645SOL     OW 8833   4.416   5.839   2.421
 2645SOL    HW1 8834   4.515   5.853   2.411
 2645SOL    HW2 8835   4.383   5.783   2.345
 2646SOL     OW 8836   1.466   1.930   6.288
 2646SOL    HW1 8837   1.543   1.925   6.352
 2646SOL    HW2 8838   1.417   1.843   6.288
 2647SOL     OW 8839   4.026   0.288   3.031
 2647SOL    HW1 8840   4.013   0.190   3.040
 2647SOL    HW2 8841   3.970   0.323   2.955
 2648SOL     OW 8842   1.599   0.816   5.759
 2648SOL    HW1 8843   1.536   0.765   5.700
 2648SOL    HW2 8844   1.552   0.843   5.843
 2649SOL     OW 8845   6.468   1.875   3.709
 2649SOL    HW1 8846   6.497   1.933   3.632
 2649SOL    HW2 8847   6.390   1.820   3.681
 2650SOL     OW 8848   2.183   6.903   4.133
 2650SOL    HW1 8849   2.266   6.955   4.112
 2650SOL    HW2 8850   2.209   6.811   4.162
 2651SOL     OW 8851   3.776   1.592   3.232
 2651SOL    HW1 8852   3.747   1.665   3.294
 2651SOL    HW2 8853   3.738   1.505   3.262
 2652SOL     OW 8854   5.036   3.767   5.377
 2652SOL    HW1 8855   4.982   3.754   5.461
 2652SOL    HW2 8856   5.128   3.796   5.402
 2653SOL     OW 8857   1.890   6.328   6.960
 2653SOL    HW1 8858   1.918   6.403   7.019
 2653SOL    HW2 8859   1.908   6.352   6.865
 2654SOL     OW 8860   0.120   0.721   0.945
 2654SOL    HW1 8861   0.149   0.734   1.039
 2654SOL    HW2 8862   0.159   0.636   0.910
 2655SOL     OW 8863   5.172   6.700   3.108
 2655SOL    HW1 8864   5.203   6.795   3.120
 2655SOL    HW2 8865   5.228   6.640   3.164
 2656SOL     OW 8866   4.629   6.895   4.648
 2656SOL    HW1 8867   4.602   6.806   4.685
 2656SOL    HW2 8868   4.624   6.964   4.720
 2657SOL     OW 8869   1.349   3.196   6.625
 2657SOL    HW1 8870   1.352   3.099   6.602
 2657SOL    HW2 8871   1.375   3.251   6.546
 2658SOL     OW 8872   3.598   4.320   0.187
 2658SOL    HW1 8873   3.656   4.266   0.126
 2658SOL    HW2 8874   3.624   4.302   0.282
 2659SOL     OW 8875   0.118   2.043   5.377
 2659SOL    HW1 8876   0.193   2.012   5.435
 2659SOL    HW2 8877   0.034   1.994   5.402
 2660SOL     OW 8878   1.141   1.407   0.702
 2660SOL    HW1 8879   1.195   1.460   0.766
 2660SOL    HW2 8880   1.135   1.455   0.614
 2661SOL     OW 8881   2.082   0.657   0.861
 2661SOL    HW1 8882   2.060   0.646   0.764
 2661SOL    HW2 8883   2.008   0.619   0.916
 2662SOL     OW 8884   2.993   1.712   1.815
 2662SOL    HW1 8885   3.056   1.768   1.869
 2662SOL    HW2 8886   3.044   1.641   1.767
 2663SOL     OW 8887   3.951   0.909   0.805
 2663SOL    HW1 8888   4.019   0.978   0.780
 2663SOL    HW2 8889   3.896   0.943   0.881
 2664SOL     OW 8890   4.911   3.028   5.825
 2664SOL    HW1 8891   4.812   3.027   5.810
 2664SOL    HW2 8892   4.953   3.093   5.761
 2665SOL     OW 8893   1.112   3.193   4.368
 2665SOL    HW1 8894   1.036   3.224   4.426
 2665SOL    HW2 8895   1.171   3.270   4.347
 2666SOL     OW 8896   1.819   3.792   1.959
 2666SOL    HW1 8897   1.782   3.719   2.016
 2666SOL    HW2 8898   1.908   3.820   1.994
 2667SOL     OW 8899   5.950   2.737   4.790
 2667SOL    HW1 8900   5.975   2.650   4.831
 2667SOL    HW2 8901   5.913   2.798   4.861
 2668SOL     OW 8902   5.682   0.890   4.391
 2668SOL    HW1 8903   5.681   0.807   4.447
 2668SOL    HW2 8904   5.620   0.878   4.313
 2669SOL     OW 8905   2.440   1.030   1.659
 2669SOL    HW1 8906   2.361   0.984   1.618
 2669SOL    HW2 8907   2.419   1.126   1.674
 2670SOL     OW 8908   0.908   0.507   1.156
 2670SOL    HW1 8909   0.990   0.491   1.211
 2670SOL    HW2 8910   0.871   0.419   1.126
 2671SOL     OW 8911   5.664   4.181   6.107
 2671SOL    HW1 8912   5.621   4.115   6.168
 2671SOL    HW2 8913   5.753   4.147   6.078
 2672SOL     OW 8914   2.370   1.647   2.366
 2672SOL    HW1 8915   2.384   1.735   2.410
 2672SOL    HW2 8916   2.441   1.633   2.296
 2673SOL     OW 8917   3.195   0.086   2.968
 2673SOL    HW1 8918   3.261   0.146   3.014
 2673SOL    HW2 8919   3.227   0.066   2.876
 2674SOL     OW 8920   6.315   5.863   3.335
 2674SOL    HW1 8921   6.304   5.840   3.432
 2674SOL    HW2 8922   6.343   5.958   3.325
 2675SOL     OW 8923   4.593   1.048   4.393
 2675SOL    HW1 8924   4.641   0.973   4.439
 2675SOL    HW2 8925   4.554   1.015   4.307
 2676SOL     OW 8926   3.951   3.303   4.967
 2676SOL    HW1 8927   3.993   3.374   4.910
 2676SOL    HW2 8928   3.940   3.220   4.914
 2677SOL     OW 8929   1.517   5.480   0.833
 2677SOL    HW1 8930   1.574   5.507   0.756
 2677SOL    HW2 8931   1.569   5.418   0.893
 2678SOL     OW 8932   3.592   1.989   2.034
 2678SOL    HW1 8933   3.515   2.002   1.972
 2678SOL    HW2 8934   3.642   2.075   2.044
 2679SOL     OW 8935   2.167   3.588   2.430
 2679SOL    HW1 8936   2.256   3.546   2.410
 2679SOL    HW2 8937   2.116   3.600   2.344
 2680SOL     OW 8938   5.487   2.530   6.418
 2680SOL    HW1 8939   5.576   2.555   6.458
 2680SOL    HW2 8940   5.501   2.492   6.327
 2681SOL     OW 8941   2.442   2.667   3.303
 2681SOL    HW1 8942   2.426   2.684   3.400
 2681SOL    HW2 8943   2.510   2.595   3.292
 2682SOL     OW 8944   3.732   4.071   2.359
 2682SOL    HW1 8945   3.637   4.100   2.355
 2682SOL    HW2 8946   3.766   4.054   2.266
 2683SOL     OW 8947   1.719   3.488   1.376
 2683SOL    HW1 8948   1.692   3.540   1.458
 2683SOL    HW2 8949   1.676   3.529   1.296
 2684SOL     OW 8950   5.101   0.655   4.067
 2684SOL    HW1 8951   5.098   0.596   4.148
 2684SOL    HW2 8952   5.185   0.708   4.067
 2685SOL     OW 8953   1.500   6.887   5.659
 2685SOL    HW1 8954   1.597   6.864   5.662
 2685SOL    HW2 8955   1.489   6.984   5.636
 2686SOL     OW 8956   1.973   1.720   6.104
 2686SOL    HW1 8957   2.071   1.728   6.085
 2686SOL    HW2 8958   1.932   1.811   6.111
 2687SOL     OW 8959   3.988   2.675   1.699
 2687SOL    HW1 8960   3.987   2.729   1.784
 2687SOL    HW2 8961   4.009   2.580   1.721
 2688SOL     OW 8962   3.868   2.729   6.869
 2688SOL    HW1 8963   3.848   2.754   6.964
 2688SOL    HW2 8964   3.880   2.812   6.815
 2689SOL     OW 8965   6.583   3.816   2.533
 2689SOL    HW1 8966   6.624   3.773   2.453
 2689SOL    HW2 8967   6.623   3.778   2.616
 2690SOL     OW 8968   5.206   1.204   4.607
 2690SOL    HW1 8969   5.213   1.296   4.646
 2690SOL    HW2 8970   5.281   1.189   4.543
 2691SOL     OW 8971   6.550   3.385   4.042
 2691SOL    HW1 8972   6.517   3.392   3.948
 2691SOL    HW2 8973   6.644   3.420   4.047
 2692SOL     OW 8974   1.591   5.199   1.374
 2692SOL    HW1 8975   1.546   5.114   1.402
 2692SOL    HW2 8976   1.672   5.179   1.320
 2693SOL     OW 8977   0.610   5.299   2.839
 2693SOL    HW1 8978   0.523   5.270   2.878
 2693SOL    HW2 8979   0.594   5.369   2.769
 2694SOL     OW 8980   2.124   0.040   2.418
 2694SOL    HW1 8981   2.030   0.006   2.414
 2694SOL    HW2 8982   2.186   6.991   2.435
 2695SOL     OW 8983   6.597   5.816   3.409
 2695SOL    HW1 8984   6.518   5.780   3.361
 2695SOL    HW2 8985   6.665   5.848   3.343
 2696SOL     OW 8986   3.978   4.325   6.320
 2696SOL    HW1 8987   3.921   4.332   6.402
 2696SOL    HW2 8988   4.053   4.390   6.325
 2697SOL     OW 8989   4.045   2.347   6.993
 2697SOL    HW1 8990   4.092   2.352   6.905
 2697SOL    HW2 8991   4.062   2.431   0.018
 2698SOL     OW 8992   1.763   5.836   6.893
 2698SOL    HW1 8993   1.820   5.759   6.864
 2698SOL    HW2 8994   1.819   5.919   6.895
 2699SOL     OW 8995   2.404   6.574   2.299
 2699SOL    HW1 8996   2.369   6.662   2.267
 2699SOL    HW2 8997   2.379   6.560   2.395
 2700SOL     OW 8998   4.824   2.053   1.334
 2700SOL    HW1 8999   4.756   2.117   1.297
 2700SOL    HW2 9000   4.793   1.959   1.317
 2701SOL     OW 9001   5.214   3.442   5.252
 2701SOL    HW1 9002   5.239   3.347   5.269
 2701SOL    HW2 9003   5.118   3.456   5.275
 2702SOL     OW 9004   1.777   1.682   4.668
 2702SOL    HW1 9005   1.698   1.744   4.660
 2702SOL    HW2 9006   1.816   1.690   4.760
 2703SOL     OW 9007   2.419   6.341   1.828
 2703SOL    HW1 9008   2.417   6.244   1.806
 2703SOL    HW2 9009   2.376   6.357   1.917
 2704SOL     OW 9010   4.180   1.102   3.698
 2704SOL    HW1 9011   4.213   1.028   3.756
 2704SOL    HW2 9012   4.228   1.100   3.610
 2705SOL     OW 9013   1.086   6.868   5.274
 2705SOL    HW1 9014   1.185   6.882   5.277
 2705SOL    HW2 9015   1.066   6.770   5.279
 2706SOL     OW 9016   0.145   4.604   4.330
 2706SOL    HW1 9017   0.103   4.693   4.346
 2706SOL    HW2 9018   0.238   4.617   4.295
 2707SOL     OW 9019   4.462   1.252   3.048
 2707SOL    HW1 9020   4.379   1.278   3.097
 2707SOL    HW2 9021   4.441   1.178   2.983
 2708SOL     OW 9022   5.223   3.076   5.917
 2708SOL    HW1 9023   5.189   3.170   5.905
 2708SOL    HW2 9024   5.218   3.027   5.830
 2709SOL     OW 9025   5.428   1.176   5.963
 2709SOL    HW1 9026   5.474   1.114   5.899
 2709SOL    HW2 9027   5.399   1.258   5.914
 2710SOL     OW 9028   0.945   2.985   4.052
 2710SOL    HW1 9029   1.037   3.009   4.081
 2710SOL    HW2 9030   0.921   2.894   4.086
 2711SOL     OW 9031   4.647   0.800   1.867
 2711SOL    HW1 9032   4.572   0.863   1.848
 2711SOL    HW2 9033   4.662   0.741   1.788
 2712SOL     OW 9034   5.039   6.392   1.783
 2712SOL    HW1 9035   5.100   6.435   1.849
 2712SOL    HW2 9036   5.086   6.382   1.695
 2713SOL     OW 9037   3.762   5.051   5.459
 2713SOL    HW1 9038   3.677   5.063   5.510
 2713SOL    HW2 9039   3.800   4.961   5.479
 2714SOL     OW 9040   3.012   4.303   6.143
 2714SOL    HW1 9041   3.042   4.208   6.141
 2714SOL    HW2 9042   2.914   4.307   6.162
 2715SOL     OW 9043   4.437   6.354   0.431
 2715SOL    HW1 9044   4.522   6.303   0.414
 2715SOL    HW2 9045   4.383   6.306   0.500
 2716SOL     OW 9046   4.642   1.276   2.250
 2716SOL    HW1 9047   4.622   1.348   2.184
 2716SOL    HW2 9048   4.741   1.262   2.255
 2717SOL     OW 9049   1.033   2.218   2.626
 2717SOL    HW1 9050   1.030   2.318   2.635
 2717SOL    HW2 9051   1.127   2.186   2.640
 2718SOL     OW 9052   6.647   1.425   6.023
 2718SOL    HW1 9053   6.616   1.506   6.074
 2718SOL    HW2 9054   6.720   1.379   6.074
 2719SOL     OW 9055   0.923   4.986   3.589
 2719SOL    HW1 9056   0.869   5.013   3.509
 2719SOL    HW2 9057   0.875   5.014   3.672
 2720SOL     OW 9058   2.019   4.976   6.270
 2720SOL    HW1 9059   2.091   5.037   6.303
 2720SOL    HW2 9060   1.933   4.998   6.316
 2721SOL     OW 9061   2.224   6.210   3.788
 2721SOL    HW1 9062   2.172   6.236   3.869
 2721SOL    HW2 9063   2.204   6.274   3.714
 2722SOL     OW 9064   3.559   4.227   6.886
 2722SOL    HW1 9065   3.549   4.326   6.896
 2722SOL    HW2 9066   3.481   4.180   6.927
 2723SOL     OW 9067   3.840   5.193   6.893
 2723SOL    HW1 9068   3.914   5.138   6.855
 2723SOL    HW2 9069   3.866   5.226   6.984
 2724SOL     OW 9070   6.655   5.709   0.876
 2724SOL    HW1 9071   6.581   5.769   0.904
 2724SOL    HW2 9072   6.704   5.748   0.798
 2725SOL     OW 9073   6.113   5.062   3.048
 2725SOL    HW1 9074   6.097   5.135   3.115
 2725SOL    HW2 9075   6.113   4.974   3.095
 2726SOL     OW 9076   6.384   2.379   2.989
 2726SOL    HW1 9077   6.334   2.415   3.068
 2726SOL    HW2 9078   6.476   2.416   2.988
 2727SOL     OW 9079   1.605   4.960   3.996
 2727SOL    HW1 9080   1.590   4.888   3.927
 2727SOL    HW2 9081   1.601   5.049   3.952
 2728SOL     OW 9082   5.140   5.121   5.905
 2728SOL    HW1 9083   5.096   5.155   5.822
 2728SOL    HW2 9084   5.107   5.028   5.924
 2729SOL     OW 9085   0.194   0.201   0.403
 2729SOL    HW1 9086   0.260   0.274   0.417
 2729SOL    HW2 9087   0.218   0.150   0.320
 2730SOL     OW 9088   1.260   5.494   3.171
 2730SOL    HW1 9089   1.335   5.559   3.161
 2730SOL    HW2 9090   1.185   5.536   3.222
 2731SOL     OW 9091   3.860   3.687   5.158
 2731SOL    HW1 9092   3.875   3.759   5.226
 2731SOL    HW2 9093   3.944   3.635   5.144
 2732SOL     OW 9094   4.455   0.657   2.275
 2732SOL    HW1 9095   4.361   0.625   2.287
 2732SOL    HW2 9096   4.480   0.716   2.351
 2733SOL     OW 9097   0.767   0.144   0.682
 2733SOL    HW1 9098   0.865   0.163   0.685
 2733SOL    HW2 9099   0.737   0.142   0.587
 2734SOL     OW 9100   3.274   0.348   1.907
 2734SOL    HW1 9101   3.185   0.315   1.938
 2734SOL    HW2 9102   3.341   0.275   1.913
 2735SOL     OW 9103   1.456   2.654   2.707
 2735SOL    HW1 9104   1.438   2.705   2.623
 2735SOL    HW2 9105   1.378   2.661   2.768
 2736SOL     OW 9106   5.739   4.787   2.975
 2736SOL    HW1 9107   5.782   4.867   3.018
 2736SOL    HW2 9108   5.697   4.815   2.889
 2737SOL     OW 9109   2.602   0.191   6.005
 2737SOL    HW1 9110   2.683   0.249   6.009
 2737SOL    HW2 9111   2.587   0.146   6.093
 2738SOL     OW 9112   5.153   6.313   1.029
 2738SOL    HW1 9113   5.112   6.309   0.938
 2738SOL    HW2 9114   5.093   6.270   1.096
 2739SOL     OW 9115   0.387   5.061   1.771
 2739SOL    HW1 9116   0.397   4.962   1.768
 2739SOL    HW2 9117   0.351   5.093   1.684
 2740SOL     OW 9118   6.681   5.743   4.879
 2740SOL    HW1 9119   6.746   5.696   4.819
 2740SOL    HW2 9120   6.634   5.676   4.937
 2741SOL     OW 9121   0.871   0.130   6.809
 2741SOL    HW1 9122   0.937   0.154   6.879
 2741SOL    HW2 9123   0.906   0.158   6.719
 2742SOL     OW 9124   2.750   5.021   2.611
 2742SOL    HW1 9125   2.758   4.932   2.564
 2742SOL    HW2 9126   2.715   5.089   2.547
 2743SOL     OW 9127   5.687   1.800   2.550
 2743SOL    HW1 9128   5.635   1.830   2.630
 2743SOL    HW2 9129   5.630   1.739   2.495
 2744SOL     OW 9130   3.270   3.924   2.497
 2744SOL    HW1 9131   3.248   3.938   2.401
 2744SOL    HW2 9132   3.295   4.012   2.539
 2745SOL     OW 9133   0.527   6.220   0.212
 2745SOL    HW1 9134   0.498   6.126   0.232
 2745SOL    HW2 9135   0.620   6.218   0.175
 2746SOL     OW 9136   1.489   0.627   4.743
 2746SOL    HW1 9137   1.417   0.695   4.724
 2746SOL    HW2 9138   1.508   0.627   4.841
 2747SOL     OW 9139   4.619   4.587   0.275
 2747SOL    HW1 9140   4.615   4.685   0.290
 2747SOL    HW2 9141   4.714   4.559   0.259
 2748SOL     OW 9142   4.158   0.760   0.499
 2748SOL    HW1 9143   4.063   0.766   0.469
 2748SOL    HW2 9144   4.189   0.850   0.531
 2749SOL     OW 9145   3.686   1.041   0.300
 2749SOL    HW1 9146   3.598   0.998   0.321
 2749SOL    HW2 9147   3.747   1.033   0.379
 2750SOL     OW 9148   2.123   5.984   2.349
 2750SOL    HW1 9149   2.139   6.082   2.360
 2750SOL    HW2 9150   2.118   5.962   2.252
 2751SOL     OW 9151   6.254   4.814   1.381
 2751SOL    HW1 9152   6.217   4.905   1.398
 2751SOL    HW2 9153   6.353   4.820   1.368
 2752SOL     OW 9154   4.290   5.196   6.194
 2752SOL    HW1 9155   4.338   5.110   6.179
 2752SOL    HW2 9156   4.326   5.240   6.276
 2753SOL     OW 9157   5.034   4.584   5.897
 2753SOL    HW1 9158   5.022   4.653   5.825
 2753SOL    HW2 9159   5.102   4.617   5.963
 2754SOL     OW 9160   1.290   0.412   4.721
 2754SOL    HW1 9161   1.258   0.473   4.793
 2754SOL    HW2 9162   1.381   0.440   4.691
 2755SOL     OW 9163   3.089   6.960   2.407
 2755SOL    HW1 9164   3.113   6.962   2.310
 2755SOL    HW2 9165   3.158   6.908   2.457
 2756SOL     OW 9166   4.794   5.456   6.904
 2756SOL    HW1 9167   4.718   5.515   6.880
 2756SOL    HW2 9168   4.847   5.434   6.822
 2757SOL     OW 9169   0.525   4.709   0.605
 2757SOL    HW1 9170   0.590   4.633   0.614
 2757SOL    HW2 9171   0.554   4.784   0.664
 2758SOL     OW 9172   4.583   0.382   5.918
 2758SOL    HW1 9173   4.544   0.296   5.949
 2758SOL    HW2 9174   4.535   0.459   5.960
 2759SOL     OW 9175   4.647   5.134   3.882
 2759SOL    HW1 9176   4.732   5.084   3.894
 2759SOL    HW2 9177   4.576   5.073   3.848
 2760SOL     OW 9178   0.576   5.909   3.219
 2760SOL    HW1 9179   0.657   5.960   3.248
 2760SOL    HW2 9180   0.494   5.959   3.246
 2761SOL     OW 9181   2.335   5.088   4.631
 2761SOL    HW1 9182   2.424   5.049   4.655
 2761SOL    HW2 9183   2.344   5.186   4.616
 2762SOL     OW 9184   1.813   1.573   5.651
 2762SOL    HW1 9185   1.898   1.538   5.610
 2762SOL    HW2 9186   1.769   1.636   5.588
 2763SOL     OW 9187   5.502   0.364   2.264
 2763SOL    HW1 9188   5.438   0.436   2.239
 2763SOL    HW2 9189   5.452   0.279   2.279
 2764SOL     OW 9190   6.423   0.955   2.001
 2764SOL    HW1 9191   6.361   1.032   1.985
 2764SOL    HW2 9192   6.421   0.931   2.099
 2765SOL     OW 9193   5.492   1.803   3.078
 2765SOL    HW1 9194   5.395   1.828   3.086
 2765SOL    HW2 9195   5.502   1.731   3.009
 2766SOL     OW 9196   5.439   6.633   2.778
 2766SOL    HW1 9197   5.442   6.577   2.861
 2766SOL    HW2 9198   5.347   6.669   2.765
 2767SOL     OW 9199   6.596   4.309   5.431
 2767SOL    HW1 9200   6.563   4.273   5.518
 2767SOL    HW2 9201   6.520   4.313   5.365
 2768SOL     OW 9202   5.877   1.028   6.720
 2768SOL    HW1 9203   5.974   1.019   6.739
 2768SOL    HW2 9204   5.829   1.054   6.804
 2769SOL     OW 9205   0.690   3.997   0.734
 2769SOL    HW1 9206   0.614   3.969   0.792
 2769SOL    HW2 9207   0.745   4.066   0.781
 2770SOL     OW 9208   4.676   5.917   2.388
 2770SOL    HW1 9209   4.775   5.928   2.391
 2770SOL    HW2 9210   4.646   5.908   2.293
 2771SOL     OW 9211   4.463   0.247   1.367
 2771SOL    HW1 9212   4.441   0.155   1.400
 2771SOL    HW2 9213   4.441   0.314   1.437
 2772SOL     OW 9214   3.227   0.990   6.856
 2772SOL    HW1 9215   3.275   1.073   6.827
 2772SOL    HW2 9216   3.285   0.939   6.920
 2773SOL     OW 9217   3.025   4.247   1.433
 2773SOL    HW1 9218   2.968   4.281   1.508
 2773SOL    HW2 9219   2.975   4.177   1.382
 2774SOL     OW 9220   4.963   3.047   1.962
 2774SOL    HW1 9221   4.991   3.115   2.030
 2774SOL    HW2 9222   4.866   3.025   1.974
 2775SOL     OW 9223   0.362   0.395   2.678
 2775SOL    HW1 9224   0.375   0.362   2.771
 2775SOL    HW2 9225   0.271   0.438   2.670
 2776SOL     OW 9226   2.418   6.381   0.324
 2776SOL    HW1 9227   2.506   6.427   0.329
 2776SOL    HW2 9228   2.381   6.389   0.232
 2777SOL     OW 9229   1.359   2.427   4.542
 2777SOL    HW1 9230   1.276   2.480   4.523
 2777SOL    HW2 9231   1.429   2.488   4.580
 2778SOL     OW 9232   2.753   2.275   5.143
 2778SOL    HW1 9233   2.847   2.290   5.172
 2778SOL    HW2 9234   2.752   2.240   5.050
 2779SOL     OW 9235   6.287   1.348   1.042
 2779SOL    HW1 9236   6.314   1.286   0.968
 2779SOL    HW2 9237   6.203   1.396   1.016
 2780SOL     OW 9238   3.527   5.929   6.991
 2780SOL    HW1 9239   3.534   5.837   0.002
 2780SOL    HW2 9240   3.471   5.927   6.909
 2781SOL     OW 9241   5.213   3.884   6.306
 2781SOL    HW1 9242   5.167   3.965   6.342
 2781SOL    HW2 9243   5.284   3.855   6.370
 2782SOL     OW 9244   3.495   1.054   5.488
 2782SOL    HW1 9245   3.500   1.142   5.534
 2782SOL    HW2 9246   3.418   1.002   5.524
 2783SOL     OW 9247   0.572   3.928   6.021
 2783SOL    HW1 9248   0.545   3.897   5.930
 2783SOL    HW2 9249   0.507   3.893   6.089
 2784SOL     OW 9250   2.495   2.051   1.552
 2784SOL    HW1 9251   2.442   2.113   1.494
 2784SOL    HW2 9252   2.434   1.984   1.594
 2785SOL     OW 9253   6.166   2.040   2.203
 2785SOL    HW1 9254   6.211   2.002   2.283
 2785SOL    HW2 9255   6.070   2.013   2.203
 2786SOL     OW 9256   3.742   0.445   0.645
 2786SOL    HW1 9257   3.642   0.441   0.651
 2786SOL    HW2 9258   3.773   0.537   0.669
 2787SOL     OW 9259   1.883   4.079   6.186
 2787SOL    HW1 9260   1.956   4.123   6.133
 2787SOL    HW2 9261   1.800   4.075   6.131
 2788SOL     OW 9262   0.876   3.355   0.165
 2788SOL    HW1 9263   0.950   3.389   0.108
 2788SOL    HW2 9264   0.866   3.256   0.151
 2789SOL     OW 9265   0.159   3.111   3.878
 2789SOL    HW1 9266   0.174   3.179   3.949
 2789SOL    HW2 9267   0.233   3.043   3.880
 2790SOL     OW 9268   3.724   6.422   4.165
 2790SOL    HW1 9269   3.717   6.505   4.109
 2790SOL    HW2 9270   3.650   6.359   4.140
 2791SOL     OW 9271   1.790   3.609   2.537
 2791SOL    HW1 9272   1.823   3.698   2.570
 2791SOL    HW2 9273   1.739   3.621   2.452
 2792SOL     OW 9274   0.739   2.089   5.627
 2792SOL    HW1 9275   0.707   2.099   5.721
 2792SOL    HW2 9276   0.819   2.029   5.625
 2793SOL     OW 9277   4.754   0.827   4.524
 2793SOL    HW1 9278   4.838   0.793   4.482
 2793SOL    HW2 9279   4.724   0.764   4.595
 2794SOL     OW 9280   0.424   1.655   2.358
 2794SOL    HW1 9281   0.517   1.684   2.334
 2794SOL    HW2 9282   0.424   1.556   2.372
 2795SOL     OW 9283   0.731   3.695   0.917
 2795SOL    HW1 9284   0.778   3.783   0.924
 2795SOL    HW2 9285   0.649   3.696   0.973
 2796SOL     OW 9286   4.547   4.575   2.490
 2796SOL    HW1 9287   4.608   4.601   2.565
 2796SOL    HW2 9288   4.452   4.587   2.519
 2797SOL     OW 9289   4.644   4.249   5.399
 2797SOL    HW1 9290   4.652   4.203   5.487
 2797SOL    HW2 9291   4.555   4.227   5.358
 2798SOL     OW 9292   1.640   4.164   3.245
 2798SOL    HW1 9293   1.680   4.076   3.218
 2798SOL    HW2 9294   1.622   4.163   3.344
 2799SOL     OW 9295   6.907   6.369   5.814
 2799SOL    HW1 9296   6.959   6.364   5.900
 2799SOL    HW2 9297   6.869   6.279   5.794
 2800SOL     OW 9298   2.582   0.834   6.354
 2800SOL    HW1 9299   2.626   0.765   6.296
 2800SOL    HW2 9300   2.600   0.814   6.450
 2801SOL     OW 9301   3.913   5.084   2.141
 2801SOL    HW1 9302   3.896   5.175   2.178
 2801SOL    HW2 9303   3.830   5.029   2.147
 2802SOL     OW 9304   6.744   0.238   6.202
 2802SOL    HW1 9305   6.788   0.178   6.268
 2802SOL    HW2 9306   6.797   0.240   6.118
 2803SOL     OW 9307   3.278   5.883   5.050
 2803SOL    HW1 9308   3.203   5.878   5.115
 2803SOL    HW2 9309   3.244   5.859   4.959
 2804SOL     OW 9310   0.664   4.876   2.321
 2804SOL    HW1 9311   0.645   4.905   2.228
 2804SOL    HW2 9312   0.722   4.794   2.319
 2805SOL     OW 9313   6.311   4.074   6.773
 2805SOL    HW1 9314   6.331   3.977   6.756
 2805SOL    HW2 9315   6.280   4.086   6.867
 2806SOL     OW 9316   6.413   5.599   2.582
 2806SOL    HW1 9317   6.379   5.601   2.676
 2806SOL    HW2 9318   6.482   5.670   2.570
 2807SOL     OW 9319   4.114   4.834   3.776
 2807SOL    HW1 9320   4.024   4.870   3.800
 2807SOL    HW2 9321   4.183   4.906   3.784
 2808SOL     OW 9322   4.512   6.372   4.534
 2808SOL    HW1 9323   4.553   6.455   4.497
 2808SOL    HW2 9324   4.461   6.394   4.616
 2809SOL     OW 9325   5.587   2.306   0.033
 2809SOL    HW1 9326   5.631   2.306   0.122
 2809SOL    HW2 9327   5.580   2.212   7.026
 2810SOL     OW 9328   1.782   1.089   6.593
 2810SOL    HW1 9329   1.684   1.078   6.577
 2810SOL    HW2 9330   1.795   1.154   6.669
 2811SOL     OW 9331   0.436   0.648   3.624
 2811SOL    HW1 9332   0.367   0.716   3.649
 2811SOL    HW2 9333   0.398   0.556   3.630
 2812SOL     OW 9334   4.757   4.528   2.861
 2812SOL    HW1 9335   4.848   4.493   2.882
 2812SOL    HW2 9336   4.752   4.554   2.765
 2813SOL     OW 9337   6.345   1.369   5.999
 2813SOL    HW1 9338   6.325   1.400   6.092
 2813SOL    HW2 9339   6.444   1.373   5.983
 2814SOL     OW 9340   5.680   4.341   5.035
 2814SOL    HW1 9341   5.595   4.388   5.061
 2814SOL    HW2 9342   5.671   4.243   5.054
 2815SOL     OW 9343   1.010   1.376   4.774
 2815SOL    HW1 9344   0.992   1.311   4.849
 2815SOL    HW2 9345   0.936   1.372   4.708
 2816SOL     OW 9346   4.808   6.463   3.243
 2816SOL    HW1 9347   4.758   6.508   3.169
 2816SOL    HW2 9348   4.774   6.496   3.331
 2817SOL     OW 9349   1.377   1.390   1.164
 2817SOL    HW1 9350   1.471   1.425   1.154
 2817SOL    HW2 9351   1.319   1.429   1.093
 2818SOL     OW 9352   1.539   2.595   0.019
 2818SOL    HW1 9353   1.543   2.587   6.946
 2818SOL    HW2 9354   1.479   2.524   0.055
 2819SOL     OW 9355   6.459   3.107   1.521
 2819SOL    HW1 9356   6.503   3.156   1.445
 2819SOL    HW2 9357   6.364   3.090   1.498
 2820SOL     OW 9358   4.999   2.607   3.944
 2820SOL    HW1 9359   4.993   2.707   3.956
 2820SOL    HW2 9360   4.922   2.576   3.888
 2821SOL     OW 9361   1.264   3.138   3.155
 2821SOL    HW1 9362   1.357   3.101   3.153
 2821SOL    HW2 9363   1.259   3.220   3.097
 2822SOL     OW 9364   3.034   1.686   0.528
 2822SOL    HW1 9365   3.071   1.644   0.610
 2822SOL    HW2 9366   2.934   1.688   0.534
 2823SOL     OW 9367   1.676   0.051   4.095
 2823SOL    HW1 9368   1.609   0.063   4.022
 2823SOL    HW2 9369   1.660   0.120   4.166
 2824SOL     OW 9370   3.151   2.034   5.570
 2824SOL    HW1 9371   3.107   2.047   5.481
 2824SOL    HW2 9372   3.091   2.068   5.642
 2825SOL     OW 9373   6.302   6.190   1.035
 2825SOL    HW1 9374   6.347   6.162   0.950
 2825SOL    HW2 9375   6.210   6.150   1.039
 2826SOL     OW 9376   4.838   3.935   4.018
 2826SOL    HW1 9377   4.836   3.887   4.106
 2826SOL    HW2 9378   4.833   3.870   3.943
 2827SOL     OW 9379   0.142   6.982   6.225
 2827SOL    HW1 9380   0.082   6.903   6.211
 2827SOL    HW2 9381   0.125   0.024   6.155
 2828SOL     OW 9382   3.605   2.037   6.292
 2828SOL    HW1 9383   3.507   2.055   6.302
 2828SOL    HW2 9384   3.650   2.119   6.256
 2829SOL     OW 9385   2.798   0.761   7.010
 2829SOL    HW1 9386   2.790   0.731   6.915
 2829SOL    HW2 9387   2.825   0.857   7.013
 2830SOL     OW 9388   3.174   3.796   6.882
 2830SOL    HW1 9389   3.233   3.852   6.822
 2830SOL    HW2 9390   3.180   3.830   6.976
 2831SOL     OW 9391   6.354   6.683   3.961
 2831SOL    HW1 9392   6.430   6.733   4.004
 2831SOL    HW2 9393   6.383   6.651   3.870
 2832SOL     OW 9394   0.341   0.836   1.977
 2832SOL    HW1 9395   0.334   0.812   2.074
 2832SOL    HW2 9396   0.436   0.828   1.947
 2833SOL     OW 9397   6.411   3.209   2.208
 2833SOL    HW1 9398   6.469   3.135   2.174
 2833SOL    HW2 9399   6.454   3.250   2.288
 2834SOL     OW 9400   4.546   0.879   5.300
 2834SOL    HW1 9401   4.450   0.877   5.329
 2834SOL    HW2 9402   4.565   0.799   5.243
 2835SOL     OW 9403   6.483   6.524   3.743
 2835SOL    HW1 9404   6.484   6.425   3.752
 2835SOL    HW2 9405   6.536   6.551   3.662
 2836SOL     OW 9406   6.512   0.303   0.882
 2836SOL    HW1 9407   6.448   0.360   0.932
 2836SOL    HW2 9408   6.475   0.210   0.873
 2837SOL     OW 9409   5.902   2.893   3.653
 2837SOL    HW1 9410   5.875   2.858   3.742
 2837SOL    HW2 9411   5.825   2.887   3.590
 2838SOL     OW 9412   1.519   4.424   4.395
 2838SOL    HW1 9413   1.526   4.473   4.482
 2838SOL    HW2 9414   1.595   4.449   4.336
 2839SOL     OW 9415   4.713   3.084   0.416
 2839SOL    HW1 9416   4.749   3.169   0.378
 2839SOL    HW2 9417   4.759   3.064   0.502
 2840SOL     OW 9418   6.785   2.615   4.979
 2840SOL    HW1 9419   6.744   2.702   5.007
 2840SOL    HW2 9420   6.882   2.629   4.960
 2841SOL     OW 9421   0.156   5.884   0.391
 2841SOL    HW1 9422   0.125   5.852   0.301
 2841SOL    HW2 9423   0.086   5.865   0.459
 2842SOL     OW 9424   5.988   3.675   3.111
 2842SOL    HW1 9425   5.977   3.577   3.131
 2842SOL    HW2 9426   5.907   3.708   3.063
 2843SOL     OW 9427   3.997   0.972   3.968
 2843SOL    HW1 9428   3.926   1.042   3.956
 2843SOL    HW2 9429   3.978   0.896   3.906
 2844SOL     OW 9430   1.467   4.034   5.471
 2844SOL    HW1 9431   1.505   4.077   5.553
 2844SOL    HW2 9432   1.448   3.938   5.489
 2845SOL     OW 9433   0.162   3.842   6.143
 2845SOL    HW1 9434   0.256   3.809   6.152
 2845SOL    HW2 9435   0.135   3.840   6.047
 2846SOL     OW 9436   5.746   1.219   5.952
 2846SOL    HW1 9437   5.722   1.271   5.870
 2846SOL    HW2 9438   5.668   1.163   5.980
 2847SOL     OW 9439   4.399   5.076   4.367
 2847SOL    HW1 9440   4.476   5.081   4.431
 2847SOL    HW2 9441   4.314   5.097   4.415
 2848SOL     OW 9442   2.088   6.841   5.424
 2848SOL    HW1 9443   2.049   6.783   5.496
 2848SOL    HW2 9444   2.177   6.805   5.397
 2849SOL     OW 9445   2.160   3.062   1.780
 2849SOL    HW1 9446   2.119   3.056   1.871
 2849SOL    HW2 9447   2.211   2.978   1.761
 2850SOL     OW 9448   4.121   1.378   0.805
 2850SOL    HW1 9449   4.096   1.445   0.736
 2850SOL    HW2 9450   4.214   1.398   0.839
 2851SOL     OW 9451   3.030   5.695   5.645
 2851SOL    HW1 9452   2.984   5.771   5.691
 2851SOL    HW2 9453   3.040   5.716   5.548
 2852SOL     OW 9454   0.438   2.159   6.921
 2852SOL    HW1 9455   0.427   2.249   6.877
 2852SOL    HW2 9456   0.479   2.172   7.012
 2853SOL     OW 9457   3.564   2.403   1.447
 2853SOL    HW1 9458   3.499   2.436   1.378
 2853SOL    HW2 9459   3.520   2.404   1.537
 2854SOL     OW 9460   0.529   0.989   3.380
 2854SOL    HW1 9461   0.600   0.957   3.318
 2854SOL    HW2 9462   0.570   1.020   3.466
 2855SOL     OW 9463   3.341   1.483   4.443
 2855SOL    HW1 9464   3.439   1.505   4.440
 2855SOL    HW2 9465   3.316   1.458   4.537
 2856SOL     OW 9466   2.748   1.352   5.619
 2856SOL    HW1 9467   2.665   1.315   5.660
 2856SOL    HW2 9468   2.741   1.451   5.612
 2857SOL     OW 9469   3.123   3.085   3.624
 2857SOL    HW1 9470   3.170   3.002   3.656
 2857SOL    HW2 9471   3.126   3.088   3.524
 2858SOL     OW 9472   5.687   2.697   3.164
 2858SOL    HW1 9473   5.669   2.614   3.111
 2858SOL    HW2 9474   5.737   2.763   3.107
 2859SOL     OW 9475   5.377   5.889   0.095
 2859SOL    HW1 9476   5.459   5.944   0.079
 2859SOL    HW2 9477   5.393   5.827   0.171
 2860SOL     OW 9478   4.158   2.355   0.642
 2860SOL    HW1 9479   4.089   2.386   0.708
 2860SOL    HW2 9480   4.126   2.272   0.597
 2861SOL     OW 9481   4.351   4.694   6.217
 2861SOL    HW1 9482   4.444   4.676   6.248
 2861SOL    HW2 9483   4.305   4.607   6.198
 2862SOL     OW 9484   6.492   0.212   3.913
 2862SOL    HW1 9485   6.511   0.221   3.815
 2862SOL    HW2 9486   6.559   0.265   3.965
 2863SOL     OW 9487   6.642   0.174   6.920
 2863SOL    HW1 9488   6.586   0.232   6.861
 2863SOL    HW2 9489   6.588   0.097   6.952
 2864SOL     OW 9490   3.775   2.104   0.717
 2864SOL    HW1 9491   3.784   2.165   0.638
 2864SOL    HW2 9492   3.854   2.115   0.777
 2865SOL     OW 9493   4.908   4.990   4.916
 2865SOL    HW1 9494   4.920   4.936   4.833
 2865SOL    HW2 9495   4.928   5.086   4.897
 2866SOL     OW 9496   0.779   6.821   6.368
 2866SOL    HW1 9497   0.860   6.764   6.353
 2866SOL    HW2 9498   0.755   6.820   6.465
 2867SOL     OW 9499   6.799   4.352   4.225
 2867SOL    HW1 9500   6.768   4.303   4.306
 2867SOL    HW2 9501   6.731   4.345   4.152
 2868SOL     OW 9502   1.621   4.852   4.876
 2868SOL    HW1 9503   1.698   4.831   4.816
 2868SOL    HW2 9504   1.537   4.853   4.822
 2869SOL     OW 9505   6.134   1.388   2.126
 2869SOL    HW1 9506   6.199   1.454   2.164
 2869SOL    HW2 9507   6.042   1.410   2.158
 2870SOL     OW 9508   4.038   2.209   2.345
 2870SOL    HW1 9509   4.035   2.123   2.295
 2870SOL    HW2 9510   3.969   2.272   2.308
 2871SOL     OW 9511   1.175   1.572   5.936
 2871SOL    HW1 9512   1.080   1.595   5.957
 2871SOL    HW2 9513   1.235   1.646   5.969
 2872SOL     OW 9514   1.946   0.336   3.810
 2872SOL    HW1 9515   1.948   0.236   3.805
 2872SOL    HW2 9516   2.038   0.373   3.797
 2873SOL     OW 9517   6.325   5.770   2.021
 2873SOL    HW1 9518   6.351   5.676   1.998
 2873SOL    HW2 9519   6.325   5.826   1.937
 2874SOL     OW 9520   5.500   2.278   2.052
 2874SOL    HW1 9521   5.517   2.320   1.963
 2874SOL    HW2 9522   5.564   2.203   2.067
 2875SOL     OW 9523   3.196   4.804   0.829
 2875SOL    HW1 9524   3.103   4.793   0.866
 2875SOL    HW2 9525   3.200   4.763   0.737
 2876SOL     OW 9526   5.863   2.325   1.945
 2876SOL    HW1 9527   5.863   2.414   1.991
 2876SOL    HW2 9528   5.874   2.252   2.013
 2877SOL     OW 9529   1.770   3.411   5.077
 2877SOL    HW1 9530   1.676   3.376   5.078
 2877SOL    HW2 9531   1.827   3.356   5.137
 2878SOL     OW 9532   3.955   4.834   0.442
 2878SOL    HW1 9533   3.935   4.767   0.513
 2878SOL    HW2 9534   4.046   4.817   0.404
 2879SOL     OW 9535   5.087   4.119   6.429
 2879SOL    HW1 9536   5.030   4.201   6.425
 2879SOL    HW2 9537   5.176   4.139   6.387
 2880SOL     OW 9538   1.724   6.475   3.264
 2880SOL    HW1 9539   1.723   6.530   3.348
 2880SOL    HW2 9540   1.631   6.442   3.245
 2881SOL     OW 9541   6.897   0.320   6.945
 2881SOL    HW1 9542   6.910   0.283   0.010
 2881SOL    HW2 9543   6.835   0.260   6.894
 2882SOL     OW 9544   6.788   3.459   3.068
 2882SOL    HW1 9545   6.887   3.467   3.059
 2882SOL    HW2 9546   6.766   3.407   3.150
 2883SOL     OW 9547   4.120   6.157   2.091
 2883SOL    HW1 9548   4.032   6.141   2.136
 2883SOL    HW2 9549   4.153   6.071   2.052
 2884SOL     OW 9550   1.944   5.182   3.078
 2884SOL    HW1 9551   1.961   5.114   3.150
 2884SOL    HW2 9552   1.863   5.236   3.102
 2885SOL     OW 9553   0.926   2.184   4.501
 2885SOL    HW1 9554   0.899   2.154   4.593
 2885SOL    HW2 9555   0.850   2.232   4.458
 2886SOL     OW 9556   2.840   2.810   6.091
 2886SOL    HW1 9557   2.918   2.869   6.112
 2886SOL    HW2 9558   2.815   2.758   6.172
 2887SOL     OW 9559   2.796   1.516   4.951
 2887SOL    HW1 9560   2.895   1.514   4.936
 2887SOL    HW2 9561   2.752   1.565   4.875
 2888SOL     OW 9562   7.024   5.094   6.961
 2888SOL    HW1 9563   0.063   5.021   6.946
 2888SOL    HW2 9564   0.042   5.172   7.005
 2889SOL     OW 9565   1.358   0.514   0.887
 2889SOL    HW1 9566   1.338   0.555   0.976
 2889SOL    HW2 9567   1.365   0.586   0.818
 2890SOL     OW 9568   2.734   0.208   0.528
 2890SOL    HW1 9569   2.688   0.130   0.570
 2890SOL    HW2 9570   2.803   0.174   0.464
 2891SOL     OW 9571   2.957   4.876   4.853
 2891SOL    HW1 9572   2.902   4.910   4.776
 2891SOL    HW2 9573   2.919   4.790   4.885
 2892SOL     OW 9574   4.038   4.359   5.301
 2892SOL    HW1 9575   4.134   4.378   5.277
 2892SOL    HW2 9576   3.999   4.296   5.234
 2893SOL     OW 9577   3.232   0.734   5.688
 2893SOL    HW1 9578   3.243   0.830   5.662
 2893SOL    HW2 9579   3.283   0.676   5.625
 2894SOL     OW 9580   4.144   3.318   1.785
 2894SOL    HW1 9581   4.225   3.318   1.726
 2894SOL    HW2 9582   4.130   3.226   1.823
 2895SOL     OW 9583   3.742   3.384   0.341
 2895SOL    HW1 9584   3.685   3.304   0.319
 2895SOL    HW2 9585   3.730   3.407   0.438
 2896SOL     OW 9586   1.444   4.730   0.107
 2896SOL    HW1 9587   1.386   4.739   0.025
 2896SOL    HW2 9588   1.406   4.786   0.181
 2897SOL     OW 9589   1.108   6.955   3.951
 2897SOL    HW1 9590   1.122   6.956   3.852
 2897SOL    HW2 9591   1.031   6.895   3.973
 2898SOL     OW 9592   2.125   5.128   2.804
 2898SOL    HW1 9593   2.030   5.153   2.824
 2898SOL    HW2 9594   2.146   5.041   2.849
 2899SOL     OW 9595   5.785   0.652   0.647
 2899SOL    HW1 9596   5.804   0.731   0.589
 2899SOL    HW2 9597   5.867   0.630   0.700
 2900SOL     OW 9598   3.314   5.359   6.266
 2900SOL    HW1 9599   3.284   5.387   6.175
 2900SOL    HW2 9600   3.255   5.401   6.335
 2901SOL     OW 9601   2.596   6.716   0.991
 2901SOL    HW1 9602   2.526   6.647   0.974
 2901SOL    HW2 9603   2.560   6.787   1.052
 2902SOL     OW 9604   4.978   5.280   0.800
 2902SOL    HW1 9605   4.889   5.311   0.835
 2902SOL    HW2 9606   4.994   5.185   0.828
 2903SOL     OW 9607   2.821   2.648   1.726
 2903SOL    HW1 9608   2.861   2.571   1.776
 2903SOL    HW2 9609   2.732   2.670   1.764
 2904SOL     OW 9610   2.503   2.154   4.599
 2904SOL    HW1 9611   2.553   2.235   4.631
 2904SOL    HW2 9612   2.422   2.139   4.655
 2905SOL     OW 9613   1.006   1.622   2.308
 2905SOL    HW1 9614   1.052   1.707   2.334
 2905SOL    HW2 9615   0.995   1.563   2.388
 2906SOL     OW 9616   5.028   5.248   2.391
 2906SOL    HW1 9617   5.042   5.153   2.418
 2906SOL    HW2 9618   5.103   5.304   2.426
 2907SOL     OW 9619   6.230   0.406   4.896
 2907SOL    HW1 9620   6.187   0.495   4.910
 2907SOL    HW2 9621   6.213   0.348   4.976
 2908SOL     OW 9622   3.707   5.878   4.871
 2908SOL    HW1 9623   3.675   5.789   4.905
 2908SOL    HW2 9624   3.702   5.878   4.771
 2909SOL     OW 9625   2.407   6.281   5.939
 2909SOL    HW1 9626   2.310   6.271   5.917
 2909SOL    HW2 9627   2.439   6.197   5.984
 2910SOL     OW 9628   4.589   5.932   5.757
 2910SOL    HW1 9629   4.581   5.949   5.659
 2910SOL    HW2 9630   4.615   5.836   5.772
 2911SOL     OW 9631   2.463   4.424   3.538
 2911SOL    HW1 9632   2.504   4.393   3.452
 2911SOL    HW2 9633   2.365   4.406   3.537
 2912SOL     OW 9634   3.093   5.169   1.436
 2912SOL    HW1 9635   3.040   5.101   1.488
 2912SOL    HW2 9636   3.088   5.149   1.339
 2913SOL     OW 9637   0.997   3.161   2.502
 2913SOL    HW1 9638   1.052   3.164   2.418
 2913SOL    HW2 9639   1.054   3.187   2.580
 2914SOL     OW 9640   5.436   4.369   5.836
 2914SOL    HW1 9641   5.440   4.457   5.788
 2914SOL    HW2 9642   5.341   4.337   5.839
 2915SOL     OW 9643   4.357   1.554   3.411
 2915SOL    HW1 9644   4.273   1.579   3.362
 2915SOL    HW2 9645   4.436   1.588   3.360
 2916SOL     OW 9646   4.751   0.098   4.856
 2916SOL    HW1 9647   4.818   0.106   4.781
 2916SOL    HW2 9648   4.777   0.024   4.917
 2917SOL     OW 9649   3.892   0.519   2.414
 2917SOL    HW1 9650   3.826   0.580   2.456
 2917SOL    HW2 9651   3.848   0.433   2.389
 2918SOL     OW 9652   1.196   2.635   4.822
 2918SOL    HW1 9653   1.130   2.708   4.805
 2918SOL    HW2 9654   1.149   2.547   4.824
 2919SOL     OW 9655   5.953   5.622   0.534
 2919SOL    HW1 9656   5.952   5.599   0.437
 2919SOL    HW2 9657   6.042   5.599   0.573
 2920SOL     OW 9658   4.423   1.876   2.570
 2920SOL    HW1 9659   4.387   1.791   2.531
 2920SOL    HW2 9660   4.496   1.855   2.635
 2921SOL     OW 9661   6.782   1.386   0.830
 2921SOL    HW1 9662   6.747   1.412   0.920
 2921SOL    HW2 9663   6.813   1.291   0.832
 2922SOL     OW 9664   3.973   6.859   4.546
 2922SOL    HW1 9665   3.966   6.848   4.646
 2922SOL    HW2 9666   4.031   6.938   4.526
 2923SOL     OW 9667   6.807   4.737   6.543
 2923SOL    HW1 9668   6.893   4.735   6.491
 2923SOL    HW2 9669   6.767   4.646   6.544
 2924SOL     OW 9670   6.869   6.971   6.101
 2924SOL    HW1 9671   6.856   0.030   6.052
 2924SOL    HW2 9672   6.878   6.989   6.199
 2925SOL     OW 9673   5.576   4.087   0.662
 2925SOL    HW1 9674   5.581   3.989   0.682
 2925SOL    HW2 9675   5.508   4.130   0.721
 2926SOL     OW 9676   0.427   1.338   3.639
 2926SOL    HW1 9677   0.446   1.394   3.558
 2926SOL    HW2 9678   0.330   1.345   3.662
 2927SOL     OW 9679   0.210   3.460   2.952
 2927SOL    HW1 9680   0.165   3.507   2.876
 2927SOL    HW2 9681   0.307   3.450   2.933
 2928SOL     OW 9682   5.629   5.942   0.339
 2928SOL    HW1 9683   5.625   5.845   0.363
 2928SOL    HW2 9684   5.601   5.997   0.417
 2929SOL     OW 9685   0.825   0.014   5.592
 2929SOL    HW1 9686   0.818   0.017   5.692
 2929SOL    HW2 9687   0.798   0.103   5.554
 2930SOL     OW 9688   2.943   6.857   4.393
 2930SOL    HW1 9689   3.027   6.903   4.364
 2930SOL    HW2 9690   2.894   6.916   4.458
 2931SOL     OW 9691   4.375   4.916   6.395
 2931SOL    HW1 9692   4.462   4.920   6.444
 2931SOL    HW2 9693   4.370   4.831   6.342
 2932SOL     OW 9694   1.448   4.380   1.694
 2932SOL    HW1 9695   1.460   4.406   1.790
 2932SOL    HW2 9696   1.378   4.438   1.652
 2933SOL     OW 9697   5.193   2.328   3.608
 2933SOL    HW1 9698   5.201   2.425   3.585
 2933SOL    HW2 9699   5.279   2.282   3.585
 2934SOL     OW 9700   2.269   1.329   0.805
 2934SOL    HW1 9701   2.178   1.365   0.821
 2934SOL    HW2 9702   2.281   1.243   0.856
 2935SOL     OW 9703   6.993   1.562   0.848
 2935SOL    HW1 9704   6.916   1.499   0.849
 2935SOL    HW2 9705   6.960   1.655   0.834
 2936SOL     OW 9706   3.298   5.454   0.527
 2936SOL    HW1 9707   3.321   5.518   0.454
 2936SOL    HW2 9708   3.206   5.418   0.513
 2937SOL     OW 9709   2.683   4.344   0.055
 2937SOL    HW1 9710   2.646   4.260   0.014
 2937SOL    HW2 9711   2.717   4.324   0.146
 2938SOL     OW 9712   4.897   4.630   6.306
 2938SOL    HW1 9713   4.803   4.635   6.339
 2938SOL    HW2 9714   4.933   4.538   6.321
 2939SOL     OW 9715   0.437   6.518   5.860
 2939SOL    HW1 9716   0.437   6.523   5.960
 2939SOL    HW2 9717   0.519   6.561   5.824
 2940SOL     OW 9718   3.671   0.397   5.419
 2940SOL    HW1 9719   3.676   0.302   5.448
 2940SOL    HW2 9720   3.666   0.457   5.499
 2941SOL     OW 9721   3.780   1.832   5.059
 2941SOL    HW1 9722   3.688   1.824   5.097
 2941SOL    HW2 9723   3.833   1.751   5.083
 2942SOL     OW 9724   3.547   6.552   4.360
 2942SOL    HW1 9725   3.487   6.483   4.320
 2942SOL    HW2 9726   3.642   6.532   4.337
 2943SOL     OW 9727   5.865   4.948   3.192
 2943SOL    HW1 9728   5.955   4.914   3.165
 2943SOL    HW2 9729   5.849   4.928   3.289
 2944SOL     OW 9730   4.468   5.925   6.948
 2944SOL    HW1 9731   4.445   5.836   6.987
 2944SOL    HW2 9732   4.427   5.933   6.857
 2945SOL     OW 9733   3.068   3.914   4.656
 2945SOL    HW1 9734   3.056   3.814   4.656
 2945SOL    HW2 9735   3.052   3.950   4.748
 2946SOL     OW 9736   0.888   6.383   6.009
 2946SOL    HW1 9737   0.905   6.464   6.065
 2946SOL    HW2 9738   0.910   6.403   5.913
 2947SOL     OW 9739   6.920   5.357   0.233
 2947SOL    HW1 9740   6.876   5.435   0.276
 2947SOL    HW2 9741   6.973   5.307   0.302
 2948SOL     OW 9742   5.587   3.569   5.524
 2948SOL    HW1 9743   5.643   3.571   5.606
 2948SOL    HW2 9744   5.491   3.561   5.549
 2949SOL     OW 9745   0.497   6.236   0.508
 2949SOL    HW1 9746   0.504   6.331   0.478
 2949SOL    HW2 9747   0.415   6.194   0.467
 2950SOL     OW 9748   5.025   3.486   4.509
 2950SOL    HW1 9749   5.104   3.431   4.481
 2950SOL    HW2 9750   5.027   3.499   4.608
 2951SOL     OW 9751   5.871   0.289   0.501
 2951SOL    HW1 9752   5.911   0.211   0.452
 2951SOL    HW2 9753   5.936   0.324   0.568
 2952SOL     OW 9754   0.692   3.497   1.791
 2952SOL    HW1 9755   0.773   3.491   1.731
 2952SOL    HW2 9756   0.685   3.413   1.844
 2953SOL     OW 9757   5.933   1.917   2.285
 2953SOL    HW1 9758   5.950   1.818   2.287
 2953SOL    HW2 9759   5.841   1.935   2.321
 2954SOL     OW 9760   5.057   5.415   1.554
 2954SOL    HW1 9761   5.070   5.507   1.590
 2954SOL    HW2 9762   4.962   5.404   1.526
 2955SOL     OW 9763   6.006   2.250   1.127
 2955SOL    HW1 9764   5.907   2.256   1.133
 2955SOL    HW2 9765   6.037   2.165   1.171
 2956SOL     OW 9766   6.317   5.849   3.605
 2956SOL    HW1 9767   6.295   5.947   3.611
 2956SOL    HW2 9768   6.404   5.831   3.651
 2957SOL     OW 9769   1.565   4.683   1.478
 2957SOL    HW1 9770   1.471   4.658   1.503
 2957SOL    HW2 9771   1.622   4.683   1.560
 2958SOL     OW 9772   2.760   5.236   6.226
 2958SOL    HW1 9773   2.754   5.312   6.292
 2958SOL    HW2 9774   2.842   5.182   6.245
 2959SOL     OW 9775   3.582   5.129   0.272
 2959SOL    HW1 9776   3.588   5.185   0.355
 2959SOL    HW2 9777   3.661   5.148   0.214
 2960SOL     OW 9778   2.983   1.609   6.922
 2960SOL    HW1 9779   3.009   1.524   6.877
 2960SOL    HW2 9780   3.037   1.621   7.006
 2961SOL     OW 9781   5.784   1.705   4.150
 2961SOL    HW1 9782   5.777   1.655   4.064
 2961SOL    HW2 9783   5.830   1.793   4.134
 2962SOL     OW 9784   4.231   0.493   3.055
 2962SOL    HW1 9785   4.160   0.438   3.010
 2962SOL    HW2 9786   4.313   0.438   3.068
 2963SOL     OW 9787   2.184   3.331   4.664
 2963SOL    HW1 9788   2.250   3.326   4.739
 2963SOL    HW2 9789   2.183   3.424   4.627
 2964SOL     OW 9790   3.027   6.083   0.541
 2964SOL    HW1 9791   3.061   6.045   0.454
 2964SOL    HW2 9792   3.058   6.025   0.616
 2965SOL     OW 9793   0.841   2.877   6.386
 2965SOL    HW1 9794   0.819   2.783   6.414
 2965SOL    HW2 9795   0.940   2.892   6.395
 2966SOL     OW 9796   5.067   4.947   3.729
 2966SOL    HW1 9797   5.078   5.035   3.683
 2966SOL    HW2 9798   5.072   4.873   3.661
 2967SOL     OW 9799   5.859   2.847   3.897
 2967SOL    HW1 9800   5.814   2.798   3.972
 2967SOL    HW2 9801   5.928   2.908   3.935
 2968SOL     OW 9802   6.737   3.819   3.535
 2968SOL    HW1 9803   6.822   3.856   3.497
 2968SOL    HW2 9804   6.724   3.726   3.502
 2969SOL     OW 9805   3.713   1.864   4.765
 2969SOL    HW1 9806   3.669   1.953   4.754
 2969SOL    HW2 9807   3.737   1.851   4.861
 2970SOL     OW 9808   1.242   4.013   5.838
 2970SOL    HW1 9809   1.307   4.088   5.848
 2970SOL    HW2 9810   1.156   4.036   5.884
 2971SOL     OW 9811   5.391   3.805   2.541
 2971SOL    HW1 9812   5.372   3.848   2.629
 2971SOL    HW2 9813   5.308   3.804   2.485
 2972SOL     OW 9814   0.725   4.252   5.063
 2972SOL    HW1 9815   0.768   4.311   4.995
 2972SOL    HW2 9816   0.796   4.205   5.117
 2973SOL     OW 9817   5.706   7.019   3.867
 2973SOL    HW1 9818   5.780   7.000   3.802
 2973SOL    HW2 9819   5.686   0.090   3.867
 2974SOL     OW 9820   6.933   4.521   1.531
 2974SOL    HW1 9821   6.961   4.425   1.541
 2974SOL    HW2 9822   6.939   4.566   1.620
 2975SOL     OW 9823   6.647   1.390   4.029
 2975SOL    HW1 9824   6.727   1.348   3.985
 2975SOL    HW2 9825   6.670   1.484   4.056
 2976SOL     OW 9826   2.568   6.181   1.445
 2976SOL    HW1 9827   2.561   6.278   1.472
 2976SOL    HW2 9828   2.532   6.124   1.518
 2977SOL     OW 9829   3.108   6.476   3.757
 2977SOL    HW1 9830   3.055   6.469   3.841
 2977SOL    HW2 9831   3.051   6.511   3.684
 2978SOL     OW 9832   3.075   6.949   6.337
 2978SOL    HW1 9833   3.141   6.878   6.313
 2978SOL    HW2 9834   2.983   6.910   6.340
 2979SOL     OW 9835   3.083   1.277   3.267
 2979SOL    HW1 9836   3.022   1.207   3.229
 2979SOL    HW2 9837   3.035   1.325   3.341
 2980SOL     OW 9838   6.105   6.739   3.481
 2980SOL    HW1 9839   6.038   6.765   3.551
 2980SOL    HW2 9840   6.192   6.716   3.525
 2981SOL     OW 9841   1.930   1.309   6.240
 2981SOL    HW1 9842   1.909   1.373   6.315
 2981SOL    HW2 9843   1.919   1.357   6.152
 2982SOL     OW 9844   4.554   5.572   2.007
 2982SOL    HW1 9845   4.469   5.606   1.966
 2982SOL    HW2 9846   4.622   5.557   1.935
 2983SOL     OW 9847   6.897   0.820   2.610
 2983SOL    HW1 9848   6.825   0.812   2.679
 2983SOL    HW2 9849   6.977   0.768   2.637
 2984SOL     OW 9850   5.920   4.731   1.701
 2984SOL    HW1 9851   5.891   4.755   1.608
 2984SOL    HW2 9852   5.850   4.758   1.766
 2985SOL     OW 9853   6.768   2.604   3.150
 2985SOL    HW1 9854   6.687   2.625   3.204
 2985SOL    HW2 9855   6.741   2.558   3.065
 2986SOL     OW 9856   2.161   3.521   5.059
 2986SOL    HW1 9857   2.226   3.516   5.135
 2986SOL    HW2 9858   2.074   3.482   5.088
 2987SOL     OW 9859   5.122   1.723   4.876
 2987SOL    HW1 9860   5.175   1.754   4.956
 2987SOL    HW2 9861   5.154   1.771   4.795
 2988SOL     OW 9862   1.140   0.118   2.430
 2988SOL    HW1 9863   1.088   0.136   2.346
 2988SOL    HW2 9864   1.226   0.072   2.407
 2989SOL     OW 9865   6.287   5.334   0.781
 2989SOL    HW1 9866   6.245   5.271   0.715
 2989SOL    HW2 9867   6.369   5.374   0.742
 2990SOL     OW 9868   3.051   1.529   1.608
 2990SOL    HW1 9869   3.066   1.586   1.527
 2990SOL    HW2 9870   2.995   1.450   1.583
 2991SOL     OW 9871   6.750   4.839   0.128
 2991SOL    HW1 9872   6.769   4.914   0.065
 2991SOL    HW2 9873   6.667   4.858   0.179
 2992SOL     OW 9874   4.535   4.145   6.618
 2992SOL    HW1 9875   4.544   4.243   6.633
 2992SOL    HW2 9876   4.610   4.097   6.664
 2993SOL     OW 9877   1.614   4.396   0.060
 2993SOL    HW1 9878   1.608   4.305   0.101
 2993SOL    HW2 9879   1.631   4.464   0.131
 2994SOL     OW 9880   4.339   6.141   0.236
 2994SOL    HW1 9881   4.380   6.069   0.180
 2994SOL    HW2 9882   4.411   6.194   0.282
 2995SOL     OW 9883   2.390   0.364   5.503
 2995SOL    HW1 9884   2.352   0.283   5.456
 2995SOL    HW2 9885   2.315   0.419   5.540
 2996SOL     OW 9886   4.357   6.482   6.055
 2996SOL    HW1 9887   4.298   6.550   6.099
 2996SOL    HW2 9888   4.338   6.479   5.957
 2997SOL     OW 9889   4.088   5.821   0.277
 2997SOL    HW1 9890   4.169   5.763   0.279
 2997SOL    HW2 9891   4.017   5.778   0.221
 2998SOL     OW 9892   6.627   4.768   5.638
 2998SOL    HW1 9893   6.587   4.816   5.717
 2998SOL    HW2 9894   6.581   4.680   5.626
 2999SOL     OW 9895   2.482   1.462   1.710
 2999SOL    HW1 9896   2.394   1.445   1.666
 2999SOL    HW2 9897   2.504   1.386   1.771
 3000SOL     OW 9898   1.261   1.785   4.654
 3000SOL    HW1 9899   1.197   1.833   4.714
 3000SOL    HW2 9900   1.275   1.692   4.688
 3001SOL     OW 9901   5.130   6.299   5.681
 3001SOL    HW1 9902   5.184   6.358   5.621
 3001SOL    HW2 9903   5.045   6.275   5.635
 3002SOL     OW 9904   3.110   0.627   5.358
 3002SOL    HW1 9905   3.060   0.710   5.385
 3002SOL    HW2 9906   3.089   0.606   5.262
 3003SOL     OW 9907   1.372   6.858   5.398
 3003SOL    HW1 9908   1.406   6.862   5.492
 3003SOL    HW2 9909   1.446   6.882   5.335
 3004SOL     OW 9910   6.694   3.137   5.791
 3004SOL    HW1 9911   6.709   3.067   5.861
 3004SOL    HW2 9912   6.641   3.212   5.829
 3005SOL     OW 9913   5.013   2.598   0.924
 3005SOL    HW1 9914   4.973   2.508   0.909
 3005SOL    HW2 9915   5.045   2.605   1.019
 3006SOL     OW 9916   4.464   0.034   1.854
 3006SOL    HW1 9917   4.561   0.010   1.859
 3006SOL    HW2 9918   4.437   0.082   1.937
 3007SOL     OW 9919   5.610   5.308   2.081
 3007SOL    HW1 9920   5.678   5.277   2.148
 3007SOL    HW2 9921   5.612   5.408   2.077
 3008SOL     OW 9922   4.425   5.547   5.579
 3008SOL    HW1 9923   4.503   5.562   5.518
 3008SOL    HW2 9924   4.457   5.509   5.666
 3009SOL     OW 9925   1.192   0.659   2.523
 3009SOL    HW1 9926   1.123   0.588   2.510
 3009SOL    HW2 9927   1.154   0.735   2.576
 3010SOL     OW 9928   2.758   6.885   2.944
 3010SOL    HW1 9929   2.849   6.860   2.976
 3010SOL    HW2 9930   2.747   6.985   2.947
 3011SOL     OW 9931   5.431   0.192   0.479
 3011SOL    HW1 9932   5.501   0.263   0.473
 3011SOL    HW2 9933   5.460   0.121   0.544
 3012SOL     OW 9934   6.956   5.088   1.288
 3012SOL    HW1 9935   7.009   5.041   1.217
 3012SOL    HW2 9936   6.939   5.025   1.364
 3013SOL     OW 9937   5.702   4.235   2.222
 3013SOL    HW1 9938   5.690   4.157   2.284
 3013SOL    HW2 9939   5.703   4.320   2.274
 3014SOL     OW 9940   5.223   6.843   5.746
 3014SOL    HW1 9941   5.210   6.885   5.836
 3014SOL    HW2 9942   5.318   6.813   5.738
 3015SOL     OW 9943   2.543   0.978   0.115
 3015SOL    HW1 9944   2.524   0.947   0.022
 3015SOL    HW2 9945   2.618   0.924   0.154
 3016SOL     OW 9946   3.837   6.146   3.423
 3016SOL    HW1 9947   3.874   6.079   3.488
 3016SOL    HW2 9948   3.809   6.099   3.339
 3017SOL     OW 9949   0.416   5.892   1.658
 3017SOL    HW1 9950   0.444   5.796   1.658
 3017SOL    HW2 9951   0.317   5.898   1.643
 3018SOL     OW 9952   4.263   6.859   6.110
 3018SOL    HW1 9953   4.165   6.879   6.118
 3018SOL    HW2 9954   4.295   6.890   6.021
 3019SOL     OW 9955   4.735   0.333   2.052
 3019SOL    HW1 9956   4.750   0.374   1.962
 3019SOL    HW2 9957   4.752   0.234   2.047
 3020SOL     OW 9958   1.887   0.462   1.944
 3020SOL    HW1 9959   1.952   0.436   1.873
 3020SOL    HW2 9960   1.798   0.482   1.903
 3021SOL     OW 9961   4.087   0.745   6.744
 3021SOL    HW1 9962   4.173   0.757   6.794
 3021SOL    HW2 9963   4.011   0.769   6.804
 3022SOL     OW 9964   6.695   0.466   2.857
 3022SOL    HW1 9965   6.768   0.416   2.904
 3022SOL    HW2 9966   6.692   0.438   2.761
 3023SOL     OW 9967   6.009   0.323   1.469
 3023SOL    HW1 9968   6.037   0.321   1.565
 3023SOL    HW2 9969   6.062   0.393   1.420
 3024SOL     OW 9970   2.336   0.091   6.501
 3024SOL    HW1 9971   2.263   0.023   6.499
 3024SOL    HW2 9972   2.405   0.064   6.568
 3025SOL     OW 9973   1.973   2.430   1.716
 3025SOL    HW1 9974   2.048   2.480   1.673
 3025SOL    HW2 9975   1.911   2.395   1.646
 3026SOL     OW 9976   2.589   5.983   0.368
 3026SOL    HW1 9977   2.575   6.078   0.397
 3026SOL    HW2 9978   2.653   5.938   0.430
 3027SOL     OW 9979   1.407   2.179   3.458
 3027SOL    HW1 9980   1.400   2.089   3.415
 3027SOL    HW2 9981   1.379   2.249   3.392
 3028SOL     OW 9982   1.122   0.150   4.894
 3028SOL    HW1 9983   1.050   0.139   4.826
 3028SOL    HW2 9984   1.205   0.183   4.851
 3029SOL     OW 9985   6.143   5.370   6.075
 3029SOL    HW1 9986   6.181   5.406   5.990
 3029SOL    HW2 9987   6.209   5.309   6.119
 3030SOL     OW 9988   1.232   0.640   5.457
 3030SOL    HW1 9989   1.163   0.711   5.466
 3030SOL    HW2 9990   1.193   0.561   5.408
 3031SOL     OW 9991   0.349   5.582   6.230
 3031SOL    HW1 9992   0.336   5.484   6.243
 3031SOL    HW2 9993   0.359   5.627   6.320
 3032SOL     OW 9994   4.035   6.459   5.884
 3032SOL    HW1 9995   4.037   6.371   5.931
 3032SOL    HW2 9996   4.098   6.456   5.806
 3033SOL     OW 9997   5.359   4.672   5.560
 3033SOL    HW1 9998   5.295   4.747   5.540
 3033SOL    HW2 9999   5.411   4.694   5.642
 3034SOL     OW10000   2.579   6.669   4.568
 3034SOL    HW110001   2.652   6.663   4.500
 3034SOL    HW210002   2.557   6.577   4.601
 3035SOL     OW10003   6.377   7.011   7.020
 3035SOL    HW110004   6.305   0.049   0.016
 3035SOL    HW210005   6.408   6.965   0.076
 3036SOL     OW10006   1.170   5.073   5.392
 3036SOL    HW110007   1.102   5.000   5.398
 3036SOL    HW210008   1.173   5.123   5.478
 3037SOL     OW10009   5.487   6.788   5.778
 3037SOL    HW110010   5.537   6.709   5.814
 3037SOL    HW210011   5.547   6.868   5.778
 3038SOL     OW10012   6.306   6.522   5.988
 3038SOL    HW110013   6.261   6.572   6.061
 3038SOL    HW210014   6.242   6.458   5.946
 3039SOL     OW10015   0.500   5.124   0.725
 3039SOL    HW110016   0.533   5.166   0.809
 3039SOL    HW210017   0.578   5.091   0.671
 3040SOL     OW10018   3.162   1.386   6.897
 3040SOL    HW110019   3.092   1.316   6.882
 3040SOL    HW210020   3.252   1.345   6.886
 3041SOL     OW10021   1.757   2.269   6.481
 3041SOL    HW110022   1.836   2.279   6.420
 3041SOL    HW210023   1.685   2.333   6.453
 3042SOL     OW10024   6.372   7.020   1.282
 3042SOL    HW110025   6.351   0.052   1.360
 3042SOL    HW210026   6.306   0.010   1.209
 3043SOL     OW10027   6.919   5.196   6.712
 3043SOL    HW110028   6.854   5.130   6.750
 3043SOL    HW210029   7.011   5.176   6.746
 3044SOL     OW10030   2.312   3.358   6.406
 3044SOL    HW110031   2.265   3.370   6.319
 3044SOL    HW210032   2.336   3.448   6.444
 3045SOL     OW10033   4.917   2.360   3.652
 3045SOL    HW110034   5.016   2.352   3.641
 3045SOL    HW210035   4.872   2.281   3.610
 3046SOL     OW10036   1.892   2.435   6.111
 3046SOL    HW110037   1.935   2.483   6.035
 3046SOL    HW210038   1.805   2.397   6.082
 3047SOL     OW10039   0.105   5.303   1.385
 3047SOL    HW110040   0.031   5.236   1.377
 3047SOL    HW210041   0.138   5.327   1.293
 3048SOL     OW10042   3.406   2.546   1.665
 3048SOL    HW110043   3.339   2.612   1.632
 3048SOL    HW210044   3.498   2.582   1.652
 3049SOL     OW10045   0.618   0.516   1.475
 3049SOL    HW110046   0.546   0.565   1.525
 3049SOL    HW210047   0.685   0.480   1.540
 3050SOL     OW10048   1.527   0.955   3.776
 3050SOL    HW110049   1.500   1.003   3.692
 3050SOL    HW210050   1.556   0.862   3.753
 3051SOL     OW10051   2.676   4.260   6.356
 3051SOL    HW110052   2.702   4.314   6.276
 3051SOL    HW210053   2.638   4.321   6.426
 3052SOL     OW10054   5.242   6.967   2.558
 3052SOL    HW110055   5.313   7.017   2.608
 3052SOL    HW210056   5.212   6.889   2.612
 3053SOL     OW10057   3.899   0.044   1.973
 3053SOL    HW110058   3.932   6.989   1.927
 3053SOL    HW210059   3.825   0.020   2.036
 3054SOL     OW10060   2.413   4.491   5.287
 3054SOL    HW110061   2.399   4.394   5.304
 3054SOL    HW210062   2.428   4.505   5.189
 3055SOL     OW10063   6.363   6.712   3.091
 3055SOL    HW110064   6.306   6.648   3.141
 3055SOL    HW210065   6.308   6.792   3.066
 3056SOL     OW10066   5.449   0.730   1.958
 3056SOL    HW110067   5.532   0.773   1.923
 3056SOL    HW210068   5.369   0.778   1.921
 3057SOL     OW10069   6.239   5.485   2.421
 3057SOL    HW110070   6.161   5.518   2.473
 3057SOL    HW210071   6.324   5.519   2.462
 3058SOL     OW10072   6.237   5.763   1.206
 3058SOL    HW110073   6.323   5.715   1.221
 3058SOL    HW210074   6.179   5.753   1.287
 3059SOL     OW10075   2.540   2.681   5.940
 3059SOL    HW110076   2.502   2.769   5.914
 3059SOL    HW210077   2.509   2.611   5.876
 3060SOL     OW10078   0.824   6.288   0.083
 3060SOL    HW110079   0.828   6.199   0.038
 3060SOL    HW210080   0.842   6.360   0.015
 3061SOL     OW10081   0.750   0.823   5.882
 3061SOL    HW110082   0.717   0.740   5.927
 3061SOL    HW210083   0.790   0.800   5.793
 3062SOL     OW10084   3.035   5.021   6.262
 3062SOL    HW110085   3.018   4.963   6.341
 3062SOL    HW210086   3.128   5.058   6.266
 3063SOL     OW10087   2.893   6.094   0.833
 3063SOL    HW110088   2.956   6.028   0.791
 3063SOL    HW210089   2.897   6.085   0.933
 3064SOL     OW10090   0.074   4.846   3.465
 3064SOL    HW110091   0.123   4.851   3.552
 3064SOL    HW210092   0.004   4.774   3.471
 3065SOL     OW10093   3.338   1.436   1.008
 3065SOL    HW110094   3.329   1.364   0.939
 3065SOL    HW210095   3.362   1.395   1.096
 3066SOL     OW10096   5.370   5.304   0.350
 3066SOL    HW110097   5.325   5.229   0.301
 3066SOL    HW210098   5.340   5.304   0.445
 3067SOL     OW10099   4.315   6.739   2.953
 3067SOL    HW110100   4.412   6.759   2.959
 3067SOL    HW210101   4.263   6.819   2.982
 3068SOL     OW10102   6.344   4.635   6.973
 3068SOL    HW110103   6.385   4.714   6.927
 3068SOL    HW210104   6.390   4.620   0.034
 3069SOL     OW10105   0.741   4.627   3.749
 3069SOL    HW110106   0.686   4.597   3.827
 3069SOL    HW210107   0.681   4.650   3.673
 3070SOL     OW10108   4.222   1.891   4.147
 3070SOL    HW110109   4.282   1.824   4.189
 3070SOL    HW210110   4.195   1.860   4.056
 3071SOL     OW10111   5.389   0.406   3.941
 3071SOL    HW110112   5.401   0.354   4.025
 3071SOL    HW210113   5.362   0.344   3.867
 3072SOL     OW10114   0.197   0.512   1.775
 3072SOL    HW110115   0.201   0.532   1.873
 3072SOL    HW210116   0.163   0.592   1.726
 3073SOL     OW10117   1.949   2.284   5.258
 3073SOL    HW110118   2.035   2.239   5.280
 3073SOL    HW210119   1.875   2.216   5.258
 3074SOL     OW10120   5.108   3.651   5.847
 3074SOL    HW110121   5.183   3.640   5.782
 3074SOL    HW210122   5.039   3.712   5.808
 3075SOL     OW10123   0.015   5.483   0.901
 3075SOL    HW110124   0.053   5.527   0.982
 3075SOL    HW210125   6.989   5.402   0.929
 3076SOL     OW10126   0.350   0.909   5.120
 3076SOL    HW110127   0.418   0.908   5.194
 3076SOL    HW210128   0.394   0.883   5.035
 3077SOL     OW10129   5.440   4.463   3.343
 3077SOL    HW110130   5.426   4.397   3.270
 3077SOL    HW210131   5.404   4.552   3.315
 3078SOL     OW10132   1.810   2.579   0.180
 3078SOL    HW110133   1.855   2.667   0.193
 3078SOL    HW210134   1.728   2.591   0.124
 3079SOL     OW10135   5.728   2.689   6.119
 3079SOL    HW110136   5.662   2.725   6.053
 3079SOL    HW210137   5.820   2.693   6.080
 3080SOL     OW10138   5.953   6.637   1.389
 3080SOL    HW110139   5.902   6.614   1.306
 3080SOL    HW210140   5.998   6.554   1.425
 3081SOL     OW10141   1.179   4.461   5.755
 3081SOL    HW110142   1.109   4.471   5.684
 3081SOL    HW210143   1.175   4.540   5.816
 3082SOL     OW10144   3.224   0.292   2.334
 3082SOL    HW110145   3.229   0.363   2.264
 3082SOL    HW210146   3.186   0.209   2.294
 3083SOL     OW10147   3.768   0.339   2.189
 3083SOL    HW110148   3.705   0.415   2.206
 3083SOL    HW210149   3.721   0.252   2.206
 3084SOL     OW10150   4.226   6.515   3.733
 3084SOL    HW110151   4.298   6.534   3.666
 3084SOL    HW210152   4.222   6.416   3.750
 3085SOL     OW10153   1.221   4.995   2.016
 3085SOL    HW110154   1.125   5.001   2.044
 3085SOL    HW210155   1.276   5.057   2.072
 3086SOL     OW10156   6.321   1.575   4.224
 3086SOL    HW110157   6.399   1.602   4.167
 3086SOL    HW210158   6.298   1.480   4.206
 3087SOL     OW10159   5.805   4.013   1.281
 3087SOL    HW110160   5.811   4.018   1.181
 3087SOL    HW210161   5.838   4.099   1.321
 3088SOL     OW10162   3.039   3.897   6.585
 3088SOL    HW110163   3.100   3.953   6.528
 3088SOL    HW210164   3.075   3.892   6.678
 3089SOL     OW10165   3.481   1.820   1.692
 3089SOL    HW110166   3.421   1.835   1.613
 3089SOL    HW210167   3.526   1.906   1.717
 3090SOL     OW10168   6.378   1.680   0.603
 3090SOL    HW110169   6.470   1.648   0.621
 3090SOL    HW210170   6.316   1.650   0.676
 3091SOL     OW10171   2.088   6.330   0.269
 3091SOL    HW110172   2.113   6.363   0.360
 3091SOL    HW210173   2.094   6.405   0.203
 3092SOL     OW10174   3.463   5.453   0.068
 3092SOL    HW110175   3.409   5.462   7.012
 3092SOL    HW210176   3.531   5.381   0.057
 3093SOL     OW10177   4.816   6.802   3.133
 3093SOL    HW110178   4.901   6.760   3.101
 3093SOL    HW210179   4.816   6.899   3.108
 3094SOL     OW10180   3.396   5.548   5.048
 3094SOL    HW110181   3.386   5.647   5.038
 3094SOL    HW210182   3.334   5.502   4.984
 3095SOL     OW10183   2.005   4.921   5.244
 3095SOL    HW110184   1.991   4.977   5.163
 3095SOL    HW210185   1.937   4.847   5.246
 3096SOL     OW10186   0.427   1.359   5.586
 3096SOL    HW110187   0.446   1.349   5.684
 3096SOL    HW210188   0.482   1.295   5.534
 3097SOL     OW10189   2.067   1.282   0.129
 3097SOL    HW110190   2.008   1.207   0.157
 3097SOL    HW210191   2.087   1.274   0.031
 3098SOL     OW10192   4.510   2.582   0.846
 3098SOL    HW110193   4.609   2.577   0.827
 3098SOL    HW210194   4.487   2.675   0.874
 3099SOL     OW10195   1.641   6.018   5.206
 3099SOL    HW110196   1.562   6.078   5.196
 3099SOL    HW210197   1.655   5.997   5.303
 3100SOL     OW10198   6.554   6.576   5.919
 3100SOL    HW110199   6.461   6.555   5.950
 3100SOL    HW210200   6.590   6.653   5.971
 3101SOL     OW10201   3.689   0.324   1.088
 3101SOL    HW110202   3.600   0.307   1.130
 3101SOL    HW210203   3.758   0.267   1.133
 3102SOL     OW10204   0.729   5.897   0.307
 3102SOL    HW110205   0.631   5.886   0.295
 3102SOL    HW210206   0.746   5.973   0.371
 3103SOL     OW10207   4.345   4.339   1.587
 3103SOL    HW110208   4.404   4.291   1.652
 3103SOL    HW210209   4.286   4.272   1.541
 3104SOL     OW10210   5.771   5.663   3.944
 3104SOL    HW110211   5.775   5.611   3.858
 3104SOL    HW210212   5.705   5.737   3.934
 3105SOL     OW10213   6.013   5.700   3.717
 3105SOL    HW110214   5.930   5.722   3.666
 3105SOL    HW210215   6.093   5.734   3.667
 3106SOL     OW10216   6.611   2.846   5.062
 3106SOL    HW110217   6.550   2.907   5.012
 3106SOL    HW210218   6.649   2.895   5.141
 3107SOL     OW10219   2.680   0.036   4.289
 3107SOL    HW110220   2.737   0.113   4.261
 3107SOL    HW210221   2.658   0.044   4.386
 3108SOL     OW10222   2.087   0.601   2.673
 3108SOL    HW110223   2.118   0.507   2.686
 3108SOL    HW210224   2.164   0.658   2.645
 3109SOL     OW10225   4.774   5.749   3.542
 3109SOL    HW110226   4.797   5.745   3.445
 3109SOL    HW210227   4.845   5.800   3.591
 3110SOL     OW10228   1.476   3.077   1.647
 3110SOL    HW110229   1.529   3.077   1.562
 3110SOL    HW210230   1.394   3.133   1.635
 3111SOL     OW10231   0.376   4.791   2.403
 3111SOL    HW110232   0.470   4.780   2.370
 3111SOL    HW210233   0.371   4.872   2.461
 3112SOL     OW10234   2.719   3.784   5.950
 3112SOL    HW110235   2.690   3.874   5.917
 3112SOL    HW210236   2.797   3.795   6.011
 3113SOL     OW10237   4.011   6.565   3.924
 3113SOL    HW110238   4.102   6.553   3.884
 3113SOL    HW210239   4.019   6.601   4.016
 3114SOL     OW10240   5.082   5.687   0.578
 3114SOL    HW110241   5.032   5.712   0.661
 3114SOL    HW210242   5.093   5.768   0.520
 3115SOL     OW10243   2.840   3.426   2.083
 3115SOL    HW110244   2.812   3.498   2.147
 3115SOL    HW210245   2.873   3.347   2.134
 3116SOL     OW10246   0.310   0.973   0.002
 3116SOL    HW110247   0.404   0.990   6.999
 3116SOL    HW210248   0.291   0.875   7.025
 3117SOL     OW10249   3.609   4.176   5.678
 3117SOL    HW110250   3.524   4.162   5.729
 3117SOL    HW210251   3.588   4.226   5.594
 3118SOL     OW10252   6.193   5.375   6.995
 3118SOL    HW110253   6.131   5.341   6.925
 3118SOL    HW210254   6.234   5.461   6.965
 3119SOL     OW10255   2.282   4.196   0.003
 3119SOL    HW110256   2.315   4.170   6.939
 3119SOL    HW210257   2.277   4.295   0.010
 3120SOL     OW10258   2.698   5.424   6.440
 3120SOL    HW110259   2.618   5.441   6.382
 3120SOL    HW210260   2.677   5.449   6.534
 3121SOL     OW10261   0.248   5.905   3.541
 3121SOL    HW110262   0.216   5.819   3.582
 3121SOL    HW210263   0.298   5.885   3.456
 3122SOL     OW10264   3.693   5.409   1.220
 3122SOL    HW110265   3.707   5.404   1.121
 3122SOL    HW210266   3.596   5.400   1.240
 3123SOL     OW10267   3.219   6.945   4.297
 3123SOL    HW110268   3.223   0.018   4.289
 3123SOL    HW210269   3.288   6.913   4.362
 3124SOL     OW10270   3.664   0.180   6.069
 3124SOL    HW110271   3.727   0.234   6.013
 3124SOL    HW210272   3.593   0.240   6.106
 3125SOL     OW10273   0.236   2.445   5.978
 3125SOL    HW110274   0.328   2.482   5.969
 3125SOL    HW210275   0.240   2.353   6.017
 3126SOL     OW10276   4.041   6.253   6.432
 3126SOL    HW110277   4.035   6.314   6.353
 3126SOL    HW210278   3.962   6.267   6.491
 3127SOL     OW10279   1.232   1.704   3.963
 3127SOL    HW110280   1.207   1.758   3.882
 3127SOL    HW210281   1.281   1.762   4.028
 3128SOL     OW10282   1.855   0.365   1.400
 3128SOL    HW110283   1.764   0.335   1.429
 3128SOL    HW210284   1.886   0.309   1.323
 3129SOL     OW10285   1.014   3.114   3.262
 3129SOL    HW110286   0.941   3.107   3.195
 3129SOL    HW210287   1.103   3.106   3.216
 3130SOL     OW10288   2.828   5.436   3.272
 3130SOL    HW110289   2.768   5.410   3.348
 3130SOL    HW210290   2.807   5.380   3.192
 3131SOL     OW10291   0.990   2.807   4.713
 3131SOL    HW110292   0.931   2.751   4.655
 3131SOL    HW210293   1.032   2.879   4.657
 3132SOL     OW10294   5.079   4.261   5.720
 3132SOL    HW110295   5.130   4.220   5.795
 3132SOL    HW210296   5.020   4.334   5.755
 3133SOL     OW10297   2.314   1.920   3.331
 3133SOL    HW110298   2.338   1.826   3.354
 3133SOL    HW210299   2.309   1.930   3.231
 3134SOL     OW10300   5.623   2.929   1.600
 3134SOL    HW110301   5.686   2.934   1.678
 3134SOL    HW210302   5.540   2.982   1.621
 3135SOL     OW10303   1.365   2.194   3.123
 3135SOL    HW110304   1.274   2.236   3.126
 3135SOL    HW210305   1.364   2.109   3.175
 3136SOL     OW10306   6.179   0.163   5.065
 3136SOL    HW110307   6.278   0.175   5.061
 3136SOL    HW210308   6.155   0.101   5.140
 3137SOL     OW10309   0.479   1.944   4.235
 3137SOL    HW110310   0.544   2.016   4.211
 3137SOL    HW210311   0.387   1.975   4.214
 3138SOL     OW10312   6.030   2.206   4.448
 3138SOL    HW110313   5.973   2.273   4.495
 3138SOL    HW210314   5.981   2.119   4.441
 3139SOL     OW10315   4.634   5.415   5.279
 3139SOL    HW110316   4.622   5.363   5.364
 3139SOL    HW210317   4.705   5.370   5.223
 3140SOL     OW10318   5.825   6.164   5.942
 3140SOL    HW110319   5.746   6.150   5.883
 3140SOL    HW210320   5.794   6.178   6.036
 3141SOL     OW10321   1.014   5.910   2.011
 3141SOL    HW110322   0.921   5.881   2.030
 3141SOL    HW210323   1.071   5.897   2.093
 3142SOL     OW10324   3.896   0.080   0.330
 3142SOL    HW110325   3.946   7.021   0.340
 3142SOL    HW210326   3.829   0.072   0.257
 3143SOL     OW10327   0.377   1.861   0.714
 3143SOL    HW110328   0.404   1.764   0.712
 3143SOL    HW210329   0.280   1.869   0.690
 3144SOL     OW10330   2.319   3.042   6.823
 3144SOL    HW110331   2.242   3.018   6.882
 3144SOL    HW210332   2.368   2.960   6.796
 3145SOL     OW10333   3.153   5.145   3.021
 3145SOL    HW110334   3.124   5.053   2.997
 3145SOL    HW210335   3.145   5.158   3.120
 3146SOL     OW10336   2.464   6.849   3.961
 3146SOL    HW110337   2.480   6.869   4.058
 3146SOL    HW210338   2.467   6.750   3.947
 3147SOL     OW10339   3.667   4.506   0.703
 3147SOL    HW110340   3.655   4.485   0.799
 3147SOL    HW210341   3.578   4.507   0.657
 3148SOL     OW10342   3.232   5.790   4.772
 3148SOL    HW110343   3.235   5.692   4.790
 3148SOL    HW210344   3.316   5.818   4.726
 3149SOL     OW10345   2.407   6.644   6.003
 3149SOL    HW110346   2.438   6.739   5.992
 3149SOL    HW210347   2.477   6.592   6.053
 3150SOL     OW10348   6.890   6.663   4.255
 3150SOL    HW110349   6.871   6.751   4.300
 3150SOL    HW210350   6.967   6.674   4.193
 3151SOL     OW10351   3.616   6.934   1.668
 3151SOL    HW110352   3.608   6.888   1.756
 3151SOL    HW210353   3.601   0.005   1.680
 3152SOL     OW10354   1.896   4.759   6.160
 3152SOL    HW110355   1.824   4.714   6.212
 3152SOL    HW210356   1.938   4.831   6.215
 3153SOL     OW10357   6.736   4.625   3.218
 3153SOL    HW110358   6.774   4.714   3.245
 3153SOL    HW210359   6.722   4.623   3.119
 3154SOL     OW10360   5.624   2.444   6.183
 3154SOL    HW110361   5.619   2.416   6.087
 3154SOL    HW210362   5.663   2.535   6.190
 3155SOL     OW10363   4.307   5.943   0.522
 3155SOL    HW110364   4.337   5.948   0.427
 3155SOL    HW210365   4.308   6.034   0.562
 3156SOL     OW10366   3.587   3.601   3.365
 3156SOL    HW110367   3.554   3.507   3.374
 3156SOL    HW210368   3.536   3.647   3.293
 3157SOL     OW10369   2.130   2.222   4.912
 3157SOL    HW110370   2.053   2.159   4.902
 3157SOL    HW210371   2.112   2.306   4.861
 3158SOL     OW10372   4.630   6.827   1.523
 3158SOL    HW110373   4.691   6.897   1.488
 3158SOL    HW210374   4.618   6.755   1.454
 3159SOL     OW10375   5.050   4.604   0.730
 3159SOL    HW110376   5.141   4.617   0.768
 3159SOL    HW210377   5.009   4.693   0.710
 3160SOL     OW10378   6.183   4.692   0.658
 3160SOL    HW110379   6.142   4.672   0.746
 3160SOL    HW210380   6.282   4.683   0.664
 3161SOL     OW10381   1.265   1.275   3.969
 3161SOL    HW110382   1.184   1.333   3.972
 3161SOL    HW210383   1.321   1.291   4.051
 3162SOL     OW10384   0.155   0.095   5.691
 3162SOL    HW110385   0.209   0.080   5.608
 3162SOL    HW210386   0.105   0.011   5.713
 3163SOL     OW10387   1.825   4.578   5.329
 3163SOL    HW110388   1.880   4.509   5.282
 3163SOL    HW210389   1.870   4.603   5.415
 3164SOL     OW10390   6.473   5.223   5.543
 3164SOL    HW110391   6.393   5.281   5.533
 3164SOL    HW210392   6.495   5.181   5.455
 3165SOL     OW10393   0.459   2.875   1.707
 3165SOL    HW110394   0.415   2.785   1.710
 3165SOL    HW210395   0.431   2.928   1.787
 3166SOL     OW10396   4.147   2.988   6.265
 3166SOL    HW110397   4.215   2.952   6.201
 3166SOL    HW210398   4.124   3.082   6.240
 3167SOL     OW10399   0.110   4.713   2.393
 3167SOL    HW110400   0.070   4.791   2.442
 3167SOL    HW210401   0.210   4.721   2.394
 3168SOL     OW10402   6.158   2.769   1.003
 3168SOL    HW110403   6.252   2.793   1.027
 3168SOL    HW210404   6.152   2.670   0.988
 3169SOL     OW10405   2.473   2.117   5.657
 3169SOL    HW110406   2.418   2.175   5.717
 3169SOL    HW210407   2.477   2.158   5.566
 3170SOL     OW10408   3.820   6.905   5.204
 3170SOL    HW110409   3.783   6.972   5.140
 3170SOL    HW210410   3.754   6.831   5.218
 3171SOL     OW10411   5.706   5.972   2.884
 3171SOL    HW110412   5.702   5.873   2.880
 3171SOL    HW210413   5.619   6.008   2.919
 3172SOL     OW10414   5.832   6.907   5.556
 3172SOL    HW110415   5.790   6.969   5.621
 3172SOL    HW210416   5.767   6.835   5.530
 3173SOL     OW10417   2.076   0.884   1.851
 3173SOL    HW110418   2.001   0.822   1.828
 3173SOL    HW210419   2.162   0.833   1.856
 3174SOL     OW10420   2.526   3.194   6.485
 3174SOL    HW110421   2.473   3.269   6.445
 3174SOL    HW210422   2.556   3.132   6.413
 3175SOL     OW10423   7.013   6.563   0.415
 3175SOL    HW110424   0.031   6.647   0.443
 3175SOL    HW210425   0.037   6.484   0.450
 3176SOL     OW10426   1.060   5.349   0.104
 3176SOL    HW110427   0.970   5.373   0.065
 3176SOL    HW210428   1.053   5.262   0.153
 3177SOL     OW10429   0.908   6.966   4.344
 3177SOL    HW110430   0.967   7.011   4.277
 3177SOL    HW210431   0.915   6.867   4.334
 3178SOL     OW10432   3.318   3.270   0.068
 3178SOL    HW110433   3.318   3.335   7.019
 3178SOL    HW210434   3.233   3.218   0.066
 3179SOL     OW10435   1.114   2.477   3.948
 3179SOL    HW110436   1.136   2.493   4.045
 3179SOL    HW210437   1.190   2.428   3.905
 3180SOL     OW10438   6.477   1.291   6.370
 3180SOL    HW110439   6.540   1.244   6.433
 3180SOL    HW210440   6.392   1.240   6.363
 3181SOL     OW10441   0.864   1.922   2.848
 3181SOL    HW110442   0.820   2.008   2.876
 3181SOL    HW210443   0.801   1.868   2.793
 3182SOL     OW10444   1.931   4.675   5.878
 3182SOL    HW110445   1.984   4.743   5.826
 3182SOL    HW210446   1.947   4.688   5.976
 3183SOL     OW10447   4.375   3.665   1.251
 3183SOL    HW110448   4.442   3.593   1.233
 3183SOL    HW210449   4.423   3.753   1.260
 3184SOL     OW10450   0.539   2.196   3.225
 3184SOL    HW110451   0.613   2.260   3.245
 3184SOL    HW210452   0.531   2.130   3.300
 3185SOL     OW10453   0.415   6.380   6.957
 3185SOL    HW110454   0.410   6.281   6.974
 3185SOL    HW210455   0.435   6.397   6.861
 3186SOL     OW10456   3.178   0.158   1.434
 3186SOL    HW110457   3.164   0.254   1.407
 3186SOL    HW210458   3.275   0.143   1.453
 3187SOL     OW10459   2.963   4.160   0.214
 3187SOL    HW110460   2.979   4.066   0.183
 3187SOL    HW210461   3.032   4.220   0.174
 3188SOL     OW10462   3.777   6.822   2.996
 3188SOL    HW110463   3.802   6.767   3.076
 3188SOL    HW210464   3.854   6.825   2.932
 3189SOL     OW10465   5.974   6.505   2.235
 3189SOL    HW110466   5.881   6.541   2.244
 3189SOL    HW210467   5.978   6.441   2.158
 3190SOL     OW10468   1.308   0.157   2.005
 3190SOL    HW110469   1.329   0.140   2.101
 3190SOL    HW210470   1.218   0.201   1.999
 3191SOL     OW10471   3.786   1.428   0.344
 3191SOL    HW110472   3.785   1.344   0.289
 3191SOL    HW210473   3.693   1.464   0.351
 3192SOL     OW10474   5.461   2.701   4.198
 3192SOL    HW110475   5.449   2.669   4.104
 3192SOL    HW210476   5.391   2.661   4.256
 3193SOL     OW10477   5.390   4.373   1.433
 3193SOL    HW110478   5.456   4.395   1.505
 3193SOL    HW210479   5.311   4.327   1.473
 3194SOL     OW10480   2.842   5.681   4.770
 3194SOL    HW110481   2.898   5.654   4.849
 3194SOL    HW210482   2.781   5.606   4.746
 3195SOL     OW10483   6.967   4.593   3.821
 3195SOL    HW110484   7.010   4.510   3.855
 3195SOL    HW210485   7.021   4.673   3.848
 3196SOL     OW10486   0.023   6.352   6.023
 3196SOL    HW110487   0.065   6.262   6.029
 3196SOL    HW210488   0.090   6.422   6.051
 3197SOL     OW10489   1.116   4.437   5.272
 3197SOL    HW110490   1.089   4.356   5.220
 3197SOL    HW210491   1.089   4.426   5.367
 3198SOL     OW10492   5.947   0.037   0.460
 3198SOL    HW110493   6.008   7.007   0.405
 3198SOL    HW210494   5.969   0.026   0.557
 3199SOL     OW10495   2.997   1.458   3.055
 3199SOL    HW110496   3.027   1.379   3.108
 3199SOL    HW210497   3.061   1.533   3.069
 3200SOL     OW10498   6.220   2.149   0.368
 3200SOL    HW110499   6.124   2.149   0.339
 3200SOL    HW210500   6.239   2.064   0.419
 3201SOL     OW10501   4.128   4.732   3.017
 3201SOL    HW110502   4.035   4.765   3.001
 3201SOL    HW210503   4.134   4.690   3.108
 3202SOL     OW10504   1.482   5.192   1.722
 3202SOL    HW110505   1.460   5.278   1.677
 3202SOL    HW210506   1.577   5.168   1.705
 3203SOL     OW10507   4.630   0.335   0.263
 3203SOL    HW110508   4.700   0.264   0.257
 3203SOL    HW210509   4.604   0.348   0.359
 3204SOL     OW10510   6.513   6.453   1.965
 3204SOL    HW110511   6.495   6.531   1.905
 3204SOL    HW210512   6.548   6.377   1.911
 3205SOL     OW10513   0.932   3.775   4.498
 3205SOL    HW110514   0.986   3.708   4.549
 3205SOL    HW210515   0.898   3.733   4.413
 3206SOL     OW10516   1.746   6.640   0.020
 3206SOL    HW110517   1.835   6.620   0.060
 3206SOL    HW210518   1.724   6.571   6.978
 3207SOL     OW10519   1.483   1.835   3.035
 3207SOL    HW110520   1.445   1.743   3.021
 3207SOL    HW210521   1.583   1.831   3.030
 3208SOL     OW10522   6.305   6.789   5.457
 3208SOL    HW110523   6.351   6.728   5.392
 3208SOL    HW210524   6.247   6.853   5.406
 3209SOL     OW10525   0.818   6.719   3.702
 3209SOL    HW110526   0.854   6.632   3.668
 3209SOL    HW210527   0.782   6.772   3.625
 3210SOL     OW10528   0.782   5.838   2.136
 3210SOL    HW110529   0.787   5.823   2.234
 3210SOL    HW210530   0.693   5.877   2.113
 3211SOL     OW10531   0.139   4.498   3.567
 3211SOL    HW110532   0.157   4.554   3.486
 3211SOL    HW210533   0.175   4.545   3.648
 3212SOL     OW10534   4.650   2.763   4.942
 3212SOL    HW110535   4.608   2.745   4.853
 3212SOL    HW210536   4.593   2.725   5.015
 3213SOL     OW10537   5.419   6.900   1.394
 3213SOL    HW110538   5.474   6.927   1.473
 3213SOL    HW210539   5.337   6.956   1.390
 3214SOL     OW10540   4.531   3.972   0.156
 3214SOL    HW110541   4.574   3.883   0.173
 3214SOL    HW210542   4.599   4.044   0.172
 3215SOL     OW10543   6.210   1.644   6.941
 3215SOL    HW110544   6.179   1.737   6.922
 3215SOL    HW210545   6.270   1.613   6.868
 3216SOL     OW10546   5.271   6.495   4.984
 3216SOL    HW110547   5.361   6.451   4.993
 3216SOL    HW210548   5.223   6.457   4.905
 3217SOL     OW10549   6.722   4.476   6.629
 3217SOL    HW110550   6.763   4.497   6.718
 3217SOL    HW210551   6.725   4.377   6.614
 3218SOL     OW10552   4.022   2.297   1.504
 3218SOL    HW110553   3.980   2.354   1.575
 3218SOL    HW210554   3.971   2.211   1.496
 3219SOL     OW10555   0.504   1.553   3.064
 3219SOL    HW110556   0.568   1.513   3.129
 3219SOL    HW210557   0.540   1.543   2.971
 3220SOL     OW10558   6.606   3.224   6.815
 3220SOL    HW110559   6.671   3.290   6.777
 3220SOL    HW210560   6.514   3.262   6.811
 3221SOL     OW10561   3.562   0.797   1.671
 3221SOL    HW110562   3.579   0.711   1.719
 3221SOL    HW210563   3.478   0.839   1.705
 3222SOL     OW10564   6.535   3.996   2.327
 3222SOL    HW110565   6.575   4.082   2.358
 3222SOL    HW210566   6.542   3.927   2.399
 3223SOL     OW10567   1.698   4.287   4.712
 3223SOL    HW110568   1.776   4.233   4.743
 3223SOL    HW210569   1.702   4.378   4.754
 3224SOL     OW10570   3.194   6.040   0.981
 3224SOL    HW110571   3.143   5.954   0.975
 3224SOL    HW210572   3.139   6.108   1.030
 3225SOL     OW10573   1.567   2.776   0.870
 3225SOL    HW110574   1.527   2.868   0.872
 3225SOL    HW210575   1.619   2.765   0.786
 3226SOL     OW10576   6.393   1.332   3.949
 3226SOL    HW110577   6.488   1.328   3.982
 3226SOL    HW210578   6.331   1.310   4.024
 3227SOL     OW10579   2.591   1.715   5.340
 3227SOL    HW110580   2.649   1.765   5.275
 3227SOL    HW210581   2.558   1.778   5.411
 3228SOL     OW10582   4.886   3.301   4.955
 3228SOL    HW110583   4.863   3.389   4.996
 3228SOL    HW210584   4.802   3.251   4.933
 3229SOL     OW10585   4.605   1.630   5.013
 3229SOL    HW110586   4.677   1.627   4.944
 3229SOL    HW210587   4.539   1.702   4.990
 3230SOL     OW10588   1.384   0.185   4.092
 3230SOL    HW110589   1.409   0.227   4.179
 3230SOL    HW210590   1.319   0.242   4.044
 3231SOL     OW10591   4.477   4.472   0.481
 3231SOL    HW110592   4.493   4.494   0.385
 3231SOL    HW210593   4.484   4.373   0.494
 3232SOL     OW10594   1.172   3.920   3.261
 3232SOL    HW110595   1.106   3.864   3.311
 3232SOL    HW210596   1.125   4.001   3.225
 3233SOL     OW10597   2.427   4.203   0.882
 3233SOL    HW110598   2.375   4.172   0.803
 3233SOL    HW210599   2.369   4.260   0.940
 3234SOL     OW10600   6.762   1.736   4.569
 3234SOL    HW110601   6.729   1.685   4.490
 3234SOL    HW210602   6.691   1.798   4.600
 3235SOL     OW10603   6.262   0.856   2.519
 3235SOL    HW110604   6.250   0.765   2.479
 3235SOL    HW210605   6.178   0.908   2.507
 3236SOL     OW10606   0.378   2.052   1.336
 3236SOL    HW110607   0.416   1.996   1.411
 3236SOL    HW210608   0.279   2.041   1.334
 3237SOL     OW10609   2.798   6.091   4.534
 3237SOL    HW110610   2.715   6.138   4.504
 3237SOL    HW210611   2.828   6.028   4.463
 3238SOL     OW10612   6.464   6.688   6.808
 3238SOL    HW110613   6.470   6.589   6.794
 3238SOL    HW210614   6.412   6.707   6.891
 3239SOL     OW10615   1.812   6.256   6.163
 3239SOL    HW110616   1.788   6.348   6.134
 3239SOL    HW210617   1.906   6.255   6.199
 3240SOL     OW10618   1.187   2.074   4.823
 3240SOL    HW110619   1.271   2.075   4.877
 3240SOL    HW210620   1.121   2.013   4.866
 3241SOL     OW10621   3.535   6.641   5.233
 3241SOL    HW110622   3.560   6.572   5.301
 3241SOL    HW210623   3.489   6.597   5.156
 3242SOL     OW10624   2.865   0.565   1.053
 3242SOL    HW110625   2.909   0.627   0.989
 3242SOL    HW210626   2.767   0.585   1.056
 3243SOL     OW10627   4.065   5.487   2.334
 3243SOL    HW110628   3.974   5.458   2.304
 3243SOL    HW210629   4.134   5.426   2.297
 3244SOL     OW10630   0.924   0.025   5.180
 3244SOL    HW110631   0.971   6.973   5.219
 3244SOL    HW210632   0.973   0.109   5.203
 3245SOL     OW10633   3.323   1.581   5.775
 3245SOL    HW110634   3.396   1.559   5.840
 3245SOL    HW210635   3.337   1.674   5.740
 3246SOL     OW10636   5.760   6.540   2.575
 3246SOL    HW110637   5.739   6.453   2.620
 3246SOL    HW210638   5.766   6.612   2.643
 3247SOL     OW10639   6.064   3.157   5.425
 3247SOL    HW110640   6.095   3.211   5.347
 3247SOL    HW210641   6.143   3.120   5.474
 3248SOL     OW10642   5.054   4.166   3.303
 3248SOL    HW110643   5.121   4.211   3.363
 3248SOL    HW210644   4.966   4.160   3.351
 3249SOL     OW10645   3.319   5.334   5.426
 3249SOL    HW110646   3.382   5.282   5.369
 3249SOL    HW210647   3.239   5.361   5.372
 3250SOL     OW10648   4.240   4.613   0.813
 3250SOL    HW110649   4.319   4.665   0.780
 3250SOL    HW210650   4.195   4.568   0.737
 3251SOL     OW10651   2.580   1.408   3.361
 3251SOL    HW110652   2.491   1.394   3.319
 3251SOL    HW210653   2.648   1.427   3.290
 3252SOL     OW10654   3.160   2.149   3.047
 3252SOL    HW110655   3.069   2.120   3.075
 3252SOL    HW210656   3.160   2.167   2.948
 3253SOL     OW10657   5.134   4.258   1.503
 3253SOL    HW110658   5.124   4.159   1.516
 3253SOL    HW210659   5.073   4.306   1.566
 3254SOL     OW10660   6.404   4.280   2.771
 3254SOL    HW110661   6.307   4.304   2.762
 3254SOL    HW210662   6.414   4.181   2.772
 3255SOL     OW10663   3.574   4.937   0.744
 3255SOL    HW110664   3.506   4.929   0.671
 3255SOL    HW210665   3.658   4.978   0.708
 3256SOL     OW10666   6.630   0.341   5.168
 3256SOL    HW110667   6.644   0.267   5.235
 3256SOL    HW210668   6.585   0.418   5.213
 3257SOL     OW10669   2.708   1.175   1.352
 3257SOL    HW110670   2.745   1.156   1.261
 3257SOL    HW210671   2.751   1.257   1.389
 3258SOL     OW10672   5.157   6.666   2.234
 3258SOL    HW110673   5.254   6.656   2.215
 3258SOL    HW210674   5.107   6.676   2.148
 3259SOL     OW10675   5.656   5.680   3.151
 3259SOL    HW110676   5.742   5.725   3.175
 3259SOL    HW210677   5.607   5.654   3.234
 3260SOL     OW10678   2.336   1.435   1.178
 3260SOL    HW110679   2.237   1.432   1.166
 3260SOL    HW210680   2.372   1.522   1.144
 3261SOL     OW10681   4.825   6.654   3.977
 3261SOL    HW110682   4.857   6.725   4.039
 3261SOL    HW210683   4.872   6.568   3.998
 3262SOL     OW10684   4.804   2.095   3.666
 3262SOL    HW110685   4.734   2.024   3.680
 3262SOL    HW210686   4.895   2.054   3.673
 3263SOL     OW10687   3.315   4.906   3.342
 3263SOL    HW110688   3.296   4.917   3.439
 3263SOL    HW210689   3.236   4.866   3.297
 3264SOL     OW10690   5.485   4.306   6.474
 3264SOL    HW110691   5.478   4.404   6.492
 3264SOL    HW210692   5.580   4.284   6.450
 3265SOL     OW10693   5.510   7.016   5.451
 3265SOL    HW110694   5.523   6.978   5.359
 3265SOL    HW210695   5.473   6.946   5.512
 3266SOL     OW10696   1.300   2.639   6.834
 3266SOL    HW110697   1.255   2.622   6.922
 3266SOL    HW210698   1.239   2.691   6.774
 3267SOL     OW10699   5.182   3.876   2.046
 3267SOL    HW110700   5.242   3.925   2.109
 3267SOL    HW210701   5.216   3.783   2.032
 3268SOL     OW10702   1.849   5.378   0.528
 3268SOL    HW110703   1.858   5.385   0.627
 3268SOL    HW210704   1.754   5.389   0.502
 3269SOL     OW10705   4.672   3.479   1.084
 3269SOL    HW110706   4.581   3.442   1.065
 3269SOL    HW210707   4.673   3.521   1.175
 3270SOL     OW10708   6.548   5.705   3.649
 3270SOL    HW110709   6.586   5.613   3.635
 3270SOL    HW210710   6.557   5.758   3.565
 3271SOL     OW10711   4.837   6.576   0.848
 3271SOL    HW110712   4.866   6.648   0.912
 3271SOL    HW210713   4.909   6.562   0.779
 3272SOL     OW10714   4.600   5.654   6.029
 3272SOL    HW110715   4.512   5.614   6.005
 3272SOL    HW210716   4.599   5.682   6.125
 3273SOL     OW10717   0.195   0.418   3.112
 3273SOL    HW110718   0.289   0.402   3.085
 3273SOL    HW210719   0.133   0.370   3.049
 3274SOL     OW10720   2.955   0.793   0.915
 3274SOL    HW110721   3.011   0.791   0.998
 3274SOL    HW210722   2.957   0.884   0.875
 3275SOL     OW10723   4.141   0.021   6.985
 3275SOL    HW110724   4.170   0.095   0.019
 3275SOL    HW210725   4.221   7.008   6.940
 3276SOL     OW10726   1.256   5.736   1.343
 3276SOL    HW110727   1.303   5.763   1.259
 3276SOL    HW210728   1.299   5.781   1.422
 3277SOL     OW10729   0.372   6.103   6.916
 3277SOL    HW110730   0.287   6.117   6.966
 3277SOL    HW210731   0.355   6.116   6.818
 3278SOL     OW10732   1.204   0.065   0.123
 3278SOL    HW110733   1.214   0.140   0.189
 3278SOL    HW210734   1.293   0.024   0.105
 3279SOL     OW10735   2.270   6.557   1.414
 3279SOL    HW110736   2.286   6.627   1.345
 3279SOL    HW210737   2.253   6.600   1.503
 3280SOL     OW10738   2.701   5.987   3.427
 3280SOL    HW110739   2.617   5.934   3.439
 3280SOL    HW210740   2.779   5.924   3.424
 3281SOL     OW10741   0.957   6.144   1.272
 3281SOL    HW110742   0.969   6.179   1.365
 3281SOL    HW210743   1.038   6.163   1.218
 3282SOL     OW10744   1.891   4.757   2.502
 3282SOL    HW110745   1.912   4.755   2.404
 3282SOL    HW210746   1.855   4.846   2.526
 3283SOL     OW10747   1.876   0.534   3.602
 3283SOL    HW110748   1.786   0.573   3.585
 3283SOL    HW210749   1.872   0.474   3.682
 3284SOL     OW10750   1.751   5.879   5.567
 3284SOL    HW110751   1.694   5.935   5.626
 3284SOL    HW210752   1.739   5.782   5.590
 3285SOL     OW10753   0.435   2.924   4.494
 3285SOL    HW110754   0.407   2.876   4.577
 3285SOL    HW210755   0.515   2.981   4.514
 3286SOL     OW10756   5.266   4.583   6.264
 3286SOL    HW110757   5.334   4.584   6.338
 3286SOL    HW210758   5.184   4.633   6.293
 3287SOL     OW10759   0.266   2.688   1.525
 3287SOL    HW110760   0.172   2.707   1.555
 3287SOL    HW210761   0.315   2.774   1.512
 3288SOL     OW10762   0.575   0.248   0.863
 3288SOL    HW110763   0.652   0.207   0.815
 3288SOL    HW210764   0.588   0.347   0.868
 3289SOL     OW10765   1.591   0.373   3.978
 3289SOL    HW110766   1.518   0.337   4.036
 3289SOL    HW210767   1.589   0.327   3.889
 3290SOL     OW10768   0.003   4.845   3.899
 3290SOL    HW110769   0.045   4.875   3.813
 3290SOL    HW210770   6.953   4.905   3.921
 3291SOL     OW10771   1.011   2.004   1.927
 3291SOL    HW110772   1.065   1.921   1.915
 3291SOL    HW210773   1.072   2.083   1.926
 3292SOL     OW10774   0.857   6.024   4.302
 3292SOL    HW110775   0.816   6.012   4.392
 3292SOL    HW210776   0.888   6.119   4.291
 3293SOL     OW10777   6.007   0.441   2.894
 3293SOL    HW110778   6.003   0.506   2.970
 3293SOL    HW210779   6.092   0.455   2.842
 3294SOL     OW10780   6.447   0.044   0.871
 3294SOL    HW110781   6.366   0.049   0.930
 3294SOL    HW210782   6.492   6.983   0.883
 3295SOL     OW10783   3.005   3.324   6.129
 3295SOL    HW110784   2.937   3.274   6.182
 3295SOL    HW210785   2.991   3.309   6.032
 3296SOL     OW10786   0.700   6.668   1.742
 3296SOL    HW110787   0.737   6.632   1.829
 3296SOL    HW210788   0.737   6.614   1.666
 3297SOL     OW10789   3.243   1.006   5.598
 3297SOL    HW110790   3.192   1.075   5.649
 3297SOL    HW210791   3.209   1.002   5.504
 3298SOL     OW10792   0.591   5.149   3.225
 3298SOL    HW110793   0.588   5.192   3.134
 3298SOL    HW210794   0.651   5.069   3.222
 3299SOL     OW10795   1.486   1.477   4.572
 3299SOL    HW110796   1.475   1.547   4.501
 3299SOL    HW210797   1.501   1.388   4.528
 3300SOL     OW10798   0.161   6.722   4.842
 3300SOL    HW110799   0.081   6.741   4.786
 3300SOL    HW210800   0.235   6.786   4.819
 3301SOL     OW10801   6.377   4.247   2.110
 3301SOL    HW110802   6.290   4.266   2.157
 3301SOL    HW210803   6.385   4.148   2.094
 3302SOL     OW10804   1.573   6.030   5.710
 3302SOL    HW110805   1.479   6.065   5.709
 3302SOL    HW210806   1.625   6.074   5.783
 3303SOL     OW10807   3.151   3.376   4.838
 3303SOL    HW110808   3.151   3.321   4.755
 3303SOL    HW210809   3.222   3.446   4.831
 3304SOL     OW10810   1.564   1.143   4.000
 3304SOL    HW110811   1.539   1.066   3.940
 3304SOL    HW210812   1.628   1.202   3.952
 3305SOL     OW10813   0.785   2.520   0.336
 3305SOL    HW110814   0.804   2.522   0.434
 3305SOL    HW210815   0.688   2.504   0.321
 3306SOL     OW10816   1.629   1.523   1.202
 3306SOL    HW110817   1.680   1.579   1.268
 3306SOL    HW210818   1.636   1.564   1.111
 3307SOL     OW10819   0.518   6.975   0.059
 3307SOL    HW110820   0.563   7.023   7.011
 3307SOL    HW210821   0.509   6.878   0.036
 3308SOL     OW10822   5.318   5.931   0.833
 3308SOL    HW110823   5.342   6.025   0.809
 3308SOL    HW210824   5.238   5.932   0.893
 3309SOL     OW10825   1.038   4.300   1.723
 3309SOL    HW110826   0.986   4.296   1.638
 3309SOL    HW210827   1.050   4.208   1.760
 3310SOL     OW10828   2.237   6.021   1.649
 3310SOL    HW110829   2.229   6.049   1.554
 3310SOL    HW210830   2.334   6.010   1.673
 3311SOL     OW10831   4.115   5.388   1.007
 3311SOL    HW110832   4.211   5.360   1.011
 3311SOL    HW210833   4.099   5.444   0.926
 3312SOL     OW10834   2.022   2.348   6.377
 3312SOL    HW110835   2.022   2.372   6.280
 3312SOL    HW210836   2.113   2.367   6.415
 3313SOL     OW10837   5.729   6.704   5.207
 3313SOL    HW110838   5.825   6.731   5.194
 3313SOL    HW210839   5.714   6.677   5.302
 3314SOL     OW10840   0.694   4.209   6.272
 3314SOL    HW110841   0.645   4.227   6.187
 3314SOL    HW210842   0.693   4.111   6.292
 3315SOL     OW10843   5.723   3.120   2.893
 3315SOL    HW110844   5.798   3.182   2.915
 3315SOL    HW210845   5.755   3.025   2.900
 3316SOL     OW10846   3.520   0.321   6.729
 3316SOL    HW110847   3.524   0.222   6.717
 3316SOL    HW210848   3.610   0.361   6.712
 3317SOL     OW10849   4.991   2.998   0.924
 3317SOL    HW110850   4.928   2.959   0.992
 3317SOL    HW210851   5.080   3.012   0.967
 3318SOL     OW10852   2.283   5.047   6.505
 3318SOL    HW110853   2.372   5.071   6.544
 3318SOL    HW210854   2.249   4.964   6.550
 3319SOL     OW10855   0.940   5.984   6.338
 3319SOL    HW110856   0.840   5.993   6.337
 3319SOL    HW210857   0.981   6.076   6.336
 3320SOL     OW10858   1.142   0.790   1.334
 3320SOL    HW110859   1.169   0.877   1.376
 3320SOL    HW210860   1.063   0.753   1.384
 3321SOL     OW10861   3.751   3.555   4.429
 3321SOL    HW110862   3.721   3.633   4.374
 3321SOL    HW210863   3.713   3.470   4.391
 3322SOL     OW10864   4.948   3.434   2.772
 3322SOL    HW110865   4.924   3.423   2.676
 3322SOL    HW210866   4.967   3.530   2.791
 3323SOL     OW10867   1.408   4.559   0.391
 3323SOL    HW110868   1.431   4.657   0.391
 3323SOL    HW210869   1.320   4.545   0.346
 3324SOL     OW10870   6.592   3.471   1.686
 3324SOL    HW110871   6.521   3.473   1.616
 3324SOL    HW210872   6.675   3.514   1.650
 3325SOL     OW10873   1.002   5.071   4.972
 3325SOL    HW110874   0.937   5.007   5.015
 3325SOL    HW210875   1.079   5.085   5.033
 3326SOL     OW10876   4.959   6.966   2.254
 3326SOL    HW110877   4.956   0.039   2.259
 3326SOL    HW210878   5.032   6.938   2.191
 3327SOL     OW10879   4.556   6.214   1.390
 3327SOL    HW110880   4.625   6.268   1.439
 3327SOL    HW210881   4.473   6.207   1.446
 3328SOL     OW10882   6.096   6.487   3.670
 3328SOL    HW110883   6.155   6.566   3.688
 3328SOL    HW210884   6.054   6.497   3.580
 3329SOL     OW10885   5.701   0.417   6.169
 3329SOL    HW110886   5.612   0.380   6.144
 3329SOL    HW210887   5.747   0.355   6.232
 3330SOL     OW10888   6.169   0.196   2.771
 3330SOL    HW110889   6.230   0.184   2.850
 3330SOL    HW210890   6.167   0.292   2.744
 3331SOL     OW10891   0.997   3.537   2.434
 3331SOL    HW110892   0.944   3.610   2.390
 3331SOL    HW210893   0.952   3.449   2.417
 3332SOL     OW10894   4.198   4.980   0.890
 3332SOL    HW110895   4.113   4.929   0.883
 3332SOL    HW210896   4.190   5.066   0.840
 3333SOL     OW10897   2.568   3.960   0.936
 3333SOL    HW110898   2.665   3.966   0.957
 3333SOL    HW210899   2.530   4.053   0.926
 3334SOL     OW10900   1.740   2.742   2.570
 3334SOL    HW110901   1.789   2.822   2.535
 3334SOL    HW210902   1.717   2.682   2.494
 3335SOL     OW10903   4.729   4.007   6.287
 3335SOL    HW110904   4.747   4.021   6.190
 3335SOL    HW210905   4.651   4.064   6.314
 3336SOL     OW10906   3.710   5.617   5.758
 3336SOL    HW110907   3.731   5.531   5.807
 3336SOL    HW210908   3.644   5.599   5.686
 3337SOL     OW10909   3.173   3.949   4.080
 3337SOL    HW110910   3.182   4.045   4.109
 3337SOL    HW210911   3.104   3.904   4.136
 3338SOL     OW10912   3.233   2.738   1.593
 3338SOL    HW110913   3.144   2.767   1.630
 3338SOL    HW210914   3.238   2.762   1.496
 3339SOL     OW10915   1.072   6.862   6.183
 3339SOL    HW110916   1.087   6.850   6.282
 3339SOL    HW210917   1.036   6.953   6.165
 3340SOL     OW10918   4.921   1.483   6.358
 3340SOL    HW110919   4.917   1.488   6.458
 3340SOL    HW210920   4.829   1.472   6.322
 3341SOL     OW10921   1.105   4.206   1.359
 3341SOL    HW110922   1.116   4.230   1.263
 3341SOL    HW210923   1.195   4.195   1.401
 3342SOL     OW10924   5.774   0.515   2.310
 3342SOL    HW110925   5.696   0.464   2.274
 3342SOL    HW210926   5.823   0.459   2.377
 3343SOL     OW10927   3.765   4.994   1.068
 3343SOL    HW110928   3.792   4.964   1.160
 3343SOL    HW210929   3.670   5.026   1.070
 3344SOL     OW10930   1.273   3.546   1.500
 3344SOL    HW110931   1.266   3.552   1.599
 3344SOL    HW210932   1.289   3.451   1.473
 3345SOL     OW10933   4.999   5.049   0.932
 3345SOL    HW110934   4.934   4.973   0.925
 3345SOL    HW210935   5.092   5.016   0.913
 3346SOL     OW10936   1.135   0.954   6.801
 3346SOL    HW110937   1.141   1.054   6.794
 3346SOL    HW210938   1.053   0.923   6.753
 3347SOL     OW10939   0.856   3.376   5.435
 3347SOL    HW110940   0.839   3.281   5.463
 3347SOL    HW210941   0.836   3.437   5.512
 3348SOL     OW10942   3.398   3.994   6.114
 3348SOL    HW110943   3.426   3.899   6.108
 3348SOL    HW210944   3.465   4.045   6.168
 3349SOL     OW10945   2.151   5.105   1.888
 3349SOL    HW110946   2.088   5.030   1.908
 3349SOL    HW210947   2.209   5.081   1.810
 3350SOL     OW10948   3.085   5.783   4.203
 3350SOL    HW110949   3.141   5.755   4.281
 3350SOL    HW210950   3.092   5.715   4.130
 3351SOL     OW10951   5.593   6.977   1.595
 3351SOL    HW110952   5.643   0.032   1.624
 3351SOL    HW210953   5.635   6.897   1.636
 3352SOL     OW10954   5.916   1.134   0.311
 3352SOL    HW110955   6.000   1.082   0.296
 3352SOL    HW210956   5.848   1.107   0.244
 3353SOL     OW10957   3.958   0.676   5.926
 3353SOL    HW110958   3.896   0.626   5.987
 3353SOL    HW210959   3.989   0.759   5.971
 3354SOL     OW10960   2.767   1.810   0.286
 3354SOL    HW110961   2.799   1.744   0.355
 3354SOL    HW210962   2.844   1.861   0.250
 3355SOL     OW10963   1.048   1.925   5.346
 3355SOL    HW110964   1.129   1.976   5.374
 3355SOL    HW210965   0.997   1.978   5.278
 3356SOL     OW10966   3.069   0.416   5.516
 3356SOL    HW110967   3.105   0.492   5.461
 3356SOL    HW210968   3.005   0.452   5.584
 3357SOL     OW10969   3.113   4.062   4.427
 3357SOL    HW110970   3.032   4.110   4.393
 3357SOL    HW210971   3.089   4.011   4.509
 3358SOL     OW10972   6.958   1.923   1.455
 3358SOL    HW110973   6.979   1.932   1.357
 3358SOL    HW210974   6.955   2.014   1.497
 3359SOL     OW10975   1.361   6.967   4.031
 3359SOL    HW110976   1.268   6.957   3.996
 3359SOL    HW210977   1.375   0.035   4.061
 3360SOL     OW10978   0.867   5.419   4.792
 3360SOL    HW110979   0.950   5.432   4.737
 3360SOL    HW210980   0.838   5.508   4.829
 3361SOL     OW10981   0.367   7.027   4.498
 3361SOL    HW110982   0.372   7.021   4.398
 3361SOL    HW210983   0.435   0.065   4.531
 3362SOL     OW10984   2.981   0.930   5.235
 3362SOL    HW110985   2.997   0.842   5.191
 3362SOL    HW210986   2.942   0.915   5.325
 3363SOL     OW10987   4.999   3.547   0.487
 3363SOL    HW110988   4.918   3.602   0.508
 3363SOL    HW210989   5.038   3.578   0.400
 3364SOL     OW10990   1.612   3.095   1.067
 3364SOL    HW110991   1.513   3.090   1.078
 3364SOL    HW210992   1.634   3.143   0.983
 3365SOL     OW10993   0.614   2.645   2.858
 3365SOL    HW110994   0.567   2.601   2.934
 3365SOL    HW210995   0.683   2.582   2.820
 3366SOL     OW10996   5.848   3.584   3.493
 3366SOL    HW110997   5.805   3.596   3.583
 3366SOL    HW210998   5.849   3.487   3.470
 3367SOL     OW10999   3.272   4.124   3.883
 3367SOL    HW111000   3.232   4.044   3.927
 3367SOL    HW211001   3.319   4.180   3.951
 3368SOL     OW11002   1.455   1.136   3.554
 3368SOL    HW111003   1.454   1.181   3.464
 3368SOL    HW211004   1.362   1.116   3.582
 3369SOL     OW11005   5.607   2.682   0.505
 3369SOL    HW111006   5.565   2.766   0.470
 3369SOL    HW211007   5.585   2.673   0.602
 3370SOL     OW11008   0.638   5.670   3.346
 3370SOL    HW111009   0.601   5.751   3.300
 3370SOL    HW211010   0.588   5.589   3.316
 3371SOL     OW11011   2.468   3.030   1.141
 3371SOL    HW111012   2.548   2.978   1.171
 3371SOL    HW211013   2.497   3.120   1.110
 3372SOL     OW11014   5.128   3.038   3.002
 3372SOL    HW111015   5.075   3.085   2.931
 3372SOL    HW211016   5.193   3.101   3.042
 3373SOL     OW11017   0.381   4.729   1.142
 3373SOL    HW111018   0.424   4.771   1.062
 3373SOL    HW211019   0.395   4.787   1.222
 3374SOL     OW11020   1.210   5.599   3.885
 3374SOL    HW111021   1.133   5.660   3.867
 3374SOL    HW211022   1.198   5.515   3.832
 3375SOL     OW11023   6.960   6.875   5.414
 3375SOL    HW111024   6.982   6.780   5.394
 3375SOL    HW211025   7.022   6.936   5.364
 3376SOL     OW11026   3.486   3.807   4.872
 3376SOL    HW111027   3.547   3.869   4.921
 3376SOL    HW211028   3.540   3.753   4.806
 3377SOL     OW11029   6.911   5.583   4.427
 3377SOL    HW111030   6.816   5.555   4.439
 3377SOL    HW211031   6.941   5.558   4.335
 3378SOL     OW11032   1.300   5.851   0.477
 3378SOL    HW111033   1.320   5.829   0.381
 3378SOL    HW211034   1.248   5.936   0.481
 3379SOL     OW11035   6.223   4.620   3.830
 3379SOL    HW111036   6.165   4.620   3.912
 3379SOL    HW211037   6.316   4.646   3.855
 3380SOL     OW11038   1.479   4.485   1.943
 3380SOL    HW111039   1.538   4.564   1.924
 3380SOL    HW211040   1.432   4.499   2.030
 3381SOL     OW11041   2.994   4.146   6.830
 3381SOL    HW111042   3.069   4.189   6.881
 3381SOL    HW211043   2.986   4.190   6.740
 3382SOL     OW11044   0.255   4.377   6.352
 3382SOL    HW111045   0.200   4.459   6.365
 3382SOL    HW211046   0.204   4.297   6.385
 3383SOL     OW11047   3.667   5.977   0.315
 3383SOL    HW111048   3.623   6.040   0.379
 3383SOL    HW211049   3.736   6.026   0.262
 3384SOL     OW11050   3.576   2.436   5.900
 3384SOL    HW111051   3.519   2.465   5.977
 3384SOL    HW211052   3.671   2.464   5.916
 3385SOL     OW11053   5.910   2.384   4.613
 3385SOL    HW111054   5.881   2.344   4.700
 3385SOL    HW211055   5.829   2.408   4.559
 3386SOL     OW11056   0.246   4.782   5.673
 3386SOL    HW111057   0.266   4.842   5.751
 3386SOL    HW211058   0.149   4.789   5.649
 3387SOL     OW11059   5.924   0.662   2.614
 3387SOL    HW111060   5.969   0.715   2.686
 3387SOL    HW211061   5.826   0.655   2.634
 3388SOL     OW11062   0.936   3.838   0.600
 3388SOL    HW111063   0.913   3.749   0.561
 3388SOL    HW211064   0.854   3.881   0.636
 3389SOL     OW11065   6.373   5.582   5.796
 3389SOL    HW111066   6.446   5.517   5.773
 3389SOL    HW211067   6.287   5.533   5.810
 3390SOL     OW11068   2.936   4.749   0.922
 3390SOL    HW111069   2.923   4.653   0.895
 3390SOL    HW211070   2.921   4.758   1.021
 3391SOL     OW11071   5.243   3.915   5.454
 3391SOL    HW111072   5.253   3.980   5.529
 3391SOL    HW211073   5.292   3.949   5.374
 3392SOL     OW11074   4.922   5.637   5.745
 3392SOL    HW111075   4.982   5.590   5.809
 3392SOL    HW211076   4.966   5.720   5.713
 3393SOL     OW11077   3.571   0.688   0.914
 3393SOL    HW111078   3.476   0.670   0.939
 3393SOL    HW211079   3.632   0.650   0.983
 3394SOL     OW11080   2.775   5.869   1.765
 3394SOL    HW111081   2.802   5.874   1.861
 3394SOL    HW211082   2.757   5.962   1.731
 3395SOL     OW11083   1.564   5.990   3.307
 3395SOL    HW111084   1.639   5.927   3.325
 3395SOL    HW211085   1.520   6.014   3.394
 3396SOL     OW11086   4.020   0.427   4.215
 3396SOL    HW111087   4.106   0.464   4.181
 3396SOL    HW211088   3.998   0.467   4.303
 3397SOL     OW11089   2.921   6.181   1.536
 3397SOL    HW111090   2.905   6.105   1.472
 3397SOL    HW211091   2.975   6.252   1.490
 3398SOL     OW11092   7.022   0.483   0.424
 3398SOL    HW111093   6.990   0.432   0.503
 3398SOL    HW211094   0.094   0.497   0.430
 3399SOL     OW11095   6.435   6.294   2.188
 3399SOL    HW111096   6.444   6.360   2.114
 3399SOL    HW211097   6.435   6.201   2.151
 3400SOL     OW11098   3.484   3.165   5.345
 3400SOL    HW111099   3.477   3.141   5.442
 3400SOL    HW211100   3.579   3.182   5.322
 3401SOL     OW11101   6.679   3.679   3.990
 3401SOL    HW111102   6.655   3.740   3.915
 3401SOL    HW211103   6.690   3.732   4.074
 3402SOL     OW11104   6.192   3.725   0.324
 3402SOL    HW111105   6.155   3.751   0.413
 3402SOL    HW211106   6.236   3.636   0.331
 3403SOL     OW11107   5.470   6.816   3.891
 3403SOL    HW111108   5.435   6.858   3.975
 3403SOL    HW211109   5.520   6.884   3.838
 3404SOL     OW11110   5.256   5.138   2.758
 3404SOL    HW111111   5.176   5.135   2.818
 3404SOL    HW211112   5.338   5.121   2.813
 3405SOL     OW11113   4.367   0.030   1.456
 3405SOL    HW111114   4.319   0.032   1.544
 3405SOL    HW211115   4.373   6.963   1.423
 3406SOL     OW11116   4.365   5.311   1.079
 3406SOL    HW111117   4.413   5.223   1.073
 3406SOL    HW211118   4.386   5.354   1.167
 3407SOL     OW11119   2.020   1.482   0.858
 3407SOL    HW111120   2.032   1.577   0.830
 3407SOL    HW211121   1.924   1.457   0.853
 3408SOL     OW11122   3.492   0.087   3.814
 3408SOL    HW111123   3.456   7.026   3.846
 3408SOL    HW211124   3.416   0.142   3.779
 3409SOL     OW11125   4.497   2.332   6.660
 3409SOL    HW111126   4.591   2.357   6.685
 3409SOL    HW211127   4.467   2.254   6.714
 3410SOL     OW11128   6.507   1.289   2.635
 3410SOL    HW111129   6.444   1.220   2.673
 3410SOL    HW211130   6.461   1.377   2.631
 3411SOL     OW11131   5.565   3.138   6.422
 3411SOL    HW111132   5.480   3.184   6.398
 3411SOL    HW211133   5.575   3.055   6.368
 3412SOL     OW11134   5.101   3.346   3.522
 3412SOL    HW111135   5.046   3.265   3.540
 3412SOL    HW211136   5.049   3.411   3.467
 3413SOL     OW11137   1.127   2.968   0.669
 3413SOL    HW111138   1.119   2.984   0.768
 3413SOL    HW211139   1.045   3.001   0.623
 3414SOL     OW11140   3.668   3.071   2.113
 3414SOL    HW111141   3.568   3.078   2.117
 3414SOL    HW211142   3.708   3.162   2.115
 3415SOL     OW11143   2.641   0.355   6.682
 3415SOL    HW111144   2.590   0.275   6.649
 3415SOL    HW211145   2.676   0.406   6.604
 3416SOL     OW11146   5.452   6.556   6.084
 3416SOL    HW111147   5.482   6.618   6.157
 3416SOL    HW211148   5.482   6.591   5.996
 3417SOL     OW11149   6.219   1.123   2.085
 3417SOL    HW111150   6.130   1.099   2.123
 3417SOL    HW211151   6.236   1.220   2.098
 3418SOL     OW11152   4.398   4.893   1.386
 3418SOL    HW111153   4.310   4.851   1.361
 3418SOL    HW211154   4.429   4.854   1.473
 3419SOL     OW11155   3.077   4.800   5.113
 3419SOL    HW111156   3.012   4.736   5.154
 3419SOL    HW211157   3.057   4.811   5.016
 3420SOL     OW11158   4.982   0.903   1.823
 3420SOL    HW111159   4.893   0.938   1.852
 3420SOL    HW211160   4.990   0.807   1.848
 3421SOL     OW11161   0.439   1.660   4.506
 3421SOL    HW111162   0.471   1.623   4.594
 3421SOL    HW211163   0.512   1.713   4.464
 3422SOL     OW11164   3.219   4.892   1.384
 3422SOL    HW111165   3.202   4.982   1.344
 3422SOL    HW211166   3.196   4.894   1.481
 3423SOL     OW11167   1.660   4.746   5.844
 3423SOL    HW111168   1.759   4.756   5.857
 3423SOL    HW211169   1.619   4.835   5.824
 3424SOL     OW11170   5.404   5.997   2.535
 3424SOL    HW111171   5.395   6.070   2.466
 3424SOL    HW211172   5.396   6.036   2.626
 3425SOL     OW11173   5.280   2.632   6.206
 3425SOL    HW111174   5.286   2.724   6.169
 3425SOL    HW211175   5.332   2.626   6.292
 3426SOL     OW11176   6.554   5.582   6.238
 3426SOL    HW111177   6.620   5.658   6.236
 3426SOL    HW211178   6.490   5.595   6.313
 3427SOL     OW11179   1.741   1.481   6.921
 3427SOL    HW111180   1.644   1.501   6.914
 3427SOL    HW211181   1.793   1.548   6.868
 3428SOL     OW11182   4.282   0.994   4.139
 3428SOL    HW111183   4.182   0.995   4.129
 3428SOL    HW211184   4.307   0.931   4.212
 3429SOL     OW11185   5.005   5.429   0.527
 3429SOL    HW111186   5.049   5.519   0.528
 3429SOL    HW211187   5.047   5.371   0.598
 3430SOL     OW11188   2.610   4.106   6.990
 3430SOL    HW111189   2.695   4.056   6.974
 3430SOL    HW211190   2.532   4.046   6.969
 3431SOL     OW11191   1.526   4.146   2.121
 3431SOL    HW111192   1.593   4.172   2.051
 3431SOL    HW211193   1.558   4.177   2.211
 3432SOL     OW11194   0.317   5.319   6.301
 3432SOL    HW111195   0.282   5.313   6.394
 3432SOL    HW211196   0.412   5.289   6.298
 3433SOL     OW11197   0.782   1.370   0.159
 3433SOL    HW111198   0.832   1.295   0.201
 3433SOL    HW211199   0.686   1.344   0.147
 3434SOL     OW11200   4.151   2.242   1.826
 3434SOL    HW111201   4.179   2.155   1.785
 3434SOL    HW211202   4.082   2.225   1.896
 3435SOL     OW11203   3.102   2.675   1.033
 3435SOL    HW111204   3.039   2.636   0.966
 3435SOL    HW211205   3.190   2.629   1.027
 3436SOL     OW11206   4.247   5.501   5.398
 3436SOL    HW111207   4.325   5.514   5.460
 3436SOL    HW211208   4.162   5.498   5.452
 3437SOL     OW11209   2.792   6.223   0.587
 3437SOL    HW111210   2.839   6.296   0.537
 3437SOL    HW211211   2.853   6.145   0.599
 3438SOL     OW11212   2.744   4.245   0.319
 3438SOL    HW111213   2.707   4.153   0.326
 3438SOL    HW211214   2.840   4.240   0.292
 3439SOL     OW11215   3.077   5.808   1.032
 3439SOL    HW111216   3.162   5.757   1.033
 3439SOL    HW211217   3.007   5.758   1.082
 3440SOL     OW11218   3.991   4.573   5.691
 3440SOL    HW111219   3.895   4.549   5.675
 3440SOL    HW211220   4.026   4.521   5.770
 3441SOL     OW11221   0.249   5.533   5.730
 3441SOL    HW111222   0.253   5.555   5.632
 3441SOL    HW211223   0.311   5.457   5.749
 3442SOL     OW11224   1.589   2.059   0.459
 3442SOL    HW111225   1.509   2.113   0.485
 3442SOL    HW211226   1.616   2.000   0.536
 3443SOL     OW11227   6.825   5.692   2.417
 3443SOL    HW111228   6.884   5.678   2.337
 3443SOL    HW211229   6.733   5.660   2.396
 3444SOL     OW11230   1.041   3.915   6.160
 3444SOL    HW111231   1.011   3.979   6.230
 3444SOL    HW211232   1.118   3.861   6.194
 3445SOL     OW11233   5.833   5.192   4.737
 3445SOL    HW111234   5.903   5.263   4.746
 3445SOL    HW211235   5.820   5.170   4.641
 3446SOL     OW11236   5.104   1.612   0.014
 3446SOL    HW111237   5.095   1.670   6.960
 3446SOL    HW211238   5.019   1.560   0.027
 3447SOL     OW11239   5.011   1.583   6.116
 3447SOL    HW111240   4.999   1.553   6.210
 3447SOL    HW211241   5.064   1.669   6.115
 3448SOL     OW11242   0.716   5.372   4.562
 3448SOL    HW111243   0.734   5.340   4.655
 3448SOL    HW211244   0.796   5.422   4.527
 3449SOL     OW11245   1.414   4.136   4.789
 3449SOL    HW111246   1.462   4.131   4.701
 3449SOL    HW211247   1.369   4.224   4.797
 3450SOL     OW11248   1.901   6.244   3.311
 3450SOL    HW111249   1.864   6.208   3.397
 3450SOL    HW211250   1.862   6.334   3.293
 3451SOL     OW11251   2.201   1.976   1.195
 3451SOL    HW111252   2.203   2.022   1.106
 3451SOL    HW211253   2.280   1.915   1.203
 3452SOL     OW11254   4.536   1.154   5.267
 3452SOL    HW111255   4.595   1.227   5.302
 3452SOL    HW211256   4.562   1.067   5.309
 3453SOL     OW11257   4.375   6.284   5.409
 3453SOL    HW111258   4.431   6.364   5.427
 3453SOL    HW211259   4.415   6.231   5.334
 3454SOL     OW11260   1.471   3.258   4.135
 3454SOL    HW111261   1.474   3.351   4.170
 3454SOL    HW211262   1.443   3.259   4.039
 3455SOL     OW11263   1.640   3.809   5.958
 3455SOL    HW111264   1.696   3.826   5.876
 3455SOL    HW211265   1.555   3.763   5.931
 3456SOL     OW11266   4.249   5.696   2.594
 3456SOL    HW111267   4.259   5.767   2.663
 3456SOL    HW211268   4.298   5.722   2.511
 3457SOL     OW11269   3.604   3.850   0.285
 3457SOL    HW111270   3.647   3.775   0.237
 3457SOL    HW211271   3.519   3.819   0.328
 3458SOL     OW11272   3.697   1.851   1.070
 3458SOL    HW111273   3.722   1.940   1.109
 3458SOL    HW211274   3.661   1.792   1.143
 3459SOL     OW11275   6.480   0.469   3.038
 3459SOL    HW111276   6.412   0.398   3.018
 3459SOL    HW211277   6.552   0.466   2.969
 3460SOL     OW11278   4.942   1.320   5.050
 3460SOL    HW111279   4.913   1.408   5.088
 3460SOL    HW211280   4.861   1.262   5.037
 3461SOL     OW11281   4.408   4.588   3.628
 3461SOL    HW111282   4.486   4.650   3.618
 3461SOL    HW211283   4.410   4.547   3.720
 3462SOL     OW11284   1.480   4.389   6.853
 3462SOL    HW111285   1.473   4.291   6.835
 3462SOL    HW211286   1.540   4.404   6.932
 3463SOL     OW11287   6.236   4.043   7.025
 3463SOL    HW111288   6.222   3.944   0.002
 3463SOL    HW211289   6.259   4.077   0.089
 3464SOL     OW11290   6.782   5.097   4.527
 3464SOL    HW111291   6.700   5.154   4.526
 3464SOL    HW211292   6.818   5.091   4.620
 3465SOL     OW11293   0.859   2.621   1.387
 3465SOL    HW111294   0.940   2.679   1.389
 3465SOL    HW211295   0.837   2.598   1.292
 3466SOL     OW11296   5.749   3.796   3.277
 3466SOL    HW111297   5.772   3.736   3.354
 3466SOL    HW211298   5.769   3.749   3.191
 3467SOL     OW11299   2.160   1.414   5.863
 3467SOL    HW111300   2.220   1.337   5.883
 3467SOL    HW211301   2.091   1.423   5.935
 3468SOL     OW11302   5.475   4.862   1.935
 3468SOL    HW111303   5.451   4.946   1.984
 3468SOL    HW211304   5.398   4.798   1.941
 3469SOL     OW11305   5.860   3.653   0.562
 3469SOL    HW111306   5.930   3.721   0.584
 3469SOL    HW211307   5.773   3.680   0.603
 3470SOL     OW11308   6.705   5.918   6.992
 3470SOL    HW111309   6.739   5.904   6.899
 3470SOL    HW211310   6.620   5.971   6.989
 3471SOL     OW11311   4.202   6.999   4.452
 3471SOL    HW111312   4.147   0.015   4.381
 3471SOL    HW211313   4.240   6.914   4.417
 3472SOL     OW11314   3.545   1.094   4.628
 3472SOL    HW111315   3.466   1.155   4.630
 3472SOL    HW211316   3.537   1.033   4.548
 3473SOL     OW11317   4.813   0.440   4.017
 3473SOL    HW111318   4.728   0.388   4.008
 3473SOL    HW211319   4.890   0.384   3.987
 3474SOL     OW11320   5.443   5.030   0.623
 3474SOL    HW111321   5.537   5.015   0.592
 3474SOL    HW211322   5.441   5.110   0.684
 3475SOL     OW11323   2.016   5.891   5.181
 3475SOL    HW111324   1.979   5.983   5.169
 3475SOL    HW211325   2.048   5.856   5.093
 3476SOL     OW11326   3.090   1.728   3.171
 3476SOL    HW111327   3.187   1.747   3.180
 3476SOL    HW211328   3.049   1.712   3.261
 3477SOL     OW11329   4.442   5.585   2.923
 3477SOL    HW111330   4.489   5.591   2.835
 3477SOL    HW211331   4.510   5.571   2.996
 3478SOL     OW11332   3.758   4.562   0.182
 3478SOL    HW111333   3.707   4.476   0.173
 3478SOL    HW211334   3.739   4.603   0.271
 3479SOL     OW11335   1.610   0.255   0.177
 3479SOL    HW111336   1.579   0.209   0.094
 3479SOL    HW211337   1.706   0.281   0.167
 3480SOL     OW11338   1.215   6.312   4.391
 3480SOL    HW111339   1.243   6.251   4.466
 3480SOL    HW211340   1.219   6.407   4.421
 3481SOL     OW11341   2.260   4.582   0.295
 3481SOL    HW111342   2.200   4.646   0.343
 3481SOL    HW211343   2.350   4.584   0.338
 3482SOL     OW11344   0.221   2.086   2.046
 3482SOL    HW111345   0.244   2.181   2.023
 3482SOL    HW211346   0.279   2.056   2.122
 3483SOL     OW11347   4.044   1.569   1.217
 3483SOL    HW111348   4.029   1.600   1.311
 3483SOL    HW211349   4.052   1.469   1.216
 3484SOL     OW11350   3.458   4.155   3.680
 3484SOL    HW111351   3.394   4.155   3.756
 3484SOL    HW211352   3.546   4.193   3.710
 3485SOL     OW11353   6.366   2.217   4.114
 3485SOL    HW111354   6.359   2.280   4.191
 3485SOL    HW211355   6.296   2.238   4.046
 3486SOL     OW11356   6.361   1.506   2.700
 3486SOL    HW111357   6.381   1.555   2.785
 3486SOL    HW211358   6.264   1.483   2.696
 3487SOL     OW11359   1.514   6.342   1.100
 3487SOL    HW111360   1.502   6.260   1.043
 3487SOL    HW211361   1.597   6.331   1.156
 3488SOL     OW11362   6.181   3.630   5.151
 3488SOL    HW111363   6.248   3.704   5.157
 3488SOL    HW211364   6.202   3.559   5.218
 3489SOL     OW11365   3.070   5.527   6.768
 3489SOL    HW111366   3.039   5.454   6.707
 3489SOL    HW211367   2.995   5.591   6.784
 3490SOL     OW11368   5.529   3.581   0.037
 3490SOL    HW111369   5.445   3.530   0.019
 3490SOL    HW211370   5.556   3.567   0.132
 3491SOL     OW11371   5.948   2.788   5.290
 3491SOL    HW111372   5.999   2.863   5.247
 3491SOL    HW211373   6.004   2.746   5.362
 3492SOL     OW11374   0.459   4.750   6.533
 3492SOL    HW111375   0.429   4.697   6.454
 3492SOL    HW211376   0.559   4.752   6.536
 3493SOL     OW11377   6.755   4.835   1.125
 3493SOL    HW111378   6.837   4.807   1.174
 3493SOL    HW211379   6.737   4.771   1.050
 3494SOL     OW11380   3.200   0.132   0.866
 3494SOL    HW111381   3.216   0.084   0.952
 3494SOL    HW211382   3.137   0.207   0.880
 3495SOL     OW11383   6.007   4.472   5.797
 3495SOL    HW111384   5.937   4.458   5.728
 3495SOL    HW211385   6.032   4.383   5.837
 3496SOL     OW11386   0.510   6.061   1.435
 3496SOL    HW111387   0.505   5.981   1.374
 3496SOL    HW211388   0.514   6.030   1.530
 3497SOL     OW11389   2.923   0.315   5.280
 3497SOL    HW111390   3.003   0.356   5.324
 3497SOL    HW211391   2.953   0.249   5.211
 3498SOL     OW11392   0.995   2.003   0.487
 3498SOL    HW111393   0.937   2.011   0.568
 3498SOL    HW211394   0.940   1.973   0.410
 3499SOL     OW11395   6.566   4.214   3.138
 3499SOL    HW111396   6.485   4.159   3.120
 3499SOL    HW211397   6.588   4.268   3.057
 3500SOL     OW11398   6.679   2.591   1.012
 3500SOL    HW111399   6.634   2.656   0.951
 3500SOL    HW211400   6.775   2.583   0.987
 3501SOL     OW11401   6.907   5.512   3.221
 3501SOL    HW111402   6.815   5.522   3.257
 3501SOL    HW211403   6.903   5.466   3.132
 3502SOL     OW11404   0.514   6.484   1.461
 3502SOL    HW111405   0.592   6.431   1.427
 3502SOL    HW211406   0.501   6.565   1.404
 3503SOL     OW11407   2.833   0.654   3.661
 3503SOL    HW111408   2.924   0.634   3.625
 3503SOL    HW211409   2.791   0.727   3.607
 3504SOL     OW11410   2.239   2.944   2.514
 3504SOL    HW111411   2.206   3.020   2.458
 3504SOL    HW211412   2.167   2.875   2.523
 3505SOL     OW11413   4.132   6.544   4.629
 3505SOL    HW111414   4.042   6.513   4.600
 3505SOL    HW211415   4.194   6.546   4.550
 3506SOL     OW11416   6.694   3.892   2.806
 3506SOL    HW111417   6.780   3.936   2.830
 3506SOL    HW211418   6.626   3.962   2.783
 3507SOL     OW11419   6.907   0.334   5.417
 3507SOL    HW111420   6.872   0.427   5.427
 3507SOL    HW211421   6.916   0.312   5.319
 3508SOL     OW11422   0.403   4.750   6.794
 3508SOL    HW111423   0.439   4.743   6.701
 3508SOL    HW211424   0.399   4.659   6.834
 3509SOL     OW11425   4.433   6.594   6.453
 3509SOL    HW111426   4.485   6.527   6.399
 3509SOL    HW211427   4.480   6.682   6.450
 3510SOL     OW11428   1.952   0.941   2.424
 3510SOL    HW111429   1.962   1.031   2.467
 3510SOL    HW211430   1.872   0.941   2.364
 3511SOL     OW11431   1.047   0.655   4.224
 3511SOL    HW111432   0.964   0.598   4.226
 3511SOL    HW211433   1.039   0.727   4.293
 3512SOL     OW11434   3.156   3.431   1.936
 3512SOL    HW111435   3.204   3.358   1.887
 3512SOL    HW211436   3.058   3.416   1.930
 3513SOL     OW11437   6.727   4.728   0.871
 3513SOL    HW111438   6.768   4.636   0.871
 3513SOL    HW211439   6.754   4.777   0.789
 3514SOL     OW11440   3.401   6.040   3.646
 3514SOL    HW111441   3.395   6.135   3.678
 3514SOL    HW211442   3.496   6.018   3.624
 3515SOL     OW11443   4.327   5.767   3.891
 3515SOL    HW111444   4.356   5.737   3.801
 3515SOL    HW211445   4.406   5.768   3.953
 3516SOL     OW11446   0.933   1.161   0.294
 3516SOL    HW111447   1.007   1.223   0.268
 3516SOL    HW211448   0.951   1.126   0.386
 3517SOL     OW11449   0.292   0.426   0.240
 3517SOL    HW111450   0.306   0.469   0.329
 3517SOL    HW211451   0.362   0.357   0.225
 3518SOL     OW11452   4.019   3.567   6.162
 3518SOL    HW111453   4.095   3.591   6.101
 3518SOL    HW211454   4.054   3.557   6.256
 3519SOL     OW11455   4.191   0.283   0.072
 3519SOL    HW111456   4.171   0.350   0.001
 3519SOL    HW211457   4.200   0.329   0.160
 3520SOL     OW11458   4.037   4.597   1.433
 3520SOL    HW111459   4.084   4.673   1.388
 3520SOL    HW211460   4.019   4.525   1.367
 3521SOL     OW11461   0.335   2.043   5.587
 3521SOL    HW111462   0.404   2.115   5.577
 3521SOL    HW211463   0.311   2.034   5.684
 3522SOL     OW11464   2.314   0.168   0.831
 3522SOL    HW111465   2.246   0.102   0.800
 3522SOL    HW211466   2.280   0.261   0.818
 3523SOL     OW11467   2.132   4.277   5.057
 3523SOL    HW111468   2.184   4.194   5.076
 3523SOL    HW211469   2.168   4.320   4.974
 3524SOL     OW11470   2.583   1.682   3.930
 3524SOL    HW111471   2.559   1.681   3.833
 3524SOL    HW211472   2.651   1.610   3.949
 3525SOL     OW11473   1.804   3.108   3.724
 3525SOL    HW111474   1.814   3.013   3.697
 3525SOL    HW211475   1.781   3.164   3.645
 3526SOL     OW11476   3.631   5.886   3.557
 3526SOL    HW111477   3.665   5.798   3.590
 3526SOL    HW211478   3.619   5.883   3.458
 3527SOL     OW11479   6.778   4.262   6.233
 3527SOL    HW111480   6.826   4.286   6.149
 3527SOL    HW211481   6.680   4.254   6.213
 3528SOL     OW11482   0.844   6.601   4.170
 3528SOL    HW111483   0.769   6.536   4.186
 3528SOL    HW211484   0.884   6.628   4.258
 3529SOL     OW11485   3.315   5.918   0.577
 3529SOL    HW111486   3.363   6.006   0.584
 3529SOL    HW211487   3.306   5.893   0.481
 3530SOL     OW11488   2.228   5.809   2.555
 3530SOL    HW111489   2.229   5.857   2.467
 3530SOL    HW211490   2.145   5.834   2.605
 3531SOL     OW11491   5.199   4.721   6.557
 3531SOL    HW111492   5.106   4.757   6.559
 3531SOL    HW211493   5.206   4.644   6.619
 3532SOL     OW11494   2.404   6.524   0.050
 3532SOL    HW111495   2.335   6.545   0.119
 3532SOL    HW211496   2.479   6.590   0.056
 3533SOL     OW11497   1.210   1.147   3.616
 3533SOL    HW111498   1.259   1.234   3.619
 3533SOL    HW211499   1.117   1.159   3.652
 3534SOL     OW11500   4.487   6.839   4.246
 3534SOL    HW111501   4.518   6.919   4.297
 3534SOL    HW211502   4.475   6.863   4.149
 3535SOL     OW11503   4.255   4.879   6.943
 3535SOL    HW111504   4.350   4.900   6.969
 3535SOL    HW211505   4.224   4.799   6.994
 3536SOL     OW11506   2.132   3.217   2.427
 3536SOL    HW111507   2.156   3.250   2.335
 3536SOL    HW211508   2.121   3.296   2.488
 3537SOL     OW11509   3.259   4.885   2.091
 3537SOL    HW111510   3.188   4.956   2.097
 3537SOL    HW211511   3.325   4.898   2.164
 3538SOL     OW11512   3.143   0.264   3.448
 3538SOL    HW111513   3.208   0.267   3.524
 3538SOL    HW211514   3.160   0.182   3.393
 3539SOL     OW11515   5.542   5.425   5.731
 3539SOL    HW111516   5.448   5.433   5.762
 3539SOL    HW211517   5.544   5.411   5.632
 3540SOL     OW11518   4.693   4.142   6.876
 3540SOL    HW111519   4.785   4.140   6.836
 3540SOL    HW211520   4.670   4.051   6.910
 3541SOL     OW11521   0.798   2.989   2.432
 3541SOL    HW111522   0.713   3.040   2.415
 3541SOL    HW211523   0.871   3.053   2.454
 3542SOL     OW11524   5.790   1.048   0.079
 3542SOL    HW111525   5.735   1.129   0.059
 3542SOL    HW211526   5.809   0.999   7.020
 3543SOL     OW11527   0.028   2.747   4.984
 3543SOL    HW111528   0.027   2.711   4.891
 3543SOL    HW211529   0.080   2.833   4.986
 3544SOL     OW11530   3.679   4.728   5.921
 3544SOL    HW111531   3.642   4.648   5.874
 3544SOL    HW211532   3.720   4.700   6.008
 3545SOL     OW11533   2.876   6.643   1.013
 3545SOL    HW111534   2.885   6.579   0.937
 3545SOL    HW211535   2.784   6.680   1.015
 3546SOL     OW11536   0.309   4.923   1.317
 3546SOL    HW111537   0.220   4.932   1.274
 3546SOL    HW211538   0.308   4.848   1.384
 3547SOL     OW11539   1.941   3.814   4.499
 3547SOL    HW111540   2.040   3.817   4.512
 3547SOL    HW211541   1.919   3.823   4.402
 3548SOL     OW11542   6.385   0.234   5.359
 3548SOL    HW111543   6.340   0.206   5.443
 3548SOL    HW211544   6.474   0.190   5.353
 3549SOL     OW11545   1.899   0.171   6.685
 3549SOL    HW111546   1.833   0.127   6.746
 3549SOL    HW211547   1.989   0.173   6.729
 3550SOL     OW11548   6.761   2.089   4.922
 3550SOL    HW111549   6.736   2.169   4.867
 3550SOL    HW211550   6.815   2.117   5.001
 3551SOL     OW11551   6.286   1.083   5.156
 3551SOL    HW111552   6.358   1.135   5.110
 3551SOL    HW211553   6.217   1.145   5.192
 3552SOL     OW11554   6.108   0.810   3.675
 3552SOL    HW111555   6.176   0.826   3.603
 3552SOL    HW211556   6.110   0.886   3.740
 3553SOL     OW11557   5.733   6.419   6.407
 3553SOL    HW111558   5.640   6.436   6.439
 3553SOL    HW211559   5.774   6.345   6.460
 3554SOL     OW11560   5.915   3.688   6.404
 3554SOL    HW111561   5.957   3.615   6.350
 3554SOL    HW211562   5.849   3.738   6.347
 3555SOL     OW11563   3.647   1.297   5.310
 3555SOL    HW111564   3.662   1.344   5.397
 3555SOL    HW211565   3.549   1.292   5.291
 3556SOL     OW11566   5.708   0.932   0.960
 3556SOL    HW111567   5.675   1.000   1.025
 3556SOL    HW211568   5.659   0.846   0.974
 3557SOL     OW11569   4.861   0.078   1.694
 3557SOL    HW111570   4.947   0.115   1.658
 3557SOL    HW211571   4.786   0.107   1.635
 3558SOL     OW11572   3.900   5.726   2.856
 3558SOL    HW111573   3.934   5.632   2.862
 3558SOL    HW211574   3.978   5.789   2.844
 3559SOL     OW11575   4.255   6.148   6.554
 3559SOL    HW111576   4.347   6.167   6.522
 3559SOL    HW211577   4.189   6.194   6.495
 3560SOL     OW11578   2.087   6.232   4.307
 3560SOL    HW111579   2.152   6.301   4.340
 3560SOL    HW211580   2.077   6.160   4.376
 3561SOL     OW11581   3.850   2.505   5.923
 3561SOL    HW111582   3.911   2.492   6.001
 3561SOL    HW211583   3.880   2.448   5.846
 3562SOL     OW11584   3.065   1.124   0.226
 3562SOL    HW111585   3.078   1.222   0.212
 3562SOL    HW211586   3.152   1.076   0.213
 3563SOL     OW11587   6.964   2.191   6.308
 3563SOL    HW111588   6.947   2.290   6.314
 3563SOL    HW211589   6.888   2.146   6.262
 3564SOL     OW11590   5.957   2.851   3.143
 3564SOL    HW111591   6.042   2.899   3.163
 3564SOL    HW211592   5.945   2.844   3.044
 3565SOL     OW11593   4.690   6.628   4.811
 3565SOL    HW111594   4.726   6.546   4.765
 3565SOL    HW211595   4.613   6.602   4.869
 3566SOL     OW11596   0.511   1.012   4.886
 3566SOL    HW111597   0.497   1.102   4.928
 3566SOL    HW211598   0.478   1.012   4.792
 3567SOL     OW11599   0.747   4.521   6.444
 3567SOL    HW111600   0.657   4.478   6.455
 3567SOL    HW211601   0.760   4.546   6.348
 3568SOL     OW11602   2.508   4.327   5.921
 3568SOL    HW111603   2.450   4.275   5.858
 3568SOL    HW211604   2.458   4.345   6.006
 3569SOL     OW11605   0.691   0.313   3.195
 3569SOL    HW111606   0.714   0.408   3.173
 3569SOL    HW211607   0.770   0.254   3.178
 3570SOL     OW11608   0.434   2.295   4.615
 3570SOL    HW111609   0.410   2.199   4.626
 3570SOL    HW211610   0.374   2.337   4.547
 3571SOL     OW11611   6.555   5.514   4.963
 3571SOL    HW111612   6.607   5.429   4.954
 3571SOL    HW211613   6.458   5.493   4.975
 3572SOL     OW11614   5.567   6.321   5.432
 3572SOL    HW111615   5.655   6.341   5.387
 3572SOL    HW211616   5.584   6.280   5.522
 3573SOL     OW11617   0.682   2.714   1.871
 3573SOL    HW111618   0.715   2.689   1.780
 3573SOL    HW211619   0.582   2.705   1.874
 3574SOL     OW11620   6.877   3.736   0.427
 3574SOL    HW111621   6.846   3.644   0.405
 3574SOL    HW211622   6.952   3.761   0.365
 3575SOL     OW11623   6.718   0.485   2.593
 3575SOL    HW111624   6.788   0.505   2.525
 3575SOL    HW211625   6.653   0.561   2.598
 3576SOL     OW11626   0.492   1.074   0.673
 3576SOL    HW111627   0.406   1.073   0.621
 3576SOL    HW211628   0.544   1.156   0.649
 3577SOL     OW11629   2.035   4.704   0.473
 3577SOL    HW111630   2.052   4.640   0.548
 3577SOL    HW211631   2.025   4.796   0.509
 3578SOL     OW11632   3.326   4.596   1.657
 3578SOL    HW111633   3.417   4.574   1.692
 3578SOL    HW211634   3.270   4.634   1.732
 3579SOL     OW11635   2.441   2.829   6.284
 3579SOL    HW111636   2.365   2.871   6.332
 3579SOL    HW211637   2.522   2.888   6.290
 3580SOL     OW11638   5.526   1.275   1.684
 3580SOL    HW111639   5.615   1.307   1.715
 3580SOL    HW211640   5.525   1.267   1.584
 3581SOL     OW11641   0.094   1.092   2.761
 3581SOL    HW111642   7.024   1.077   2.743
 3581SOL    HW211643   0.128   1.023   2.826
 3582SOL     OW11644   0.622   0.564   5.367
 3582SOL    HW111645   0.720   0.553   5.383
 3582SOL    HW211646   0.574   0.572   5.454
 3583SOL     OW11647   1.376   6.956   1.706
 3583SOL    HW111648   1.277   6.952   1.698
 3583SOL    HW211649   1.405   0.022   1.725
 3584SOL     OW11650   5.316   0.702   4.691
 3584SOL    HW111651   5.328   0.603   4.690
 3584SOL    HW211652   5.392   0.745   4.740
 3585SOL     OW11653   2.524   4.575   3.754
 3585SOL    HW111654   2.528   4.524   3.668
 3585SOL    HW211655   2.611   4.568   3.802
 3586SOL     OW11656   1.177   1.059   0.028
 3586SOL    HW111657   1.146   1.009   6.973
 3586SOL    HW211658   1.252   1.120   0.003
 3587SOL     OW11659   3.541   6.922   5.994
 3587SOL    HW111660   3.596   6.840   5.975
 3587SOL    HW211661   3.500   6.914   6.084
 3588SOL     OW11662   2.587   2.561   5.416
 3588SOL    HW111663   2.534   2.644   5.397
 3588SOL    HW211664   2.560   2.489   5.351
 3589SOL     OW11665   3.013   6.315   4.588
 3589SOL    HW111666   3.025   6.267   4.675
 3589SOL    HW211667   2.928   6.285   4.545
 3590SOL     OW11668   1.147   5.620   6.755
 3590SOL    HW111669   1.071   5.560   6.777
 3590SOL    HW211670   1.127   5.671   6.671
 3591SOL     OW11671   5.277   1.510   5.148
 3591SOL    HW111672   5.228   1.594   5.122
 3591SOL    HW211673   5.218   1.431   5.133
 3592SOL     OW11674   5.606   1.389   2.198
 3592SOL    HW111675   5.599   1.483   2.165
 3592SOL    HW211676   5.671   1.338   2.141
 3593SOL     OW11677   0.838   5.263   4.112
 3593SOL    HW111678   0.879   5.354   4.113
 3593SOL    HW211679   0.759   5.263   4.051
 3594SOL     OW11680   4.076   1.637   4.215
 3594SOL    HW111681   4.094   1.557   4.272
 3594SOL    HW211682   4.145   1.707   4.233
 3595SOL     OW11683   2.385   6.367   6.513
 3595SOL    HW111684   2.427   6.313   6.586
 3595SOL    HW211685   2.381   6.313   6.429
 3596SOL     OW11686   6.379   3.419   2.819
 3596SOL    HW111687   6.317   3.470   2.878
 3596SOL    HW211688   6.394   3.327   2.857
 3597SOL     OW11689   4.218   0.521   4.056
 3597SOL    HW111690   4.249   0.508   3.962
 3597SOL    HW211691   4.297   0.532   4.116
 3598SOL     OW11692   2.177   0.102   0.244
 3598SOL    HW111693   2.231   0.069   0.166
 3598SOL    HW211694   2.088   0.134   0.211
 3599SOL     OW11695   0.268   2.331   3.814
 3599SOL    HW111696   0.293   2.421   3.851
 3599SOL    HW211697   0.349   2.272   3.815
 3600SOL     OW11698   6.163   6.921   1.615
 3600SOL    HW111699   6.065   6.918   1.595
 3600SOL    HW211700   6.194   6.831   1.647
 3601SOL     OW11701   0.043   3.719   5.769
 3601SOL    HW111702   0.003   3.754   5.684
 3601SOL    HW211703   7.005   3.658   5.815
 3602SOL     OW11704   3.356   2.500   1.301
 3602SOL    HW111705   3.287   2.433   1.325
 3602SOL    HW211706   3.343   2.529   1.206
 3603SOL     OW11707   3.975   5.256   4.804
 3603SOL    HW111708   3.962   5.158   4.793
 3603SOL    HW211709   3.929   5.287   4.887
 3604SOL     OW11710   6.075   4.512   3.060
 3604SOL    HW111711   6.028   4.578   3.001
 3604SOL    HW211712   6.172   4.533   3.063
 3605SOL     OW11713   5.607   1.422   6.491
 3605SOL    HW111714   5.645   1.338   6.450
 3605SOL    HW211715   5.627   1.423   6.589
 3606SOL     OW11716   1.724   3.786   2.925
 3606SOL    HW111717   1.789   3.830   2.988
 3606SOL    HW211718   1.772   3.756   2.843
 3607SOL     OW11719   4.272   7.005   5.527
 3607SOL    HW111720   4.183   6.992   5.483
 3607SOL    HW211721   4.267   6.973   5.621
 3608SOL     OW11722   7.024   3.031   2.968
 3608SOL    HW111723   6.997   2.985   3.053
 3608SOL    HW211724   0.075   2.983   2.928
 3609SOL     OW11725   6.960   0.917   3.666
 3609SOL    HW111726   7.005   0.989   3.614
 3609SOL    HW211727   6.889   0.874   3.611
 3610SOL     OW11728   1.977   5.005   5.518
 3610SOL    HW111729   1.979   4.971   5.424
 3610SOL    HW211730   1.923   5.089   5.522
 3611SOL     OW11731   4.971   4.348   6.010
 3611SOL    HW111732   5.001   4.350   6.105
 3611SOL    HW211733   5.014   4.422   5.959
 3612SOL     OW11734   2.438   6.150   1.169
 3612SOL    HW111735   2.474   6.066   1.128
 3612SOL    HW211736   2.468   6.155   1.264
 3613SOL     OW11737   5.701   4.587   6.296
 3613SOL    HW111738   5.678   4.528   6.218
 3613SOL    HW211739   5.740   4.673   6.262
 3614SOL     OW11740   3.731   2.929   4.573
 3614SOL    HW111741   3.631   2.923   4.571
 3614SOL    HW211742   3.764   2.908   4.664
 3615SOL     OW11743   5.834   6.682   6.371
 3615SOL    HW111744   5.894   6.665   6.293
 3615SOL    HW211745   5.795   6.595   6.402
 3616SOL     OW11746   6.657   1.540   4.371
 3616SOL    HW111747   6.606   1.455   4.359
 3616SOL    HW211748   6.647   1.597   4.289
 3617SOL     OW11749   0.201   0.500   0.841
 3617SOL    HW111750   0.251   0.428   0.794
 3617SOL    HW211751   0.174   0.468   0.932
 3618SOL     OW11752   3.925   5.441   6.130
 3618SOL    HW111753   3.897   5.383   6.206
 3618SOL    HW211754   3.852   5.442   6.061
 3619SOL     OW11755   4.887   3.527   3.726
 3619SOL    HW111756   4.923   3.440   3.693
 3619SOL    HW211757   4.894   3.529   3.826
 3620SOL     OW11758   6.168   1.908   5.345
 3620SOL    HW111759   6.120   1.873   5.264
 3620SOL    HW211760   6.177   2.008   5.339
 3621SOL     OW11761   1.595   2.816   6.356
 3621SOL    HW111762   1.665   2.770   6.301
 3621SOL    HW211763   1.589   2.771   6.445
 3622SOL     OW11764   1.129   3.793   0.788
 3622SOL    HW111765   1.063   3.789   0.863
 3622SOL    HW211766   1.080   3.788   0.701
 3623SOL     OW11767   6.487   4.654   5.176
 3623SOL    HW111768   6.434   4.657   5.091
 3623SOL    HW211769   6.440   4.709   5.246
 3624SOL     OW11770   1.639   0.482   1.821
 3624SOL    HW111771   1.580   0.523   1.751
 3624SOL    HW211772   1.592   0.483   1.909
 3625SOL     OW11773   1.463   2.420   5.276
 3625SOL    HW111774   1.380   2.458   5.317
 3625SOL    HW211775   1.465   2.442   5.178
 3626SOL     OW11776   2.039   3.369   5.456
 3626SOL    HW111777   1.969   3.335   5.518
 3626SOL    HW211778   2.023   3.466   5.436
 3627SOL     OW11779   3.450   3.241   4.454
 3627SOL    HW111780   3.456   3.223   4.355
 3627SOL    HW211781   3.528   3.200   4.501
 3628SOL     OW11782   2.789   5.452   3.937
 3628SOL    HW111783   2.800   5.470   3.839
 3628SOL    HW211784   2.875   5.474   3.984
 3629SOL     OW11785   5.426   3.502   4.707
 3629SOL    HW111786   5.500   3.534   4.766
 3629SOL    HW211787   5.456   3.504   4.612
 3630SOL     OW11788   6.473   1.987   4.929
 3630SOL    HW111789   6.469   1.995   5.028
 3630SOL    HW211790   6.564   2.015   4.897
 3631SOL     OW11791   1.917   0.964   4.286
 3631SOL    HW111792   1.926   0.947   4.188
 3631SOL    HW211793   1.983   1.034   4.314
 3632SOL     OW11794   5.052   6.471   5.934
 3632SOL    HW111795   5.098   6.416   6.004
 3632SOL    HW211796   5.109   6.474   5.852
 3633SOL     OW11797   0.671   2.573   5.725
 3633SOL    HW111798   0.632   2.540   5.639
 3633SOL    HW211799   0.615   2.648   5.760
 3634SOL     OW11800   2.853   4.674   6.399
 3634SOL    HW111801   2.840   4.622   6.484
 3634SOL    HW211802   2.770   4.668   6.343
 3635SOL     OW11803   1.900   1.992   4.266
 3635SOL    HW111804   1.938   1.906   4.297
 3635SOL    HW211805   1.967   2.041   4.211
 3636SOL     OW11806   0.698   6.976   1.526
 3636SOL    HW111807   0.650   6.913   1.464
 3636SOL    HW211808   0.790   6.940   1.543
 3637SOL     OW11809   5.100   1.321   2.519
 3637SOL    HW111810   5.021   1.260   2.519
 3637SOL    HW211811   5.120   1.349   2.613
 3638SOL     OW11812   6.727   4.930   3.549
 3638SOL    HW111813   6.733   4.936   3.449
 3638SOL    HW211814   6.790   4.861   3.583
 3639SOL     OW11815   2.908   6.385   0.010
 3639SOL    HW111816   2.814   6.413   7.016
 3639SOL    HW211817   2.955   6.359   6.953
 3640SOL     OW11818   2.198   6.629   2.019
 3640SOL    HW111819   2.179   6.720   1.983
 3640SOL    HW211820   2.296   6.620   2.038
 3641SOL     OW11821   1.949   1.222   5.125
 3641SOL    HW111822   1.931   1.290   5.195
 3641SOL    HW211823   2.046   1.223   5.101
 3642SOL     OW11824   6.273   0.268   2.411
 3642SOL    HW111825   6.204   0.199   2.437
 3642SOL    HW211826   6.353   0.258   2.470
 3643SOL     OW11827   3.692   0.016   4.095
 3643SOL    HW111828   3.655   7.017   4.185
 3643SOL    HW211829   3.663   0.109   4.073
 3644SOL     OW11830   5.958   0.206   1.883
 3644SOL    HW111831   5.967   0.106   1.881
 3644SOL    HW211832   6.009   0.243   1.961
 3645SOL     OW11833   4.480   6.111   3.670
 3645SOL    HW111834   4.505   6.201   3.634
 3645SOL    HW211835   4.466   6.118   3.769
 3646SOL     OW11836   0.667   5.155   5.226
 3646SOL    HW111837   0.718   5.231   5.185
 3646SOL    HW211838   0.571   5.182   5.236
 3647SOL     OW11839   3.102   2.817   0.536
 3647SOL    HW111840   3.098   2.867   0.623
 3647SOL    HW211841   3.013   2.775   0.518
 3648SOL     OW11842   2.814   6.495   3.353
 3648SOL    HW111843   2.786   6.555   3.278
 3648SOL    HW211844   2.836   6.404   3.316
 3649SOL     OW11845   3.415   2.862   2.898
 3649SOL    HW111846   3.366   2.800   2.959
 3649SOL    HW211847   3.350   2.923   2.852
 3650SOL     OW11848   5.587   6.190   1.547
 3650SOL    HW111849   5.503   6.136   1.543
 3650SOL    HW211850   5.603   6.233   1.459
 3651SOL     OW11851   1.806   5.498   1.777
 3651SOL    HW111852   1.810   5.585   1.826
 3651SOL    HW211853   1.843   5.510   1.685
 3652SOL     OW11854   4.169   6.509   3.445
 3652SOL    HW111855   4.147   6.605   3.463
 3652SOL    HW211856   4.110   6.450   3.500
 3653SOL     OW11857   0.118   3.220   3.619
 3653SOL    HW111858   0.146   3.316   3.617
 3653SOL    HW211859   0.157   3.176   3.700
 3654SOL     OW11860   2.132   6.899   2.014
 3654SOL    HW111861   2.057   6.900   2.080
 3654SOL    HW211862   2.163   6.992   1.997
 3655SOL     OW11863   6.364   1.149   3.728
 3655SOL    HW111864   6.399   1.215   3.795
 3655SOL    HW211865   6.436   1.083   3.705
 3656SOL     OW11866   2.296   1.873   2.836
 3656SOL    HW111867   2.372   1.808   2.836
 3656SOL    HW211868   2.280   1.905   2.743
 3657SOL     OW11869   5.447   5.132   1.463
 3657SOL    HW111870   5.386   5.207   1.488
 3657SOL    HW211871   5.452   5.066   1.538
 3658SOL     OW11872   2.978   4.696   5.641
 3658SOL    HW111873   2.942   4.761   5.574
 3658SOL    HW211874   3.063   4.656   5.605
 3659SOL     OW11875   1.769   4.249   6.645
 3659SOL    HW111876   1.790   4.337   6.603
 3659SOL    HW211877   1.702   4.200   6.589
 3660SOL     OW11878   4.698   3.855   0.889
 3660SOL    HW111879   4.651   3.943   0.897
 3660SOL    HW211880   4.631   3.784   0.868
 3661SOL     OW11881   5.611   1.076   1.411
 3661SOL    HW111882   5.661   1.047   1.492
 3661SOL    HW211883   5.575   0.995   1.364
 3662SOL     OW11884   1.168   6.783   4.282
 3662SOL    HW111885   1.155   6.727   4.201
 3662SOL    HW211886   1.259   6.766   4.320
 3663SOL     OW11887   2.523   2.301   6.078
 3663SOL    HW111888   2.590   2.370   6.105
 3663SOL    HW211889   2.569   2.227   6.029
 3664SOL     OW11890   3.567   0.684   2.447
 3664SOL    HW111891   3.612   0.769   2.473
 3664SOL    HW211892   3.468   0.695   2.455
 3665SOL     OW11893   2.158   1.431   5.092
 3665SOL    HW111894   2.178   1.444   4.994
 3665SOL    HW211895   2.244   1.433   5.143
 3666SOL     OW11896   0.740   4.649   3.284
 3666SOL    HW111897   0.782   4.566   3.247
 3666SOL    HW211898   0.668   4.624   3.348
 3667SOL     OW11899   0.228   1.169   0.181
 3667SOL    HW111900   0.128   1.165   0.182
 3667SOL    HW211901   0.263   1.101   0.116
 3668SOL     OW11902   1.957   6.592   1.652
 3668SOL    HW111903   2.051   6.615   1.676
 3668SOL    HW211904   1.896   6.615   1.729
 3669SOL     OW11905   5.527   1.553   4.036
 3669SOL    HW111906   5.514   1.564   4.134
 3669SOL    HW211907   5.482   1.469   4.005
 3670SOL     OW11908   3.258   4.934   5.881
 3670SOL    HW111909   3.165   4.916   5.912
 3670SOL    HW211910   3.274   5.033   5.877
 3671SOL     OW11911   1.928   1.205   3.144
 3671SOL    HW111912   1.993   1.177   3.215
 3671SOL    HW211913   1.837   1.211   3.184
 3672SOL     OW11914   6.486   6.520   0.139
 3672SOL    HW111915   6.554   6.594   0.140
 3672SOL    HW211916   6.533   6.432   0.144
 3673SOL     OW11917   4.325   0.001   6.423
 3673SOL    HW111918   4.245   7.026   6.483
 3673SOL    HW211919   4.297   7.013   6.328
 3674SOL     OW11920   0.802   6.038   1.059
 3674SOL    HW111921   0.848   6.079   1.138
 3674SOL    HW211922   0.763   6.110   1.003
 3675SOL     OW11923   1.918   2.330   4.053
 3675SOL    HW111924   2.017   2.317   4.046
 3675SOL    HW211925   1.887   2.393   3.983
 3676SOL     OW11926   1.881   5.303   2.833
 3676SOL    HW111927   1.818   5.257   2.771
 3676SOL    HW211928   1.877   5.259   2.923
 3677SOL     OW11929   5.618   0.595   3.687
 3677SOL    HW111930   5.580   0.670   3.632
 3677SOL    HW211931   5.589   0.605   3.782
 3678SOL     OW11932   0.941   2.709   4.360
 3678SOL    HW111933   0.905   2.758   4.281
 3678SOL    HW211934   1.009   2.642   4.331
 3679SOL     OW11935   6.513   1.561   2.029
 3679SOL    HW111936   6.447   1.589   2.100
 3679SOL    HW211937   6.606   1.574   2.064
 3680SOL     OW11938   5.932   4.507   4.696
 3680SOL    HW111939   5.987   4.466   4.769
 3680SOL    HW211940   5.942   4.452   4.612
 3681SOL     OW11941   5.508   0.316   5.134
 3681SOL    HW111942   5.454   0.368   5.200
 3681SOL    HW211943   5.605   0.324   5.157
 3682SOL     OW11944   0.022   2.102   0.304
 3682SOL    HW111945   0.045   2.031   0.238
 3682SOL    HW211946   0.039   2.069   0.397
 3683SOL     OW11947   5.026   6.372   3.068
 3683SOL    HW111948   4.940   6.343   3.027
 3683SOL    HW211949   5.008   6.411   3.158
 3684SOL     OW11950   2.356   3.936   1.779
 3684SOL    HW111951   2.339   3.979   1.867
 3684SOL    HW211952   2.448   3.898   1.777
 3685SOL     OW11953   5.621   6.189   5.657
 3685SOL    HW111954   5.698   6.129   5.635
 3685SOL    HW211955   5.543   6.134   5.688
 3686SOL     OW11956   0.056   4.083   0.595
 3686SOL    HW111957   0.136   4.079   0.655
 3686SOL    HW211958   6.999   4.076   0.650
 3687SOL     OW11959   4.286   0.997   0.562
 3687SOL    HW111960   4.358   1.007   0.494
 3687SOL    HW211961   4.324   1.011   0.653
 3688SOL     OW11962   0.192   3.518   0.482
 3688SOL    HW111963   0.122   3.517   0.411
 3688SOL    HW211964   0.169   3.586   0.552
 3689SOL     OW11965   1.904   6.419   3.624
 3689SOL    HW111966   1.905   6.322   3.651
 3689SOL    HW211967   1.866   6.474   3.698
 3690SOL     OW11968   5.010   4.859   5.873
 3690SOL    HW111969   4.951   4.909   5.809
 3690SOL    HW211970   4.971   4.864   5.965
 3691SOL     OW11971   3.297   3.052   6.048
 3691SOL    HW111972   3.291   3.088   5.955
 3691SOL    HW211973   3.297   3.128   6.113
 3692SOL     OW11974   0.399   0.212   5.390
 3692SOL    HW111975   0.493   0.214   5.425
 3692SOL    HW211976   0.340   0.165   5.456
 3693SOL     OW11977   1.181   1.521   3.749
 3693SOL    HW111978   1.239   1.572   3.813
 3693SOL    HW211979   1.115   1.583   3.707
 3694SOL     OW11980   1.845   5.035   3.647
 3694SOL    HW111981   1.812   4.955   3.697
 3694SOL    HW211982   1.913   5.083   3.702
 3695SOL     OW11983   2.224   2.511   0.164
 3695SOL    HW111984   2.140   2.466   0.134
 3695SOL    HW211985   2.202   2.582   0.231
 3696SOL     OW11986   2.872   6.240   5.543
 3696SOL    HW111987   2.910   6.219   5.633
 3696SOL    HW211988   2.931   6.200   5.472
 3697SOL     OW11989   5.128   1.128   3.805
 3697SOL    HW111990   5.097   1.070   3.729
 3697SOL    HW211991   5.227   1.137   3.801
 3698SOL     OW11992   3.236   6.728   6.253
 3698SOL    HW111993   3.323   6.773   6.274
 3698SOL    HW211994   3.238   6.634   6.288
 3699SOL     OW11995   1.020   5.376   2.392
 3699SOL    HW111996   1.003   5.396   2.296
 3699SOL    HW211997   1.109   5.412   2.418
 3700SOL     OW11998   6.215   0.462   3.388
 3700SOL    HW111999   6.210   0.553   3.347
 3700SOL    HW212000   6.243   0.471   3.484
 3701SOL     OW12001   4.750   1.101   3.999
 3701SOL    HW112002   4.687   1.112   3.922
 3701SOL    HW212003   4.698   1.086   4.083
 3702SOL     OW12004   4.984   0.980   6.535
 3702SOL    HW112005   5.061   1.042   6.522
 3702SOL    HW212006   4.898   1.031   6.525
 3703SOL     OW12007   4.087   4.674   1.019
 3703SOL    HW112008   4.142   4.643   0.941
 3703SOL    HW212009   4.019   4.740   0.988
 3704SOL     OW12010   3.404   6.240   1.020
 3704SOL    HW112011   3.331   6.172   1.028
 3704SOL    HW212012   3.364   6.332   1.023
 3705SOL     OW12013   7.002   1.070   4.100
 3705SOL    HW112014   6.919   1.086   4.153
 3705SOL    HW212015   6.993   0.984   4.048
 3706SOL     OW12016   2.967   1.988   3.183
 3706SOL    HW112017   2.885   2.046   3.183
 3706SOL    HW212018   2.953   1.911   3.121
 3707SOL     OW12019   4.443   2.368   5.522
 3707SOL    HW112020   4.445   2.303   5.598
 3707SOL    HW212021   4.522   2.429   5.529
 3708SOL     OW12022   6.772   0.519   0.300
 3708SOL    HW112023   6.850   0.520   0.362
 3708SOL    HW212024   6.790   0.580   0.223
 3709SOL     OW12025   6.823   6.633   6.824
 3709SOL    HW112026   6.838   6.730   6.801
 3709SOL    HW212027   6.845   6.576   6.744
 3710SOL     OW12028   0.582   5.142   6.607
 3710SOL    HW112029   0.577   5.106   6.700
 3710SOL    HW212030   0.619   5.235   6.608
 3711SOL     OW12031   6.732   5.679   1.797
 3711SOL    HW112032   6.800   5.734   1.845
 3711SOL    HW212033   6.683   5.622   1.863
 3712SOL     OW12034   1.633   6.789   6.821
 3712SOL    HW112035   1.558   6.726   6.801
 3712SOL    HW212036   1.679   6.760   6.905
 3713SOL     OW12037   3.653   5.011   5.870
 3713SOL    HW112038   3.680   5.040   5.962
 3713SOL    HW212039   3.621   4.917   5.872
 3714SOL     OW12040   4.820   1.897   5.029
 3714SOL    HW112041   4.822   1.858   5.121
 3714SOL    HW212042   4.856   1.831   4.964
 3715SOL     OW12043   4.813   4.085   3.412
 3715SOL    HW112044   4.806   4.063   3.509
 3715SOL    HW212045   4.777   4.177   3.395
 3716SOL     OW12046   1.020   1.248   4.425
 3716SOL    HW112047   1.116   1.225   4.442
 3716SOL    HW212048   0.993   1.323   4.486
 3717SOL     OW12049   6.071   0.775   0.013
 3717SOL    HW112050   6.093   0.839   6.967
 3717SOL    HW212051   5.977   0.743   0.003
 3718SOL     OW12052   0.901   6.537   6.636
 3718SOL    HW112053   0.999   6.519   6.640
 3718SOL    HW212054   0.870   6.536   6.541
 3719SOL     OW12055   3.082   4.335   0.553
 3719SOL    HW112056   3.094   4.393   0.472
 3719SOL    HW212057   3.157   4.350   0.617
 3720SOL     OW12058   0.061   0.949   6.347
 3720SOL    HW112059   0.120   0.874   6.317
 3720SOL    HW212060   0.116   1.020   6.390
 3721SOL     OW12061   4.762   2.872   0.209
 3721SOL    HW112062   4.689   2.817   0.251
 3721SOL    HW212063   4.793   2.941   0.274
 3722SOL     OW12064   4.522   5.792   1.031
 3722SOL    HW112065   4.545   5.878   1.078
 3722SOL    HW212066   4.437   5.804   0.980
 3723SOL     OW12067   4.814   1.217   0.844
 3723SOL    HW112068   4.856   1.236   0.932
 3723SOL    HW212069   4.816   1.300   0.788
 3724SOL     OW12070   0.857   4.403   6.012
 3724SOL    HW112071   0.955   4.386   6.022
 3724SOL    HW212072   0.807   4.334   6.063
 3725SOL     OW12073   5.195   6.280   1.510
 3725SOL    HW112074   5.196   6.379   1.503
 3725SOL    HW212075   5.288   6.246   1.524
 3726SOL     OW12076   6.160   3.074   1.445
 3726SOL    HW112077   6.076   3.107   1.402
 3726SOL    HW212078   6.147   2.980   1.477
 3727SOL     OW12079   2.774   3.058   5.549
 3727SOL    HW112080   2.871   3.049   5.571
 3727SOL    HW212081   2.764   3.080   5.452
 3728SOL     OW12082   0.512   4.355   6.452
 3728SOL    HW112083   0.550   4.281   6.396
 3728SOL    HW212084   0.418   4.373   6.425
 3729SOL     OW12085   1.012   3.381   3.990
 3729SOL    HW112086   1.061   3.326   3.923
 3729SOL    HW212087   0.917   3.351   3.995
 3730SOL     OW12088   2.043   6.976   1.367
 3730SOL    HW112089   2.131   6.932   1.352
 3730SOL    HW212090   2.023   6.980   1.465
 3731SOL     OW12091   2.616   5.865   0.121
 3731SOL    HW112092   2.587   5.911   0.205
 3731SOL    HW212093   2.546   5.878   0.051
 3732SOL     OW12094   2.173   3.614   4.611
 3732SOL    HW112095   2.215   3.703   4.594
 3732SOL    HW212096   2.124   3.583   4.529
 3733SOL     OW12097   3.074   3.578   1.574
 3733SOL    HW112098   3.154   3.524   1.600
 3733SOL    HW212099   3.021   3.528   1.506
 3734SOL     OW12100   4.087   1.185   3.323
 3734SOL    HW112101   4.040   1.098   3.334
 3734SOL    HW212102   4.030   1.259   3.360
 3735SOL     OW12103   3.943   2.109   1.936
 3735SOL    HW112104   3.974   2.045   2.006
 3735SOL    HW212105   3.857   2.151   1.964
 3736SOL     OW12106   4.617   1.085   6.026
 3736SOL    HW112107   4.539   1.023   6.029
 3736SOL    HW212108   4.602   1.154   5.955
 3737SOL     OW12109   3.063   6.980   3.566
 3737SOL    HW112110   3.053   0.034   3.625
 3737SOL    HW212111   3.152   6.938   3.581
 3738SOL     OW12112   0.203   0.877   4.231
 3738SOL    HW112113   0.260   0.852   4.152
 3738SOL    HW212114   0.170   0.970   4.220
 3739SOL     OW12115   0.269   3.226   0.983
 3739SOL    HW112116   0.229   3.221   0.892
 3739SOL    HW212117   0.240   3.147   1.037
 3740SOL     OW12118   5.684   6.765   0.217
 3740SOL    HW112119   5.646   6.852   0.249
 3740SOL    HW212120   5.763   6.741   0.273
 3741SOL     OW12121   3.879   1.492   0.032
 3741SOL    HW112122   3.794   1.454   0.070
 3741SOL    HW212123   3.941   1.417   0.007
 3742SOL     OW12124   3.814   3.322   5.843
 3742SOL    HW112125   3.791   3.396   5.906
 3742SOL    HW212126   3.761   3.241   5.865
 3743SOL     OW12127   0.694   5.949   5.919
 3743SOL    HW112128   0.778   5.929   5.969
 3743SOL    HW212129   0.670   6.045   5.931
 3744SOL     OW12130   6.417   4.912   3.021
 3744SOL    HW112131   6.444   4.865   2.937
 3744SOL    HW212132   6.413   5.010   3.004
 3745SOL     OW12133   5.294   4.925   1.350
 3745SOL    HW112134   5.329   5.005   1.400
 3745SOL    HW212135   5.195   4.933   1.341
 3746SOL     OW12136   4.036   1.740   1.581
 3746SOL    HW112137   3.992   1.789   1.656
 3746SOL    HW212138   3.982   1.658   1.558
 3747SOL     OW12139   2.335   6.914   1.050
 3747SOL    HW112140   2.345   7.007   1.084
 3747SOL    HW212141   2.342   6.914   0.950
 3748SOL     OW12142   6.100   0.368   1.727
 3748SOL    HW112143   6.185   0.411   1.756
 3748SOL    HW212144   6.068   0.306   1.798
 3749SOL     OW12145   0.867   0.570   3.999
 3749SOL    HW112146   0.795   0.536   4.059
 3749SOL    HW212147   0.881   0.668   4.015
 3750SOL     OW12148   0.488   4.006   6.735
 3750SOL    HW112149   0.402   3.992   6.685
 3750SOL    HW212150   0.515   4.102   6.727
 3751SOL     OW12151   2.048   5.202   1.576
 3751SOL    HW112152   2.050   5.173   1.480
 3751SOL    HW212153   2.069   5.300   1.581
 3752SOL     OW12154   5.329   5.790   6.853
 3752SOL    HW112155   5.355   5.821   6.945
 3752SOL    HW212156   5.235   5.819   6.834
 3753SOL     OW12157   0.202   0.558   3.336
 3753SOL    HW112158   0.251   0.639   3.305
 3753SOL    HW212159   0.189   0.495   3.259
 3754SOL     OW12160   3.626   1.948   1.365
 3754SOL    HW112161   3.660   2.015   1.298
 3754SOL    HW212162   3.562   1.992   1.428
 3755SOL     OW12163   2.414   5.641   4.100
 3755SOL    HW112164   2.338   5.670   4.041
 3755SOL    HW212165   2.458   5.722   4.139
 3756SOL     OW12166   1.166   6.074   1.083
 3756SOL    HW112167   1.141   6.157   1.033
 3756SOL    HW212168   1.155   5.994   1.024
 3757SOL     OW12169   0.775   5.051   0.278
 3757SOL    HW112170   0.764   4.978   0.210
 3757SOL    HW212171   0.734   5.022   0.364
 3758SOL     OW12172   0.472   6.040   4.029
 3758SOL    HW112173   0.390   6.096   4.030
 3758SOL    HW212174   0.474   5.985   3.945
 3759SOL     OW12175   4.487   0.724   3.730
 3759SOL    HW112176   4.400   0.726   3.780
 3759SOL    HW212177   4.560   0.762   3.788
 3760SOL     OW12178   0.675   0.865   3.148
 3760SOL    HW112179   0.747   0.916   3.101
 3760SOL    HW212180   0.711   0.777   3.178
 3761SOL     OW12181   4.747   1.124   5.013
 3761SOL    HW112182   4.760   1.027   4.993
 3761SOL    HW212183   4.677   1.162   4.953
 3762SOL     OW12184   0.346   2.580   3.872
 3762SOL    HW112185   0.405   2.622   3.803
 3762SOL    HW212186   0.260   2.630   3.877
 3763SOL     OW12187   1.115   6.677   7.017
 3763SOL    HW112188   1.202   6.628   7.023
 3763SOL    HW212189   1.113   6.749   0.060
 3764SOL     OW12190   3.537   1.762   2.581
 3764SOL    HW112191   3.484   1.684   2.547
 3764SOL    HW212192   3.510   1.845   2.532
 3765SOL     OW12193   5.637   3.828   2.795
 3765SOL    HW112194   5.593   3.739   2.783
 3765SOL    HW212195   5.679   3.856   2.709
 3766SOL     OW12196   2.005   2.937   2.280
 3766SOL    HW112197   2.016   2.982   2.368
 3766SOL    HW212198   2.073   2.864   2.272
 3767SOL     OW12199   1.709   6.078   5.969
 3767SOL    HW112200   1.736   5.981   5.973
 3767SOL    HW212201   1.757   6.129   6.041
 3768SOL     OW12202   1.673   6.872   3.563
 3768SOL    HW112203   1.645   6.869   3.659
 3768SOL    HW212204   1.742   6.802   3.545
 3769SOL     OW12205   5.336   5.010   5.727
 3769SOL    HW112206   5.298   5.067   5.799
 3769SOL    HW212207   5.418   4.963   5.761
 3770SOL     OW12208   2.699   6.691   0.744
 3770SOL    HW112209   2.799   6.697   0.745
 3770SOL    HW212210   2.663   6.725   0.831
 3771SOL     OW12211   6.684   6.318   6.036
 3771SOL    HW112212   6.680   6.250   5.963
 3771SOL    HW212213   6.656   6.407   5.999
 3772SOL     OW12214   3.054   6.041   1.993
 3772SOL    HW112215   3.102   6.037   2.080
 3772SOL    HW212216   2.985   5.969   1.989
 3773SOL     OW12217   5.168   4.371   6.529
 3773SOL    HW112218   5.143   4.393   6.623
 3773SOL    HW212219   5.262   4.399   6.511
 3774SOL     OW12220   6.845   4.470   0.869
 3774SOL    HW112221   6.923   4.471   0.806
 3774SOL    HW212222   6.877   4.444   0.960
 3775SOL     OW12223   5.606   6.542   4.743
 3775SOL    HW112224   5.690   6.500   4.711
 3775SOL    HW212225   5.600   6.535   4.843
 3776SOL     OW12226   4.676   2.635   6.501
 3776SOL    HW112227   4.600   2.655   6.438
 3776SOL    HW212228   4.701   2.539   6.492
 3777SOL     OW12229   3.328   5.214   3.537
 3777SOL    HW112230   3.377   5.277   3.597
 3777SOL    HW212231   3.307   5.130   3.587
 3778SOL     OW12232   3.201   5.465   6.470
 3778SOL    HW112233   3.112   5.445   6.512
 3778SOL    HW212234   3.231   5.556   6.497
 3779SOL     OW12235   0.080   4.918   5.981
 3779SOL    HW112236   0.149   4.860   6.023
 3779SOL    HW212237   0.003   4.931   6.044
 3780SOL     OW12238   6.044   2.285   2.255
 3780SOL    HW112239   6.084   2.372   2.226
 3780SOL    HW212240   6.110   2.211   2.240
 3781SOL     OW12241   1.353   6.851   5.894
 3781SOL    HW112242   1.407   6.850   5.810
 3781SOL    HW212243   1.278   6.917   5.885
 3782SOL     OW12244   3.555   5.269   6.822
 3782SOL    HW112245   3.566   5.348   6.762
 3782SOL    HW212246   3.644   5.239   6.855
 3783SOL     OW12247   4.896   4.730   5.542
 3783SOL    HW112248   4.846   4.724   5.455
 3783SOL    HW212249   4.852   4.670   5.609
 3784SOL     OW12250   5.671   3.367   4.486
 3784SOL    HW112251   5.713   3.299   4.546
 3784SOL    HW212252   5.728   3.378   4.404
 3785SOL     OW12253   0.699   3.155   2.727
 3785SOL    HW112254   0.774   3.143   2.793
 3785SOL    HW212255   0.696   3.250   2.697
 3786SOL     OW12256   2.736   3.208   6.104
 3786SOL    HW112257   2.707   3.302   6.122
 3786SOL    HW212258   2.700   3.178   6.016
 3787SOL     OW12259   4.830   6.003   5.311
 3787SOL    HW112260   4.849   5.974   5.405
 3787SOL    HW212261   4.885   6.084   5.289
 3788SOL     OW12262   5.857   2.815   6.347
 3788SOL    HW112263   5.838   2.749   6.275
 3788SOL    HW212264   5.805   2.792   6.429
 3789SOL     OW12265   2.006   4.343   1.103
 3789SOL    HW112266   2.014   4.290   1.018
 3789SOL    HW212267   2.092   4.337   1.154
 3790SOL     OW12268   2.044   6.912   1.648
 3790SOL    HW112269   2.003   6.821   1.653
 3790SOL    HW212270   1.998   6.973   1.712
 3791SOL     OW12271   5.007   0.728   4.427
 3791SOL    HW112272   5.057   0.650   4.390
 3791SOL    HW212273   5.049   0.813   4.394
 3792SOL     OW12274   6.318   0.151   2.985
 3792SOL    HW112275   6.273   0.178   3.070
 3792SOL    HW212276   6.411   0.119   3.005
 3793SOL     OW12277   4.760   3.492   0.094
 3793SOL    HW112278   4.806   3.494   0.005
 3793SOL    HW212279   4.661   3.481   0.080
 3794SOL     OW12280   1.491   5.071   5.843
 3794SOL    HW112281   1.472   5.107   5.752
 3794SOL    HW212282   1.432   4.992   5.862
 3795SOL     OW12283   3.076   5.907   0.747
 3795SOL    HW112284   3.166   5.890   0.707
 3795SOL    HW212285   3.053   5.832   0.810
 3796SOL     OW12286   5.161   0.622   0.226
 3796SOL    HW112287   5.242   0.608   0.284
 3796SOL    HW212288   5.152   0.546   0.162
 3797SOL     OW12289   0.056   2.772   1.268
 3797SOL    HW112290   0.066   2.733   1.359
 3797SOL    HW212291   7.008   2.839   1.268
 3798SOL     OW12292   0.459   4.753   3.881
 3798SOL    HW112293   0.385   4.764   3.947
 3798SOL    HW212294   0.525   4.687   3.916
 3799SOL     OW12295   6.817   1.708   2.453
 3799SOL    HW112296   6.802   1.648   2.531
 3799SOL    HW212297   6.907   1.689   2.413
 3800SOL     OW12298   5.215   3.193   2.142
 3800SOL    HW112299   5.133   3.245   2.117
 3800SOL    HW212300   5.278   3.252   2.192
 3801SOL     OW12301   6.060   1.479   0.983
 3801SOL    HW112302   6.105   1.562   0.949
 3801SOL    HW212303   6.024   1.495   1.074
 3802SOL     OW12304   6.234   3.563   2.993
 3802SOL    HW112305   6.144   3.594   3.024
 3802SOL    HW212306   6.301   3.636   3.009
 3803SOL     OW12307   4.057   3.882   6.020
 3803SOL    HW112308   4.028   3.918   5.932
 3803SOL    HW212309   3.985   3.897   6.088
 3804SOL     OW12310   3.049   5.851   3.027
 3804SOL    HW112311   3.067   5.800   3.111
 3804SOL    HW212312   3.133   5.898   2.998
 3805SOL     OW12313   2.537   1.645   6.750
 3805SOL    HW112314   2.600   1.601   6.686
 3805SOL    HW212315   2.490   1.720   6.705
 3806SOL     OW12316   1.766   3.579   2.121
 3806SOL    HW112317   1.692   3.524   2.160
 3806SOL    HW212318   1.850   3.525   2.121
 3807SOL     OW12319   0.534   4.255   3.851
 3807SOL    HW112320   0.579   4.331   3.803
 3807SOL    HW212321   0.455   4.225   3.798
 3808SOL     OW12322   2.635   6.384   5.849
 3808SOL    HW112323   2.611   6.398   5.753
 3808SOL    HW212324   2.552   6.363   5.901
 3809SOL     OW12325   5.086   1.339   1.517
 3809SOL    HW112326   5.132   1.253   1.538
 3809SOL    HW212327   5.141   1.390   1.450
 3810SOL     OW12328   5.397   2.166   3.569
 3810SOL    HW112329   5.409   2.114   3.653
 3810SOL    HW212330   5.458   2.130   3.498
 3811SOL     OW12331   0.368   5.976   5.150
 3811SOL    HW112332   0.272   5.998   5.170
 3811SOL    HW212333   0.427   6.023   5.216
 3812SOL     OW12334   4.041   5.750   6.999
 3812SOL    HW112335   3.967   5.816   6.989
 3812SOL    HW212336   4.006   5.668   0.019
 3813SOL     OW12337   6.332   3.156   6.898
 3813SOL    HW112338   6.282   3.097   6.834
 3813SOL    HW212339   6.302   3.251   6.887
 3814SOL     OW12340   6.909   0.326   5.122
 3814SOL    HW112341   6.984   0.390   5.142
 3814SOL    HW212342   6.827   0.378   5.100
 3815SOL     OW12343   4.936   2.133   5.252
 3815SOL    HW112344   4.915   2.114   5.156
 3815SOL    HW212345   4.871   2.201   5.287
 3816SOL     OW12346   6.795   6.514   1.472
 3816SOL    HW112347   6.734   6.493   1.548
 3816SOL    HW212348   6.873   6.568   1.506
 3817SOL     OW12349   3.839   3.636   2.447
 3817SOL    HW112350   3.840   3.728   2.409
 3817SOL    HW212351   3.919   3.623   2.505
 3818SOL     OW12352   4.297   5.438   2.612
 3818SOL    HW112353   4.394   5.426   2.632
 3818SOL    HW212354   4.277   5.536   2.602
 3819SOL     OW12355   6.240   3.363   3.226
 3819SOL    HW112356   6.257   3.404   3.136
 3819SOL    HW212357   6.217   3.434   3.292
 3820SOL     OW12358   2.884   6.564   6.024
 3820SOL    HW112359   2.938   6.638   5.984
 3820SOL    HW212360   2.936   6.478   6.020
 3821SOL     OW12361   1.793   6.588   1.192
 3821SOL    HW112362   1.715   6.649   1.206
 3821SOL    HW212363   1.773   6.498   1.231
 3822SOL     OW12364   5.883   6.859   1.489
 3822SOL    HW112365   5.841   6.840   1.578
 3822SOL    HW212366   5.925   6.775   1.454
 3823SOL     OW12367   5.377   6.095   4.708
 3823SOL    HW112368   5.474   6.109   4.687
 3823SOL    HW212369   5.321   6.139   4.638
 3824SOL     OW12370   1.879   2.386   0.603
 3824SOL    HW112371   1.841   2.433   0.524
 3824SOL    HW212372   1.851   2.434   0.687
 3825SOL     OW12373   0.518   4.664   5.669
 3825SOL    HW112374   0.419   4.668   5.661
 3825SOL    HW212375   0.558   4.750   5.635
 3826SOL     OW12376   4.846   4.066   3.691
 3826SOL    HW112377   4.828   3.977   3.732
 3826SOL    HW212378   4.944   4.084   3.692
 3827SOL     OW12379   0.556   1.248   7.020
 3827SOL    HW112380   0.531   1.228   0.088
 3827SOL    HW212381   0.529   1.170   6.963
 3828SOL     OW12382   3.307   3.923   5.311
 3828SOL    HW112383   3.303   4.014   5.271
 3828SOL    HW212384   3.280   3.927   5.407
 3829SOL     OW12385   7.013   2.994   1.865
 3829SOL    HW112386   0.035   2.925   1.812
 3829SOL    HW212387   0.038   3.080   1.865
 3830SOL     OW12388   5.306   6.727   3.670
 3830SOL    HW112389   5.341   6.759   3.758
 3830SOL    HW212390   5.370   6.754   3.598
 3831SOL     OW12391   5.325   2.286   3.873
 3831SOL    HW112392   5.418   2.320   3.859
 3831SOL    HW212393   5.271   2.300   3.790
 3832SOL     OW12394   6.105   1.078   3.834
 3832SOL    HW112395   6.197   1.093   3.797
 3832SOL    HW212396   6.052   1.163   3.827
 3833SOL     OW12397   1.680   2.886   5.911
 3833SOL    HW112398   1.663   2.932   5.998
 3833SOL    HW212399   1.649   2.791   5.916
 3834SOL     OW12400   5.228   4.905   0.777
 3834SOL    HW112401   5.307   4.947   0.730
 3834SOL    HW212402   5.260   4.829   0.834
 3835SOL     OW12403   4.665   5.424   4.772
 3835SOL    HW112404   4.663   5.468   4.683
 3835SOL    HW212405   4.632   5.489   4.841
 3836SOL     OW12406   0.295   7.021   4.186
 3836SOL    HW112407   0.212   7.002   4.238
 3836SOL    HW212408   0.321   0.090   4.198
 3837SOL     OW12409   4.960   4.269   5.483
 3837SOL    HW112410   5.005   4.248   5.570
 3837SOL    HW212411   4.865   4.297   5.499
 3838SOL     OW12412   6.841   1.253   3.919
 3838SOL    HW112413   6.865   1.160   3.948
 3838SOL    HW212414   6.867   1.266   3.824
 3839SOL     OW12415   4.281   1.395   3.650
 3839SOL    HW112416   4.328   1.436   3.572
 3839SOL    HW212417   4.183   1.414   3.643
 3840SOL     OW12418   3.986   1.302   6.341
 3840SOL    HW112419   4.025   1.394   6.329
 3840SOL    HW212420   4.050   1.245   6.392
 3841SOL     OW12421   5.706   4.242   3.421
 3841SOL    HW112422   5.702   4.337   3.451
 3841SOL    HW212423   5.645   4.229   3.343
 3842SOL     OW12424   1.897   3.623   5.235
 3842SOL    HW112425   1.841   3.564   5.176
 3842SOL    HW212426   1.908   3.713   5.191
 3843SOL     OW12427   5.787   2.320   6.364
 3843SOL    HW112428   5.720   2.343   6.294
 3843SOL    HW212429   5.740   2.278   6.442
 3844SOL     OW12430   6.471   6.672   0.466
 3844SOL    HW112431   6.568   6.656   0.481
 3844SOL    HW212432   6.430   6.591   0.425
 3845SOL     OW12433   2.182   5.571   0.032
 3845SOL    HW112434   2.143   5.630   0.102
 3845SOL    HW212435   2.119   5.496   0.013
 3846SOL     OW12436   6.645   3.193   2.703
 3846SOL    HW112437   6.683   3.153   2.620
 3846SOL    HW212438   6.714   3.191   2.775
 3847SOL     OW12439   0.868   0.925   6.696
 3847SOL    HW112440   0.818   0.848   6.735
 3847SOL    HW212441   0.866   1.002   6.759
 3848SOL     OW12442   6.364   5.010   1.976
 3848SOL    HW112443   6.399   5.091   1.930
 3848SOL    HW212444   6.386   4.929   1.922
 3849SOL     OW12445   0.428   3.524   5.677
 3849SOL    HW112446   0.460   3.497   5.768
 3849SOL    HW212447   0.328   3.524   5.676
 3850SOL     OW12448   3.164   2.902   1.137
 3850SOL    HW112449   3.246   2.889   1.193
 3850SOL    HW212450   3.124   2.813   1.115
 3851SOL     OW12451   0.297   5.536   2.734
 3851SOL    HW112452   0.312   5.629   2.700
 3851SOL    HW212453   0.376   5.479   2.711
 3852SOL     OW12454   2.399   0.633   5.032
 3852SOL    HW112455   2.440   0.639   4.942
 3852SOL    HW212456   2.452   0.687   5.097
 3853SOL     OW12457   2.412   1.047   3.153
 3853SOL    HW112458   2.347   0.974   3.174
 3853SOL    HW212459   2.488   1.043   3.218
 3854SOL     OW12460   0.423   1.861   1.848
 3854SOL    HW112461   0.483   1.941   1.854
 3854SOL    HW212462   0.328   1.892   1.842
 3855SOL     OW12463   3.119   6.356   6.435
 3855SOL    HW112464   3.130   6.283   6.502
 3855SOL    HW212465   3.193   6.422   6.444
 3856SOL     OW12466   6.624   2.697   6.561
 3856SOL    HW112467   6.718   2.683   6.529
 3856SOL    HW212468   6.610   2.795   6.577
 3857SOL     OW12469   1.485   0.423   6.521
 3857SOL    HW112470   1.519   0.465   6.437
 3857SOL    HW212471   1.528   0.333   6.533
 3858SOL     OW12472   3.890   1.377   5.237
 3858SOL    HW112473   3.794   1.363   5.262
 3858SOL    HW212474   3.949   1.326   5.299
 3859SOL     OW12475   5.836   0.240   2.227
 3859SOL    HW112476   5.930   0.264   2.204
 3859SOL    HW212477   5.827   0.232   2.326
 3860SOL     OW12478   1.617   6.597   4.689
 3860SOL    HW112479   1.525   6.623   4.718
 3860SOL    HW212480   1.644   6.652   4.610
 3861SOL     OW12481   3.192   5.744   2.541
 3861SOL    HW112482   3.290   5.752   2.520
 3861SOL    HW212483   3.178   5.665   2.601
 3862SOL     OW12484   1.735   0.485   4.407
 3862SOL    HW112485   1.695   0.495   4.498
 3862SOL    HW212486   1.720   0.569   4.355
 3863SOL     OW12487   4.364   0.976   1.117
 3863SOL    HW112488   4.272   0.939   1.130
 3863SOL    HW212489   4.407   0.989   1.206
 3864SOL     OW12490   0.642   0.054   4.315
 3864SOL    HW112491   0.627   0.055   4.216
 3864SOL    HW212492   0.734   0.019   4.335
 3865SOL     OW12493   5.112   0.863   0.751
 3865SOL    HW112494   5.025   0.825   0.781
 3865SOL    HW212495   5.113   0.871   0.651
 3866SOL     OW12496   3.178   0.576   6.863
 3866SOL    HW112497   3.230   0.573   6.948
 3866SOL    HW212498   3.138   0.667   6.852
 3867SOL     OW12499   6.417   3.684   2.258
 3867SOL    HW112500   6.516   3.684   2.273
 3867SOL    HW212501   6.371   3.651   2.340
 3868SOL     OW12502   3.792   0.486   0.307
 3868SOL    HW112503   3.712   0.434   0.279
 3868SOL    HW212504   3.874   0.444   0.269
 3869SOL     OW12505   3.815   1.043   4.394
 3869SOL    HW112506   3.838   0.950   4.366
 3869SOL    HW212507   3.884   1.076   4.459
 3870SOL     OW12508   0.152   1.675   5.446
 3870SOL    HW112509   0.238   1.721   5.470
 3870SOL    HW212510   0.157   1.642   5.352
 3871SOL     OW12511   2.800   5.186   3.743
 3871SOL    HW112512   2.818   5.184   3.841
 3871SOL    HW212513   2.702   5.173   3.728
 3872SOL     OW12514   2.972   4.063   5.181
 3872SOL    HW112515   3.007   4.052   5.088
 3872SOL    HW212516   2.882   4.020   5.188
 3873SOL     OW12517   4.757   1.892   6.861
 3873SOL    HW112518   4.855   1.882   6.881
 3873SOL    HW212519   4.718   1.961   6.922
 3874SOL     OW12520   2.437   1.248   1.355
 3874SOL    HW112521   2.410   1.325   1.297
 3874SOL    HW212522   2.534   1.228   1.342
 3875SOL     OW12523   1.033   1.489   6.619
 3875SOL    HW112524   1.095   1.433   6.565
 3875SOL    HW212525   0.939   1.462   6.601
 3876SOL     OW12526   3.416   5.638   2.755
 3876SOL    HW112527   3.445   5.575   2.683
 3876SOL    HW212528   3.492   5.699   2.778
 3877SOL     OW12529   0.793   1.377   5.407
 3877SOL    HW112530   0.764   1.467   5.374
 3877SOL    HW212531   0.890   1.380   5.433
 3878SOL     OW12532   4.791   1.432   4.749
 3878SOL    HW112533   4.725   1.362   4.776
 3878SOL    HW212534   4.880   1.388   4.730
 3879SOL     OW12535   5.250   5.515   0.193
 3879SOL    HW112536   5.285   5.425   0.219
 3879SOL    HW212537   5.305   5.586   0.236
 3880SOL     OW12538   4.855   4.776   4.095
 3880SOL    HW112539   4.860   4.751   4.191
 3880SOL    HW212540   4.942   4.755   4.051
 3881SOL     OW12541   1.210   3.194   0.069
 3881SOL    HW112542   1.294   3.189   0.014
 3881SOL    HW212543   1.131   3.206   0.008
 3882SOL     OW12544   0.312   2.105   5.861
 3882SOL    HW112545   0.301   2.111   5.960
 3882SOL    HW212546   0.354   2.189   5.827
 3883SOL     OW12547   4.129   6.286   4.255
 3883SOL    HW112548   4.143   6.207   4.315
 3883SOL    HW212549   4.034   6.314   4.259
 3884SOL     OW12550   0.247   3.649   2.172
 3884SOL    HW112551   0.173   3.631   2.237
 3884SOL    HW212552   0.302   3.725   2.206
 3885SOL     OW12553   4.296   5.622   1.862
 3885SOL    HW112554   4.326   5.703   1.812
 3885SOL    HW212555   4.205   5.596   1.832
 3886SOL     OW12556   2.779   5.421   5.812
 3886SOL    HW112557   2.712   5.489   5.782
 3886SOL    HW212558   2.732   5.344   5.854
 3887SOL     OW12559   1.808   5.247   1.957
 3887SOL    HW112560   1.835   5.152   1.941
 3887SOL    HW212561   1.817   5.299   1.872
 3888SOL     OW12562   5.387   5.049   4.024
 3888SOL    HW112563   5.428   5.018   3.938
 3888SOL    HW212564   5.368   4.970   4.082
 3889SOL     OW12565   5.367   4.221   0.211
 3889SOL    HW112566   5.364   4.269   0.299
 3889SOL    HW212567   5.461   4.224   0.175
 3890SOL     OW12568   5.328   3.680   4.032
 3890SOL    HW112569   5.273   3.722   3.960
 3890SOL    HW212570   5.271   3.619   4.087
 3891SOL     OW12571   4.729   5.290   4.070
 3891SOL    HW112572   4.763   5.374   4.028
 3891SOL    HW212573   4.694   5.229   3.999
 3892SOL     OW12574   6.669   2.052   1.551
 3892SOL    HW112575   6.589   2.057   1.492
 3892SOL    HW212576   6.735   2.122   1.523
 3893SOL     OW12577   4.150   3.444   3.439
 3893SOL    HW112578   4.068   3.501   3.445
 3893SOL    HW212579   4.156   3.402   3.349
 3894SOL     OW12580   4.301   0.891   5.770
 3894SOL    HW112581   4.325   0.934   5.683
 3894SOL    HW212582   4.286   0.794   5.757
 3895SOL     OW12583   0.164   0.118   3.811
 3895SOL    HW112584   0.129   0.042   3.866
 3895SOL    HW212585   0.161   0.202   3.865
 3896SOL     OW12586   2.214   1.330   6.465
 3896SOL    HW112587   2.153   1.357   6.539
 3896SOL    HW212588   2.274   1.406   6.441
 3897SOL     OW12589   3.755   5.900   1.226
 3897SOL    HW112590   3.850   5.904   1.256
 3897SOL    HW212591   3.726   5.991   1.195
 3898SOL     OW12592   3.343   2.953   1.757
 3898SOL    HW112593   3.292   2.901   1.688
 3898SOL    HW212594   3.385   2.890   1.822
 3899SOL     OW12595   3.002   0.086   5.683
 3899SOL    HW112596   3.073   0.016   5.678
 3899SOL    HW212597   2.919   0.046   5.721
 3900SOL     OW12598   4.586   4.724   2.980
 3900SOL    HW112599   4.637   4.656   2.927
 3900SOL    HW212600   4.488   4.703   2.976
 3901SOL     OW12601   2.988   0.994   7.016
 3901SOL    HW112602   3.076   0.978   6.971
 3901SOL    HW212603   3.004   1.037   0.078
 3902SOL     OW12604   5.468   2.954   3.042
 3902SOL    HW112605   5.517   3.013   2.979
 3902SOL    HW212606   5.396   2.904   2.993
 3903SOL     OW12607   3.368   4.492   6.195
 3903SOL    HW112608   3.271   4.512   6.197
 3903SOL    HW212609   3.406   4.501   6.287
 3904SOL     OW12610   1.821   6.693   0.809
 3904SOL    HW112611   1.794   6.769   0.867
 3904SOL    HW212612   1.909   6.656   0.840
 3905SOL     OW12613   7.009   6.292   5.137
 3905SOL    HW112614   0.034   6.351   5.075
 3905SOL    HW212615   6.914   6.287   5.107
 3906SOL     OW12616   0.131   6.094   5.222
 3906SOL    HW112617   0.070   6.162   5.180
 3906SOL    HW212618   0.139   6.113   5.320
 3907SOL     OW12619   5.596   2.284   3.811
 3907SOL    HW112620   5.648   2.200   3.797
 3907SOL    HW212621   5.603   2.342   3.730
 3908SOL     OW12622   2.630   4.058   5.931
 3908SOL    HW112623   2.629   4.050   6.031
 3908SOL    HW212624   2.571   4.133   5.903
 3909SOL     OW12625   5.390   5.919   3.597
 3909SOL    HW112626   5.390   5.911   3.497
 3909SOL    HW212627   5.479   5.951   3.628
 3910SOL     OW12628   3.851   3.332   2.713
 3910SOL    HW112629   3.888   3.260   2.655
 3910SOL    HW212630   3.781   3.384   2.663
 3911SOL     OW12631   5.979   2.356   6.088
 3911SOL    HW112632   5.993   2.413   6.169
 3911SOL    HW212633   6.006   2.262   6.108
 3912SOL     OW12634   5.233   2.373   6.084
 3912SOL    HW112635   5.136   2.349   6.082
 3912SOL    HW212636   5.245   2.461   6.130
 3913SOL     OW12637   1.610   6.834   1.311
 3913SOL    HW112638   1.589   6.795   1.401
 3913SOL    HW212639   1.533   6.820   1.249
 3914SOL     OW12640   3.057   5.708   5.363
 3914SOL    HW112641   2.966   5.725   5.327
 3914SOL    HW212642   3.106   5.645   5.303
 3915SOL     OW12643   6.861   5.947   1.613
 3915SOL    HW112644   6.896   5.877   1.676
 3915SOL    HW212645   6.771   5.918   1.579
 3916SOL     OW12646   0.417   0.352   3.629
 3916SOL    HW112647   0.422   0.338   3.530
 3916SOL    HW212648   0.504   0.324   3.671
 3917SOL     OW12649   2.566   6.879   6.929
 3917SOL    HW112650   2.534   6.817   7.000
 3917SOL    HW212651   2.629   6.831   6.868
 3918SOL     OW12652   5.801   3.378   6.623
 3918SOL    HW112653   5.829   3.341   6.534
 3918SOL    HW212654   5.701   3.379   6.628
 3919SOL     OW12655   3.316   6.486   1.001
 3919SOL    HW112656   3.352   6.568   1.047
 3919SOL    HW212657   3.340   6.489   0.904
 3920SOL     OW12658   2.127   0.994   6.770
 3920SOL    HW112659   2.164   0.931   6.838
 3920SOL    HW212660   2.050   0.950   6.722
 3921SOL     OW12661   0.749   3.567   1.371
 3921SOL    HW112662   0.745   3.652   1.318
 3921SOL    HW212663   0.657   3.541   1.398
 3922SOL     OW12664   1.120   5.043   1.123
 3922SOL    HW112665   1.218   5.028   1.107
 3922SOL    HW212666   1.104   5.059   1.220
 3923SOL     OW12667   6.769   6.991   1.123
 3923SOL    HW112668   6.695   6.936   1.082
 3923SOL    HW212669   6.773   6.972   1.221
 3924SOL     OW12670   6.649   4.757   4.958
 3924SOL    HW112671   6.599   4.696   4.896
 3924SOL    HW212672   6.608   4.752   5.049
 3925SOL     OW12673   1.279   4.993   1.614
 3925SOL    HW112674   1.291   4.898   1.643
 3925SOL    HW212675   1.317   5.053   1.684
 3926SOL     OW12676   3.500   5.315   3.104
 3926SOL    HW112677   3.464   5.407   3.118
 3926SOL    HW212678   3.519   5.273   3.193
 3927SOL     OW12679   1.688   3.124   6.478
 3927SOL    HW112680   1.645   3.034   6.469
 3927SOL    HW212681   1.786   3.115   6.464
 3928SOL     OW12682   6.222   6.734   6.121
 3928SOL    HW112683   6.250   6.804   6.054
 3928SOL    HW212684   6.252   6.762   6.212
 3929SOL     OW12685   0.943   1.513   4.427
 3929SOL    HW112686   1.024   1.572   4.419
 3929SOL    HW212687   0.871   1.549   4.367
 3930SOL     OW12688   2.769   1.879   3.868
 3930SOL    HW112689   2.753   1.977   3.882
 3930SOL    HW212690   2.703   1.826   3.921
 3931SOL     OW12691   4.170   0.196   2.145
 3931SOL    HW112692   4.260   0.172   2.108
 3931SOL    HW212693   4.117   0.246   2.077
 3932SOL     OW12694   1.786   2.842   3.653
 3932SOL    HW112695   1.877   2.808   3.628
 3932SOL    HW212696   1.768   2.822   3.749
 3933SOL     OW12697   1.793   0.616   6.000
 3933SOL    HW112698   1.779   0.709   6.034
 3933SOL    HW212699   1.820   0.619   5.904
 3934SOL     OW12700   5.347   6.302   0.230
 3934SOL    HW112701   5.421   6.328   0.167
 3934SOL    HW212702   5.259   6.320   0.187
 3935SOL     OW12703   5.094   6.923   1.717
 3935SOL    HW112704   5.143   6.897   1.634
 3935SOL    HW212705   5.001   6.952   1.694
 3936SOL     OW12706   0.510   4.641   2.706
 3936SOL    HW112707   0.448   4.719   2.705
 3936SOL    HW212708   0.497   4.588   2.790
 3937SOL     OW12709   0.327   2.329   2.214
 3937SOL    HW112710   0.349   2.425   2.232
 3937SOL    HW212711   0.395   2.270   2.258
 3938SOL     OW12712   6.557   2.766   3.295
 3938SOL    HW112713   6.613   2.808   3.223
 3938SOL    HW212714   6.462   2.758   3.263
 3939SOL     OW12715   2.218   1.802   1.583
 3939SOL    HW112716   2.139   1.743   1.566
 3939SOL    HW212717   2.297   1.745   1.607
 3940SOL     OW12718   4.332   4.201   1.167
 3940SOL    HW112719   4.307   4.294   1.139
 3940SOL    HW212720   4.381   4.204   1.254
 3941SOL     OW12721   5.324   3.259   6.800
 3941SOL    HW112722   5.225   3.249   6.809
 3941SOL    HW212723   5.369   3.173   6.825
 3942SOL     OW12724   6.886   0.347   0.613
 3942SOL    HW112725   6.910   0.281   0.685
 3942SOL    HW212726   6.823   0.415   0.649
 3943SOL     OW12727   6.349   3.067   5.377
 3943SOL    HW112728   6.379   3.135   5.310
 3943SOL    HW212729   6.414   3.064   5.453
 3944SOL     OW12730   5.462   1.330   4.381
 3944SOL    HW112731   5.417   1.385   4.452
 3944SOL    HW212732   5.518   1.260   4.425
 3945SOL     OW12733   0.148   0.335   1.063
 3945SOL    HW112734   0.246   0.331   1.042
 3945SOL    HW212735   0.133   0.312   1.159
 3946SOL     OW12736   3.662   5.458   3.459
 3946SOL    HW112737   3.614   5.384   3.413
 3946SOL    HW212738   3.687   5.528   3.392
 3947SOL     OW12739   6.537   4.307   5.975
 3947SOL    HW112740   6.511   4.283   6.069
 3947SOL    HW212741   6.560   4.224   5.925
 3948SOL     OW12742   6.672   3.536   0.763
 3948SOL    HW112743   6.755   3.592   0.757
 3948SOL    HW212744   6.695   3.440   0.744
 3949SOL     OW12745   5.420   6.256   3.433
 3949SOL    HW112746   5.427   6.266   3.533
 3949SOL    HW212747   5.390   6.163   3.411
 3950SOL     OW12748   1.340   6.163   0.795
 3950SOL    HW112749   1.398   6.225   0.741
 3950SOL    HW212750   1.270   6.216   0.843
 3951SOL     OW12751   5.803   6.081   1.673
 3951SOL    HW112752   5.823   6.145   1.748
 3951SOL    HW212753   5.722   6.112   1.624
 3952SOL     OW12754   6.307   1.475   6.271
 3952SOL    HW112755   6.383   1.420   6.307
 3952SOL    HW212756   6.292   1.554   6.330
 3953SOL     OW12757   3.408   4.164   2.622
 3953SOL    HW112758   3.401   4.251   2.573
 3953SOL    HW212759   3.333   4.157   2.688
 3954SOL     OW12760   3.879   4.907   5.720
 3954SOL    HW112761   3.971   4.927   5.754
 3954SOL    HW212762   3.826   4.861   5.791
 3955SOL     OW12763   4.009   1.323   4.856
 3955SOL    HW112764   3.940   1.273   4.803
 3955SOL    HW212765   3.989   1.421   4.851
 3956SOL     OW12766   2.026   1.396   1.313
 3956SOL    HW112767   1.937   1.389   1.359
 3956SOL    HW212768   2.025   1.336   1.233
 3957SOL     OW12769   3.634   0.989   4.121
 3957SOL    HW112770   3.698   1.019   4.192
 3957SOL    HW212771   3.564   0.930   4.161
 3958SOL     OW12772   5.649   6.621   5.905
 3958SOL    HW112773   5.677   6.681   5.979
 3958SOL    HW212774   5.724   6.610   5.840
 3959SOL     OW12775   5.486   5.278   6.755
 3959SOL    HW112776   5.519   5.260   6.662
 3959SOL    HW212777   5.404   5.335   6.750
 3960SOL     OW12778   6.206   2.275   4.936
 3960SOL    HW112779   6.136   2.210   4.966
 3960SOL    HW212780   6.200   2.287   4.837
 3961SOL     OW12781   5.447   6.937   4.580
 3961SOL    HW112782   5.366   6.887   4.549
 3961SOL    HW212783   5.487   6.987   4.504
 3962SOL     OW12784   6.474   5.137   5.249
 3962SOL    HW112785   6.422   5.199   5.190
 3962SOL    HW212786   6.412   5.070   5.289
 3963SOL     OW12787   4.684   6.974   2.415
 3963SOL    HW112788   4.682   6.952   2.317
 3963SOL    HW212789   4.773   7.011   2.439
 3964SOL     OW12790   5.077   2.769   3.689
 3964SOL    HW112791   5.021   2.710   3.747
 3964SOL    HW212792   5.106   2.718   3.608
 3965SOL     OW12793   4.823   4.195   4.360
 3965SOL    HW112794   4.771   4.276   4.336
 3965SOL    HW212795   4.912   4.197   4.315
 3966SOL     OW12796   2.451   6.848   6.578
 3966SOL    HW112797   2.463   6.777   6.509
 3966SOL    HW212798   2.354   6.853   6.604
 3967SOL     OW12799   1.592   4.107   3.901
 3967SOL    HW112800   1.559   4.195   3.866
 3967SOL    HW212801   1.674   4.080   3.850
 3968SOL     OW12802   3.902   0.221   0.597
 3968SOL    HW112803   3.847   0.305   0.597
 3968SOL    HW212804   3.873   0.162   0.523
 3969SOL     OW12805   0.107   5.066   3.290
 3969SOL    HW112806   0.028   5.127   3.283
 3969SOL    HW212807   0.090   4.999   3.362
 3970SOL     OW12808   4.690   5.639   1.620
 3970SOL    HW112809   4.738   5.623   1.534
 3970SOL    HW212810   4.709   5.563   1.683
 3971SOL     OW12811   1.532   6.270   3.675
 3971SOL    HW112812   1.461   6.319   3.724
 3971SOL    HW212813   1.593   6.225   3.740
 3972SOL     OW12814   1.477   3.584   0.034
 3972SOL    HW112815   1.573   3.610   0.034
 3972SOL    HW212816   1.460   3.519   0.108
 3973SOL     OW12817   1.785   4.506   0.503
 3973SOL    HW112818   1.699   4.462   0.477
 3973SOL    HW212819   1.822   4.556   0.424
 3974SOL     OW12820   2.696   1.094   5.470
 3974SOL    HW112821   2.690   1.110   5.371
 3974SOL    HW212822   2.707   1.182   5.516
 3975SOL     OW12823   6.339   3.194   6.558
 3975SOL    HW112824   6.370   3.131   6.487
 3975SOL    HW212825   6.279   3.146   6.623
 3976SOL     OW12826   1.941   4.259   2.694
 3976SOL    HW112827   2.039   4.274   2.689
 3976SOL    HW212828   1.922   4.179   2.751
 3977SOL     OW12829   0.535   3.012   6.947
 3977SOL    HW112830   0.470   2.960   7.002
 3977SOL    HW212831   0.609   2.953   6.917
 3978SOL     OW12832   6.361   4.793   4.215
 3978SOL    HW112833   6.409   4.781   4.128
 3978SOL    HW212834   6.425   4.780   4.290
 3979SOL     OW12835   4.880   5.715   6.421
 3979SOL    HW112836   4.891   5.747   6.327
 3979SOL    HW212837   4.865   5.792   6.482
 3980SOL     OW12838   5.676   5.059   6.113
 3980SOL    HW112839   5.751   5.005   6.151
 3980SOL    HW212840   5.647   5.019   6.026
 3981SOL     OW12841   4.558   5.594   6.874
 3981SOL    HW112842   4.494   5.616   6.948
 3981SOL    HW212843   4.526   5.635   6.789
 3982SOL     OW12844   2.733   5.998   3.132
 3982SOL    HW112845   2.715   6.002   3.230
 3982SOL    HW212846   2.823   6.036   3.113
 3983SOL     OW12847   3.549   5.796   4.223
 3983SOL    HW112848   3.573   5.704   4.193
 3983SOL    HW212849   3.633   5.849   4.235
 3984SOL     OW12850   6.680   2.961   3.107
 3984SOL    HW112851   6.692   3.048   3.156
 3984SOL    HW212852   6.648   2.980   3.014
 3985SOL     OW12853   4.072   5.260   6.496
 3985SOL    HW112854   4.088   5.161   6.504
 3985SOL    HW212855   4.159   5.308   6.499
 3986SOL     OW12856   5.286   0.479   2.851
 3986SOL    HW112857   5.338   0.441   2.928
 3986SOL    HW212858   5.289   0.579   2.856
 3987SOL     OW12859   3.952   5.566   5.027
 3987SOL    HW112860   3.994   5.569   4.936
 3987SOL    HW212861   3.949   5.472   5.060
 3988SOL     OW12862   4.539   5.532   0.583
 3988SOL    HW112863   4.623   5.482   0.605
 3988SOL    HW212864   4.460   5.482   0.619
 3989SOL     OW12865   6.476   3.067   1.206
 3989SOL    HW112866   6.452   2.970   1.199
 3989SOL    HW212867   6.425   3.119   1.138
 3990SOL     OW12868   0.084   1.347   1.798
 3990SOL    HW112869   0.129   1.273   1.749
 3990SOL    HW212870   0.134   1.367   1.882
 3991SOL     OW12871   5.552   1.164   3.056
 3991SOL    HW112872   5.536   1.082   3.111
 3991SOL    HW212873   5.537   1.142   2.960
 3992SOL     OW12874   4.097   1.894   1.339
 3992SOL    HW112875   4.017   1.943   1.374
 3992SOL    HW212876   4.116   1.815   1.396
 3993SOL     OW12877   0.906   3.591   1.599
 3993SOL    HW112878   0.847   3.592   1.519
 3993SOL    HW212879   0.882   3.666   1.660
 3994SOL     OW12880   2.275   6.005   4.313
 3994SOL    HW112881   2.186   5.963   4.300
 3994SOL    HW212882   2.347   5.938   4.293
 3995SOL     OW12883   1.828   2.006   4.534
 3995SOL    HW112884   1.728   1.996   4.540
 3995SOL    HW212885   1.857   1.996   4.439
 3996SOL     OW12886   0.072   5.844   4.408
 3996SOL    HW112887   0.050   5.759   4.360
 3996SOL    HW212888   0.128   5.902   4.348
 3997SOL     OW12889   2.965   1.405   3.453
 3997SOL    HW112890   2.961   1.390   3.552
 3997SOL    HW212891   2.989   1.500   3.434
 3998SOL     OW12892   4.619   2.506   3.060
 3998SOL    HW112893   4.570   2.490   3.146
 3998SOL    HW212894   4.604   2.430   2.998
 3999SOL     OW12895   4.920   1.855   4.310
 3999SOL    HW112896   5.007   1.887   4.347
 3999SOL    HW212897   4.851   1.927   4.320
 4000SOL     OW12898   3.817   5.888   4.278
 4000SOL    HW112899   3.908   5.864   4.311
 4000SOL    HW212900   3.813   5.986   4.259
 4001SOL     OW12901   0.761   1.519   4.227
 4001SOL    HW112902   0.665   1.503   4.202
 4001SOL    HW212903   0.818   1.447   4.190
 4002SOL     OW12904   1.754   4.398   1.223
 4002SOL    HW112905   1.765   4.380   1.320
 4002SOL    HW212906   1.841   4.385   1.176
 4003SOL     OW12907   4.047   2.197   4.931
 4003SOL    HW112908   4.116   2.267   4.950
 4003SOL    HW212909   3.992   2.182   5.013
 4004SOL     OW12910   6.608   1.969   6.222
 4004SOL    HW112911   6.547   2.010   6.155
 4004SOL    HW212912   6.554   1.929   6.297
 4005SOL     OW12913   6.111   4.551   5.112
 4005SOL    HW112914   6.082   4.613   5.184
 4005SOL    HW212915   6.208   4.564   5.093
 4006SOL     OW12916   3.468   6.336   2.988
 4006SOL    HW112917   3.517   6.325   2.902
 4006SOL    HW212918   3.504   6.270   3.055
 4007SOL     OW12919   0.532   1.526   6.070
 4007SOL    HW112920   0.532   1.479   6.159
 4007SOL    HW212921   0.587   1.609   6.077
 4008SOL     OW12922   3.252   1.502   5.392
 4008SOL    HW112923   3.308   1.423   5.366
 4008SOL    HW212924   3.221   1.550   5.310
 4009SOL     OW12925   3.798   3.528   2.954
 4009SOL    HW112926   3.794   3.554   3.050
 4009SOL    HW212927   3.775   3.607   2.897
 4010SOL     OW12928   1.048   3.379   6.923
 4010SOL    HW112929   1.078   3.390   6.828
 4010SOL    HW212930   1.108   3.431   6.983
 4011SOL     OW12931   0.571   2.468   0.851
 4011SOL    HW112932   0.514   2.409   0.793
 4011SOL    HW212933   0.626   2.412   0.912
 4012SOL     OW12934   5.539   3.225   3.720
 4012SOL    HW112935   5.444   3.247   3.742
 4012SOL    HW212936   5.542   3.176   3.633
 4013SOL     OW12937   5.188   2.789   3.001
 4013SOL    HW112938   5.195   2.773   2.903
 4013SOL    HW212939   5.157   2.883   3.017
 4014SOL     OW12940   5.227   5.636   2.012
 4014SOL    HW112941   5.171   5.717   2.021
 4014SOL    HW212942   5.229   5.586   2.099
 4015SOL     OW12943   4.446   3.676   6.909
 4015SOL    HW112944   4.476   3.589   6.948
 4015SOL    HW212945   4.456   3.674   6.810
 4016SOL     OW12946   3.122   5.991   4.387
 4016SOL    HW112947   3.058   5.997   4.311
 4016SOL    HW212948   3.161   5.898   4.391
 4017SOL     OW12949   6.388   6.909   5.989
 4017SOL    HW112950   6.369   6.903   5.891
 4017SOL    HW212951   6.477   6.867   6.008
 4018SOL     OW12952   2.022   0.219   6.969
 4018SOL    HW112953   2.004   0.135   7.021
 4018SOL    HW212954   2.100   0.205   6.908
 4019SOL     OW12955   4.953   5.908   3.690
 4019SOL    HW112956   4.986   5.979   3.627
 4019SOL    HW212957   5.031   5.864   3.734
 4020SOL     OW12958   5.534   1.952   5.080
 4020SOL    HW112959   5.502   2.032   5.130
 4020SOL    HW212960   5.551   1.976   4.984
 4021SOL     OW12961   4.898   3.577   6.886
 4021SOL    HW112962   4.981   3.622   6.919
 4021SOL    HW212963   4.859   3.629   6.810
 4022SOL     OW12964   5.536   0.548   0.674
 4022SOL    HW112965   5.629   0.585   0.666
 4022SOL    HW212966   5.474   0.620   0.706
 4023SOL     OW12967   6.430   6.534   5.685
 4023SOL    HW112968   6.331   6.539   5.702
 4023SOL    HW212969   6.478   6.534   5.773
 4024SOL     OW12970   4.584   4.397   4.973
 4024SOL    HW112971   4.644   4.429   5.046
 4024SOL    HW212972   4.508   4.462   4.964
 4025SOL     OW12973   0.824   3.675   4.267
 4025SOL    HW112974   0.768   3.705   4.189
 4025SOL    HW212975   0.891   3.607   4.236
 4026SOL     OW12976   5.398   0.576   5.797
 4026SOL    HW112977   5.405   0.631   5.880
 4026SOL    HW212978   5.336   0.621   5.732
 4027SOL     OW12979   3.519   5.358   2.235
 4027SOL    HW112980   3.501   5.296   2.311
 4027SOL    HW212981   3.543   5.305   2.154
 4028SOL     OW12982   2.120   5.423   3.142
 4028SOL    HW112983   2.213   5.460   3.151
 4028SOL    HW212984   2.114   5.369   3.058
 4029SOL     OW12985   1.919   4.164   3.385
 4029SOL    HW112986   1.826   4.140   3.358
 4029SOL    HW212987   1.959   4.225   3.317
 4030SOL     OW12988   1.867   1.640   6.742
 4030SOL    HW112989   1.838   1.646   6.646
 4030SOL    HW212990   1.914   1.724   6.768
 4031SOL     OW12991   6.458   5.716   4.482
 4031SOL    HW112992   6.537   5.681   4.431
 4031SOL    HW212993   6.404   5.776   4.422
 4032SOL     OW12994   3.770   0.288   5.023
 4032SOL    HW112995   3.740   0.372   5.069
 4032SOL    HW212996   3.731   0.209   5.068
 4033SOL     OW12997   3.781   3.513   6.071
 4033SOL    HW112998   3.871   3.502   6.114
 4033SOL    HW212999   3.782   3.593   6.012
 4034SOL     OW13000   5.808   3.209   4.668
 4034SOL    HW113001   5.834   3.283   4.730
 4034SOL    HW213002   5.876   3.136   4.673
 4035SOL     OW13003   0.145   6.312   1.932
 4035SOL    HW113004   0.222   6.364   1.968
 4035SOL    HW213005   0.127   6.339   1.838
 4036SOL     OW13006   6.261   5.886   1.773
 4036SOL    HW113007   6.269   5.915   1.677
 4036SOL    HW213008   6.182   5.930   1.815
 4037SOL     OW13009   0.443   3.760   6.225
 4037SOL    HW113010   0.504   3.680   6.225
 4037SOL    HW213011   0.399   3.769   6.315
 4038SOL     OW13012   6.009   5.298   3.180
 4038SOL    HW113013   5.955   5.342   3.252
 4038SOL    HW213014   5.952   5.286   3.099
 4039SOL     OW13015   2.668   5.451   1.194
 4039SOL    HW113016   2.671   5.485   1.288
 4039SOL    HW213017   2.670   5.351   1.195
 4040SOL     OW13018   3.340   6.843   0.045
 4040SOL    HW113019   3.375   6.903   7.000
 4040SOL    HW213020   3.300   6.762   0.003
 4041SOL     OW13021   0.726   5.791   3.015
 4041SOL    HW113022   0.787   5.725   3.059
 4041SOL    HW213023   0.651   5.814   3.077
 4042SOL     OW13024   6.039   5.993   1.904
 4042SOL    HW113025   5.942   5.982   1.882
 4042SOL    HW213026   6.049   6.031   1.996
 4043SOL     OW13027   6.453   3.629   0.867
 4043SOL    HW113028   6.367   3.578   0.864
 4043SOL    HW213029   6.511   3.600   0.791
 4044SOL     OW13030   5.778   5.228   2.344
 4044SOL    HW113031   5.730   5.140   2.342
 4044SOL    HW213032   5.860   5.222   2.287
 4045SOL     OW13033   2.751   4.618   5.993
 4045SOL    HW113034   2.826   4.675   5.960
 4045SOL    HW213035   2.665   4.646   5.950
 4046SOL     OW13036   0.385   3.322   0.517
 4046SOL    HW113037   0.312   3.388   0.526
 4046SOL    HW213038   0.456   3.358   0.456
 4047SOL     OW13039   2.891   3.398   2.944
 4047SOL    HW113040   2.914   3.379   2.848
 4047SOL    HW213041   2.792   3.408   2.953
 4048SOL     OW13042   4.686   2.264   0.548
 4048SOL    HW113043   4.594   2.303   0.546
 4048SOL    HW213044   4.751   2.333   0.582
 4049SOL     OW13045   6.837   0.069   0.120
 4049SOL    HW113046   6.759   0.049   0.180
 4049SOL    HW213047   6.888   0.147   0.157
 4050SOL     OW13048   2.469   0.666   2.780
 4050SOL    HW113049   2.403   0.735   2.751
 4050SOL    HW213050   2.537   0.708   2.840
 4051SOL     OW13051   2.615   3.735   1.088
 4051SOL    HW113052   2.579   3.796   1.017
 4051SOL    HW213053   2.573   3.645   1.079
 4052SOL     OW13054   1.507   0.278   1.121
 4052SOL    HW113055   1.417   0.323   1.123
 4052SOL    HW213056   1.514   0.214   1.197
 4053SOL     OW13057   3.012   5.088   2.733
 4053SOL    HW113058   2.947   5.138   2.790
 4053SOL    HW213059   2.962   5.042   2.659
 4054SOL     OW13060   5.592   1.290   6.779
 4054SOL    HW113061   5.522   1.359   6.760
 4054SOL    HW213062   5.561   1.201   6.746
 4055SOL     OW13063   4.515   3.485   0.426
 4055SOL    HW113064   4.458   3.528   0.356
 4055SOL    HW213065   4.611   3.505   0.406
 4056SOL     OW13066   4.526   2.703   6.769
 4056SOL    HW113067   4.588   2.743   6.837
 4056SOL    HW213068   4.575   2.686   6.684
 4057SOL     OW13069   5.973   2.532   0.684
 4057SOL    HW113070   5.921   2.530   0.769
 4057SOL    HW213071   6.038   2.457   0.681
 4058SOL     OW13072   0.954   2.917   3.774
 4058SOL    HW113073   0.937   2.924   3.872
 4058SOL    HW213074   1.015   2.839   3.757
 4059SOL     OW13075   0.105   1.895   4.912
 4059SOL    HW113076   0.109   1.950   4.995
 4059SOL    HW213077   0.031   1.928   4.854
 4060SOL     OW13078   2.891   6.790   5.710
 4060SOL    HW113079   2.944   6.815   5.791
 4060SOL    HW213080   2.883   6.691   5.704
 4061SOL     OW13081   2.009   2.916   1.125
 4061SOL    HW113082   2.034   2.840   1.184
 4061SOL    HW213083   1.955   2.882   1.048
 4062SOL     OW13084   2.780   0.081   2.585
 4062SOL    HW113085   2.822   0.133   2.510
 4062SOL    HW213086   2.850   0.029   2.632
 4063SOL     OW13087   3.121   5.819   6.129
 4063SOL    HW113088   3.057   5.844   6.056
 4063SOL    HW213089   3.214   5.841   6.101
 4064SOL     OW13090   6.462   6.788   4.351
 4064SOL    HW113091   6.558   6.819   4.354
 4064SOL    HW213092   6.447   6.720   4.423
 4065SOL     OW13093   1.422   4.524   5.636
 4065SOL    HW113094   1.464   4.557   5.721
 4065SOL    HW213095   1.333   4.485   5.656
 4066SOL     OW13096   4.557   5.217   1.581
 4066SOL    HW113097   4.507   5.254   1.659
 4066SOL    HW213098   4.607   5.135   1.608
 4067SOL     OW13099   5.542   0.704   0.962
 4067SOL    HW113100   5.521   0.666   1.052
 4067SOL    HW213101   5.464   0.690   0.901
 4068SOL     OW13102   5.038   0.685   4.708
 4068SOL    HW113103   5.035   0.687   4.608
 4068SOL    HW213104   5.132   0.703   4.739
 4069SOL     OW13105   6.309   6.140   0.749
 4069SOL    HW113106   6.356   6.117   0.665
 4069SOL    HW213107   6.234   6.075   0.764
 4070SOL     OW13108   6.521   3.648   2.922
 4070SOL    HW113109   6.508   3.552   2.896
 4070SOL    HW213110   6.478   3.707   2.853
 4071SOL     OW13111   2.604   0.672   4.823
 4071SOL    HW113112   2.529   0.673   4.757
 4071SOL    HW213113   2.691   0.670   4.774
 4072SOL     OW13114   0.700   0.309   4.391
 4072SOL    HW113115   0.665   0.219   4.365
 4072SOL    HW213116   0.797   0.302   4.412
 4073SOL     OW13117   2.531   4.649   2.108
 4073SOL    HW113118   2.454   4.631   2.047
 4073SOL    HW213119   2.593   4.714   2.065
 4074SOL     OW13120   0.137   2.991   0.868
 4074SOL    HW113121   0.222   2.968   0.821
 4074SOL    HW213122   0.099   2.909   0.911
 4075SOL     OW13123   6.162   0.267   3.206
 4075SOL    HW113124   6.182   0.337   3.275
 4075SOL    HW213125   6.065   0.242   3.212
 4076SOL     OW13126   1.736   3.256   3.510
 4076SOL    HW113127   1.649   3.260   3.460
 4076SOL    HW213128   1.808   3.229   3.447
 4077SOL     OW13129   3.404   0.933   1.316
 4077SOL    HW113130   3.498   0.914   1.344
 4077SOL    HW213131   3.362   0.849   1.284
 4078SOL     OW13132   4.958   4.543   3.509
 4078SOL    HW113133   4.940   4.530   3.412
 4078SOL    HW213134   4.920   4.467   3.561
 4079SOL     OW13135   5.016   1.125   4.045
 4079SOL    HW113136   5.063   1.123   3.957
 4079SOL    HW213137   4.921   1.097   4.032
 4080SOL     OW13138   3.471   4.188   4.617
 4080SOL    HW113139   3.564   4.163   4.645
 4080SOL    HW213140   3.409   4.180   4.695
 4081SOL     OW13141   2.434   0.537   0.088
 4081SOL    HW113142   2.395   0.623   0.122
 4081SOL    HW213143   2.503   0.504   0.152
 4082SOL     OW13144   1.544   1.221   5.689
 4082SOL    HW113145   1.606   1.143   5.677
 4082SOL    HW213146   1.457   1.189   5.725
 4083SOL     OW13147   6.226   5.301   2.227
 4083SOL    HW113148   6.202   5.372   2.294
 4083SOL    HW213149   6.322   5.275   2.240
 4084SOL     OW13150   4.257   6.730   2.393
 4084SOL    HW113151   4.291   6.649   2.441
 4084SOL    HW213152   4.310   6.810   2.422
 4085SOL     OW13153   2.111   4.262   3.018
 4085SOL    HW113154   2.170   4.219   3.087
 4085SOL    HW213155   2.022   4.282   3.059
 4086SOL     OW13156   5.542   5.174   5.034
 4086SOL    HW113157   5.537   5.122   4.949
 4086SOL    HW213158   5.516   5.269   5.018
 4087SOL     OW13159   1.762   1.007   1.674
 4087SOL    HW113160   1.820   0.944   1.726
 4087SOL    HW213161   1.762   0.981   1.577
 4088SOL     OW13162   0.048   2.351   5.609
 4088SOL    HW113163   0.045   2.266   5.662
 4088SOL    HW213164   0.010   2.335   5.518
 4089SOL     OW13165   0.258   0.121   2.600
 4089SOL    HW113166   0.278   0.219   2.613
 4089SOL    HW213167   0.324   0.081   2.537
 4090SOL     OW13168   3.435   2.362   5.311
 4090SOL    HW113169   3.432   2.290   5.380
 4090SOL    HW213170   3.347   2.368   5.264
 4091SOL     OW13171   3.494   6.531   2.561
 4091SOL    HW113172   3.557   6.482   2.502
 4091SOL    HW213173   3.543   6.603   2.611
 4092SOL     OW13174   5.386   1.582   6.475
 4092SOL    HW113175   5.315   1.516   6.451
 4092SOL    HW213176   5.474   1.534   6.483
 4093SOL     OW13177   5.680   4.068   2.427
 4093SOL    HW113178   5.692   4.167   2.439
 4093SOL    HW213179   5.731   4.020   2.499
 4094SOL     OW13180   6.818   6.377   0.150
 4094SOL    HW113181   6.911   6.392   0.114
 4094SOL    HW213182   6.757   6.354   0.074
 4095SOL     OW13183   1.111   5.132   0.688
 4095SOL    HW113184   1.056   5.131   0.772
 4095SOL    HW213185   1.190   5.191   0.701
 4096SOL     OW13186   0.822   6.710   6.045
 4096SOL    HW113187   0.791   6.791   6.094
 4096SOL    HW213188   0.788   6.714   5.951
 4097SOL     OW13189   1.218   4.018   5.325
 4097SOL    HW113190   1.304   4.030   5.374
 4097SOL    HW213191   1.190   3.922   5.330
 4098SOL     OW13192   1.510   6.069   1.802
 4098SOL    HW113193   1.480   5.973   1.804
 4098SOL    HW213194   1.431   6.128   1.789
 4099SOL     OW13195   6.875   2.961   5.933
 4099SOL    HW113196   6.842   2.884   5.988
 4099SOL    HW213197   6.970   2.980   5.957
 4100SOL     OW13198   2.698   0.714   3.929
 4100SOL    HW113199   2.767   0.690   3.861
 4100SOL    HW213200   2.613   0.668   3.908
 4101SOL     OW13201   6.471   6.393   6.239
 4101SOL    HW113202   6.501   6.313   6.188
 4101SOL    HW213203   6.403   6.443   6.185
 4102SOL     OW13204   2.491   5.301   0.512
 4102SOL    HW113205   2.490   5.345   0.602
 4102SOL    HW213206   2.586   5.292   0.480
 4103SOL     OW13207   2.702   4.898   3.139
 4103SOL    HW113208   2.664   4.988   3.161
 4103SOL    HW213209   2.734   4.854   3.223
 4104SOL     OW13210   2.336   5.947   5.832
 4104SOL    HW113211   2.251   5.921   5.876
 4104SOL    HW213212   2.405   5.966   5.901
 4105SOL     OW13213   3.683   0.026   1.411
 4105SOL    HW113214   3.676   7.018   1.318
 4105SOL    HW213215   3.682   6.977   1.476
 4106SOL     OW13216   1.299   6.773   2.810
 4106SOL    HW113217   1.359   6.810   2.880
 4106SOL    HW213218   1.230   6.841   2.786
 4107SOL     OW13219   1.980   1.755   0.762
 4107SOL    HW113220   2.063   1.811   0.771
 4107SOL    HW213221   1.951   1.755   0.667
 4108SOL     OW13222   0.769   5.932   4.803
 4108SOL    HW113223   0.712   6.012   4.824
 4108SOL    HW213224   0.860   5.944   4.842
 4109SOL     OW13225   5.062   0.011   5.062
 4109SOL    HW113226   5.025   0.033   4.972
 4109SOL    HW213227   5.159   0.034   5.065
 4110SOL     OW13228   4.402   2.522   0.272
 4110SOL    HW113229   4.502   2.530   0.282
 4110SOL    HW213230   4.373   2.573   0.191
 4111SOL     OW13231   6.162   4.922   3.587
 4111SOL    HW113232   6.168   4.822   3.580
 4111SOL    HW213233   6.249   4.958   3.619
 4112SOL     OW13234   4.255   5.700   5.750
 4112SOL    HW113235   4.189   5.640   5.704
 4112SOL    HW213236   4.348   5.668   5.733
 4113SOL     OW13237   4.899   5.358   5.416
 4113SOL    HW113238   4.999   5.357   5.426
 4113SOL    HW213239   4.870   5.449   5.385
 4114SOL     OW13240   6.589   1.514   3.148
 4114SOL    HW113241   6.504   1.565   3.164
 4114SOL    HW213242   6.664   1.578   3.130
 4115SOL     OW13243   3.877   6.385   4.857
 4115SOL    HW113244   3.967   6.349   4.882
 4115SOL    HW213245   3.845   6.341   4.774
 4116SOL     OW13246   6.649   3.885   3.802
 4116SOL    HW113247   6.632   3.983   3.791
 4116SOL    HW213248   6.667   3.844   3.712
 4117SOL     OW13249   0.174   2.415   2.769
 4117SOL    HW113250   0.085   2.406   2.723
 4117SOL    HW213251   0.235   2.342   2.738
 4118SOL     OW13252   1.459   0.427   2.048
 4118SOL    HW113253   1.450   0.334   2.010
 4118SOL    HW213254   1.368   0.460   2.075
 4119SOL     OW13255   6.778   0.916   4.870
 4119SOL    HW113256   6.842   0.943   4.943
 4119SOL    HW213257   6.800   0.825   4.837
 4120SOL     OW13258   1.351   0.848   6.400
 4120SOL    HW113259   1.308   0.759   6.414
 4120SOL    HW213260   1.363   0.864   6.301
 4121SOL     OW13261   6.718   0.733   1.019
 4121SOL    HW113262   6.796   0.746   1.080
 4121SOL    HW213263   6.641   0.787   1.051
 4122SOL     OW13264   0.865   4.514   3.530
 4122SOL    HW113265   0.829   4.428   3.494
 4122SOL    HW213266   0.840   4.524   3.626
 4123SOL     OW13267   5.786   4.223   1.775
 4123SOL    HW113268   5.757   4.155   1.707
 4123SOL    HW213269   5.707   4.251   1.830
 4124SOL     OW13270   6.315   6.707   0.024
 4124SOL    HW113271   6.363   6.634   0.073
 4124SOL    HW213272   6.365   6.793   0.035
 4125SOL     OW13273   0.168   3.063   0.040
 4125SOL    HW113274   0.143   3.057   6.971
 4125SOL    HW213275   0.086   3.081   0.095
 4126SOL     OW13276   1.171   4.420   3.657
 4126SOL    HW113277   1.219   4.369   3.729
 4126SOL    HW213278   1.129   4.502   3.696
 4127SOL     OW13279   4.478   2.500   3.789
 4127SOL    HW113280   4.468   2.595   3.761
 4127SOL    HW213281   4.574   2.483   3.813
 4128SOL     OW13282   6.046   2.464   6.344
 4128SOL    HW113283   6.071   2.561   6.346
 4128SOL    HW213284   5.979   2.446   6.416
 4129SOL     OW13285   3.518   0.182   2.001
 4129SOL    HW113286   3.453   0.109   1.979
 4129SOL    HW213287   3.523   0.194   2.100
 4130SOL     OW13288   5.266   1.587   0.424
 4130SOL    HW113289   5.338   1.631   0.370
 4130SOL    HW213290   5.207   1.657   0.464
 4131SOL     OW13291   4.859   6.601   3.520
 4131SOL    HW113292   4.772   6.645   3.500
 4131SOL    HW213293   4.907   6.653   3.591
 4132SOL     OW13294   6.338   3.809   2.746
 4132SOL    HW113295   6.252   3.783   2.702
 4132SOL    HW213296   6.322   3.891   2.803
 4133SOL     OW13297   5.580   6.525   3.435
 4133SOL    HW113298   5.614   6.568   3.351
 4133SOL    HW213299   5.550   6.432   3.415
 4134SOL     OW13300   1.378   3.101   1.242
 4134SOL    HW113301   1.333   3.141   1.163
 4134SOL    HW213302   1.378   3.001   1.234
 4135SOL     OW13303   6.176   1.347   0.643
 4135SOL    HW113304   6.095   1.360   0.701
 4135SOL    HW213305   6.147   1.333   0.548
 4136SOL     OW13306   0.550   4.626   0.328
 4136SOL    HW113307   0.509   4.681   0.256
 4136SOL    HW213308   0.522   4.661   0.417
 4137SOL     OW13309   0.249   2.591   5.634
 4137SOL    HW113310   0.269   2.527   5.708
 4137SOL    HW213311   0.178   2.553   5.576
 4138SOL     OW13312   6.021   6.893   5.826
 4138SOL    HW113313   6.018   6.988   5.859
 4138SOL    HW213314   5.963   6.884   5.746
 4139SOL     OW13315   1.654   3.839   2.384
 4139SOL    HW113316   1.664   3.901   2.306
 4139SOL    HW213317   1.640   3.893   2.467
 4140SOL     OW13318   2.407   6.610   6.784
 4140SOL    HW113319   2.312   6.628   6.759
 4140SOL    HW213320   2.410   6.553   6.866
 4141SOL     OW13321   5.152   0.416   6.102
 4141SOL    HW113322   5.109   0.349   6.041
 4141SOL    HW213323   5.139   0.508   6.065
 4142SOL     OW13324   6.935   6.827   1.902
 4142SOL    HW113325   6.917   6.732   1.927
 4142SOL    HW213326   6.853   6.882   1.919
 4143SOL     OW13327   6.697   3.572   6.448
 4143SOL    HW113328   6.731   3.480   6.432
 4143SOL    HW213329   6.617   3.569   6.508
 4144SOL     OW13330   4.350   0.817   1.759
 4144SOL    HW113331   4.278   0.771   1.811
 4144SOL    HW213332   4.373   0.903   1.804
 4145SOL     OW13333   5.214   1.109   1.385
 4145SOL    HW113334   5.227   1.057   1.301
 4145SOL    HW213335   5.163   1.053   1.451
 4146SOL     OW13336   3.372   0.533   2.859
 4146SOL    HW113337   3.309   0.465   2.896
 4146SOL    HW213338   3.456   0.488   2.829
 4147SOL     OW13339   4.686   3.830   6.602
 4147SOL    HW113340   4.620   3.812   6.529
 4147SOL    HW213341   4.777   3.843   6.562
 4148SOL     OW13342   3.310   1.141   5.963
 4148SOL    HW113343   3.213   1.141   5.940
 4148SOL    HW213344   3.342   1.047   5.976
 4149SOL     OW13345   1.468   3.215   6.949
 4149SOL    HW113346   1.496   3.120   6.958
 4149SOL    HW213347   1.480   3.245   6.854
 4150SOL     OW13348   6.557   1.245   0.558
 4150SOL    HW113349   6.461   1.220   0.568
 4150SOL    HW213350   6.609   1.204   0.634
 4151SOL     OW13351   2.898   5.814   4.541
 4151SOL    HW113352   2.898   5.772   4.631
 4151SOL    HW213353   2.959   5.893   4.540
 4152SOL     OW13354   2.307   3.973   1.507
 4152SOL    HW113355   2.331   3.967   1.604
 4152SOL    HW213356   2.357   4.050   1.465
 4153SOL     OW13357   6.616   6.002   0.897
 4153SOL    HW113358   6.568   5.960   0.820
 4153SOL    HW213359   6.597   6.100   0.898
 4154SOL     OW13360   0.070   6.634   3.962
 4154SOL    HW113361   7.026   6.609   3.896
 4154SOL    HW213362   0.134   6.558   3.972
 4155SOL     OW13363   5.735   1.203   1.991
 4155SOL    HW113364   5.749   1.247   1.903
 4155SOL    HW213365   5.662   1.135   1.984
 4156SOL     OW13366   0.974   5.225   5.897
 4156SOL    HW113367   1.056   5.170   5.909
 4156SOL    HW213368   0.980   5.276   5.811
 4157SOL     OW13369   5.108   5.902   0.989
 4157SOL    HW113370   5.155   5.849   1.060
 4157SOL    HW213371   5.023   5.939   1.025
 4158SOL     OW13372   6.345   1.567   6.727
 4158SOL    HW113373   6.439   1.538   6.707
 4158SOL    HW213374   6.282   1.517   6.667
 4159SOL     OW13375   2.954   0.433   4.902
 4159SOL    HW113376   2.923   0.341   4.878
 4159SOL    HW213377   3.049   0.445   4.874
 4160SOL     OW13378   1.502   0.133   5.845
 4160SOL    HW113379   1.551   0.218   5.860
 4160SOL    HW213380   1.537   0.063   5.908
 4161SOL     OW13381   3.433   2.868   4.706
 4161SOL    HW113382   3.349   2.902   4.749
 4161SOL    HW213383   3.493   2.829   4.776
 4162SOL     OW13384   4.612   5.976   1.244
 4162SOL    HW113385   4.606   6.068   1.284
 4162SOL    HW213386   4.570   5.910   1.307
 4163SOL     OW13387   3.698   5.417   0.949
 4163SOL    HW113388   3.662   5.429   0.856
 4163SOL    HW213389   3.756   5.335   0.951
 4164SOL     OW13390   5.669   1.452   0.236
 4164SOL    HW113391   5.657   1.419   0.142
 4164SOL    HW213392   5.659   1.376   0.299
 4165SOL     OW13393   3.325   2.125   4.167
 4165SOL    HW113394   3.364   2.064   4.235
 4165SOL    HW213395   3.399   2.166   4.113
 4166SOL     OW13396   5.915   2.349   2.793
 4166SOL    HW113397   5.840   2.286   2.774
 4166SOL    HW213398   5.985   2.342   2.722
 4167SOL     OW13399   3.896   6.432   4.573
 4167SOL    HW113400   3.829   6.359   4.558
 4167SOL    HW213401   3.848   6.520   4.582
 4168SOL     OW13402   4.998   3.618   6.523
 4168SOL    HW113403   4.991   3.712   6.491
 4168SOL    HW213404   4.923   3.564   6.485
 4169SOL     OW13405   4.919   3.904   6.459
 4169SOL    HW113406   4.991   3.972   6.470
 4169SOL    HW213407   4.861   3.930   6.382
 4170SOL     OW13408   1.345   2.945   5.070
 4170SOL    HW113409   1.420   3.006   5.096
 4170SOL    HW213410   1.258   2.993   5.080
 4171SOL     OW13411   0.297   0.782   6.127
 4171SOL    HW113412   0.213   0.786   6.074
 4171SOL    HW213413   0.319   0.873   6.162
 4172SOL     OW13414   3.018   2.892   6.946
 4172SOL    HW113415   2.930   2.874   6.989
 4172SOL    HW213416   3.078   2.938   7.012
 4173SOL     OW13417   5.371   1.199   5.571
 4173SOL    HW113418   5.408   1.282   5.614
 4173SOL    HW213419   5.445   1.149   5.526
 4174SOL     OW13420   2.913   6.562   3.600
 4174SOL    HW113421   2.900   6.660   3.593
 4174SOL    HW213422   2.888   6.518   3.514
 4175SOL     OW13423   1.130   4.760   6.385
 4175SOL    HW113424   1.183   4.836   6.423
 4175SOL    HW213425   1.043   4.793   6.349
 4176SOL     OW13426   4.263   6.804   5.239
 4176SOL    HW113427   4.207   6.883   5.264
 4176SOL    HW213428   4.209   6.741   5.183
 4177SOL     OW13429   4.496   6.356   3.510
 4177SOL    HW113430   4.530   6.436   3.460
 4177SOL    HW213431   4.435   6.304   3.451
 4178SOL     OW13432   4.038   6.783   1.032
 4178SOL    HW113433   4.018   6.819   1.123
 4178SOL    HW213434   3.963   6.806   0.969
 4179SOL     OW13435   4.065   1.969   6.933
 4179SOL    HW113436   3.972   2.004   6.920
 4179SOL    HW213437   4.066   1.870   6.918
 4180SOL     OW13438   3.772   4.215   0.024
 4180SOL    HW113439   3.705   4.185   6.983
 4180SOL    HW213440   3.847   4.149   0.028
 4181SOL     OW13441   5.305   6.118   5.467
 4181SOL    HW113442   5.303   6.210   5.429
 4181SOL    HW213443   5.256   6.116   5.554
 4182SOL     OW13444   6.831   5.178   5.464
 4182SOL    HW113445   6.770   5.157   5.540
 4182SOL    HW213446   6.796   5.136   5.380
 4183SOL     OW13447   5.083   2.350   6.914
 4183SOL    HW113448   5.143   2.418   6.955
 4183SOL    HW213449   4.988   2.382   6.917
 4184SOL     OW13450   3.587   5.873   3.288
 4184SOL    HW113451   3.672   5.925   3.276
 4184SOL    HW213452   3.551   5.846   3.199
 4185SOL     OW13453   4.621   4.356   3.008
 4185SOL    HW113454   4.610   4.275   2.951
 4185SOL    HW213455   4.668   4.427   2.957
 4186SOL     OW13456   1.554   5.075   0.300
 4186SOL    HW113457   1.648   5.072   0.334
 4186SOL    HW213458   1.516   5.166   0.313
 4187SOL     OW13459   2.122   4.316   6.647
 4187SOL    HW113460   2.222   4.311   6.640
 4187SOL    HW213461   2.085   4.223   6.647
 4188SOL     OW13462   5.054   0.565   6.737
 4188SOL    HW113463   5.126   0.602   6.678
 4188SOL    HW213464   5.020   0.480   6.697
 4189SOL     OW13465   4.420   5.905   3.347
 4189SOL    HW113466   4.458   5.885   3.438
 4189SOL    HW213467   4.432   6.002   3.327
 4190SOL     OW13468   6.623   5.839   1.543
 4190SOL    HW113469   6.533   5.868   1.508
 4190SOL    HW213470   6.612   5.754   1.595
 4191SOL     OW13471   4.546   2.504   5.818
 4191SOL    HW113472   4.538   2.590   5.768
 4191SOL    HW213473   4.561   2.523   5.915
 4192SOL     OW13474   1.827   3.700   6.131
 4192SOL    HW113475   1.753   3.750   6.085
 4192SOL    HW213476   1.915   3.727   6.092
 4193SOL     OW13477   5.691   6.801   1.299
 4193SOL    HW113478   5.602   6.805   1.343
 4193SOL    HW213479   5.762   6.827   1.364
 4194SOL     OW13480   5.348   0.194   6.973
 4194SOL    HW113481   5.399   0.174   6.889
 4194SOL    HW213482   5.250   0.180   6.957
 4195SOL     OW13483   2.253   5.986   0.778
 4195SOL    HW113484   2.206   5.915   0.829
 4195SOL    HW213485   2.260   5.959   0.682
 4196SOL     OW13486   6.707   2.916   3.899
 4196SOL    HW113487   6.679   2.821   3.905
 4196SOL    HW213488   6.641   2.974   3.948
 4197SOL     OW13489   4.459   0.715   0.342
 4197SOL    HW113490   4.530   0.754   0.283
 4197SOL    HW213491   4.377   0.773   0.339
 4198SOL     OW13492   6.741   2.529   1.450
 4198SOL    HW113493   6.765   2.621   1.481
 4198SOL    HW213494   6.678   2.487   1.516
 4199SOL     OW13495   1.058   3.989   6.675
 4199SOL    HW113496   1.090   3.894   6.677
 4199SOL    HW213497   0.992   4.003   6.750
 4200SOL     OW13498   5.530   1.645   2.380
 4200SOL    HW113499   5.436   1.625   2.354
 4200SOL    HW213500   5.571   1.564   2.423
 4201SOL     OW13501   5.023   0.064   4.787
 4201SOL    HW113502   5.087   7.017   4.768
 4201SOL    HW213503   5.012   0.120   4.705
 4202SOL     OW13504   4.551   4.075   1.705
 4202SOL    HW113505   4.503   4.133   1.771
 4202SOL    HW213506   4.501   4.075   1.618
 4203SOL     OW13507   6.109   4.338   4.811
 4203SOL    HW113508   6.173   4.301   4.878
 4203SOL    HW213509   6.072   4.264   4.756
 4204SOL     OW13510   2.348   4.157   5.809
 4204SOL    HW113511   2.323   4.101   5.888
 4204SOL    HW213512   2.321   4.111   5.725
 4205SOL     OW13513   6.069   5.867   5.676
 4205SOL    HW113514   6.053   5.797   5.606
 4205SOL    HW213515   6.164   5.862   5.705
 4206SOL     OW13516   2.408   2.542   4.948
 4206SOL    HW113517   2.363   2.626   4.917
 4206SOL    HW213518   2.475   2.513   4.879
 4207SOL     OW13519   2.151   2.695   1.239
 4207SOL    HW113520   2.168   2.596   1.242
 4207SOL    HW213521   2.146   2.731   1.332
 4208SOL     OW13522   2.129   2.176   3.107
 4208SOL    HW113523   2.032   2.167   3.087
 4208SOL    HW213524   2.172   2.234   3.038
 4209SOL     OW13525   6.079   5.918   2.321
 4209SOL    HW113526   6.017   5.876   2.387
 4209SOL    HW213527   6.124   5.846   2.267
 4210SOL     OW13528   3.114   5.085   5.402
 4210SOL    HW113529   3.149   4.998   5.368
 4210SOL    HW213530   3.083   5.074   5.497
 4211SOL     OW13531   4.680   2.280   5.706
 4211SOL    HW113532   4.725   2.238   5.785
 4211SOL    HW213533   4.653   2.374   5.729
 4212SOL     OW13534   1.193   2.728   2.842
 4212SOL    HW113535   1.190   2.735   2.942
 4212SOL    HW213536   1.134   2.798   2.803
 4213SOL     OW13537   3.225   0.863   3.637
 4213SOL    HW113538   3.178   0.926   3.575
 4213SOL    HW213539   3.280   0.798   3.584
 4214SOL     OW13540   6.205   6.600   4.173
 4214SOL    HW113541   6.269   6.632   4.103
 4214SOL    HW213542   6.123   6.564   4.128
 4215SOL     OW13543   5.747   0.379   5.240
 4215SOL    HW113544   5.796   0.401   5.324
 4215SOL    HW213545   5.775   0.289   5.207
 4216SOL     OW13546   2.150   5.516   2.463
 4216SOL    HW113547   2.084   5.500   2.536
 4216SOL    HW213548   2.184   5.610   2.468
 4217SOL     OW13549   0.668   0.296   2.798
 4217SOL    HW113550   0.768   0.299   2.799
 4217SOL    HW213551   0.637   0.238   2.723
 4218SOL     OW13552   2.912   0.400   1.832
 4218SOL    HW113553   2.872   0.343   1.761
 4218SOL    HW213554   2.902   0.356   1.921
 4219SOL     OW13555   3.203   5.268   2.650
 4219SOL    HW113556   3.264   5.248   2.726
 4219SOL    HW213557   3.122   5.210   2.656
 4220SOL     OW13558   6.047   1.942   1.250
 4220SOL    HW113559   5.988   1.979   1.322
 4220SOL    HW213560   5.990   1.910   1.175
 4221SOL     OW13561   0.440   6.607   1.227
 4221SOL    HW113562   0.380   6.532   1.199
 4221SOL    HW213563   0.506   6.626   1.155
 4222SOL     OW13564   4.928   3.705   4.208
 4222SOL    HW113565   4.891   3.718   4.301
 4222SOL    HW213566   5.018   3.662   4.214
 4223SOL     OW13567   3.595   4.087   3.236
 4223SOL    HW113568   3.573   4.074   3.332
 4223SOL    HW213569   3.514   4.119   3.187
 4224SOL     OW13570   4.805   4.090   4.787
 4224SOL    HW113571   4.838   4.073   4.695
 4224SOL    HW213572   4.757   4.178   4.790
 4225SOL     OW13573   0.635   1.606   6.473
 4225SOL    HW113574   0.605   1.664   6.398
 4225SOL    HW213575   0.734   1.613   6.484
 4226SOL     OW13576   5.339   4.744   4.426
 4226SOL    HW113577   5.373   4.830   4.462
 4226SOL    HW213578   5.416   4.680   4.415
 4227SOL     OW13579   5.754   5.574   1.195
 4227SOL    HW113580   5.655   5.562   1.186
 4227SOL    HW213581   5.786   5.530   1.279
 4228SOL     OW13582   1.824   3.887   3.874
 4228SOL    HW113583   1.851   3.947   3.950
 4228SOL    HW213584   1.903   3.869   3.816
 4229SOL     OW13585   6.206   6.279   5.683
 4229SOL    HW113586   6.209   6.249   5.588
 4229SOL    HW213587   6.293   6.256   5.728
 4230SOL     OW13588   0.693   1.209   2.409
 4230SOL    HW113589   0.665   1.116   2.383
 4230SOL    HW213590   0.767   1.239   2.349
 4231SOL     OW13591   0.683   0.596   6.045
 4231SOL    HW113592   0.604   0.536   6.028
 4231SOL    HW213593   0.766   0.541   6.052
 4232SOL     OW13594   1.424   4.313   2.887
 4232SOL    HW113595   1.498   4.306   2.820
 4232SOL    HW213596   1.337   4.292   2.844
 4233SOL     OW13597   4.012   5.364   2.590
 4233SOL    HW113598   4.098   5.385   2.637
 4233SOL    HW213599   4.012   5.406   2.499
 4234SOL     OW13600   3.693   5.040   6.131
 4234SOL    HW113601   3.642   4.962   6.168
 4234SOL    HW213602   3.776   5.054   6.185
 4235SOL     OW13603   6.975   6.244   6.804
 4235SOL    HW113604   6.998   6.328   6.852
 4235SOL    HW213605   6.954   6.172   6.871
 4236SOL     OW13606   6.864   5.191   3.311
 4236SOL    HW113607   6.896   5.284   3.331
 4236SOL    HW213608   6.803   5.161   3.385
 4237SOL     OW13609   6.690   4.698   3.834
 4237SOL    HW113610   6.641   4.670   3.752
 4237SOL    HW213611   6.784   4.662   3.831
 4238SOL     OW13612   2.609   5.554   2.919
 4238SOL    HW113613   2.575   5.647   2.932
 4238SOL    HW213614   2.587   5.523   2.826
 4239SOL     OW13615   4.124   1.149   2.958
 4239SOL    HW113616   4.144   1.059   2.997
 4239SOL    HW213617   4.157   1.220   3.019
 4240SOL     OW13618   5.242   0.156   1.870
 4240SOL    HW113619   5.184   0.121   1.943
 4240SOL    HW213620   5.338   0.149   1.896
 4241SOL     OW13621   0.260   4.618   0.146
 4241SOL    HW113622   0.237   4.521   0.154
 4241SOL    HW213623   0.193   4.673   0.196
 4242SOL     OW13624   3.630   2.059   2.847
 4242SOL    HW113625   3.652   1.963   2.867
 4242SOL    HW213626   3.649   2.079   2.751
 4243SOL     OW13627   3.379   2.055   2.677
 4243SOL    HW113628   3.437   2.018   2.750
 4243SOL    HW213629   3.436   2.079   2.598
 4244SOL     OW13630   2.895   3.458   4.868
 4244SOL    HW113631   2.894   3.554   4.840
 4244SOL    HW213632   2.989   3.423   4.863
 4245SOL     OW13633   6.816   0.757   5.687
 4245SOL    HW113634   6.772   0.840   5.655
 4245SOL    HW213635   6.908   0.750   5.647
 4246SOL     OW13636   0.947   4.883   6.022
 4246SOL    HW113637   0.927   4.965   6.075
 4246SOL    HW213638   0.921   4.802   6.074
 4247SOL     OW13639   0.136   4.992   4.912
 4247SOL    HW113640   0.122   4.922   4.981
 4247SOL    HW213641   0.229   4.986   4.876
 4248SOL     OW13642   2.224   3.173   6.564
 4248SOL    HW113643   2.307   3.163   6.619
 4248SOL    HW213644   2.241   3.237   6.490
 4249SOL     OW13645   5.282   2.902   6.110
 4249SOL    HW113646   5.288   2.977   6.043
 4249SOL    HW213647   5.218   2.926   6.182
 4250SOL     OW13648   6.807   4.350   3.732
 4250SOL    HW113649   6.876   4.348   3.803
 4250SOL    HW213650   6.851   4.367   3.643
 4251SOL     OW13651   6.160   4.929   6.027
 4251SOL    HW113652   6.165   4.835   5.993
 4251SOL    HW213653   6.226   4.941   6.101
 4252SOL     OW13654   7.021   4.951   5.400
 4252SOL    HW113655   0.080   4.960   5.351
 4252SOL    HW213656   6.983   5.041   5.418
 4253SOL     OW13657   3.099   6.639   3.023
 4253SOL    HW113658   3.125   6.572   3.093
 4253SOL    HW213659   3.012   6.613   2.982
 4254SOL     OW13660   3.101   3.048   2.049
 4254SOL    HW113661   3.017   3.002   2.019
 4254SOL    HW213662   3.171   2.979   2.068
 4255SOL     OW13663   0.489   2.160   3.823
 4255SOL    HW113664   0.515   2.065   3.842
 4255SOL    HW213665   0.567   2.208   3.782
 4256SOL     OW13666   1.306   1.300   1.952
 4256SOL    HW113667   1.398   1.338   1.960
 4256SOL    HW213668   1.249   1.338   2.025
 4257SOL     OW13669   4.353   2.245   5.208
 4257SOL    HW113670   4.274   2.186   5.220
 4257SOL    HW213671   4.380   2.245   5.112
 4258SOL     OW13672   5.396   6.221   2.332
 4258SOL    HW113673   5.391   6.222   2.232
 4258SOL    HW213674   5.334   6.290   2.370
 4259SOL     OW13675   2.720   3.490   1.327
 4259SOL    HW113676   2.675   3.577   1.351
 4259SOL    HW213677   2.652   3.417   1.328
 4260SOL     OW13678   4.131   6.231   4.880
 4260SOL    HW113679   4.087   6.192   4.799
 4260SOL    HW213680   4.139   6.160   4.950
 4261SOL     OW13681   1.343   1.477   3.229
 4261SOL    HW113682   1.303   1.473   3.320
 4261SOL    HW213683   1.428   1.424   3.227
 4262SOL     OW13684   0.901   6.537   5.780
 4262SOL    HW113685   0.929   6.633   5.781
 4262SOL    HW213686   0.835   6.522   5.708
 4263SOL     OW13687   4.644   5.158   6.494
 4263SOL    HW113688   4.612   5.206   6.576
 4263SOL    HW213689   4.675   5.224   6.427
 4264SOL     OW13690   0.869   0.171   1.439
 4264SOL    HW113691   0.791   0.139   1.493
 4264SOL    HW213692   0.894   0.101   1.372
 4265SOL     OW13693   1.732   1.283   0.462
 4265SOL    HW113694   1.691   1.200   0.423
 4265SOL    HW213695   1.694   1.299   0.553
 4266SOL     OW13696   3.241   4.652   0.606
 4266SOL    HW113697   3.160   4.629   0.552
 4266SOL    HW213698   3.313   4.685   0.546
 4267SOL     OW13699   1.817   3.910   5.760
 4267SOL    HW113700   1.893   3.939   5.702
 4267SOL    HW213701   1.750   3.984   5.768
 4268SOL     OW13702   1.284   1.378   1.417
 4268SOL    HW113703   1.218   1.453   1.426
 4268SOL    HW213704   1.324   1.379   1.326
 4269SOL     OW13705   2.882   3.387   0.602
 4269SOL    HW113706   2.871   3.288   0.595
 4269SOL    HW213707   2.867   3.415   0.697
 4270SOL     OW13708   3.902   2.957   6.718
 4270SOL    HW113709   3.969   3.021   6.756
 4270SOL    HW213710   3.933   2.927   6.628
 4271SOL     OW13711   1.625   0.248   1.537
 4271SOL    HW113712   1.615   0.204   1.448
 4271SOL    HW213713   1.540   0.236   1.589
 4272SOL     OW13714   0.563   3.932   3.725
 4272SOL    HW113715   0.607   4.014   3.761
 4272SOL    HW213716   0.559   3.862   3.796
 4273SOL     OW13717   5.885   6.772   3.665
 4273SOL    HW113718   5.867   6.678   3.692
 4273SOL    HW213719   5.799   6.821   3.651
 4274SOL     OW13720   2.355   0.299   3.929
 4274SOL    HW113721   2.285   0.360   3.969
 4274SOL    HW213722   2.318   0.255   3.847
 4275SOL     OW13723   0.718   0.167   5.362
 4275SOL    HW113724   0.793   0.106   5.335
 4275SOL    HW213725   0.679   0.209   5.280
 4276SOL     OW13726   2.153   3.916   3.172
 4276SOL    HW113727   2.169   3.902   3.074
 4276SOL    HW213728   2.200   3.999   3.202
 4277SOL     OW13729   1.080   5.398   5.391
 4277SOL    HW113730   1.002   5.437   5.441
 4277SOL    HW213731   1.094   5.450   5.307
 4278SOL     OW13732   1.199   6.118   6.575
 4278SOL    HW113733   1.259   6.080   6.646
 4278SOL    HW213734   1.255   6.143   6.495
 4279SOL     OW13735   3.311   5.893   3.422
 4279SOL    HW113736   3.397   5.875   3.374
 4279SOL    HW213737   3.322   5.867   3.518
 4280SOL     OW13738   5.200   2.609   3.509
 4280SOL    HW113739   5.274   2.647   3.454
 4280SOL    HW213740   5.133   2.566   3.449
 4281SOL     OW13741   1.700   3.982   5.357
 4281SOL    HW113742   1.793   3.976   5.394
 4281SOL    HW213743   1.645   4.040   5.417
 4282SOL     OW13744   0.732   1.842   0.532
 4282SOL    HW113745   0.685   1.792   0.459
 4282SOL    HW213746   0.675   1.917   0.564
 4283SOL     OW13747   2.776   1.239   4.080
 4283SOL    HW113748   2.849   1.182   4.117
 4283SOL    HW213749   2.700   1.241   4.145
 4284SOL     OW13750   6.694   1.957   3.155
 4284SOL    HW113751   6.642   1.893   3.211
 4284SOL    HW213752   6.633   2.025   3.116
 4285SOL     OW13753   0.980   6.276   4.267
 4285SOL    HW113754   0.963   6.337   4.190
 4285SOL    HW213755   1.065   6.302   4.313
 4286SOL     OW13756   4.488   5.704   6.658
 4286SOL    HW113757   4.539   5.636   6.606
 4286SOL    HW213758   4.478   5.787   6.602
 4287SOL     OW13759   3.874   5.476   5.448
 4287SOL    HW113760   3.805   5.433   5.506
 4287SOL    HW213761   3.829   5.536   5.382
 4288SOL     OW13762   1.173   6.148   3.785
 4288SOL    HW113763   1.234   6.076   3.754
 4288SOL    HW213764   1.134   6.122   3.874
 4289SOL     OW13765   0.212   4.037   6.699
 4289SOL    HW113766   0.166   4.004   6.781
 4289SOL    HW213767   0.183   4.131   6.680
 4290SOL     OW13768   2.032   1.450   3.070
 4290SOL    HW113769   2.020   1.517   3.143
 4290SOL    HW213770   2.009   1.358   3.104
 4291SOL     OW13771   0.282   4.117   1.137
 4291SOL    HW113772   0.309   4.068   1.220
 4291SOL    HW213773   0.345   4.193   1.121
 4292SOL     OW13774   5.844   5.445   5.190
 4292SOL    HW113775   5.827   5.365   5.132
 4292SOL    HW213776   5.768   5.457   5.253
 4293SOL     OW13777   0.357   2.014   0.298
 4293SOL    HW113778   0.400   2.029   0.387
 4293SOL    HW213779   0.326   2.101   0.260
 4294SOL     OW13780   5.210   1.370   6.349
 4294SOL    HW113781   5.111   1.382   6.356
 4294SOL    HW213782   5.235   1.361   6.253
 4295SOL     OW13783   3.787   5.844   5.585
 4295SOL    HW113784   3.756   5.915   5.649
 4295SOL    HW213785   3.763   5.754   5.620
 4296SOL     OW13786   2.338   1.273   2.842
 4296SOL    HW113787   2.418   1.228   2.882
 4296SOL    HW213788   2.368   1.340   2.774
 4297SOL     OW13789   6.183   0.413   0.415
 4297SOL    HW113790   6.253   0.484   0.408
 4297SOL    HW213791   6.225   0.323   0.410
 4298SOL     OW13792   1.616   4.735   1.871
 4298SOL    HW113793   1.557   4.816   1.869
 4298SOL    HW213794   1.674   4.738   1.953
 4299SOL     OW13795   1.358   5.599   5.153
 4299SOL    HW113796   1.360   5.512   5.203
 4299SOL    HW213797   1.306   5.666   5.206
 4300SOL     OW13798   6.253   0.199   5.584
 4300SOL    HW113799   6.159   0.179   5.559
 4300SOL    HW213800   6.256   0.238   5.676
 4301SOL     OW13801   3.259   1.109   1.005
 4301SOL    HW113802   3.286   1.025   1.054
 4301SOL    HW213803   3.212   1.084   0.920
 4302SOL     OW13804   0.522   0.388   6.810
 4302SOL    HW113805   0.465   0.463   6.777
 4302SOL    HW213806   0.553   0.408   6.903
 4303SOL     OW13807   0.566   4.171   1.360
 4303SOL    HW113808   0.486   4.112   1.371
 4303SOL    HW213809   0.550   4.258   1.406
 4304SOL     OW13810   3.044   3.730   5.511
 4304SOL    HW113811   3.005   3.819   5.535
 4304SOL    HW213812   3.044   3.719   5.412
 4305SOL     OW13813   0.265   1.591   5.042
 4305SOL    HW113814   0.181   1.558   5.085
 4305SOL    HW213815   0.266   1.564   4.946
 4306SOL     OW13816   6.475   5.713   5.563
 4306SOL    HW113817   6.495   5.807   5.592
 4306SOL    HW213818   6.424   5.666   5.634
 4307SOL     OW13819   5.638   3.584   0.305
 4307SOL    HW113820   5.639   3.683   0.292
 4307SOL    HW213821   5.731   3.548   0.292
 4308SOL     OW13822   3.388   0.165   5.079
 4308SOL    HW113823   3.381   0.229   5.156
 4308SOL    HW213824   3.350   0.077   5.105
 4309SOL     OW13825   1.123   6.999   1.823
 4309SOL    HW113826   1.209   7.001   1.875
 4309SOL    HW213827   1.108   0.061   1.781
 4310SOL     OW13828   1.778   6.732   3.005
 4310SOL    HW113829   1.859   6.769   3.049
 4310SOL    HW213830   1.800   6.642   2.966
 4311SOL     OW13831   1.176   5.255   4.011
 4311SOL    HW113832   1.263   5.237   3.965
 4311SOL    HW213833   1.124   5.170   4.020
 4312SOL     OW13834   1.236   5.688   1.860
 4312SOL    HW113835   1.267   5.607   1.910
 4312SOL    HW213836   1.313   5.751   1.847
 4313SOL     OW13837   5.051   0.943   1.520
 4313SOL    HW113838   5.028   0.848   1.500
 4313SOL    HW213839   4.999   0.973   1.600
 4314SOL     OW13840   5.850   3.286   0.843
 4314SOL    HW113841   5.917   3.335   0.788
 4314SOL    HW213842   5.786   3.352   0.884
 4315SOL     OW13843   2.183   1.069   2.706
 4315SOL    HW113844   2.127   1.120   2.642
 4315SOL    HW213845   2.231   1.132   2.766
 4316SOL     OW13846   0.627   1.372   2.636
 4316SOL    HW113847   0.633   1.307   2.560
 4316SOL    HW213848   0.589   1.327   2.716
 4317SOL     OW13849   4.187   0.649   3.284
 4317SOL    HW113850   4.223   0.742   3.277
 4317SOL    HW213851   4.218   0.595   3.205
 4318SOL     OW13852   6.743   2.370   5.394
 4318SOL    HW113853   6.726   2.432   5.317
 4318SOL    HW213854   6.830   2.324   5.381
 4319SOL     OW13855   3.969   2.379   6.169
 4319SOL    HW113856   4.023   2.299   6.145
 4319SOL    HW213857   3.975   2.395   6.268
 4320SOL     OW13858   6.931   6.502   3.083
 4320SOL    HW113859   6.839   6.539   3.100
 4320SOL    HW213860   6.975   6.554   3.010
 4321SOL     OW13861   0.763   0.323   4.757
 4321SOL    HW113862   0.821   0.377   4.818
 4321SOL    HW213863   0.807   0.235   4.738
 4322SOL     OW13864   6.383   1.316   1.309
 4322SOL    HW113865   6.342   1.326   1.218
 4322SOL    HW213866   6.392   1.407   1.352
 4323SOL     OW13867   6.866   1.918   3.620
 4323SOL    HW113868   6.824   1.829   3.602
 4323SOL    HW213869   6.883   1.926   3.719
 4324SOL     OW13870   5.609   2.588   5.736
 4324SOL    HW113871   5.637   2.652   5.665
 4324SOL    HW213872   5.534   2.628   5.789
 4325SOL     OW13873   1.902   2.536   6.594
 4325SOL    HW113874   1.940   2.480   6.520
 4325SOL    HW213875   1.934   2.501   6.682
 4326SOL     OW13876   6.656   2.431   5.115
 4326SOL    HW113877   6.707   2.503   5.068
 4326SOL    HW213878   6.570   2.414   5.068
 4327SOL     OW13879   4.714   0.965   3.061
 4327SOL    HW113880   4.719   1.052   3.109
 4327SOL    HW213881   4.629   0.959   3.010
 4328SOL     OW13882   5.937   4.738   0.466
 4328SOL    HW113883   5.925   4.775   0.374
 4328SOL    HW213884   6.034   4.745   0.492
 4329SOL     OW13885   5.293   1.356   0.049
 4329SOL    HW113886   5.219   1.315   0.102
 4329SOL    HW213887   5.282   1.455   0.049
 4330SOL     OW13888   1.113   0.986   6.443
 4330SOL    HW113889   1.193   0.935   6.410
 4330SOL    HW213890   1.098   0.966   6.540
 4331SOL     OW13891   5.056   2.389   6.487
 4331SOL    HW113892   4.972   2.395   6.542
 4331SOL    HW213893   5.059   2.466   6.423
 4332SOL     OW13894   5.634   3.867   1.777
 4332SOL    HW113895   5.646   3.787   1.837
 4332SOL    HW213896   5.701   3.862   1.702
 4333SOL     OW13897   6.548   1.282   4.784
 4333SOL    HW113898   6.528   1.378   4.765
 4333SOL    HW213899   6.640   1.260   4.751
 4334SOL     OW13900   3.861   0.537   1.830
 4334SOL    HW113901   3.893   0.589   1.751
 4334SOL    HW213902   3.771   0.570   1.857
 4335SOL     OW13903   3.917   4.289   5.768
 4335SOL    HW113904   3.828   4.243   5.772
 4335SOL    HW213905   3.959   4.288   5.858
 4336SOL     OW13906   1.141   7.021   5.834
 4336SOL    HW113907   1.085   6.939   5.831
 4336SOL    HW213908   1.153   0.031   5.742
 4337SOL     OW13909   0.720   5.814   6.488
 4337SOL    HW113910   0.780   5.744   6.450
 4337SOL    HW213911   0.724   5.896   6.432
 4338SOL     OW13912   5.360   6.499   3.248
 4338SOL    HW113913   5.379   6.523   3.343
 4338SOL    HW213914   5.272   6.451   3.243
 4339SOL     OW13915   6.650   1.187   6.554
 4339SOL    HW113916   6.687   1.278   6.572
 4339SOL    HW213917   6.717   1.118   6.580
 4340SOL     OW13918   4.506   3.769   1.671
 4340SOL    HW113919   4.588   3.755   1.615
 4340SOL    HW213920   4.511   3.859   1.714
 4341SOL     OW13921   1.151   3.394   0.906
 4341SOL    HW113922   1.080   3.445   0.955
 4341SOL    HW213923   1.192   3.453   0.836
 4342SOL     OW13924   6.983   2.196   2.897
 4342SOL    HW113925   6.983   2.225   2.993
 4342SOL    HW213926   0.003   2.265   2.842
 4343SOL     OW13927   3.049   2.134   0.680
 4343SOL    HW113928   3.030   2.124   0.582
 4343SOL    HW213929   3.119   2.068   0.707
 4344SOL     OW13930   2.015   3.267   1.748
 4344SOL    HW113931   1.931   3.253   1.696
 4344SOL    HW213932   2.067   3.182   1.754
 4345SOL     OW13933   2.992   1.259   5.731
 4345SOL    HW113934   2.901   1.297   5.712
 4345SOL    HW213935   3.062   1.328   5.709
 4346SOL     OW13936   6.642   3.976   1.382
 4346SOL    HW113937   6.722   4.015   1.427
 4346SOL    HW213938   6.589   4.049   1.338
 4347SOL     OW13939   4.579   5.690   2.671
 4347SOL    HW113940   4.614   5.783   2.658
 4347SOL    HW213941   4.619   5.629   2.602
 4348SOL     OW13942   1.326   3.642   0.479
 4348SOL    HW113943   1.314   3.553   0.435
 4348SOL    HW213944   1.381   3.701   0.419
 4349SOL     OW13945   6.581   0.923   1.335
 4349SOL    HW113946   6.674   0.887   1.337
 4349SOL    HW213947   6.531   0.883   1.258
 4350SOL     OW13948   3.916   0.666   2.926
 4350SOL    HW113949   3.820   0.678   2.902
 4350SOL    HW213950   3.936   0.568   2.934
 4351SOL     OW13951   3.090   6.732   6.785
 4351SOL    HW113952   3.189   6.714   6.789
 4351SOL    HW213953   3.042   6.666   6.843
 4352SOL     OW13954   6.525   2.098   2.364
 4352SOL    HW113955   6.485   2.187   2.340
 4352SOL    HW213956   6.452   2.032   2.381
 4353SOL     OW13957   3.439   5.392   1.323
 4353SOL    HW113958   3.370   5.442   1.376
 4353SOL    HW213959   3.449   5.300   1.361
 4354SOL     OW13960   2.946   0.638   1.319
 4354SOL    HW113961   2.918   0.593   1.233
 4354SOL    HW213962   2.866   0.647   1.378
 4355SOL     OW13963   4.857   6.907   0.092
 4355SOL    HW113964   4.926   6.846   0.131
 4355SOL    HW213965   4.896   6.998   0.078
 4356SOL     OW13966   3.535   3.592   0.829
 4356SOL    HW113967   3.479   3.578   0.910
 4356SOL    HW213968   3.623   3.546   0.841
 4357SOL     OW13969   5.998   0.479   0.209
 4357SOL    HW113970   5.909   0.436   0.224
 4357SOL    HW213971   6.057   0.461   0.288
 4358SOL     OW13972   6.080   0.593   0.991
 4358SOL    HW113973   5.983   0.568   0.993
 4358SOL    HW213974   6.096   0.658   0.917
 4359SOL     OW13975   0.498   4.173   4.569
 4359SOL    HW113976   0.445   4.240   4.621
 4359SOL    HW213977   0.463   4.081   4.588
 4360SOL     OW13978   2.459   3.538   0.951
 4360SOL    HW113979   2.418   3.588   0.875
 4360SOL    HW213980   2.399   3.543   1.031
 4361SOL     OW13981   5.721   2.527   2.720
 4361SOL    HW113982   5.763   2.508   2.631
 4361SOL    HW213983   5.783   2.499   2.793
 4362SOL     OW13984   5.086   4.176   2.865
 4362SOL    HW113985   5.001   4.158   2.816
 4362SOL    HW213986   5.164   4.163   2.804
 4363SOL     OW13987   4.846   0.757   6.782
 4363SOL    HW113988   4.832   0.792   6.874
 4363SOL    HW213989   4.925   0.695   6.781
 4364SOL     OW13990   3.756   4.122   4.647
 4364SOL    HW113991   3.819   4.054   4.683
 4364SOL    HW213992   3.765   4.127   4.547
 4365SOL     OW13993   4.455   2.250   0.165
 4365SOL    HW113994   4.413   2.331   0.206
 4365SOL    HW213995   4.384   2.188   0.133
 4366SOL     OW13996   4.651   4.871   0.330
 4366SOL    HW113997   4.562   4.890   0.371
 4366SOL    HW213998   4.718   4.937   0.363
 4367SOL     OW13999   6.579   6.823   0.920
 4367SOL    HW114000   6.495   6.771   0.937
 4367SOL    HW214001   6.639   6.770   0.861
 4368SOL     OW14002   4.217   4.858   1.939
 4368SOL    HW114003   4.148   4.797   1.900
 4368SOL    HW214004   4.223   4.842   2.038
 4369SOL     OW14005   3.516   5.429   1.694
 4369SOL    HW114006   3.488   5.438   1.598
 4369SOL    HW214007   3.435   5.419   1.751
 4370SOL     OW14008   5.236   4.453   1.805
 4370SOL    HW114009   5.163   4.486   1.746
 4370SOL    HW214010   5.320   4.442   1.752
 4371SOL     OW14011   1.391   1.740   2.677
 4371SOL    HW114012   1.422   1.817   2.621
 4371SOL    HW214013   1.352   1.774   2.763
 4372SOL     OW14014   4.681   7.005   3.814
 4372SOL    HW114015   4.677   7.007   3.914
 4372SOL    HW214016   4.592   6.977   3.778
 4373SOL     OW14017   6.992   1.651   5.936
 4373SOL    HW114018   7.007   1.555   5.958
 4373SOL    HW214019   0.023   1.708   5.994
 4374SOL     OW14020   3.502   1.422   0.133
 4374SOL    HW114021   3.473   1.355   0.201
 4374SOL    HW214022   3.435   1.496   0.128
 4375SOL     OW14023   3.576   5.555   4.108
 4375SOL    HW114024   3.675   5.566   4.115
 4375SOL    HW214025   3.551   5.460   4.129
 4376SOL     OW14026   6.891   2.501   3.569
 4376SOL    HW114027   6.987   2.517   3.547
 4376SOL    HW214028   6.842   2.474   3.486
 4377SOL     OW14029   6.751   4.759   6.122
 4377SOL    HW114030   6.784   4.851   6.101
 4377SOL    HW214031   6.807   4.691   6.074
 4378SOL     OW14032   3.385   1.824   3.785
 4378SOL    HW114033   3.308   1.856   3.840
 4378SOL    HW214034   3.469   1.870   3.814
 4379SOL     OW14035   3.666   1.721   5.810
 4379SOL    HW114036   3.650   1.642   5.869
 4379SOL    HW214037   3.756   1.713   5.767
 4380SOL     OW14038   0.479   2.520   3.063
 4380SOL    HW114039   0.482   2.487   3.157
 4380SOL    HW214040   0.388   2.558   3.044
 4381SOL     OW14041   1.624   5.236   6.929
 4381SOL    HW114042   1.546   5.201   6.982
 4381SOL    HW214043   1.639   5.332   6.952
 4382SOL     OW14044   1.044   5.161   4.512
 4382SOL    HW114045   1.096   5.239   4.549
 4382SOL    HW214046   1.091   5.124   4.432
 4383SOL     OW14047   6.962   4.605   0.553
 4383SOL    HW114048   7.013   4.690   0.541
 4383SOL    HW214049   6.999   4.553   0.630
 4384SOL     OW14050   5.001   7.003   3.529
 4384SOL    HW114051   4.980   6.934   3.598
 4384SOL    HW214052   4.934   6.998   3.455
 4385SOL     OW14053   4.829   0.649   5.560
 4385SOL    HW114054   4.896   0.662   5.487
 4385SOL    HW214055   4.809   0.738   5.603
 4386SOL     OW14056   2.058   3.505   4.365
 4386SOL    HW114057   1.969   3.466   4.341
 4386SOL    HW214058   2.127   3.432   4.368
 4387SOL     OW14059   5.421   2.167   1.278
 4387SOL    HW114060   5.488   2.227   1.322
 4387SOL    HW214061   5.373   2.114   1.347
 4388SOL     OW14062   5.369   3.495   0.432
 4388SOL    HW114063   5.446   3.553   0.403
 4388SOL    HW214064   5.376   3.406   0.387
 4389SOL     OW14065   2.616   1.196   6.980
 4389SOL    HW114066   2.578   1.136   0.023
 4389SOL    HW214067   2.630   1.287   7.019
 4390SOL     OW14068   0.023   2.000   0.795
 4390SOL    HW114069   6.964   1.970   0.838
 4390SOL    HW214070   0.094   2.009   0.864
 4391SOL     OW14071   0.370   6.320   1.606
 4391SOL    HW114072   0.429   6.356   1.534
 4391SOL    HW214073   0.357   6.222   1.591
 4392SOL     OW14074   1.122   2.890   5.838
 4392SOL    HW114075   1.183   2.947   5.784
 4392SOL    HW214076   1.169   2.860   5.921
 4393SOL     OW14077   6.396   0.573   2.302
 4393SOL    HW114078   6.341   0.546   2.381
 4393SOL    HW214079   6.422   0.492   2.250
 4394SOL     OW14080   6.985   0.364   2.488
 4394SOL    HW114081   6.958   0.433   2.421
 4394SOL    HW214082   6.908   0.304   2.508
 4395SOL     OW14083   1.403   3.668   1.953
 4395SOL    HW114084   1.490   3.619   1.952
 4395SOL    HW214085   1.410   3.746   2.016
 4396SOL     OW14086   2.728   1.280   2.871
 4396SOL    HW114087   2.663   1.351   2.897
 4396SOL    HW214088   2.789   1.314   2.799
 4397SOL     OW14089   3.789   0.828   5.322
 4397SOL    HW114090   3.731   0.821   5.240
 4397SOL    HW214091   3.865   0.889   5.303
 4398SOL     OW14092   2.322   3.392   5.790
 4398SOL    HW114093   2.417   3.365   5.772
 4398SOL    HW214094   2.312   3.490   5.776
 4399SOL     OW14095   3.242   5.977   1.401
 4399SOL    HW114096   3.292   5.941   1.479
 4399SOL    HW214097   3.257   6.076   1.394
 4400SOL     OW14098   1.648   5.941   4.930
 4400SOL    HW114099   1.651   5.918   5.027
 4400SOL    HW214100   1.597   5.870   4.881
 4401SOL     OW14101   2.804   6.863   6.404
 4401SOL    HW114102   2.857   6.784   6.434
 4401SOL    HW214103   2.777   6.917   6.484
 4402SOL     OW14104   1.248   0.986   2.741
 4402SOL    HW114105   1.171   0.939   2.698
 4402SOL    HW214106   1.333   0.937   2.720
 4403SOL     OW14107   6.338   6.152   3.292
 4403SOL    HW114108   6.246   6.139   3.255
 4403SOL    HW214109   6.391   6.209   3.231
 4404SOL     OW14110   0.693   6.489   5.556
 4404SOL    HW114111   0.709   6.426   5.480
 4404SOL    HW214112   0.650   6.440   5.632
 4405SOL     OW14113   1.420   5.238   2.695
 4405SOL    HW114114   1.386   5.306   2.760
 4405SOL    HW214115   1.513   5.210   2.721
 4406SOL     OW14116   6.152   4.683   2.339
 4406SOL    HW114117   6.181   4.761   2.283
 4406SOL    HW214118   6.059   4.698   2.371
 4407SOL     OW14119   5.843   6.547   1.150
 4407SOL    HW114120   5.752   6.530   1.187
 4407SOL    HW214121   5.836   6.570   1.053
 4408SOL     OW14122   4.647   1.008   1.074
 4408SOL    HW114123   4.684   0.970   0.989
 4408SOL    HW214124   4.547   1.004   1.071
 4409SOL     OW14125   3.376   0.856   4.026
 4409SOL    HW114126   3.334   0.797   3.957
 4409SOL    HW214127   3.371   0.951   3.995
 4410SOL     OW14128   0.787   0.271   1.208
 4410SOL    HW114129   0.835   0.247   1.292
 4410SOL    HW214130   0.750   0.188   1.166
 4411SOL     OW14131   4.521   4.802   5.268
 4411SOL    HW114132   4.602   4.810   5.210
 4411SOL    HW214133   4.455   4.872   5.243
 4412SOL     OW14134   4.418   5.977   1.862
 4412SOL    HW114135   4.406   6.024   1.775
 4412SOL    HW214136   4.502   5.922   1.858
 4413SOL     OW14137   4.931   6.289   4.417
 4413SOL    HW114138   4.966   6.197   4.434
 4413SOL    HW214139   4.852   6.285   4.356
 4414SOL     OW14140   5.960   4.188   1.062
 4414SOL    HW114141   5.982   4.104   1.012
 4414SOL    HW214142   5.897   4.244   1.008
 4415SOL     OW14143   1.815   3.957   1.413
 4415SOL    HW114144   1.874   4.031   1.445
 4415SOL    HW214145   1.861   3.909   1.338
 4416SOL     OW14146   4.835   3.070   4.187
 4416SOL    HW114147   4.799   2.996   4.244
 4416SOL    HW214148   4.831   3.156   4.238
 4417SOL     OW14149   0.522   4.362   2.071
 4417SOL    HW114150   0.489   4.268   2.074
 4417SOL    HW214151   0.621   4.362   2.057
 4418SOL     OW14152   6.424   1.517   5.092
 4418SOL    HW114153   6.330   1.540   5.065
 4418SOL    HW214154   6.488   1.578   5.046
 4419SOL     OW14155   6.715   6.514   6.365
 4419SOL    HW114156   6.624   6.474   6.356
 4419SOL    HW214157   6.708   6.605   6.407
 4420SOL     OW14158   3.932   1.221   0.917
 4420SOL    HW114159   4.014   1.252   0.869
 4420SOL    HW214160   3.872   1.299   0.935
 4421SOL     OW14161   2.742   2.767   7.010
 4421SOL    HW114162   2.701   2.684   6.972
 4421SOL    HW214163   2.677   2.843   7.002
 4422SOL     OW14164   0.638   3.045   6.335
 4422SOL    HW114165   0.637   3.086   6.426
 4422SOL    HW214166   0.714   2.979   6.329
 4423SOL     OW14167   5.860   4.785   4.626
 4423SOL    HW114168   5.912   4.700   4.621
 4423SOL    HW214169   5.789   4.777   4.697
 4424SOL     OW14170   4.090   5.919   2.837
 4424SOL    HW114171   4.038   6.001   2.859
 4424SOL    HW214172   4.178   5.944   2.797
 4425SOL     OW14173   0.030   6.374   1.695
 4425SOL    HW114174   6.975   6.319   1.683
 4425SOL    HW214175   0.013   6.467   1.662
 4426SOL     OW14176   0.400   0.607   4.599
 4426SOL    HW114177   0.400   0.522   4.546
 4426SOL    HW214178   0.335   0.599   4.674
 4427SOL     OW14179   3.351   5.822   2.170
 4427SOL    HW114180   3.357   5.855   2.076
 4427SOL    HW214181   3.256   5.816   2.198
 4428SOL     OW14182   6.180   6.210   3.686
 4428SOL    HW114183   6.187   6.309   3.694
 4428SOL    HW214184   6.100   6.177   3.737
 4429SOL     OW14185   2.628   6.012   2.873
 4429SOL    HW114186   2.689   5.937   2.850
 4429SOL    HW214187   2.656   6.053   2.959
 4430SOL     OW14188   6.131   3.833   4.666
 4430SOL    HW114189   6.221   3.793   4.651
 4430SOL    HW214190   6.060   3.768   4.636
 4431SOL     OW14191   4.189   6.757   4.841
 4431SOL    HW114192   4.102   6.807   4.839
 4431SOL    HW214193   4.205   6.714   4.752
 4432SOL     OW14194   1.594   3.583   6.361
 4432SOL    HW114195   1.567   3.660   6.419
 4432SOL    HW214196   1.640   3.617   6.279
 4433SOL     OW14197   0.969   0.362   4.440
 4433SOL    HW114198   1.052   0.307   4.430
 4433SOL    HW214199   0.993   0.454   4.472
 4434SOL     OW14200   6.811   1.195   1.833
 4434SOL    HW114201   6.897   1.145   1.835
 4434SOL    HW214202   6.827   1.292   1.854
 4435SOL     OW14203   2.610   4.496   1.094
 4435SOL    HW114204   2.656   4.505   1.182
 4435SOL    HW214205   2.628   4.406   1.056
 4436SOL     OW14206   4.554   2.246   1.437
 4436SOL    HW114207   4.594   2.324   1.485
 4436SOL    HW214208   4.454   2.250   1.444
 4437SOL     OW14209   6.469   4.886   6.911
 4437SOL    HW114210   6.535   4.954   6.944
 4437SOL    HW214211   6.492   4.860   6.817
 4438SOL     OW14212   4.408   1.345   4.584
 4438SOL    HW114213   4.488   1.405   4.584
 4438SOL    HW214214   4.403   1.296   4.497
 4439SOL     OW14215   2.693   4.817   2.002
 4439SOL    HW114216   2.729   4.872   1.927
 4439SOL    HW214217   2.764   4.753   2.034
 4440SOL     OW14218   2.138   5.654   5.700
 4440SOL    HW114219   2.057   5.595   5.698
 4440SOL    HW214220   2.220   5.598   5.715
 4441SOL     OW14221   6.734   1.432   1.111
 4441SOL    HW114222   6.828   1.466   1.114
 4441SOL    HW214223   6.697   1.429   1.203
 4442SOL     OW14224   1.575   4.873   1.007
 4442SOL    HW114225   1.608   4.845   1.097
 4442SOL    HW214226   1.653   4.882   0.945
 4443SOL     OW14227   1.162   5.710   5.361
 4443SOL    HW114228   1.238   5.740   5.418
 4443SOL    HW214229   1.084   5.686   5.418
 4444SOL     OW14230   5.164   6.040   0.012
 4444SOL    HW114231   5.256   6.009   0.036
 4444SOL    HW214232   5.140   6.007   6.948
 4445SOL     OW14233   2.053   3.694   0.354
 4445SOL    HW114234   1.995   3.747   0.416
 4445SOL    HW214235   2.020   3.599   0.351
 4446SOL     OW14236   5.398   1.890   2.107
 4446SOL    HW114237   5.383   1.921   2.201
 4446SOL    HW214238   5.492   1.910   2.080
 4447SOL     OW14239   4.930   5.632   5.410
 4447SOL    HW114240   4.843   5.675   5.436
 4447SOL    HW214241   4.999   5.652   5.479
 4448SOL     OW14242   2.793   6.484   2.504
 4448SOL    HW114243   2.759   6.529   2.422
 4448SOL    HW214244   2.784   6.385   2.495
 4449SOL     OW14245   4.311   1.699   5.464
 4449SOL    HW114246   4.289   1.753   5.546
 4449SOL    HW214247   4.290   1.603   5.481
 4450SOL     OW14248   2.107   5.792   0.943
 4450SOL    HW114249   2.070   5.707   0.981
 4450SOL    HW214250   2.058   5.870   0.980
 4451SOL     OW14251   4.860   6.090   3.884
 4451SOL    HW114252   4.861   6.185   3.853
 4451SOL    HW214253   4.878   6.029   3.807
 4452SOL     OW14254   5.131   4.111   3.726
 4452SOL    HW114255   5.136   4.199   3.774
 4452SOL    HW214256   5.175   4.119   3.637
 4453SOL     OW14257   0.328   5.629   1.530
 4453SOL    HW114258   0.297   5.550   1.583
 4453SOL    HW214259   0.249   5.674   1.488
 4454SOL     OW14260   0.893   1.644   0.299
 4454SOL    HW114261   0.840   1.565   0.269
 4454SOL    HW214262   0.839   1.727   0.289
 4455SOL     OW14263   1.145   0.539   3.991
 4455SOL    HW114264   1.050   0.542   4.022
 4455SOL    HW214265   1.204   0.575   4.063
 4456SOL     OW14266   1.442   5.894   4.113
 4456SOL    HW114267   1.447   5.845   4.201
 4456SOL    HW214268   1.407   5.986   4.128
 4457SOL     OW14269   1.545   2.063   4.556
 4457SOL    HW114270   1.561   2.059   4.458
 4457SOL    HW214271   1.464   2.119   4.575
 4458SOL     OW14272   2.036   2.080   6.184
 4458SOL    HW114273   2.084   2.068   6.271
 4458SOL    HW214274   1.941   2.053   6.194
 4459SOL     OW14275   0.530   4.374   2.828
 4459SOL    HW114276   0.561   4.338   2.917
 4459SOL    HW214277   0.609   4.398   2.773
 4460SOL     OW14278   6.821   2.988   5.205
 4460SOL    HW114279   6.915   3.017   5.221
 4460SOL    HW214280   6.758   3.053   5.250
 4461SOL     OW14281   1.804   0.120   0.653
 4461SOL    HW114282   1.839   0.145   0.563
 4461SOL    HW214283   1.769   0.026   0.650
 4462SOL     OW14284   6.540   4.510   2.100
 4462SOL    HW114285   6.512   4.414   2.100
 4462SOL    HW214286   6.538   4.545   2.006
 4463SOL     OW14287   5.895   2.210   7.005
 4463SOL    HW114288   5.978   2.173   6.964
 4463SOL    HW214289   5.908   2.306   7.026
 4464SOL     OW14290   0.365   3.454   1.249
 4464SOL    HW114291   0.437   3.466   1.317
 4464SOL    HW214292   0.405   3.418   1.165
 4465SOL     OW14293   4.576   4.968   1.853
 4465SOL    HW114294   4.512   4.913   1.907
 4465SOL    HW214295   4.586   4.927   1.762
 4466SOL     OW14296   0.522   2.934   2.575
 4466SOL    HW114297   0.610   2.981   2.581
 4466SOL    HW214298   0.464   2.981   2.509
 4467SOL     OW14299   5.345   4.706   1.501
 4467SOL    HW114300   5.260   4.667   1.534
 4467SOL    HW214301   5.326   4.791   1.451
 4468SOL     OW14302   1.787   3.215   0.476
 4468SOL    HW114303   1.728   3.287   0.440
 4468SOL    HW214304   1.752   3.126   0.448
 4469SOL     OW14305   1.992   5.926   1.647
 4469SOL    HW114306   1.985   5.905   1.550
 4469SOL    HW214307   2.084   5.961   1.666
 4470SOL     OW14308   0.950   0.002   2.815
 4470SOL    HW114309   0.960   6.989   2.906
 4470SOL    HW214310   1.038   0.001   2.767
 4471SOL     OW14311   0.976   0.588   6.912
 4471SOL    HW114312   0.942   0.518   6.849
 4471SOL    HW214313   0.904   0.656   6.928
 4472SOL     OW14314   1.709   2.739   0.592
 4472SOL    HW114315   1.686   2.808   0.523
 4472SOL    HW214316   1.681   2.649   0.560
 4473SOL     OW14317   0.525   2.485   5.157
 4473SOL    HW114318   0.503   2.487   5.059
 4473SOL    HW214319   0.468   2.550   5.206
 4474SOL     OW14320   2.431   6.513   0.917
 4474SOL    HW114321   2.482   6.429   0.899
 4474SOL    HW214322   2.373   6.501   0.997
 4475SOL     OW14323   0.590   3.584   0.474
 4475SOL    HW114324   0.641   3.582   0.560
 4475SOL    HW214325   0.650   3.610   0.400
 4476SOL     OW14326   4.842   0.614   3.582
 4476SOL    HW114327   4.801   0.524   3.592
 4476SOL    HW214328   4.882   0.643   3.669
 4477SOL     OW14329   0.383   1.508   4.282
 4477SOL    HW114330   0.383   1.574   4.206
 4477SOL    HW214331   0.407   1.555   4.367
 4478SOL     OW14332   1.246   0.851   2.288
 4478SOL    HW114333   1.309   0.904   2.344
 4478SOL    HW214334   1.217   0.770   2.339
 4479SOL     OW14335   2.526   2.954   0.001
 4479SOL    HW114336   2.456   3.018   0.035
 4479SOL    HW214337   2.483   2.889   6.965
 4480SOL     OW14338   6.755   6.886   2.949
 4480SOL    HW114339   6.794   6.800   2.914
 4480SOL    HW214340   6.824   6.935   3.001
 4481SOL     OW14341   2.464   3.690   6.054
 4481SOL    HW114342   2.483   3.592   6.064
 4481SOL    HW214343   2.545   3.736   6.016
 4482SOL     OW14344   2.973   7.009   1.470
 4482SOL    HW114345   2.967   6.910   1.463
 4482SOL    HW214346   3.065   0.011   1.443
 4483SOL     OW14347   0.749   3.321   0.962
 4483SOL    HW114348   0.806   3.371   1.027
 4483SOL    HW214349   0.653   3.335   0.985
 4484SOL     OW14350   3.780   0.686   0.744
 4484SOL    HW114351   3.851   0.744   0.785
 4484SOL    HW214352   3.701   0.682   0.805
 4485SOL     OW14353   0.409   2.873   5.150
 4485SOL    HW114354   0.450   2.904   5.237
 4485SOL    HW214355   0.480   2.828   5.095
 4486SOL     OW14356   5.218   4.544   3.682
 4486SOL    HW114357   5.138   4.583   3.635
 4486SOL    HW214358   5.288   4.615   3.692
 4487SOL     OW14359   0.395   2.703   6.289
 4487SOL    HW114360   0.382   2.766   6.366
 4487SOL    HW214361   0.491   2.702   6.263
 4488SOL     OW14362   5.766   4.456   4.033
 4488SOL    HW114363   5.764   4.556   4.030
 4488SOL    HW214364   5.725   4.424   4.119
 4489SOL     OW14365   3.466   5.974   6.244
 4489SOL    HW114366   3.465   6.045   6.174
 4489SOL    HW214367   3.537   5.907   6.223
 4490SOL     OW14368   5.507   1.616   1.993
 4490SOL    HW114369   5.480   1.682   2.063
 4490SOL    HW214370   5.425   1.571   1.957
 4491SOL     OW14371   0.172   4.093   2.843
 4491SOL    HW114372   0.236   4.153   2.795
 4491SOL    HW214373   0.197   4.089   2.940
 4492SOL     OW14374   6.828   1.388   2.199
 4492SOL    HW114375   6.883   1.304   2.200
 4492SOL    HW214376   6.830   1.428   2.107
 4493SOL     OW14377   5.404   1.047   6.222
 4493SOL    HW114378   5.484   0.995   6.250
 4493SOL    HW214379   5.427   1.104   6.143
 4494SOL     OW14380   1.642   1.599   2.621
 4494SOL    HW114381   1.551   1.636   2.607
 4494SOL    HW214382   1.701   1.668   2.663
 4495SOL     OW14383   4.072   6.101   1.226
 4495SOL    HW114384   4.172   6.101   1.228
 4495SOL    HW214385   4.037   6.037   1.295
 4496SOL     OW14386   2.323   5.433   5.697
 4496SOL    HW114387   2.281   5.386   5.619
 4496SOL    HW214388   2.419   5.451   5.677
 4497SOL     OW14389   4.291   6.667   5.833
 4497SOL    HW114390   4.380   6.682   5.790
 4497SOL    HW214391   4.256   6.753   5.869
 4498SOL     OW14392   1.530   4.743   4.338
 4498SOL    HW114393   1.539   4.644   4.326
 4498SOL    HW214394   1.444   4.773   4.296
 4499SOL     OW14395   5.632   2.004   2.113
 4499SOL    HW114396   5.718   1.974   2.072
 4499SOL    HW214397   5.646   2.024   2.210
 4500SOL     OW14398   3.383   6.666   6.807
 4500SOL    HW114399   3.474   6.651   6.767
 4500SOL    HW214400   3.343   6.579   6.833
 4501SOL     OW14401   6.184   6.917   3.014
 4501SOL    HW114402   6.195   7.004   2.967
 4501SOL    HW214403   6.130   6.931   3.097
 4502SOL     OW14404   1.320   4.047   6.997
 4502SOL    HW114405   1.415   4.042   6.967
 4502SOL    HW214406   1.268   4.106   6.935
 4503SOL     OW14407   3.801   1.386   2.659
 4503SOL    HW114408   3.879   1.325   2.674
 4503SOL    HW214409   3.824   1.453   2.589
 4504SOL     OW14410   1.418   2.575   3.797
 4504SOL    HW114411   1.444   2.535   3.886
 4504SOL    HW214412   1.389   2.502   3.735
 4505SOL     OW14413   6.913   3.173   3.427
 4505SOL    HW114414   7.011   3.189   3.442
 4505SOL    HW214415   6.885   3.092   3.478
 4506SOL     OW14416   4.270   3.871   0.275
 4506SOL    HW114417   4.265   3.969   0.293
 4506SOL    HW214418   4.178   3.832   0.273
 4507SOL     OW14419   6.267   2.504   3.192
 4507SOL    HW114420   6.191   2.448   3.225
 4507SOL    HW214421   6.263   2.594   3.236
 4508SOL     OW14422   6.002   5.066   0.117
 4508SOL    HW114423   6.050   5.029   0.038
 4508SOL    HW214424   5.978   4.991   0.179
 4509SOL     OW14425   4.688   2.197   2.602
 4509SOL    HW114426   4.648   2.288   2.615
 4509SOL    HW214427   4.625   2.140   2.550
 4510SOL     OW14428   4.910   1.813   3.736
 4510SOL    HW114429   4.817   1.788   3.708
 4510SOL    HW214430   4.909   1.841   3.832
 4511SOL     OW14431   0.771   4.445   6.731
 4511SOL    HW114432   0.794   4.474   6.638
 4511SOL    HW214433   0.832   4.490   6.796
 4512SOL     OW14434   2.818   3.576   5.591
 4512SOL    HW114435   2.760   3.616   5.521
 4512SOL    HW214436   2.914   3.598   5.572
 4513SOL     OW14437   0.702   1.330   1.304
 4513SOL    HW114438   0.667   1.364   1.391
 4513SOL    HW214439   0.636   1.267   1.263
 4514SOL     OW14440   4.592   4.557   6.608
 4514SOL    HW114441   4.493   4.566   6.601
 4514SOL    HW214442   4.618   4.553   6.705
 4515SOL     OW14443   4.354   6.969   5.892
 4515SOL    HW114444   4.454   6.969   5.883
 4515SOL    HW214445   4.319   0.034   5.876
 4516SOL     OW14446   3.220   1.640   5.160
 4516SOL    HW114447   3.145   1.696   5.196
 4516SOL    HW214448   3.278   1.697   5.101
 4517SOL     OW14449   3.733   0.483   4.292
 4517SOL    HW114450   3.792   0.484   4.373
 4517SOL    HW214451   3.759   0.408   4.232
 4518SOL     OW14452   0.171   0.027   0.842
 4518SOL    HW114453   0.112   0.105   0.865
 4518SOL    HW214454   0.115   6.978   0.810
 4519SOL     OW14455   4.969   0.300   6.702
 4519SOL    HW114456   4.879   0.265   6.679
 4519SOL    HW214457   5.039   0.245   6.656
 4520SOL     OW14458   4.559   5.117   5.125
 4520SOL    HW114459   4.550   5.148   5.030
 4520SOL    HW214460   4.647   5.146   5.161
 4521SOL     OW14461   4.521   2.418   4.138
 4521SOL    HW114462   4.430   2.419   4.180
 4521SOL    HW214463   4.547   2.510   4.110
 4522SOL     OW14464   5.483   3.837   3.305
 4522SOL    HW114465   5.582   3.832   3.303
 4522SOL    HW214466   5.444   3.747   3.284
 4523SOL     OW14467   0.154   2.733   6.637
 4523SOL    HW114468   0.227   2.800   6.628
 4523SOL    HW214469   0.071   2.779   6.669
 4524SOL     OW14470   2.044   3.881   2.009
 4524SOL    HW114471   2.070   3.976   2.029
 4524SOL    HW214472   2.098   3.848   1.932
 4525SOL     OW14473   3.534   1.492   5.968
 4525SOL    HW114474   3.557   1.398   5.943
 4525SOL    HW214475   3.590   1.520   6.046
 4526SOL     OW14476   1.125   7.021   5.540
 4526SOL    HW114477   1.174   6.953   5.487
 4526SOL    HW214478   1.027   7.001   5.538
 4527SOL     OW14479   0.973   2.546   2.470
 4527SOL    HW114480   0.928   2.489   2.401
 4527SOL    HW214481   1.059   2.581   2.433
 4528SOL     OW14482   5.606   2.039   4.812
 4528SOL    HW114483   5.652   1.951   4.805
 4528SOL    HW214484   5.536   2.046   4.741
 4529SOL     OW14485   1.542   2.426   4.025
 4529SOL    HW114486   1.504   2.392   4.111
 4529SOL    HW214487   1.600   2.355   3.984
 4530SOL     OW14488   4.113   4.705   6.006
 4530SOL    HW114489   4.103   4.730   6.102
 4530SOL    HW214490   4.115   4.787   5.950
 4531SOL     OW14491   1.680   6.638   5.386
 4531SOL    HW114492   1.775   6.621   5.356
 4531SOL    HW214493   1.661   6.736   5.384
 4532SOL     OW14494   5.446   1.033   2.156
 4532SOL    HW114495   5.440   1.122   2.201
 4532SOL    HW214496   5.359   0.985   2.166
 4533SOL     OW14497   3.116   5.645   1.348
 4533SOL    HW114498   3.049   5.589   1.299
 4533SOL    HW214499   3.176   5.691   1.282
 4534SOL     OW14500   5.713   1.460   4.500
 4534SOL    HW114501   5.631   1.431   4.450
 4534SOL    HW214502   5.721   1.408   4.585
 4535SOL     OW14503   1.484   0.159   0.392
 4535SOL    HW114504   1.537   0.200   0.318
 4535SOL    HW214505   1.466   0.228   0.462
 4536SOL     OW14506   3.708   0.896   5.579
 4536SOL    HW114507   3.634   0.961   5.565
 4536SOL    HW214508   3.746   0.868   5.491
 4537SOL     OW14509   3.257   3.622   3.498
 4537SOL    HW114510   3.210   3.609   3.586
 4537SOL    HW214511   3.271   3.720   3.482
 4538SOL     OW14512   1.223   3.109   0.314
 4538SOL    HW114513   1.247   3.144   0.223
 4538SOL    HW214514   1.151   3.166   0.354
 4539SOL     OW14515   0.958   4.752   4.759
 4539SOL    HW114516   0.867   4.770   4.796
 4539SOL    HW214517   0.999   4.837   4.727
 4540SOL     OW14518   1.963   1.839   0.489
 4540SOL    HW114519   1.968   1.933   0.522
 4540SOL    HW214520   1.883   1.828   0.430
 4541SOL     OW14521   3.975   3.091   0.050
 4541SOL    HW114522   3.888   3.105   0.004
 4541SOL    HW214523   4.045   3.063   7.011
 4542SOL     OW14524   6.919   1.761   0.550
 4542SOL    HW114525   6.881   1.851   0.528
 4542SOL    HW214526   6.882   1.693   0.487
 4543SOL     OW14527   4.308   1.244   1.064
 4543SOL    HW114528   4.216   1.237   1.102
 4543SOL    HW214529   4.354   1.156   1.070
 4544SOL     OW14530   5.109   5.891   0.414
 4544SOL    HW114531   5.058   5.909   0.329
 4544SOL    HW214532   5.191   5.947   0.416
 4545SOL     OW14533   3.256   3.316   5.546
 4545SOL    HW114534   3.306   3.401   5.535
 4545SOL    HW214535   3.176   3.316   5.486
 4546SOL     OW14536   4.678   6.986   5.809
 4546SOL    HW114537   4.742   0.020   5.762
 4546SOL    HW214538   4.663   7.020   5.902
 4547SOL     OW14539   6.924   1.204   0.144
 4547SOL    HW114540   6.885   1.223   0.234
 4547SOL    HW214541   6.933   1.290   0.093
 4548SOL     OW14542   3.127   1.280   1.899
 4548SOL    HW114543   3.189   1.358   1.889
 4548SOL    HW214544   3.096   1.274   1.993
 4549SOL     OW14545   6.533   5.021   3.998
 4549SOL    HW114546   6.526   5.082   3.919
 4549SOL    HW214547   6.500   5.067   4.080
 4550SOL     OW14548   2.654   5.397   6.716
 4550SOL    HW114549   2.556   5.405   6.735
 4550SOL    HW214550   2.697   5.341   6.787
 4551SOL     OW14551   3.562   3.172   5.898
 4551SOL    HW114552   3.580   3.194   5.994
 4551SOL    HW214553   3.570   3.074   5.884
 4552SOL     OW14554   4.868   0.495   0.222
 4552SOL    HW114555   4.932   0.558   0.265
 4552SOL    HW214556   4.779   0.502   0.268
 4553SOL     OW14557   0.346   6.956   0.526
 4553SOL    HW114558   0.277   6.929   0.593
 4553SOL    HW214559   0.309   0.002   0.468
 4554SOL     OW14560   5.658   6.267   2.678
 4554SOL    HW114561   5.683   6.190   2.620
 4554SOL    HW214562   5.585   6.319   2.634
 4555SOL     OW14563   0.487   0.306   2.994
 4555SOL    HW114564   0.540   0.329   3.076
 4555SOL    HW214565   0.549   0.298   2.916
 4556SOL     OW14566   5.230   4.582   4.640
 4556SOL    HW114567   5.134   4.553   4.637
 4556SOL    HW214568   5.251   4.637   4.560
 4557SOL     OW14569   0.039   5.432   4.799
 4557SOL    HW114570   6.987   5.395   4.848
 4557SOL    HW214571   0.123   5.407   4.848
 4558SOL     OW14572   0.819   4.312   3.751
 4558SOL    HW114573   0.823   4.405   3.787
 4558SOL    HW214574   0.888   4.255   3.795
 4559SOL     OW14575   0.280   3.671   4.311
 4559SOL    HW114576   0.284   3.572   4.327
 4559SOL    HW214577   0.355   3.716   4.360
 4560SOL     OW14578   6.569   4.272   3.401
 4560SOL    HW114579   6.591   4.259   3.305
 4560SOL    HW214580   6.562   4.183   3.446
 4561SOL     OW14581   4.898   3.201   3.957
 4561SOL    HW114582   4.990   3.164   3.943
 4561SOL    HW214583   4.856   3.155   4.035
 4562SOL     OW14584   4.920   1.228   1.317
 4562SOL    HW114585   4.957   1.269   1.401
 4562SOL    HW214586   4.957   1.276   1.238
 4563SOL     OW14587   0.771   4.085   1.729
 4563SOL    HW114588   0.865   4.071   1.761
 4563SOL    HW214589   0.773   4.125   1.638
 4564SOL     OW14590   2.114   3.677   2.170
 4564SOL    HW114591   2.141   3.616   2.096
 4564SOL    HW214592   2.079   3.763   2.132
 4565SOL     OW14593   2.324   6.671   4.794
 4565SOL    HW114594   2.384   6.651   4.871
 4565SOL    HW214595   2.269   6.753   4.814
 4566SOL     OW14596   6.699   4.897   3.274
 4566SOL    HW114597   6.621   4.865   3.327
 4566SOL    HW214598   6.666   4.942   3.191
 4567SOL     OW14599   1.039   0.079   0.717
 4567SOL    HW114600   1.025   7.024   0.661
 4567SOL    HW214601   1.134   0.108   0.710
 4568SOL     OW14602   0.236   4.656   3.749
 4568SOL    HW114603   0.317   4.714   3.741
 4568SOL    HW214604   0.243   4.600   3.831
 4569SOL     OW14605   0.732   2.764   3.830
 4569SOL    HW114606   0.658   2.731   3.772
 4569SOL    HW214607   0.788   2.829   3.779
 4570SOL     OW14608   4.802   6.033   1.467
 4570SOL    HW114609   4.854   6.015   1.384
 4570SOL    HW214610   4.707   6.054   1.443
 4571SOL     OW14611   1.892   2.536   5.217
 4571SOL    HW114612   1.905   2.438   5.210
 4571SOL    HW214613   1.862   2.560   5.310
 4572SOL     OW14614   4.378   3.277   1.666
 4572SOL    HW114615   4.439   3.343   1.708
 4572SOL    HW214616   4.407   3.184   1.691
 4573SOL     OW14617   2.185   5.167   0.841
 4573SOL    HW114618   2.281   5.150   0.865
 4573SOL    HW214619   2.127   5.144   0.919
 4574SOL     OW14620   5.049   0.463   1.670
 4574SOL    HW114621   5.147   0.481   1.674
 4574SOL    HW214622   5.004   0.506   1.748
 4575SOL     OW14623   0.470   1.769   5.108
 4575SOL    HW114624   0.475   1.847   5.046
 4575SOL    HW214625   0.395   1.709   5.081
 4576SOL     OW14626   2.933   3.730   6.789
 4576SOL    HW114627   3.014   3.714   6.846
 4576SOL    HW214628   2.961   3.738   6.694
 4577SOL     OW14629   0.549   2.120   2.077
 4577SOL    HW114630   0.488   2.086   2.149
 4577SOL    HW214631   0.632   2.063   2.075
 4578SOL     OW14632   1.545   0.646   3.167
 4578SOL    HW114633   1.457   0.621   3.129
 4578SOL    HW214634   1.566   0.586   3.245
 4579SOL     OW14635   4.460   1.002   2.887
 4579SOL    HW114636   4.463   0.902   2.885
 4579SOL    HW214637   4.412   1.035   2.806
 4580SOL     OW14638   0.679   0.416   1.797
 4580SOL    HW114639   0.604   0.355   1.771
 4580SOL    HW214640   0.757   0.402   1.736
 4581SOL     OW14641   3.097   0.763   1.500
 4581SOL    HW114642   3.043   0.728   1.423
 4581SOL    HW214643   3.071   0.715   1.583
 4582SOL     OW14644   5.988   0.673   4.532
 4582SOL    HW114645   5.983   0.759   4.583
 4582SOL    HW214646   6.083   0.651   4.513
 4583SOL     OW14647   2.121   6.332   6.759
 4583SOL    HW114648   2.161   6.240   6.764
 4583SOL    HW214649   2.130   6.368   6.666
 4584SOL     OW14650   0.006   1.167   4.533
 4584SOL    HW114651   0.019   1.069   4.552
 4584SOL    HW214652   0.095   1.212   4.532
 4585SOL     OW14653   0.941   2.817   2.806
 4585SOL    HW114654   0.888   2.763   2.740
 4585SOL    HW214655   0.909   2.796   2.899
 4586SOL     OW14656   6.997   5.145   5.807
 4586SOL    HW114657   6.979   5.242   5.797
 4586SOL    HW214658   0.045   5.132   5.872
 4587SOL     OW14659   4.317   3.334   6.053
 4587SOL    HW114660   4.270   3.330   6.142
 4587SOL    HW214661   4.413   3.358   6.067
 4588SOL     OW14662   2.403   4.248   6.691
 4588SOL    HW114663   2.419   4.150   6.693
 4588SOL    HW214664   2.473   4.294   6.746
 4589SOL     OW14665   4.918   6.082   2.121
 4589SOL    HW114666   4.826   6.109   2.148
 4589SOL    HW214667   4.919   6.059   2.024
 4590SOL     OW14668   2.131   4.828   1.875
 4590SOL    HW114669   2.226   4.854   1.889
 4590SOL    HW214670   2.121   4.729   1.889
 4591SOL     OW14671   2.043   1.578   4.645
 4591SOL    HW114672   1.949   1.551   4.624
 4591SOL    HW214673   2.089   1.608   4.561
 4592SOL     OW14674   2.615   2.452   3.302
 4592SOL    HW114675   2.548   2.380   3.320
 4592SOL    HW214676   2.702   2.430   3.347
 4593SOL     OW14677   1.790   5.977   4.670
 4593SOL    HW114678   1.762   5.940   4.759
 4593SOL    HW214679   1.746   5.925   4.597
 4594SOL     OW14680   1.000   6.417   4.027
 4594SOL    HW114681   0.942   6.498   4.034
 4594SOL    HW214682   0.971   6.362   3.949
 4595SOL     OW14683   5.985   2.061   6.654
 4595SOL    HW114684   5.988   1.970   6.696
 4595SOL    HW214685   5.965   2.052   6.556
 4596SOL     OW14686   0.675   1.735   2.888
 4596SOL    HW114687   0.588   1.744   2.840
 4596SOL    HW214688   0.678   1.801   2.963
 4597SOL     OW14689   2.171   5.458   0.651
 4597SOL    HW114690   2.194   5.553   0.631
 4597SOL    HW214691   2.146   5.411   0.566
 4598SOL     OW14692   0.216   2.771   0.143
 4598SOL    HW114693   0.263   2.858   0.136
 4598SOL    HW214694   0.249   2.721   0.223
 4599SOL     OW14695   3.183   6.469   3.211
 4599SOL    HW114696   3.282   6.468   3.223
 4599SOL    HW214697   3.142   6.406   3.277
 4600SOL     OW14698   0.575   6.573   6.099
 4600SOL    HW114699   0.662   6.595   6.055
 4600SOL    HW214700   0.592   6.541   6.192
 4601SOL     OW14701   1.484   0.699   5.021
 4601SOL    HW114702   1.414   0.756   5.063
 4601SOL    HW214703   1.548   0.667   5.091
 4602SOL     OW14704   3.944   0.506   6.267
 4602SOL    HW114705   4.020   0.569   6.250
 4602SOL    HW214706   3.979   0.418   6.296
 4603SOL     OW14707   4.218   7.007   1.090
 4603SOL    HW114708   4.314   6.980   1.085
 4603SOL    HW214709   4.160   6.926   1.098
 4604SOL     OW14710   0.598   6.339   3.258
 4604SOL    HW114711   0.670   6.307   3.197
 4604SOL    HW214712   0.619   6.433   3.286
 4605SOL     OW14713   4.663   1.469   2.052
 4605SOL    HW114714   4.612   1.465   1.966
 4605SOL    HW214715   4.753   1.509   2.035
 4606SOL     OW14716   6.766   6.925   4.367
 4606SOL    HW114717   6.801   6.922   4.273
 4606SOL    HW214718   6.728   7.015   4.386
 4607SOL     OW14719   2.691   1.938   1.121
 4607SOL    HW114720   2.710   1.856   1.067
 4607SOL    HW214721   2.707   2.019   1.065
 4608SOL     OW14722   0.530   2.238   5.538
 4608SOL    HW114723   0.614   2.189   5.562
 4608SOL    HW214724   0.519   2.318   5.598
 4609SOL     OW14725   6.325   5.259   6.272
 4609SOL    HW114726   6.413   5.280   6.229
 4609SOL    HW214727   6.305   5.162   6.261
 4610SOL     OW14728   5.341   4.175   6.288
 4610SOL    HW114729   5.399   4.094   6.277
 4610SOL    HW214730   5.382   4.236   6.356
 4611SOL     OW14731   0.104   0.446   6.800
 4611SOL    HW114732   0.060   0.475   6.715
 4611SOL    HW214733   0.044   0.381   6.848
 4612SOL     OW14734   1.876   0.690   2.560
 4612SOL    HW114735   1.912   0.763   2.502
 4612SOL    HW214736   1.948   0.655   2.619
 4613SOL     OW14737   1.584   5.003   3.221
 4613SOL    HW114738   1.658   5.062   3.253
 4613SOL    HW214739   1.504   5.015   3.281
 4614SOL     OW14740   0.031   4.719   2.756
 4614SOL    HW114741   0.100   4.649   2.739
 4614SOL    HW214742   0.035   4.788   2.684
 4615SOL     OW14743   1.034   4.464   6.868
 4615SOL    HW114744   1.037   4.366   6.884
 4615SOL    HW214745   1.116   4.493   6.818
 4616SOL     OW14746   1.819   4.381   6.109
 4616SOL    HW114747   1.863   4.370   6.020
 4616SOL    HW214748   1.888   4.399   6.179
 4617SOL     OW14749   0.661   4.188   4.100
 4617SOL    HW114750   0.755   4.166   4.125
 4617SOL    HW214751   0.659   4.224   4.006
 4618SOL     OW14752   2.022   4.386   5.270
 4618SOL    HW114753   2.025   4.330   5.353
 4618SOL    HW214754   2.082   4.346   5.200
 4619SOL     OW14755   4.074   5.819   6.725
 4619SOL    HW114756   4.042   5.797   6.817
 4619SOL    HW214757   4.127   5.743   6.688
 4620SOL     OW14758   1.342   4.219   1.486
 4620SOL    HW114759   1.410   4.232   1.414
 4620SOL    HW214760   1.382   4.242   1.575
 4621SOL     OW14761   2.839   0.355   2.989
 4621SOL    HW114762   2.798   0.265   2.977
 4621SOL    HW214763   2.768   0.422   3.007
 4622SOL     OW14764   6.152   0.097   0.159
 4622SOL    HW114765   6.221   0.131   0.222
 4622SOL    HW214766   6.104   0.174   0.117
 4623SOL     OW14767   3.093   4.863   3.179
 4623SOL    HW114768   3.031   4.849   3.256
 4623SOL    HW214769   3.066   4.802   3.104
 4624SOL     OW14770   5.351   1.804   0.691
 4624SOL    HW114771   5.433   1.760   0.654
 4624SOL    HW214772   5.358   1.808   0.791
 4625SOL     OW14773   0.538   6.458   1.995
 4625SOL    HW114774   0.549   6.400   1.914
 4625SOL    HW214775   0.613   6.441   2.059
 4626SOL     OW14776   4.131   3.668   1.973
 4626SOL    HW114777   4.167   3.640   2.063
 4626SOL    HW214778   4.098   3.762   1.978
 4627SOL     OW14779   5.827   6.706   4.344
 4627SOL    HW114780   5.788   6.771   4.278
 4627SOL    HW214781   5.784   6.719   4.433
 4628SOL     OW14782   6.636   4.519   2.968
 4628SOL    HW114783   6.639   4.423   2.938
 4628SOL    HW214784   6.621   4.578   2.889
 4629SOL     OW14785   1.268   5.285   1.116
 4629SOL    HW114786   1.345   5.222   1.115
 4629SOL    HW214787   1.183   5.234   1.105
 4630SOL     OW14788   1.918   3.865   1.177
 4630SOL    HW114789   1.893   3.769   1.159
 4630SOL    HW214790   2.017   3.876   1.167
 4631SOL     OW14791   6.274   1.924   2.442
 4631SOL    HW114792   6.246   1.896   2.534
 4631SOL    HW214793   6.328   1.851   2.400
 4632SOL     OW14794   2.961   4.946   3.668
 4632SOL    HW114795   2.953   4.897   3.755
 4632SOL    HW214796   2.928   5.040   3.680
 4633SOL     OW14797   5.338   3.226   4.144
 4633SOL    HW114798   5.337   3.142   4.198
 4633SOL    HW214799   5.429   3.240   4.106
 4634SOL     OW14800   3.769   3.000   5.085
 4634SOL    HW114801   3.701   2.947   5.136
 4634SOL    HW214802   3.740   3.096   5.081
 4635SOL     OW14803   4.102   0.270   2.656
 4635SOL    HW114804   4.161   0.224   2.589
 4635SOL    HW214805   4.031   0.206   2.688
 4636SOL     OW14806   1.829   5.579   6.756
 4636SOL    HW114807   1.796   5.540   6.842
 4636SOL    HW214808   1.756   5.577   6.688
 4637SOL     OW14809   1.791   2.545   3.369
 4637SOL    HW114810   1.853   2.479   3.410
 4637SOL    HW214811   1.779   2.523   3.272
 4638SOL     OW14812   4.289   4.326   6.870
 4638SOL    HW114813   4.260   4.238   6.833
 4638SOL    HW214814   4.383   4.319   6.905
 4639SOL     OW14815   4.292   2.226   1.522
 4639SOL    HW114816   4.194   2.246   1.520
 4639SOL    HW214817   4.307   2.142   1.574
 4640SOL     OW14818   0.192   2.691   0.550
 4640SOL    HW114819   0.245   2.685   0.635
 4640SOL    HW214820   0.174   2.599   0.515
 4641SOL     OW14821   1.311   5.840   4.660
 4641SOL    HW114822   1.370   5.802   4.731
 4641SOL    HW214823   1.222   5.794   4.661
 4642SOL     OW14824   5.976   1.421   6.456
 4642SOL    HW114825   5.916   1.407   6.536
 4642SOL    HW214826   6.050   1.483   6.481
 4643SOL     OW14827   0.589   1.953   6.744
 4643SOL    HW114828   0.524   2.005   6.800
 4643SOL    HW214829   0.574   1.855   6.759
 4644SOL     OW14830   1.028   1.436   1.185
 4644SOL    HW114831   1.025   1.502   1.260
 4644SOL    HW214832   1.002   1.346   1.220
 4645SOL     OW14833   5.806   2.266   5.900
 4645SOL    HW114834   5.845   2.299   5.986
 4645SOL    HW214835   5.708   2.287   5.898
 4646SOL     OW14836   1.598   4.172   2.411
 4646SOL    HW114837   1.620   4.126   2.498
 4646SOL    HW214838   1.503   4.204   2.415
 4647SOL     OW14839   2.005   6.078   2.622
 4647SOL    HW114840   1.917   6.043   2.653
 4647SOL    HW214841   2.066   6.089   2.700
 4648SOL     OW14842   2.272   0.708   4.117
 4648SOL    HW114843   2.207   0.728   4.044
 4648SOL    HW214844   2.242   0.753   4.201
 4649SOL     OW14845   4.924   2.876   0.577
 4649SOL    HW114846   4.992   2.820   0.623
 4649SOL    HW214847   4.970   2.946   0.521
 4650SOL     OW14848   3.496   5.229   0.552
 4650SOL    HW114849   3.450   5.310   0.517
 4650SOL    HW214850   3.448   5.147   0.521
 4651SOL     OW14851   1.192   3.542   0.089
 4651SOL    HW114852   1.210   3.482   0.167
 4651SOL    HW214853   1.274   3.597   0.070
 4652SOL     OW14854   0.593   0.244   5.582
 4652SOL    HW114855   0.652   0.233   5.502
 4652SOL    HW214856   0.597   0.339   5.614
 4653SOL     OW14857   0.308   6.506   0.720
 4653SOL    HW114858   0.268   6.491   0.629
 4653SOL    HW214859   0.356   6.594   0.721
 4654SOL     OW14860   0.564   1.243   5.359
 4654SOL    HW114861   0.529   1.300   5.285
 4654SOL    HW214862   0.660   1.266   5.375
 4655SOL     OW14863   5.495   5.108   2.921
 4655SOL    HW114864   5.562   5.064   2.860
 4655SOL    HW214865   5.532   5.195   2.953
 4656SOL     OW14866   5.799   0.787   1.924
 4656SOL    HW114867   5.806   0.788   1.825
 4656SOL    HW214868   5.853   0.712   1.961
 4657SOL     OW14869   3.808   1.826   2.678
 4657SOL    HW114870   3.727   1.768   2.668
 4657SOL    HW214871   3.789   1.916   2.638
 4658SOL     OW14872   1.633   1.754   0.322
 4658SOL    HW114873   1.718   1.707   0.348
 4658SOL    HW214874   1.654   1.850   0.303
 4659SOL     OW14875   2.019   4.932   0.680
 4659SOL    HW114876   2.079   4.996   0.631
 4659SOL    HW214877   2.030   4.944   0.778
 4660SOL     OW14878   0.174   5.037   4.258
 4660SOL    HW114879   0.256   5.090   4.237
 4660SOL    HW214880   0.177   5.008   4.353
 4661SOL     OW14881   1.048   0.810   5.725
 4661SOL    HW114882   1.069   0.906   5.745
 4661SOL    HW214883   1.110   0.751   5.777
 4662SOL     OW14884   2.896   0.761   6.090
 4662SOL    HW114885   2.939   0.849   6.109
 4662SOL    HW214886   2.897   0.743   5.991
 4663SOL     OW14887   0.425   0.980   1.372
 4663SOL    HW114888   0.498   0.977   1.303
 4663SOL    HW214889   0.464   0.963   1.463
 4664SOL     OW14890   5.852   6.375   4.686
 4664SOL    HW114891   5.797   6.299   4.721
 4664SOL    HW214892   5.936   6.383   4.740
 4665SOL     OW14893   0.177   0.891   2.937
 4665SOL    HW114894   0.247   0.915   3.004
 4665SOL    HW214895   0.167   0.792   2.933
 4666SOL     OW14896   1.549   2.405   6.401
 4666SOL    HW114897   1.477   2.469   6.429
 4666SOL    HW214898   1.518   2.353   6.322
 4667SOL     OW14899   6.858   2.925   1.278
 4667SOL    HW114900   6.824   2.898   1.187
 4667SOL    HW214901   6.844   3.023   1.291
 4668SOL     OW14902   4.856   1.347   5.663
 4668SOL    HW114903   4.890   1.420   5.722
 4668SOL    HW214904   4.932   1.288   5.635
 4669SOL     OW14905   5.429   6.985   6.060
 4669SOL    HW114906   5.408   6.929   6.140
 4669SOL    HW214907   5.346   7.001   6.007
 4670SOL     OW14908   0.591   3.171   0.248
 4670SOL    HW114909   0.681   3.192   0.210
 4670SOL    HW214910   0.529   3.248   0.232
 4671SOL     OW14911   6.811   2.032   1.938
 4671SOL    HW114912   6.810   1.996   2.031
 4671SOL    HW214913   6.853   2.123   1.938
 4672SOL     OW14914   3.646   3.038   0.810
 4672SOL    HW114915   3.568   2.989   0.849
 4672SOL    HW214916   3.696   2.978   0.748
 4673SOL     OW14917   5.221   0.677   1.220
 4673SOL    HW114918   5.317   0.649   1.210
 4673SOL    HW214919   5.166   0.598   1.248
 4674SOL     OW14920   1.055   3.275   0.434
 4674SOL    HW114921   1.008   3.275   0.522
 4674SOL    HW214922   0.988   3.268   0.360
 4675SOL     OW14923   1.772   5.965   0.438
 4675SOL    HW114924   1.736   6.057   0.418
 4675SOL    HW214925   1.771   5.949   0.536
 4676SOL     OW14926   1.024   5.755   4.709
 4676SOL    HW114927   0.937   5.732   4.665
 4676SOL    HW214928   1.010   5.761   4.808
 4677SOL     OW14929   4.340   6.944   6.774
 4677SOL    HW114930   4.403   7.018   6.750
 4677SOL    HW214931   4.391   6.867   6.811
 4678SOL     OW14932   2.526   4.586   0.444
 4678SOL    HW114933   2.491   4.650   0.512
 4678SOL    HW214934   2.552   4.500   0.489
 4679SOL     OW14935   2.316   6.687   5.368
 4679SOL    HW114936   2.323   6.723   5.275
 4679SOL    HW214937   2.316   6.587   5.365
 4680SOL     OW14938   1.152   5.493   6.233
 4680SOL    HW114939   1.090   5.554   6.185
 4680SOL    HW214940   1.235   5.480   6.179
 4681SOL     OW14941   7.024   5.736   4.954
 4681SOL    HW114942   7.001   5.812   4.894
 4681SOL    HW214943   6.947   5.715   5.014
 4682SOL     OW14944   3.264   0.742   0.895
 4682SOL    HW114945   3.243   0.665   0.834
 4682SOL    HW214946   3.224   0.826   0.858
 4683SOL     OW14947   0.545   4.884   3.603
 4683SOL    HW114948   0.581   4.841   3.686
 4683SOL    HW214949   0.545   4.818   3.529
 4684SOL     OW14950   1.818   1.385   4.904
 4684SOL    HW114951   1.882   1.323   4.948
 4684SOL    HW214952   1.845   1.480   4.922
 4685SOL     OW14953   5.586   4.185   4.172
 4685SOL    HW114954   5.624   4.176   4.079
 4685SOL    HW214955   5.487   4.173   4.168
 4686SOL     OW14956   5.321   5.231   6.383
 4686SOL    HW114957   5.345   5.312   6.437
 4686SOL    HW214958   5.301   5.257   6.289
 4687SOL     OW14959   4.677   0.409   4.672
 4687SOL    HW114960   4.761   0.442   4.715
 4687SOL    HW214961   4.700   0.352   4.593
 4688SOL     OW14962   6.909   1.127   0.875
 4688SOL    HW114963   6.987   1.157   0.820
 4688SOL    HW214964   6.930   1.140   0.972
 4689SOL     OW14965   2.003   5.731   4.152
 4689SOL    HW114966   1.996   5.633   4.172
 4689SOL    HW214967   1.985   5.783   4.235
 4690SOL     OW14968   2.248   1.576   0.682
 4690SOL    HW114969   2.258   1.485   0.723
 4690SOL    HW214970   2.161   1.581   0.633
 4691SOL     OW14971   3.188   4.310   0.143
 4691SOL    HW114972   3.166   4.364   0.063
 4691SOL    HW214973   3.225   4.369   0.215
 4692SOL     OW14974   1.224   5.024   3.591
 4692SOL    HW114975   1.237   5.011   3.689
 4692SOL    HW214976   1.126   5.030   3.571
 4693SOL     OW14977   0.680   1.820   2.348
 4693SOL    HW114978   0.727   1.758   2.411
 4693SOL    HW214979   0.747   1.875   2.299
 4694SOL     OW14980   1.342   1.024   5.038
 4694SOL    HW114981   1.423   0.989   5.084
 4694SOL    HW214982   1.311   1.108   5.083
 4695SOL     OW14983   3.451   3.754   3.158
 4695SOL    HW114984   3.505   3.809   3.094
 4695SOL    HW214985   3.381   3.703   3.108
 4696SOL     OW14986   6.717   3.261   0.753
 4696SOL    HW114987   6.643   3.217   0.803
 4696SOL    HW214988   6.796   3.199   0.749
 4697SOL     OW14989   1.079   5.860   6.531
 4697SOL    HW114990   1.023   5.869   6.449
 4697SOL    HW214991   1.106   5.950   6.563
 4698SOL     OW14992   5.940   3.144   2.032
 4698SOL    HW114993   5.993   3.224   2.060
 4698SOL    HW214994   5.931   3.081   2.110
 4699SOL     OW14995   6.846   7.018   3.375
 4699SOL    HW114996   6.749   6.999   3.393
 4699SOL    HW214997   6.883   6.948   3.314
 4700SOL     OW14998   4.896   0.061   6.117
 4700SOL    HW114999   4.902   0.095   6.211
 4700SOL    HW215000   4.806   0.022   6.101
 4701SOL     OW15001   2.070   0.595   6.694
 4701SOL    HW115002   2.064   0.689   6.658
 4701SOL    HW215003   2.004   0.537   6.648
 4702SOL     OW15004   3.485   2.831   0.864
 4702SOL    HW115005   3.400   2.785   0.839
 4702SOL    HW215006   3.515   2.798   0.953
 4703SOL     OW15007   0.842   6.627   2.780
 4703SOL    HW115008   0.755   6.577   2.780
 4703SOL    HW215009   0.830   6.714   2.733
 4704SOL     OW15010   4.805   6.642   6.287
 4704SOL    HW115011   4.896   6.625   6.324
 4704SOL    HW215012   4.779   6.736   6.305
 4705SOL     OW15013   3.762   2.871   4.832
 4705SOL    HW115014   3.797   2.897   4.922
 4705SOL    HW215015   3.744   2.773   4.829
 4706SOL     OW15016   5.670   3.914   6.982
 4706SOL    HW115017   5.766   3.925   7.007
 4706SOL    HW215018   5.662   3.849   6.907
 4707SOL     OW15019   2.671   4.982   0.486
 4707SOL    HW115020   2.674   5.040   0.405
 4707SOL    HW215021   2.589   4.925   0.483
 4708SOL     OW15022   1.575   3.146   2.532
 4708SOL    HW115023   1.490   3.136   2.480
 4708SOL    HW215024   1.646   3.184   2.473
 4709SOL     OW15025   2.807   3.967   0.695
 4709SOL    HW115026   2.735   3.904   0.723
 4709SOL    HW215027   2.834   3.948   0.601
 4710SOL     OW15028   4.943   3.294   1.309
 4710SOL    HW115029   4.936   3.285   1.209
 4710SOL    HW215030   4.958   3.204   1.349
 4711SOL     OW15031   2.647   6.977   3.640
 4711SOL    HW115032   2.631   7.018   3.730
 4711SOL    HW215033   2.738   6.933   3.640
 4712SOL     OW15034   1.744   3.664   6.998
 4712SOL    HW115035   1.806   3.602   6.950
 4712SOL    HW215036   1.728   3.745   6.942
 4713SOL     OW15037   0.609   5.286   0.920
 4713SOL    HW115038   0.616   5.384   0.942
 4713SOL    HW215039   0.622   5.233   1.004
 4714SOL     OW15040   4.377   2.710   1.448
 4714SOL    HW115041   4.371   2.621   1.402
 4714SOL    HW215042   4.472   2.728   1.473
 4715SOL     OW15043   4.906   3.752   4.831
 4715SOL    HW115044   4.839   3.822   4.809
 4715SOL    HW215045   4.866   3.685   4.893
 4716SOL     OW15046   2.422   5.427   6.393
 4716SOL    HW115047   2.353   5.498   6.378
 4716SOL    HW215048   2.377   5.337   6.394
 4717SOL     OW15049   2.144   5.481   4.853
 4717SOL    HW115050   2.215   5.425   4.896
 4717SOL    HW215051   2.075   5.505   4.921
 4718SOL     OW15052   5.081   6.793   0.199
 4718SOL    HW115053   5.152   6.861   0.181
 4718SOL    HW215054   5.121   6.715   0.247
 4719SOL     OW15055   4.549   3.482   1.723
 4719SOL    HW115056   4.512   3.573   1.705
 4719SOL    HW215057   4.643   3.490   1.756
 4720SOL     OW15058   2.500   1.688   2.827
 4720SOL    HW115059   2.502   1.648   2.735
 4720SOL    HW215060   2.514   1.617   2.895
 4721SOL     OW15061   1.575   1.204   1.702
 4721SOL    HW115062   1.634   1.281   1.728
 4721SOL    HW215063   1.631   1.122   1.688
 4722SOL     OW15064   2.725   0.508   2.627
 4722SOL    HW115065   2.660   0.563   2.678
 4722SOL    HW215066   2.809   0.560   2.613
 4723SOL     OW15067   3.171   0.141   5.439
 4723SOL    HW115068   3.126   0.205   5.502
 4723SOL    HW215069   3.102   0.082   5.397
 4724SOL     OW15070   4.734   5.414   0.915
 4724SOL    HW115071   4.688   5.454   0.994
 4724SOL    HW215072   4.686   5.331   0.887
 4725SOL     OW15073   5.908   5.207   2.932
 4725SOL    HW115074   5.934   5.110   2.936
 4725SOL    HW215075   5.972   5.256   2.873
 4726SOL     OW15076   0.126   6.319   4.516
 4726SOL    HW115077   0.072   6.274   4.444
 4726SOL    HW215078   0.095   6.413   4.528
 4727SOL     OW15079   5.573   6.752   1.900
 4727SOL    HW115080   5.536   6.684   1.964
 4727SOL    HW215081   5.504   6.824   1.885
 4728SOL     OW15082   6.775   0.109   6.695
 4728SOL    HW115083   6.802   0.197   6.656
 4728SOL    HW215084   6.711   0.125   6.771
 4729SOL     OW15085   3.145   0.853   1.128
 4729SOL    HW115086   3.174   0.761   1.155
 4729SOL    HW215087   3.116   0.903   1.210
 4730SOL     OW15088   1.900   0.364   6.077
 4730SOL    HW115089   1.998   0.382   6.088
 4730SOL    HW215090   1.856   0.445   6.036
 4731SOL     OW15091   4.616   1.265   5.800
 4731SOL    HW115092   4.701   1.258   5.748
 4731SOL    HW215093   4.542   1.219   5.750
 4732SOL     OW15094   0.812   6.989   0.356
 4732SOL    HW115095   0.880   0.029   0.325
 4732SOL    HW215096   0.808   6.913   0.291
 4733SOL     OW15097   6.291   3.723   3.382
 4733SOL    HW115098   6.357   3.706   3.455
 4733SOL    HW215099   6.339   3.748   3.298
 4734SOL     OW15100   6.394   3.913   5.486
 4734SOL    HW115101   6.299   3.907   5.456
 4734SOL    HW215102   6.420   4.009   5.496
 4735SOL     OW15103   0.722   4.333   3.395
 4735SOL    HW115104   0.626   4.353   3.413
 4735SOL    HW215105   0.754   4.263   3.459
 4736SOL     OW15106   2.033   6.898   2.672
 4736SOL    HW115107   2.131   6.912   2.658
 4736SOL    HW215108   1.986   6.894   2.584
 4737SOL     OW15109   3.437   4.936   1.888
 4737SOL    HW115110   3.504   4.864   1.906
 4737SOL    HW215111   3.367   4.934   1.959
 4738SOL     OW15112   1.180   7.020   2.688
 4738SOL    HW115113   1.274   0.022   2.669
 4738SOL    HW215114   1.119   0.030   2.617
 4739SOL     OW15115   3.844   0.212   1.538
 4739SOL    HW115116   3.807   0.200   1.630
 4739SOL    HW215117   3.779   0.174   1.471
 4740SOL     OW15118   0.831   1.751   4.048
 4740SOL    HW115119   0.826   1.707   4.138
 4740SOL    HW215120   0.877   1.839   4.056
 4741SOL     OW15121   4.096   3.541   2.863
 4741SOL    HW115122   4.128   3.598   2.939
 4741SOL    HW215123   3.996   3.535   2.866
 4742SOL     OW15124   5.188   1.172   1.993
 4742SOL    HW115125   5.104   1.209   2.031
 4742SOL    HW215126   5.219   1.230   1.917
 4743SOL     OW15127   0.920   5.080   0.939
 4743SOL    HW115128   0.976   5.047   1.016
 4743SOL    HW215129   0.871   5.163   0.965
 4744SOL     OW15130   1.822   5.651   1.528
 4744SOL    HW115131   1.844   5.645   1.431
 4744SOL    HW215132   1.834   5.746   1.558
 4745SOL     OW15133   1.669   3.329   0.070
 4745SOL    HW115134   1.700   3.417   0.036
 4745SOL    HW215135   1.621   3.280   7.025
 4746SOL     OW15136   5.266   5.529   4.560
 4746SOL    HW115137   5.280   5.477   4.644
 4746SOL    HW215138   5.178   5.504   4.520
 4747SOL     OW15139   4.413   0.675   0.671
 4747SOL    HW115140   4.421   0.576   0.680
 4747SOL    HW215141   4.323   0.698   0.634
 4748SOL     OW15142   2.023   6.733   3.330
 4748SOL    HW115143   2.043   6.644   3.289
 4748SOL    HW215144   2.082   6.747   3.410
 4749SOL     OW15145   2.357   1.066   0.928
 4749SOL    HW115146   2.289   1.008   0.883
 4749SOL    HW215147   2.372   1.035   1.022
 4750SOL     OW15148   4.983   3.350   6.606
 4750SOL    HW115149   4.993   3.449   6.613
 4750SOL    HW215150   5.016   3.320   6.516
 4751SOL     OW15151   4.523   1.482   2.438
 4751SOL    HW115152   4.563   1.557   2.490
 4751SOL    HW215153   4.449   1.440   2.491
 4752SOL     OW15154   5.695   0.743   0.052
 4752SOL    HW115155   5.709   0.676   7.006
 4752SOL    HW215156   5.640   0.702   0.125
 4753SOL     OW15157   2.840   5.740   5.210
 4753SOL    HW115158   2.810   5.691   5.128
 4753SOL    HW215159   2.878   5.829   5.184
 4754SOL     OW15160   5.220   4.719   6.969
 4754SOL    HW115161   5.220   4.656   6.891
 4754SOL    HW215162   5.295   4.785   6.958
 4755SOL     OW15163   0.223   1.049   1.223
 4755SOL    HW115164   0.303   1.032   1.281
 4755SOL    HW215165   0.254   1.071   1.130
 4756SOL     OW15166   0.082   3.711   5.360
 4756SOL    HW115167   0.171   3.670   5.381
 4756SOL    HW215168   0.070   3.714   5.261
 4757SOL     OW15169   2.198   2.942   0.678
 4757SOL    HW115170   2.230   2.971   0.768
 4757SOL    HW215171   2.128   3.005   0.645
 4758SOL     OW15172   2.202   4.868   2.254
 4758SOL    HW115173   2.198   4.906   2.346
 4758SOL    HW215174   2.280   4.907   2.205
 4759SOL     OW15175   0.554   6.858   2.839
 4759SOL    HW115176   0.624   6.864   2.768
 4759SOL    HW215177   0.580   6.787   2.905
 4760SOL     OW15178   1.099   6.704   2.068
 4760SOL    HW115179   1.158   6.689   1.988
 4760SOL    HW215180   1.146   6.671   2.150
 4761SOL     OW15181   4.769   6.404   1.862
 4761SOL    HW115182   4.759   6.498   1.893
 4761SOL    HW215183   4.864   6.374   1.876
 4762SOL     OW15184   1.038   1.408   2.496
 4762SOL    HW115185   1.135   1.384   2.502
 4762SOL    HW215186   1.011   1.460   2.576
 4763SOL     OW15187   5.202   5.229   1.701
 4763SOL    HW115188   5.142   5.175   1.760
 4763SOL    HW215189   5.149   5.302   1.658
 4764SOL     OW15190   4.860   2.842   6.546
 4764SOL    HW115191   4.897   2.809   6.633
 4764SOL    HW215192   4.770   2.802   6.531
 4765SOL     OW15193   3.888   1.119   6.004
 4765SOL    HW115194   3.884   1.085   6.098
 4765SOL    HW215195   3.811   1.082   5.952
 4766SOL     OW15196   0.992   0.958   4.362
 4766SOL    HW115197   1.084   0.920   4.361
 4766SOL    HW215198   0.995   1.053   4.392
 4767SOL     OW15199   2.546   4.827   3.610
 4767SOL    HW115200   2.620   4.794   3.551
 4767SOL    HW215201   2.491   4.750   3.641
 4768SOL     OW15202   4.684   1.678   6.445
 4768SOL    HW115203   4.605   1.642   6.495
 4768SOL    HW215204   4.698   1.624   6.362
 4769SOL     OW15205   2.545   3.239   0.372
 4769SOL    HW115206   2.533   3.335   0.347
 4769SOL    HW215207   2.638   3.210   0.348
 4770SOL     OW15208   6.828   1.624   3.699
 4770SOL    HW115209   6.737   1.626   3.740
 4770SOL    HW215210   6.897   1.628   3.772
 4771SOL     OW15211   3.031   0.885   4.244
 4771SOL    HW115212   3.039   0.817   4.171
 4771SOL    HW215213   3.114   0.884   4.300
 4772SOL     OW15214   2.823   4.739   2.956
 4772SOL    HW115215   2.759   4.799   3.003
 4772SOL    HW215216   2.775   4.688   2.885
 4773SOL     OW15217   2.994   5.535   4.086
 4773SOL    HW115218   3.083   5.491   4.090
 4773SOL    HW215219   2.954   5.539   4.177
 4774SOL     OW15220   1.040   4.756   0.671
 4774SOL    HW115221   1.052   4.777   0.574
 4774SOL    HW215222   1.123   4.782   0.720
 4775SOL     OW15223   5.826   5.032   4.504
 4775SOL    HW115224   5.838   4.934   4.522
 4775SOL    HW215225   5.885   5.060   4.429
 4776SOL     OW15226   6.783   1.746   5.250
 4776SOL    HW115227   6.794   1.766   5.153
 4776SOL    HW215228   6.808   1.650   5.268
 4777SOL     OW15229   1.359   6.701   3.711
 4777SOL    HW115230   1.412   6.650   3.643
 4777SOL    HW215231   1.414   6.778   3.745
 4778SOL     OW15232   1.611   6.963   0.733
 4778SOL    HW115233   1.520   6.977   0.694
 4778SOL    HW215234   1.606   6.967   0.833
 4779SOL     OW15235   4.663   1.465   4.477
 4779SOL    HW115236   4.593   1.534   4.460
 4779SOL    HW215237   4.712   1.487   4.562
 4780SOL     OW15238   4.942   2.638   4.904
 4780SOL    HW115239   4.980   2.721   4.864
 4780SOL    HW215240   4.850   2.656   4.938
 4781SOL     OW15241   1.918   5.026   2.210
 4781SOL    HW115242   1.899   5.124   2.204
 4781SOL    HW215243   2.014   5.013   2.233
 4782SOL     OW15244   0.844   6.067   3.256
 4782SOL    HW115245   0.828   6.134   3.184
 4782SOL    HW215246   0.939   6.074   3.287
 4783SOL     OW15247   0.932   3.630   6.809
 4783SOL    HW115248   1.027   3.651   6.788
 4783SOL    HW215249   0.910   3.665   6.900
 4784SOL     OW15250   5.779   3.003   0.154
 4784SOL    HW115251   5.822   2.967   0.237
 4784SOL    HW215252   5.739   3.093   0.174
 4785SOL     OW15253   6.988   0.847   3.935
 4785SOL    HW115254   6.977   0.882   3.842
 4785SOL    HW215255   0.042   0.788   3.939
 4786SOL     OW15256   1.622   5.701   0.442
 4786SOL    HW115257   1.711   5.736   0.412
 4786SOL    HW215258   1.552   5.769   0.423
 4787SOL     OW15259   5.284   1.024   5.084
 4787SOL    HW115260   5.350   0.952   5.104
 4787SOL    HW215261   5.237   1.003   4.998
 4788SOL     OW15262   6.695   5.909   1.144
 4788SOL    HW115263   6.602   5.873   1.151
 4788SOL    HW215264   6.705   5.957   1.057
 4789SOL     OW15265   6.081   1.306   2.444
 4789SOL    HW115266   6.024   1.236   2.486
 4789SOL    HW215267   6.154   1.263   2.391
 4790SOL     OW15268   6.816   2.651   5.766
 4790SOL    HW115269   6.834   2.706   5.684
 4790SOL    HW215270   6.903   2.625   5.807
 4791SOL     OW15271   0.281   0.699   7.025
 4791SOL    HW115272   0.309   0.663   6.937
 4791SOL    HW215273   0.220   0.633   0.043
 4792SOL     OW15274   0.294   3.696   1.471
 4792SOL    HW115275   0.264   3.640   1.394
 4792SOL    HW215276   0.215   3.717   1.529
 4793SOL     OW15277   0.941   3.029   5.303
 4793SOL    HW115278   0.983   2.964   5.240
 4793SOL    HW215279   0.982   3.119   5.291
 4794SOL     OW15280   5.388   1.096   6.706
 4794SOL    HW115281   5.380   1.091   6.607
 4794SOL    HW215282   5.304   1.061   6.748
 4795SOL     OW15283   7.010   0.729   6.710
 4795SOL    HW115284   0.023   0.815   6.741
 4795SOL    HW215285   6.942   0.697   6.777
 4796SOL     OW15286   5.768   1.194   5.491
 4796SOL    HW115287   5.813   1.148   5.567
 4796SOL    HW215288   5.779   1.140   5.408
 4797SOL     OW15289   2.910   4.854   5.420
 4797SOL    HW115290   3.007   4.874   5.408
 4797SOL    HW215291   2.863   4.934   5.457
 4798SOL     OW15292   3.130   5.998   0.099
 4798SOL    HW115293   3.160   5.920   0.044
 4798SOL    HW215294   3.031   6.006   0.095
 4799SOL     OW15295   4.258   3.777   1.026
 4799SOL    HW115296   4.232   3.708   0.958
 4799SOL    HW215297   4.289   3.731   1.110
 4800SOL     OW15298   0.715   4.987   0.543
 4800SOL    HW115299   0.744   4.909   0.599
 4800SOL    HW215300   0.770   5.067   0.566
 4801SOL     OW15301   4.887   2.970   3.603
 4801SOL    HW115302   4.816   2.911   3.564
 4801SOL    HW215303   4.965   2.914   3.631
 4802SOL     OW15304   0.011   0.939   5.338
 4802SOL    HW115305   6.938   0.945   5.334
 4802SOL    HW215306   0.049   1.030   5.353
 4803SOL     OW15307   5.320   3.163   5.267
 4803SOL    HW115308   5.339   3.107   5.187
 4803SOL    HW215309   5.391   3.148   5.336
 4804SOL     OW15310   5.351   3.103   0.720
 4804SOL    HW115311   5.373   3.200   0.733
 4804SOL    HW215312   5.433   3.053   0.691
 4805SOL     OW15313   5.435   0.659   6.778
 4805SOL    HW115314   5.419   0.615   6.690
 4805SOL    HW215315   5.436   0.758   6.765
 4806SOL     OW15316   1.293   2.801   3.427
 4806SOL    HW115317   1.360   2.810   3.501
 4806SOL    HW215318   1.231   2.879   3.428
 4807SOL     OW15319   0.973   3.733   0.044
 4807SOL    HW115320   0.979   3.795   0.121
 4807SOL    HW215321   1.049   3.668   0.046
 4808SOL     OW15322   3.234   6.406   2.686
 4808SOL    HW115323   3.182   6.412   2.600
 4808SOL    HW215324   3.256   6.499   2.717
 4809SOL     OW15325   2.756   3.803   0.275
 4809SOL    HW115326   2.757   3.750   0.189
 4809SOL    HW215327   2.694   3.881   0.266
 4810SOL     OW15328   1.862   4.791   4.728
 4810SOL    HW115329   1.942   4.835   4.767
 4810SOL    HW215330   1.845   4.828   4.637
 4811SOL     OW15331   2.873   3.516   4.545
 4811SOL    HW115332   2.796   3.482   4.598
 4811SOL    HW215333   2.939   3.560   4.606
 4812SOL     OW15334   2.724   6.494   1.521
 4812SOL    HW115335   2.626   6.476   1.532
 4812SOL    HW215336   2.750   6.480   1.425
 4813SOL     OW15337   1.057   2.424   4.466
 4813SOL    HW115338   1.071   2.464   4.556
 4813SOL    HW215339   1.026   2.330   4.475
 4814SOL     OW15340   5.274   0.949   1.182
 4814SOL    HW115341   5.223   0.994   1.109
 4814SOL    HW215342   5.224   0.868   1.212
 4815SOL     OW15343   6.321   4.652   3.051
 4815SOL    HW115344   6.373   4.574   3.085
 4815SOL    HW215345   6.366   4.688   2.969
 4816SOL     OW15346   2.142   0.307   2.665
 4816SOL    HW115347   2.080   0.245   2.712
 4816SOL    HW215348   2.234   0.299   2.704
 4817SOL     OW15349   3.496   2.654   0.265
 4817SOL    HW115350   3.496   2.687   0.360
 4817SOL    HW215351   3.555   2.713   0.210
 4818SOL     OW15352   4.914   6.605   5.063
 4818SOL    HW115353   4.854   6.538   5.108
 4818SOL    HW215354   4.934   6.680   5.127
 4819SOL     OW15355   3.702   0.761   0.184
 4819SOL    HW115356   3.636   0.716   0.245
 4819SOL    HW215357   3.710   0.857   0.208
 4820SOL     OW15358   0.127   4.731   1.893
 4820SOL    HW115359   0.180   4.648   1.905
 4820SOL    HW215360   0.125   4.782   1.980
 4821SOL     OW15361   6.853   6.201   1.584
 4821SOL    HW115362   6.857   6.105   1.613
 4821SOL    HW215363   6.883   6.209   1.489
 4822SOL     OW15364   0.330   3.989   1.371
 4822SOL    HW115365   0.298   4.022   1.460
 4822SOL    HW215366   0.373   3.900   1.383
 4823SOL     OW15367   6.948   1.973   2.722
 4823SOL    HW115368   6.961   2.005   2.628
 4823SOL    HW215369   6.979   2.044   2.785
 4824SOL     OW15370   5.057   2.203   2.361
 4824SOL    HW115371   5.153   2.207   2.333
 4824SOL    HW215372   5.024   2.109   2.356
 4825SOL     OW15373   1.567   3.177   4.422
 4825SOL    HW115374   1.563   3.258   4.480
 4825SOL    HW215375   1.497   3.183   4.351
 4826SOL     OW15376   0.419   6.462   0.291
 4826SOL    HW115377   0.450   6.373   0.259
 4826SOL    HW215378   0.441   6.532   0.223
 4827SOL     OW15379   5.081   1.223   0.179
 4827SOL    HW115380   4.996   1.219   0.125
 4827SOL    HW215381   5.084   1.145   0.242
 4828SOL     OW15382   5.946   3.253   6.847
 4828SOL    HW115383   5.941   3.300   6.759
 4828SOL    HW215384   5.955   3.155   6.832
 4829SOL     OW15385   2.487   0.173   5.681
 4829SOL    HW115386   2.412   0.118   5.717
 4829SOL    HW215387   2.452   0.263   5.652
 4830SOL     OW15388   4.921   4.663   4.531
 4830SOL    HW115389   4.973   4.726   4.589
 4830SOL    HW215390   4.829   4.698   4.518
 4831SOL     OW15391   6.314   2.425   6.421
 4831SOL    HW115392   6.353   2.472   6.500
 4831SOL    HW215393   6.214   2.427   6.427
 4832SOL     OW15394   1.296   2.805   6.276
 4832SOL    HW115395   1.391   2.793   6.247
 4832SOL    HW215396   1.237   2.745   6.222
 4833SOL     OW15397   6.409   2.865   3.020
 4833SOL    HW115398   6.493   2.841   2.973
 4833SOL    HW215399   6.336   2.803   2.992
 4834SOL     OW15400   5.454   0.890   3.099
 4834SOL    HW115401   5.383   0.908   3.030
 4834SOL    HW215402   5.509   0.812   3.070
 4835SOL     OW15403   2.034   1.568   6.355
 4835SOL    HW115404   2.037   1.629   6.276
 4835SOL    HW215405   2.127   1.549   6.387
 4836SOL     OW15406   5.779   4.149   3.099
 4836SOL    HW115407   5.711   4.109   3.161
 4836SOL    HW215408   5.866   4.102   3.109
 4837SOL     OW15409   0.263   4.878   2.108
 4837SOL    HW115410   0.241   4.966   2.067
 4837SOL    HW215411   0.283   4.890   2.205
 4838SOL     OW15412   2.615   5.536   2.646
 4838SOL    HW115413   2.705   5.493   2.644
 4838SOL    HW215414   2.549   5.475   2.602
 4839SOL     OW15415   0.919   0.223   6.533
 4839SOL    HW115416   0.944   0.319   6.520
 4839SOL    HW215417   0.974   0.165   6.472
 4840SOL     OW15418   6.688   5.813   6.254
 4840SOL    HW115419   6.624   5.886   6.278
 4840SOL    HW215420   6.759   5.807   6.323
 4841SOL     OW15421   1.933   5.869   1.372
 4841SOL    HW115422   1.864   5.910   1.313
 4841SOL    HW215423   2.023   5.904   1.348
 4842SOL     OW15424   3.564   6.356   0.458
 4842SOL    HW115425   3.528   6.403   0.377
 4842SOL    HW215426   3.642   6.408   0.494
 4843SOL     OW15427   1.499   3.832   0.339
 4843SOL    HW115428   1.532   3.909   0.394
 4843SOL    HW215429   1.415   3.859   0.293
 4844SOL     OW15430   0.446   1.418   5.171
 4844SOL    HW115431   0.391   1.479   5.114
 4844SOL    HW215432   0.529   1.392   5.120
 4845SOL     OW15433   5.062   6.439   3.360
 4845SOL    HW115434   5.103   6.457   3.449
 4845SOL    HW215435   4.982   6.498   3.347
 4846SOL     OW15436   6.590   4.884   6.323
 4846SOL    HW115437   6.617   4.843   6.410
 4846SOL    HW215438   6.625   4.829   6.248
 4847SOL     OW15439   4.877   2.836   4.587
 4847SOL    HW115440   4.927   2.923   4.581
 4847SOL    HW215441   4.941   2.761   4.603
 4848SOL     OW15442   2.863   3.175   1.406
 4848SOL    HW115443   2.805   3.257   1.409
 4848SOL    HW215444   2.834   3.110   1.476
 4849SOL     OW15445   2.203   5.912   6.451
 4849SOL    HW115446   2.145   5.835   6.478
 4849SOL    HW215447   2.181   5.991   6.509
 4850SOL     OW15448   3.254   0.070   2.698
 4850SOL    HW115449   3.276   7.016   2.644
 4850SOL    HW215450   3.156   0.076   2.713
 4851SOL     OW15451   5.097   1.163   5.574
 4851SOL    HW115452   5.193   1.187   5.589
 4851SOL    HW215453   5.065   1.104   5.648
 4852SOL     OW15454   1.614   1.922   1.513
 4852SOL    HW115455   1.541   1.954   1.453
 4852SOL    HW215456   1.654   2.000   1.562
 4853SOL     OW15457   3.928   1.473   1.480
 4853SOL    HW115458   3.873   1.468   1.397
 4853SOL    HW215459   3.868   1.468   1.560
 4854SOL     OW15460   3.850   0.018   5.864
 4854SOL    HW115461   3.857   0.038   5.766
 4854SOL    HW215462   3.784   6.971   5.879
 4855SOL     OW15463   0.432   2.694   2.665
 4855SOL    HW115464   0.504   2.670   2.730
 4855SOL    HW215465   0.457   2.779   2.618
 4856SOL     OW15466   0.496   4.486   2.466
 4856SOL    HW115467   0.420   4.536   2.425
 4856SOL    HW215468   0.518   4.525   2.555
 4857SOL     OW15469   0.160   0.745   5.238
 4857SOL    HW115470   0.236   0.792   5.192
 4857SOL    HW215471   0.099   0.813   5.279
 4858SOL     OW15472   1.585   0.641   3.860
 4858SOL    HW115473   1.635   0.569   3.907
 4858SOL    HW215474   1.553   0.709   3.926
 4859SOL     OW15475   3.637   6.039   5.760
 4859SOL    HW115476   3.686   6.124   5.738
 4859SOL    HW215477   3.684   5.992   5.835
 4860SOL     OW15478   3.132   5.206   0.226
 4860SOL    HW115479   3.092   5.298   0.225
 4860SOL    HW215480   3.066   5.141   0.190
 4861SOL     OW15481   4.212   4.073   6.253
 4861SOL    HW115482   4.166   4.051   6.167
 4861SOL    HW215483   4.145   4.105   6.320
 4862SOL     OW15484   1.920   0.190   0.416
 4862SOL    HW115485   1.884   0.274   0.375
 4862SOL    HW215486   2.019   0.197   0.424
 4863SOL     OW15487   5.455   3.722   5.927
 4863SOL    HW115488   5.550   3.739   5.900
 4863SOL    HW215489   5.394   3.763   5.859
 4864SOL     OW15490   3.282   1.230   4.291
 4864SOL    HW115491   3.295   1.325   4.321
 4864SOL    HW215492   3.342   1.212   4.213
 4865SOL     OW15493   1.378   6.267   5.727
 4865SOL    HW115494   1.406   6.317   5.646
 4865SOL    HW215495   1.428   6.301   5.806
 4866SOL     OW15496   0.329   4.500   5.902
 4866SOL    HW115497   0.308   4.535   5.811
 4866SOL    HW215498   0.243   4.483   5.951
 4867SOL     OW15499   3.731   1.111   3.172
 4867SOL    HW115500   3.683   1.024   3.176
 4867SOL    HW215501   3.729   1.154   3.262
 4868SOL     OW15502   0.204   5.154   0.672
 4868SOL    HW115503   0.179   5.219   0.743
 4868SOL    HW215504   0.291   5.111   0.695
 4869SOL     OW15505   0.177   1.419   0.906
 4869SOL    HW115506   0.108   1.485   0.876
 4869SOL    HW215507   0.266   1.465   0.916
 4870SOL     OW15508   6.973   6.815   1.066
 4870SOL    HW115509   6.979   6.809   0.966
 4870SOL    HW215510   6.910   6.888   1.091
 4871SOL     OW15511   0.591   1.938   3.367
 4871SOL    HW115512   0.565   1.853   3.413
 4871SOL    HW215513   0.689   1.952   3.375
 4872SOL     OW15514   5.598   0.166   3.231
 4872SOL    HW115515   5.636   0.083   3.190
 4872SOL    HW215516   5.609   0.163   3.330
 4873SOL     OW15517   6.882   5.735   3.465
 4873SOL    HW115518   6.882   5.658   3.529
 4873SOL    HW215519   6.794   5.781   3.468
 4874SOL     OW15520   5.728   4.522   2.122
 4874SOL    HW115521   5.732   4.438   2.069
 4874SOL    HW215522   5.669   4.508   2.202
 4875SOL     OW15523   5.918   6.968   4.555
 4875SOL    HW115524   5.969   6.998   4.635
 4875SOL    HW215525   5.938   6.871   4.537
 4876SOL     OW15526   6.698   1.619   2.233
 4876SOL    HW115527   6.741   1.652   2.316
 4876SOL    HW215528   6.739   1.532   2.206
 4877SOL     OW15529   0.243   1.377   6.773
 4877SOL    HW115530   0.252   1.466   6.727
 4877SOL    HW215531   0.244   1.391   6.872
 4878SOL     OW15532   6.396   4.294   3.742
 4878SOL    HW115533   6.461   4.218   3.753
 4878SOL    HW215534   6.444   4.375   3.710
 4879SOL     OW15535   5.399   0.388   3.135
 4879SOL    HW115536   5.447   0.313   3.179
 4879SOL    HW215537   5.458   0.468   3.131
 4880SOL     OW15538   7.027   2.995   6.820
 4880SOL    HW115539   0.036   2.921   6.878
 4880SOL    HW215540   6.929   3.006   6.839
 4881SOL     OW15541   0.080   3.618   1.883
 4881SOL    HW115542   0.153   3.574   1.936
 4881SOL    HW215543   0.009   3.551   1.862
 4882SOL     OW15544   5.335   2.310   4.466
 4882SOL    HW115545   5.374   2.401   4.479
 4882SOL    HW215546   5.246   2.317   4.423
 4883SOL     OW15547   0.143   4.449   6.909
 4883SOL    HW115548   0.057   4.489   6.879
 4883SOL    HW215549   0.131   4.409   7.000
 4884SOL     OW15550   2.260   1.989   2.043
 4884SOL    HW115551   2.189   1.922   2.063
 4884SOL    HW215552   2.319   1.955   1.969
 4885SOL     OW15553   1.154   5.011   6.762
 4885SOL    HW115554   1.190   4.927   6.802
 4885SOL    HW215555   1.169   5.087   6.825
 4886SOL     OW15556   2.819   0.678   2.338
 4886SOL    HW115557   2.895   0.686   2.402
 4886SOL    HW215558   2.732   0.685   2.387
 4887SOL     OW15559   4.742   5.379   0.581
 4887SOL    HW115560   4.719   5.290   0.540
 4887SOL    HW215561   4.833   5.407   0.550
 4888SOL     OW15562   4.484   0.724   2.862
 4888SOL    HW115563   4.399   0.705   2.909
 4888SOL    HW215564   4.489   0.667   2.779
 4889SOL     OW15565   5.739   3.537   3.836
 4889SOL    HW115566   5.646   3.569   3.819
 4889SOL    HW215567   5.736   3.444   3.874
 4890SOL     OW15568   6.310   2.016   4.707
 4890SOL    HW115569   6.280   2.111   4.716
 4890SOL    HW215570   6.338   1.982   4.796
 4891SOL     OW15571   2.157   6.079   0.153
 4891SOL    HW115572   2.109   6.139   0.216
 4891SOL    HW215573   2.198   6.003   0.203
 4892SOL     OW15574   5.139   5.182   2.125
 4892SOL    HW115575   5.057   5.199   2.181
 4892SOL    HW215576   5.214   5.153   2.184
 4893SOL     OW15577   1.843   2.577   1.429
 4893SOL    HW115578   1.930   2.593   1.476
 4893SOL    HW215579   1.800   2.495   1.466
 4894SOL     OW15580   5.050   6.193   0.459
 4894SOL    HW115581   5.115   6.121   0.482
 4894SOL    HW215582   4.959   6.168   0.494
 4895SOL     OW15583   6.157   3.379   4.975
 4895SOL    HW115584   6.160   3.405   5.072
 4895SOL    HW215585   6.234   3.422   4.927
 4896SOL     OW15586   2.620   5.264   4.535
 4896SOL    HW115587   2.532   5.298   4.568
 4896SOL    HW215588   2.620   5.164   4.538
 4897SOL     OW15589   2.145   1.728   5.452
 4897SOL    HW115590   2.107   1.817   5.481
 4897SOL    HW215591   2.223   1.744   5.392
 4898SOL     OW15592   4.162   1.957   3.719
 4898SOL    HW115593   4.129   2.033   3.776
 4898SOL    HW215594   4.191   1.882   3.778
 4899SOL     OW15595   6.680   6.805   1.607
 4899SOL    HW115596   6.739   6.783   1.529
 4899SOL    HW215597   6.585   6.810   1.576
 4900SOL     OW15598   3.639   5.775   6.186
 4900SOL    HW115599   3.589   5.732   6.111
 4900SOL    HW215600   3.735   5.787   6.160
 4901SOL     OW15601   1.778   0.688   0.275
 4901SOL    HW115602   1.787   0.729   0.185
 4901SOL    HW215603   1.764   0.760   0.343
 4902SOL     OW15604   2.124   0.264   5.718
 4902SOL    HW115605   2.024   0.261   5.724
 4902SOL    HW215606   2.158   0.182   5.672
 4903SOL     OW15607   4.816   4.051   2.387
 4903SOL    HW115608   4.753   4.119   2.423
 4903SOL    HW215609   4.904   4.093   2.367
 4904SOL     OW15610   1.863   0.840   2.116
 4904SOL    HW115611   1.813   0.779   2.056
 4904SOL    HW215612   1.799   0.902   2.161
 4905SOL     OW15613   2.643   1.184   2.146
 4905SOL    HW115614   2.583   1.130   2.205
 4905SOL    HW215615   2.667   1.269   2.192
 4906SOL     OW15616   5.094   3.109   4.641
 4906SOL    HW115617   5.140   3.157   4.717
 4906SOL    HW215618   5.110   3.159   4.556
 4907SOL     OW15619   3.507   2.479   0.763
 4907SOL    HW115620   3.583   2.470   0.827
 4907SOL    HW215621   3.538   2.526   0.680
 4908SOL     OW15622   2.640   6.489   6.153
 4908SOL    HW115623   2.685   6.498   6.241
 4908SOL    HW215624   2.708   6.484   6.080
 4909SOL     OW15625   4.897   5.757   4.636
 4909SOL    HW115626   4.891   5.704   4.720
 4909SOL    HW215627   4.990   5.791   4.625
 4910SOL     OW15628   4.494   1.843   6.798
 4910SOL    HW115629   4.456   1.935   6.811
 4910SOL    HW215630   4.593   1.847   6.805
 4911SOL     OW15631   6.740   4.468   3.439
 4911SOL    HW115632   6.683   4.388   3.422
 4911SOL    HW215633   6.737   4.528   3.359
 4912SOL     OW15634   5.715   2.835   4.205
 4912SOL    HW115635   5.706   2.925   4.247
 4912SOL    HW215636   5.626   2.790   4.204
 4913SOL     OW15637   1.033   3.750   5.541
 4913SOL    HW115638   0.979   3.828   5.570
 4913SOL    HW215639   0.986   3.665   5.567
 4914SOL     OW15640   3.302   6.909   3.846
 4914SOL    HW115641   3.228   6.947   3.902
 4914SOL    HW215642   3.311   6.811   3.865
 4915SOL     OW15643   4.212   5.856   5.416
 4915SOL    HW115644   4.239   5.816   5.504
 4915SOL    HW215645   4.112   5.856   5.409
 4916SOL     OW15646   5.583   2.501   3.519
 4916SOL    HW115647   5.582   2.550   3.606
 4916SOL    HW215648   5.513   2.538   3.459
 4917SOL     OW15649   4.927   6.424   6.605
 4917SOL    HW115650   4.890   6.433   6.698
 4917SOL    HW215651   4.882   6.347   6.559
 4918SOL     OW15652   5.215   6.189   3.757
 4918SOL    HW115653   5.302   6.239   3.752
 4918SOL    HW215654   5.223   6.115   3.823
 4919SOL     OW15655   4.034   3.918   1.956
 4919SOL    HW115656   3.939   3.942   1.938
 4919SOL    HW215657   4.088   4.002   1.969
 4920SOL     OW15658   6.406   0.996   5.749
 4920SOL    HW115659   6.439   0.906   5.721
 4920SOL    HW215660   6.435   1.064   5.681
 4921SOL     OW15661   6.513   0.234   2.581
 4921SOL    HW115662   6.585   0.289   2.539
 4921SOL    HW215663   6.552   0.172   2.648
 4922SOL     OW15664   3.707   0.863   6.098
 4922SOL    HW115665   3.720   0.764   6.105
 4922SOL    HW215666   3.755   0.909   6.172
 4923SOL     OW15667   4.176   1.376   1.488
 4923SOL    HW115668   4.231   1.458   1.472
 4923SOL    HW215669   4.080   1.396   1.471
 4924SOL     OW15670   3.078   1.485   4.970
 4924SOL    HW115671   3.138   1.555   5.009
 4924SOL    HW215672   3.116   1.395   4.991
 4925SOL     OW15673   4.907   0.305   4.355
 4925SOL    HW115674   4.927   0.256   4.440
 4925SOL    HW215675   4.808   0.316   4.346
 4926SOL     OW15676   4.716   2.458   1.876
 4926SOL    HW115677   4.714   2.548   1.919
 4926SOL    HW215678   4.766   2.463   1.790
 4927SOL     OW15679   2.326   0.919   0.282
 4927SOL    HW115680   2.270   0.848   0.241
 4927SOL    HW215681   2.406   0.937   0.224
 4928SOL     OW15682   0.509   1.798   1.277
 4928SOL    HW115683   0.437   1.802   1.347
 4928SOL    HW215684   0.578   1.731   1.304
 4929SOL     OW15685   6.696   0.059   4.769
 4929SOL    HW115686   6.760   0.114   4.823
 4929SOL    HW215687   6.737   6.997   4.750
 4930SOL     OW15688   4.285   6.124   3.019
 4930SOL    HW115689   4.230   6.117   3.103
 4930SOL    HW215690   4.299   6.032   2.981
 4931SOL     OW15691   5.552   0.237   1.547
 4931SOL    HW115692   5.565   0.254   1.645
 4931SOL    HW215693   5.517   0.145   1.533
 4932SOL     OW15694   3.697   3.939   3.038
 4932SOL    HW115695   3.659   3.995   3.111
 4932SOL    HW215696   3.691   3.988   2.951
 4933SOL     OW15697   1.836   6.824   5.119
 4933SOL    HW115698   1.869   6.752   5.180
 4933SOL    HW215699   1.838   6.791   5.024
 4934SOL     OW15700   2.391   0.062   3.070
 4934SOL    HW115701   2.382   6.997   3.108
 4934SOL    HW215702   2.317   0.120   3.106
 4935SOL     OW15703   5.911   0.194   4.956
 4935SOL    HW115704   6.002   0.185   4.998
 4935SOL    HW215705   5.921   0.220   4.860
 4936SOL     OW15706   4.475   2.990   0.325
 4936SOL    HW115707   4.408   3.011   0.397
 4936SOL    HW215708   4.563   3.030   0.350
 4937SOL     OW15709   3.838   2.800   5.266
 4937SOL    HW115710   3.792   2.864   5.327
 4937SOL    HW215711   3.827   2.830   5.171
 4938SOL     OW15712   3.089   4.559   0.350
 4938SOL    HW115713   3.131   4.649   0.334
 4938SOL    HW215714   2.990   4.571   0.362
 4939SOL     OW15715   4.794   3.518   6.403
 4939SOL    HW115716   4.855   3.440   6.389
 4939SOL    HW215717   4.750   3.542   6.316
 4940SOL     OW15718   1.324   5.883   3.755
 4940SOL    HW115719   1.234   5.841   3.763
 4940SOL    HW215720   1.384   5.848   3.827
 4941SOL     OW15721   5.911   1.198   1.237
 4941SOL    HW115722   5.981   1.209   1.308
 4941SOL    HW215723   5.934   1.119   1.180
 4942SOL     OW15724   5.422   2.238   5.483
 4942SOL    HW115725   5.356   2.248   5.408
 4942SOL    HW215726   5.419   2.144   5.517
 4943SOL     OW15727   5.758   3.064   1.373
 4943SOL    HW115728   5.705   3.010   1.438
 4943SOL    HW215729   5.724   3.048   1.280
 4944SOL     OW15730   1.857   3.299   1.991
 4944SOL    HW115731   1.769   3.332   1.958
 4944SOL    HW215732   1.919   3.285   1.914
 4945SOL     OW15733   6.864   6.051   4.121
 4945SOL    HW115734   6.916   5.967   4.110
 4945SOL    HW215735   6.814   6.049   4.208
 4946SOL     OW15736   0.280   4.491   1.928
 4946SOL    HW115737   0.344   4.439   1.985
 4946SOL    HW215738   0.196   4.439   1.915
 4947SOL     OW15739   6.018   0.474   0.673
 4947SOL    HW115740   6.084   0.417   0.721
 4947SOL    HW215741   6.058   0.508   0.588
 4948SOL     OW15742   2.359   1.484   2.002
 4948SOL    HW115743   2.284   1.507   1.940
 4948SOL    HW215744   2.411   1.407   1.966
 4949SOL     OW15745   6.034   2.177   5.758
 4949SOL    HW115746   6.019   2.086   5.719
 4949SOL    HW215747   5.972   2.191   5.835
 4950SOL     OW15748   3.267   5.524   4.125
 4950SOL    HW115749   3.224   5.458   4.187
 4950SOL    HW215750   3.327   5.584   4.178
 4951SOL     OW15751   4.618   2.301   3.565
 4951SOL    HW115752   4.640   2.206   3.545
 4951SOL    HW215753   4.615   2.315   3.664
 4952SOL     OW15754   6.544   4.715   4.388
 4952SOL    HW115755   6.642   4.737   4.384
 4952SOL    HW215756   6.529   4.639   4.451
 4953SOL     OW15757   1.104   4.658   2.063
 4953SOL    HW115758   1.107   4.733   1.996
 4953SOL    HW215759   1.114   4.571   2.015
 4954SOL     OW15760   6.779   6.169   6.243
 4954SOL    HW115761   6.745   6.237   6.178
 4954SOL    HW215762   6.834   6.101   6.193
 4955SOL     OW15763   1.927   0.084   1.891
 4955SOL    HW115764   2.012   0.113   1.937
 4955SOL    HW215765   1.898   0.155   1.827
 4956SOL     OW15766   5.942   6.435   3.437
 4956SOL    HW115767   6.014   6.452   3.371
 4956SOL    HW215768   5.854   6.464   3.400
 4957SOL     OW15769   1.149   5.457   4.213
 4957SOL    HW115770   1.168   5.410   4.127
 4957SOL    HW215771   1.058   5.497   4.211
 4958SOL     OW15772   0.024   6.960   0.057
 4958SOL    HW115773   0.041   6.893   7.011
 4958SOL    HW215774   6.967   7.010   0.038
 4959SOL     OW15775   0.787   2.197   0.278
 4959SOL    HW115776   0.767   2.197   0.376
 4959SOL    HW215777   0.825   2.108   0.253
 4960SOL     OW15778   3.395   7.018   5.486
 4960SOL    HW115779   3.382   6.988   5.580
 4960SOL    HW215780   3.320   0.053   5.461
 4961SOL     OW15781   4.899   0.117   5.245
 4961SOL    HW115782   4.908   0.042   5.310
 4961SOL    HW215783   4.963   0.105   5.170
 4962SOL     OW15784   6.370   2.326   2.272
 4962SOL    HW115785   6.368   2.294   2.178
 4962SOL    HW215786   6.281   2.364   2.297
 4963SOL     OW15787   0.673   4.049   1.150
 4963SOL    HW115788   0.659   4.106   1.232
 4963SOL    HW215789   0.614   4.082   1.076
 4964SOL     OW15790   3.041   6.901   3.007
 4964SOL    HW115791   3.116   6.967   3.011
 4964SOL    HW215792   3.078   6.808   3.018
 4965SOL     OW15793   0.189   5.847   5.505
 4965SOL    HW115794   0.096   5.813   5.507
 4965SOL    HW215795   0.190   5.943   5.534
 4966SOL     OW15796   5.255   5.489   5.675
 4966SOL    HW115797   5.282   5.579   5.640
 4966SOL    HW215798   5.243   5.426   5.598
 4967SOL     OW15799   5.615   0.955   6.902
 4967SOL    HW115800   5.626   0.877   6.963
 4967SOL    HW215801   5.518   0.974   6.887
 4968SOL     OW15802   5.394   3.818   6.522
 4968SOL    HW115803   5.385   3.737   6.581
 4968SOL    HW215804   5.440   3.891   6.573
 4969SOL     OW15805   1.658   1.013   1.394
 4969SOL    HW115806   1.581   0.966   1.349
 4969SOL    HW215807   1.744   0.972   1.364
 4970SOL     OW15808   1.695   2.055   6.630
 4970SOL    HW115809   1.706   2.144   6.585
 4970SOL    HW215810   1.777   2.034   6.683
 4971SOL     OW15811   6.105   5.370   3.738
 4971SOL    HW115812   6.133   5.398   3.829
 4971SOL    HW215813   6.009   5.396   3.723
 4972SOL     OW15814   1.451   2.179   4.998
 4972SOL    HW115815   1.446   2.279   5.001
 4972SOL    HW215816   1.454   2.143   5.092
 4973SOL     OW15817   4.939   5.737   3.233
 4973SOL    HW115818   4.923   5.812   3.169
 4973SOL    HW215819   5.014   5.761   3.294
 4974SOL     OW15820   3.851   6.601   6.147
 4974SOL    HW115821   3.915   6.527   6.162
 4974SOL    HW215822   3.795   6.615   6.229
 4975SOL     OW15823   4.093   6.107   0.303
 4975SOL    HW115824   4.181   6.139   0.269
 4975SOL    HW215825   4.091   6.007   0.305
 4976SOL     OW15826   2.435   1.207   4.576
 4976SOL    HW115827   2.437   1.218   4.675
 4976SOL    HW215828   2.511   1.149   4.547
 4977SOL     OW15829   3.953   3.487   1.859
 4977SOL    HW115830   3.999   3.572   1.885
 4977SOL    HW215831   4.015   3.430   1.806
 4978SOL     OW15832   6.445   3.877   6.202
 4978SOL    HW115833   6.524   3.845   6.254
 4978SOL    HW215834   6.456   3.851   6.106
 4979SOL     OW15835   2.113   2.131   3.384
 4979SOL    HW115836   2.164   2.045   3.381
 4979SOL    HW215837   2.112   2.171   3.292
 4980SOL     OW15838   2.192   4.653   3.161
 4980SOL    HW115839   2.240   4.670   3.075
 4980SOL    HW215840   2.211   4.726   3.226
 4981SOL     OW15841   5.552   5.909   5.411
 4981SOL    HW115842   5.486   5.982   5.429
 4981SOL    HW215843   5.635   5.949   5.370
 4982SOL     OW15844   2.696   1.068   6.763
 4982SOL    HW115845   2.693   1.116   6.851
 4982SOL    HW215846   2.604   1.037   6.739
 4983SOL     OW15847   6.902   2.283   3.989
 4983SOL    HW115848   6.808   2.250   3.986
 4983SOL    HW215849   6.926   2.311   4.082
 4984SOL     OW15850   5.371   4.998   3.589
 4984SOL    HW115851   5.291   5.059   3.591
 4984SOL    HW215852   5.437   5.027   3.659
 4985SOL     OW15853   5.557   3.560   2.185
 4985SOL    HW115854   5.595   3.614   2.260
 4985SOL    HW215855   5.481   3.611   2.144
 4986SOL     OW15856   4.540   4.985   3.671
 4986SOL    HW115857   4.597   5.019   3.596
 4986SOL    HW215858   4.445   4.977   3.640
 4987SOL     OW15859   1.192   2.816   0.273
 4987SOL    HW115860   1.267   2.755   0.299
 4987SOL    HW215861   1.221   2.911   0.284
 4988SOL     OW15862   2.454   2.042   4.889
 4988SOL    HW115863   2.360   2.052   4.855
 4988SOL    HW215864   2.453   2.038   4.989
 4989SOL     OW15865   0.235   0.722   0.654
 4989SOL    HW115866   0.209   0.632   0.690
 4989SOL    HW215867   0.328   0.744   0.684
 4990SOL     OW15868   1.827   2.102   0.014
 4990SOL    HW115869   1.923   2.103   0.041
 4990SOL    HW215870   1.795   2.008   0.007
 4991SOL     OW15871   2.547   1.603   5.816
 4991SOL    HW115872   2.594   1.623   5.902
 4991SOL    HW215873   2.452   1.635   5.821
 4992SOL     OW15874   4.146   0.143   4.858
 4992SOL    HW115875   4.206   0.078   4.904
 4992SOL    HW215876   4.190   0.176   4.775
 4993SOL     OW15877   1.852   6.661   4.845
 4993SOL    HW115878   1.926   6.595   4.853
 4993SOL    HW215879   1.769   6.614   4.815
 4994SOL     OW15880   0.472   5.551   3.105
 4994SOL    HW115881   0.422   5.627   3.148
 4994SOL    HW215882   0.503   5.579   3.015
 4995SOL     OW15883   5.501   2.694   5.285
 4995SOL    HW115884   5.401   2.701   5.284
 4995SOL    HW215885   5.528   2.605   5.322
 4996SOL     OW15886   0.579   1.859   3.852
 4996SOL    HW115887   0.607   1.774   3.807
 4996SOL    HW215888   0.480   1.859   3.866
 4997SOL     OW15889   6.885   2.522   3.872
 4997SOL    HW115890   6.912   2.432   3.908
 4997SOL    HW215891   6.867   2.514   3.774
 4998SOL     OW15892   1.163   5.717   5.869
 4998SOL    HW115893   1.094   5.780   5.832
 4998SOL    HW215894   1.253   5.744   5.834
 4999SOL     OW15895   5.831   4.857   1.123
 4999SOL    HW115896   5.754   4.916   1.095
 4999SOL    HW215897   5.905   4.914   1.158
 5000SOL     OW15898   6.272   5.363   4.318
 5000SOL    HW115899   6.235   5.315   4.398
 5000SOL    HW215900   6.246   5.459   4.322
 5001SOL     OW15901   4.954   3.430   5.298
 5001SOL    HW115902   4.922   3.337   5.279
 5001SOL    HW215903   4.916   3.461   5.385
 5002SOL     OW15904   1.663   2.135   1.665
 5002SOL    HW115905   1.730   2.091   1.725
 5002SOL    HW215906   1.630   2.219   1.708
 5003SOL     OW15907   6.599   5.303   4.668
 5003SOL    HW115908   6.602   5.268   4.761
 5003SOL    HW215909   6.505   5.327   4.644
 5004SOL     OW15910   2.074   4.160   6.005
 5004SOL    HW115911   2.064   4.234   5.939
 5004SOL    HW215912   2.171   4.149   6.028
 5005SOL     OW15913   5.009   2.543   0.306
 5005SOL    HW115914   5.044   2.578   0.393
 5005SOL    HW215915   5.046   2.451   0.290
 5006SOL     OW15916   4.840   4.862   2.440
 5006SOL    HW115917   4.780   4.942   2.443
 5006SOL    HW215918   4.808   4.799   2.369
 5007SOL     OW15919   4.241   1.071   4.706
 5007SOL    HW115920   4.262   1.137   4.778
 5007SOL    HW215921   4.315   1.004   4.701
 5008SOL     OW15922   6.153   1.865   4.208
 5008SOL    HW115923   6.138   1.920   4.290
 5008SOL    HW215924   6.251   1.846   4.198
 5009SOL     OW15925   2.802   6.404   1.765
 5009SOL    HW115926   2.771   6.422   1.672
 5009SOL    HW215927   2.902   6.406   1.767
 5010SOL     OW15928   3.367   3.221   6.288
 5010SOL    HW115929   3.458   3.240   6.250
 5010SOL    HW215930   3.375   3.157   6.364
 5011SOL     OW15931   1.451   1.644   4.344
 5011SOL    HW115932   1.541   1.655   4.302
 5011SOL    HW215933   1.387   1.709   4.303
 5012SOL     OW15934   6.195   2.300   0.100
 5012SOL    HW115935   6.171   2.324   0.194
 5012SOL    HW215936   6.134   2.349   0.037
 5013SOL     OW15937   4.841   1.523   5.174
 5013SOL    HW115938   4.758   1.545   5.123
 5013SOL    HW215939   4.879   1.607   5.213
 5014SOL     OW15940   6.936   4.767   6.819
 5014SOL    HW115941   0.004   4.791   6.840
 5014SOL    HW215942   6.918   4.784   6.722
 5015SOL     OW15943   4.909   1.945   3.976
 5015SOL    HW115944   4.931   2.043   3.970
 5015SOL    HW215945   4.981   1.898   4.028
 5016SOL     OW15946   2.771   5.578   1.799
 5016SOL    HW115947   2.749   5.670   1.765
 5016SOL    HW215948   2.751   5.573   1.897
 5017SOL     OW15949   0.312   2.349   1.735
 5017SOL    HW115950   0.251   2.343   1.656
 5017SOL    HW215951   0.330   2.258   1.771
 5018SOL     OW15952   6.399   5.104   4.244
 5018SOL    HW115953   6.385   5.189   4.295
 5018SOL    HW215954   6.315   5.048   4.249
 5019SOL     OW15955   3.221   5.508   4.858
 5019SOL    HW115956   3.131   5.535   4.891
 5019SOL    HW215957   3.214   5.422   4.809
 5020SOL     OW15958   4.506   4.961   7.018
 5020SOL    HW115959   4.541   4.985   0.082
 5020SOL    HW215960   4.580   4.967   6.951
 5021SOL     OW15961   2.316   4.970   5.779
 5021SOL    HW115962   2.359   5.018   5.703
 5021SOL    HW215963   2.386   4.931   5.838
 5022SOL     OW15964   1.795   3.270   6.674
 5022SOL    HW115965   1.702   3.235   6.661
 5022SOL    HW215966   1.861   3.201   6.644
 5023SOL     OW15967   6.913   3.112   4.418
 5023SOL    HW115968   6.852   3.059   4.358
 5023SOL    HW215969   6.882   3.103   4.513
 5024SOL     OW15970   4.841   3.862   5.223
 5024SOL    HW115971   4.902   3.884   5.298
 5024SOL    HW215972   4.819   3.945   5.171
 5025SOL     OW15973   5.920   0.501   4.851
 5025SOL    HW115974   5.946   0.456   4.766
 5025SOL    HW215975   5.957   0.448   4.928
 5026SOL     OW15976   1.303   5.734   2.857
 5026SOL    HW115977   1.323   5.800   2.784
 5026SOL    HW215978   1.249   5.779   2.928
 5027SOL     OW15979   1.208   5.635   3.556
 5027SOL    HW115980   1.303   5.666   3.559
 5027SOL    HW215981   1.201   5.546   3.601
 5028SOL     OW15982   0.797   6.265   3.067
 5028SOL    HW115983   0.851   6.348   3.053
 5028SOL    HW215984   0.718   6.266   3.006
 5029SOL     OW15985   5.720   0.632   4.478
 5029SOL    HW115986   5.690   0.544   4.516
 5029SOL    HW215987   5.814   0.650   4.506
 5030SOL     OW15988   1.420   5.909   0.717
 5030SOL    HW115989   1.398   5.885   0.623
 5030SOL    HW215990   1.401   6.006   0.732
 5031SOL     OW15991   5.569   6.994   0.311
 5031SOL    HW115992   5.578   6.979   0.410
 5031SOL    HW215993   5.504   0.041   0.294
 5032SOL     OW15994   1.877   5.514   2.367
 5032SOL    HW115995   1.889   5.440   2.301
 5032SOL    HW215996   1.893   5.602   2.323
 5033SOL     OW15997   0.743   4.394   4.461
 5033SOL    HW115998   0.758   4.321   4.527
 5033SOL    HW215999   0.651   4.386   4.423
 5034SOL     OW16000   0.575   3.040   5.845
 5034SOL    HW116001   0.653   3.043   5.907
 5034SOL    HW216002   0.592   3.101   5.767
 5035SOL     OW16003   6.518   4.517   1.234
 5035SOL    HW116004   6.494   4.463   1.315
 5035SOL    HW216005   6.463   4.487   1.156
 5036SOL     OW16006   1.287   1.937   2.868
 5036SOL    HW116007   1.370   1.924   2.923
 5036SOL    HW216008   1.290   2.027   2.824
 5037SOL     OW16009   5.045   4.582   1.298
 5037SOL    HW116010   4.980   4.525   1.349
 5037SOL    HW216011   5.053   4.671   1.344
 5038SOL     OW16012   3.284   5.707   5.731
 5038SOL    HW116013   3.351   5.675   5.664
 5038SOL    HW216014   3.193   5.709   5.689
 5039SOL     OW16015   1.155   2.579   3.515
 5039SOL    HW116016   1.230   2.623   3.465
 5039SOL    HW216017   1.143   2.625   3.603
 5040SOL     OW16018   2.583   3.424   6.094
 5040SOL    HW116019   2.646   3.427   6.016
 5040SOL    HW216020   2.505   3.367   6.071
 5041SOL     OW16021   0.531   5.649   0.562
 5041SOL    HW116022   0.503   5.557   0.590
 5041SOL    HW216023   0.462   5.716   0.590
 5042SOL     OW16024   6.236   1.180   6.358
 5042SOL    HW116025   6.168   1.223   6.298
 5042SOL    HW216026   6.264   1.093   6.318
 5043SOL     OW16027   5.566   5.822   3.917
 5043SOL    HW116028   5.503   5.750   3.887
 5043SOL    HW216029   5.570   5.894   3.848
 5044SOL     OW16030   6.114   3.957   1.847
 5044SOL    HW116031   6.048   3.894   1.887
 5044SOL    HW216032   6.086   4.051   1.867
 5045SOL     OW16033   4.677   3.099   5.544
 5045SOL    HW116034   4.622   3.078   5.464
 5045SOL    HW216035   4.637   3.177   5.592
 5046SOL     OW16036   4.009   2.816   5.841
 5046SOL    HW116037   3.962   2.746   5.894
 5046SOL    HW216038   4.081   2.774   5.785
 5047SOL     OW16039   0.550   2.223   2.403
 5047SOL    HW116040   0.623   2.164   2.439
 5047SOL    HW216041   0.526   2.292   2.472
 5048SOL     OW16042   5.886   4.085   0.687
 5048SOL    HW116043   5.844   4.030   0.614
 5048SOL    HW216044   5.827   4.083   0.768
 5049SOL     OW16045   0.935   1.198   1.332
 5049SOL    HW116046   0.945   1.119   1.271
 5049SOL    HW216047   0.841   1.232   1.328
 5050SOL     OW16048   1.607   3.989   0.526
 5050SOL    HW116049   1.664   4.050   0.469
 5050SOL    HW216050   1.585   4.036   0.612
 5051SOL     OW16051   2.432   3.827   6.399
 5051SOL    HW116052   2.334   3.844   6.392
 5051SOL    HW216053   2.467   3.797   6.311
 5052SOL     OW16054   5.933   2.896   1.079
 5052SOL    HW116055   5.992   2.843   1.019
 5052SOL    HW216056   5.926   2.851   1.168
 5053SOL     OW16057   1.004   3.830   1.182
 5053SOL    HW116058   1.081   3.769   1.194
 5053SOL    HW216059   0.971   3.862   1.271
 5054SOL     OW16060   3.678   6.310   5.115
 5054SOL    HW116061   3.749   6.244   5.140
 5054SOL    HW216062   3.620   6.270   5.044
 5055SOL     OW16063   0.619   0.804   3.784
 5055SOL    HW116064   0.719   0.799   3.790
 5055SOL    HW216065   0.587   0.740   3.714
 5056SOL     OW16066   3.026   1.726   6.140
 5056SOL    HW116067   3.098   1.657   6.145
 5056SOL    HW216068   3.055   1.802   6.082
 5057SOL     OW16069   0.235   4.301   2.289
 5057SOL    HW116070   0.135   4.293   2.289
 5057SOL    HW216071   0.269   4.286   2.196
 5058SOL     OW16072   4.182   1.685   0.075
 5058SOL    HW116073   4.133   1.764   0.112
 5058SOL    HW216074   4.265   1.669   0.129
 5059SOL     OW16075   5.866   2.891   2.612
 5059SOL    HW116076   5.897   2.984   2.593
 5059SOL    HW216077   5.787   2.870   2.554
 5060SOL     OW16078   6.162   2.965   5.211
 5060SOL    HW116079   6.167   3.016   5.125
 5060SOL    HW216080   6.241   2.988   5.268
 5061SOL     OW16081   3.900   2.491   5.571
 5061SOL    HW116082   3.804   2.511   5.592
 5061SOL    HW216083   3.945   2.455   5.652
 5062SOL     OW16084   5.861   0.966   3.267
 5062SOL    HW116085   5.818   0.916   3.342
 5062SOL    HW216086   5.836   0.923   3.180
 5063SOL     OW16087   0.870   1.421   0.638
 5063SOL    HW116088   0.877   1.520   0.643
 5063SOL    HW216089   0.953   1.379   0.673
 5064SOL     OW16090   6.378   5.062   0.648
 5064SOL    HW116091   6.439   4.987   0.622
 5064SOL    HW216092   6.284   5.029   0.649
 5065SOL     OW16093   1.953   1.946   2.536
 5065SOL    HW116094   1.902   1.922   2.619
 5065SOL    HW216095   1.890   1.950   2.458
 5066SOL     OW16096   1.302   4.774   4.231
 5066SOL    HW116097   1.314   4.713   4.153
 5066SOL    HW216098   1.204   4.782   4.252
 5067SOL     OW16099   5.264   2.728   0.830
 5067SOL    HW116100   5.291   2.806   0.886
 5067SOL    HW216101   5.168   2.708   0.844
 5068SOL     OW16102   1.618   0.120   1.293
 5068SOL    HW116103   1.610   0.021   1.284
 5068SOL    HW216104   1.702   0.151   1.249
 5069SOL     OW16105   4.128   4.443   5.917
 5069SOL    HW116106   4.103   4.375   5.985
 5069SOL    HW216107   4.111   4.535   5.953
 5070SOL     OW16108   0.051   3.459   6.507
 5070SOL    HW116109   0.100   3.398   6.570
 5070SOL    HW216110   0.098   3.460   6.418
 5071SOL     OW16111   2.083   6.436   2.652
 5071SOL    HW116112   2.010   6.377   2.685
 5071SOL    HW216113   2.067   6.530   2.683
 5072SOL     OW16114   0.777   2.117   2.572
 5072SOL    HW116115   0.713   2.067   2.630
 5072SOL    HW216116   0.856   2.145   2.627
 5073SOL     OW16117   1.421   1.341   3.761
 5073SOL    HW116118   1.349   1.322   3.827
 5073SOL    HW216119   1.454   1.255   3.722
 5074SOL     OW16120   3.720   2.097   1.169
 5074SOL    HW116121   3.655   2.152   1.116
 5074SOL    HW216122   3.807   2.146   1.175
 5075SOL     OW16123   6.428   2.267   7.024
 5075SOL    HW116124   6.346   2.279   0.053
 5075SOL    HW216125   6.455   2.170   7.025
 5076SOL     OW16126   0.256   1.206   6.024
 5076SOL    HW116127   0.350   1.232   6.001
 5076SOL    HW216128   0.214   1.160   5.946
 5077SOL     OW16129   0.445   4.561   4.733
 5077SOL    HW116130   0.442   4.461   4.722
 5077SOL    HW216131   0.509   4.584   4.806
 5078SOL     OW16132   6.459   1.709   2.909
 5078SOL    HW116133   6.428   1.698   3.004
 5078SOL    HW216134   6.492   1.802   2.895
 5079SOL     OW16135   1.701   3.726   5.577
 5079SOL    HW116136   1.732   3.814   5.613
 5079SOL    HW216137   1.724   3.719   5.480
 5080SOL     OW16138   6.406   5.893   6.948
 5080SOL    HW116139   6.371   5.800   6.958
 5080SOL    HW216140   6.330   5.957   6.940
 5081SOL     OW16141   3.213   4.846   5.350
 5081SOL    HW116142   3.294   4.788   5.337
 5081SOL    HW216143   3.156   4.842   5.269
 5082SOL     OW16144   5.727   0.547   2.792
 5082SOL    HW116145   5.818   0.513   2.818
 5082SOL    HW216146   5.665   0.470   2.778
 5083SOL     OW16147   0.694   0.596   3.477
 5083SOL    HW116148   0.749   0.563   3.554
 5083SOL    HW216149   0.600   0.612   3.508
 5084SOL     OW16150   3.424   5.605   5.531
 5084SOL    HW116151   3.378   5.543   5.468
 5084SOL    HW216152   3.466   5.680   5.479
 5085SOL     OW16153   0.324   3.754   6.532
 5085SOL    HW116154   0.326   3.850   6.562
 5085SOL    HW216155   0.417   3.718   6.530
 5086SOL     OW16156   1.345   4.519   2.177
 5086SOL    HW116157   1.298   4.432   2.164
 5086SOL    HW216158   1.278   4.593   2.181
 5087SOL     OW16159   6.577   5.549   1.586
 5087SOL    HW116160   6.624   5.576   1.670
 5087SOL    HW216161   6.631   5.482   1.537
 5088SOL     OW16162   4.530   4.717   2.071
 5088SOL    HW116163   4.488   4.638   2.027
 5088SOL    HW216164   4.629   4.711   2.062
 5089SOL     OW16165   5.204   6.026   5.728
 5089SOL    HW116166   5.169   6.118   5.741
 5089SOL    HW216167   5.303   6.026   5.743
 5090SOL     OW16168   2.469   6.897   4.223
 5090SOL    HW116169   2.424   6.870   4.308
 5090SOL    HW216170   2.546   6.957   4.244
 5091SOL     OW16171   6.386   6.000   6.027
 5091SOL    HW116172   6.475   5.956   6.039
 5091SOL    HW216173   6.358   6.041   6.114
 5092SOL     OW16174   3.645   2.891   4.302
 5092SOL    HW116175   3.706   2.828   4.349
 5092SOL    HW216176   3.565   2.909   4.359
 5093SOL     OW16177   3.286   2.038   3.539
 5093SOL    HW116178   3.263   1.946   3.570
 5093SOL    HW216179   3.309   2.036   3.442
 5094SOL     OW16180   2.433   5.603   4.757
 5094SOL    HW116181   2.343   5.579   4.793
 5094SOL    HW216182   2.431   5.695   4.718
 5095SOL     OW16183   5.981   2.032   3.433
 5095SOL    HW116184   5.992   2.051   3.531
 5095SOL    HW216185   5.974   2.119   3.384
 5096SOL     OW16186   5.558   2.352   5.892
 5096SOL    HW116187   5.563   2.433   5.834
 5096SOL    HW216188   5.462   2.328   5.907
 5097SOL     OW16189   0.819   0.687   5.648
 5097SOL    HW116190   0.811   0.621   5.572
 5097SOL    HW216191   0.915   0.697   5.673
 5098SOL     OW16192   2.891   1.930   1.349
 5098SOL    HW116193   2.803   1.920   1.303
 5098SOL    HW216194   2.959   1.966   1.285
 5099SOL     OW16195   2.144   5.457   2.191
 5099SOL    HW116196   2.130   5.476   2.288
 5099SOL    HW216197   2.180   5.539   2.146
 5100SOL     OW16198   5.946   3.717   1.146
 5100SOL    HW116199   6.008   3.780   1.193
 5100SOL    HW216200   5.998   3.639   1.112
 5101SOL     OW16201   3.556   1.879   5.164
 5101SOL    HW116202   3.527   1.974   5.153
 5101SOL    HW216203   3.515   1.840   5.246
 5102SOL     OW16204   5.464   4.664   5.088
 5102SOL    HW116205   5.418   4.580   5.060
 5102SOL    HW216206   5.397   4.738   5.098
 5103SOL     OW16207   0.618   0.498   5.679
 5103SOL    HW116208   0.529   0.527   5.713
 5103SOL    HW216209   0.690   0.534   5.739
 5104SOL     OW16210   4.059   3.660   3.865
 5104SOL    HW116211   3.979   3.611   3.900
 5104SOL    HW216212   4.110   3.602   3.803
 5105SOL     OW16213   4.470   3.051   0.048
 5105SOL    HW116214   4.430   3.062   0.139
 5105SOL    HW216215   4.544   2.984   0.052
 5106SOL     OW16216   4.220   1.151   1.361
 5106SOL    HW116217   4.298   1.093   1.382
 5106SOL    HW216218   4.212   1.223   1.431
 5107SOL     OW16219   6.154   4.940   6.627
 5107SOL    HW116220   6.247   4.910   6.607
 5107SOL    HW216221   6.097   4.931   6.545
 5108SOL     OW16222   3.717   4.248   0.936
 5108SOL    HW116223   3.805   4.229   0.980
 5108SOL    HW216224   3.672   4.325   0.981
 5109SOL     OW16225   2.144   2.214   2.135
 5109SOL    HW116226   2.180   2.130   2.095
 5109SOL    HW216227   2.218   2.263   2.182
 5110SOL     OW16228   3.427   6.481   4.663
 5110SOL    HW116229   3.499   6.492   4.594
 5110SOL    HW216230   3.338   6.502   4.622
 5111SOL     OW16231   2.448   5.435   5.956
 5111SOL    HW116232   2.398   5.434   5.870
 5111SOL    HW216233   2.465   5.529   5.985
 5112SOL     OW16234   1.158   4.487   2.525
 5112SOL    HW116235   1.126   4.523   2.438
 5112SOL    HW216236   1.257   4.475   2.522
 5113SOL     OW16237   2.693   4.286   0.931
 5113SOL    HW116238   2.757   4.237   0.872
 5113SOL    HW216239   2.600   4.258   0.910
 5114SOL     OW16240   4.683   4.924   1.586
 5114SOL    HW116241   4.690   4.825   1.604
 5114SOL    HW216242   4.698   4.941   1.489
 5115SOL     OW16243   1.287   4.409   0.076
 5115SOL    HW116244   1.255   4.332   0.020
 5115SOL    HW216245   1.369   4.448   0.035
 5116SOL     OW16246   0.351   6.759   5.680
 5116SOL    HW116247   0.262   6.714   5.681
 5116SOL    HW216248   0.359   6.814   5.597
 5117SOL     OW16249   0.197   3.903   3.931
 5117SOL    HW116250   0.143   3.985   3.914
 5117SOL    HW216251   0.226   3.902   4.026
 5118SOL     OW16252   4.210   4.778   0.369
 5118SOL    HW116253   4.288   4.803   0.427
 5118SOL    HW216254   4.244   4.738   0.284
 5119SOL     OW16255   5.146   1.641   0.783
 5119SOL    HW116256   5.225   1.604   0.832
 5119SOL    HW216257   5.176   1.713   0.721
 5120SOL     OW16258   6.003   6.567   6.150
 5120SOL    HW116259   5.979   6.494   6.086
 5120SOL    HW216260   6.095   6.599   6.131
 5121SOL     OW16261   1.630   3.396   0.330
 5121SOL    HW116262   1.651   3.493   0.321
 5121SOL    HW216263   1.654   3.349   0.245
 5122SOL     OW16264   5.110   5.099   3.467
 5122SOL    HW116265   5.081   5.009   3.433
 5122SOL    HW216266   5.036   5.165   3.452
 5123SOL     OW16267   5.096   2.276   1.395
 5123SOL    HW116268   5.117   2.187   1.437
 5123SOL    HW216269   5.061   2.262   1.302
 5124SOL     OW16270   0.485   5.516   4.489
 5124SOL    HW116271   0.418   5.443   4.479
 5124SOL    HW216272   0.570   5.479   4.526
 5125SOL     OW16273   5.556   2.413   4.050
 5125SOL    HW116274   5.584   2.356   3.973
 5125SOL    HW216275   5.513   2.356   4.120
 5126SOL     OW16276   2.166   0.937   1.600
 5126SOL    HW116277   2.136   1.032   1.588
 5126SOL    HW216278   2.148   0.909   1.695
 5127SOL     OW16279   2.100   6.625   0.449
 5127SOL    HW116280   2.165   6.642   0.523
 5127SOL    HW216281   2.028   6.564   0.482
 5128SOL     OW16282   4.414   0.202   2.069
 5128SOL    HW116283   4.464   0.185   2.154
 5128SOL    HW216284   4.396   0.300   2.061
 5129SOL     OW16285   5.988   5.653   0.279
 5129SOL    HW116286   5.972   5.578   0.216
 5129SOL    HW216287   5.953   5.738   0.238
 5130SOL     OW16288   5.975   5.013   1.870
 5130SOL    HW116289   5.951   5.106   1.896
 5130SOL    HW216290   5.896   4.953   1.885
 5131SOL     OW16291   2.713   2.235   2.263
 5131SOL    HW116292   2.785   2.281   2.210
 5131SOL    HW216293   2.655   2.304   2.306
 5132SOL     OW16294   2.486   6.359   5.545
 5132SOL    HW116295   2.445   6.269   5.562
 5132SOL    HW216296   2.448   6.426   5.609
 5133SOL     OW16297   3.523   6.551   4.928
 5133SOL    HW116298   3.622   6.548   4.918
 5133SOL    HW216299   3.480   6.509   4.848
 5134SOL     OW16300   0.679   3.153   6.593
 5134SOL    HW116301   0.580   3.142   6.596
 5134SOL    HW216302   0.712   3.178   6.685
 5135SOL     OW16303   6.604   1.938   3.918
 5135SOL    HW116304   6.620   2.034   3.940
 5135SOL    HW216305   6.560   1.931   3.828
 5136SOL     OW16306   3.526   1.973   5.824
 5136SOL    HW116307   3.559   1.880   5.836
 5136SOL    HW216308   3.602   2.033   5.797
 5137SOL     OW16309   4.093   3.480   7.025
 5137SOL    HW116310   4.092   3.526   0.087
 5137SOL    HW216311   4.054   3.540   6.955
 5138SOL     OW16312   2.217   3.026   5.972
 5138SOL    HW116313   2.149   3.007   6.042
 5138SOL    HW216314   2.179   3.003   5.882
 5139SOL     OW16315   0.355   7.001   3.691
 5139SOL    HW116316   0.286   0.034   3.732
 5139SOL    HW216317   0.404   6.951   3.763
 5140SOL     OW16318   3.193   3.169   1.845
 5140SOL    HW116319   3.237   3.090   1.801
 5140SOL    HW216320   3.139   3.138   1.923
 5141SOL     OW16321   0.876   3.530   5.641
 5141SOL    HW116322   0.792   3.548   5.692
 5141SOL    HW216323   0.942   3.485   5.701
 5142SOL     OW16324   5.320   3.391   1.900
 5142SOL    HW116325   5.389   3.320   1.887
 5142SOL    HW216326   5.236   3.366   1.851
 5143SOL     OW16327   6.852   5.015   6.044
 5143SOL    HW116328   6.875   5.079   5.971
 5143SOL    HW216329   6.885   5.050   6.132
 5144SOL     OW16330   1.771   1.590   5.157
 5144SOL    HW116331   1.867   1.615   5.156
 5144SOL    HW216332   1.760   1.502   5.203
 5145SOL     OW16333   3.740   5.400   5.910
 5145SOL    HW116334   3.670   5.374   5.977
 5145SOL    HW216335   3.792   5.320   5.884
 5146SOL     OW16336   3.479   5.090   1.122
 5146SOL    HW116337   3.463   5.001   1.079
 5146SOL    HW216338   3.451   5.085   1.218
 5147SOL     OW16339   0.373   5.043   6.433
 5147SOL    HW116340   0.424   5.100   6.496
 5147SOL    HW216341   0.436   4.982   6.384
 5148SOL     OW16342   0.257   0.576   1.409
 5148SOL    HW116343   0.259   0.476   1.408
 5148SOL    HW216344   0.186   0.606   1.473
 5149SOL     OW16345   0.078   0.754   5.624
 5149SOL    HW116346   0.100   0.850   5.642
 5149SOL    HW216347   0.157   0.707   5.586
 5150SOL     OW16348   2.806   5.539   5.441
 5150SOL    HW116349   2.901   5.550   5.470
 5150SOL    HW216350   2.776   5.622   5.392
 5151SOL     OW16351   4.835   0.326   6.049
 5151SOL    HW116352   4.773   0.327   5.970
 5151SOL    HW216353   4.858   0.232   6.071
 5152SOL     OW16354   6.639   4.910   6.650
 5152SOL    HW116355   6.665   5.005   6.633
 5152SOL    HW216356   6.705   4.849   6.606
 5153SOL     OW16357   2.267   2.998   0.937
 5153SOL    HW116358   2.344   3.020   0.996
 5153SOL    HW216359   2.197   2.950   0.989
 5154SOL     OW16360   1.269   4.657   5.030
 5154SOL    HW116361   1.300   4.563   5.044
 5154SOL    HW216362   1.192   4.675   5.092
 5155SOL     OW16363   4.143   0.740   2.016
 5155SOL    HW116364   4.106   0.666   2.072
 5155SOL    HW216365   4.095   0.825   2.037
 5156SOL     OW16366   5.497   3.160   6.126
 5156SOL    HW116367   5.573   3.113   6.082
 5156SOL    HW216368   5.532   3.224   6.195
 5157SOL     OW16369   6.184   2.391   3.672
 5157SOL    HW116370   6.098   2.398   3.623
 5157SOL    HW216371   6.254   2.353   3.611
 5158SOL     OW16372   3.460   0.430   1.589
 5158SOL    HW116373   3.444   0.459   1.684
 5158SOL    HW216374   3.459   0.510   1.529
 5159SOL     OW16375   2.193   3.202   5.089
 5159SOL    HW116376   2.215   3.298   5.108
 5159SOL    HW216377   2.276   3.156   5.057
 5160SOL     OW16378   2.714   2.397   3.800
 5160SOL    HW116379   2.770   2.466   3.755
 5160SOL    HW216380   2.706   2.316   3.741
 5161SOL     OW16381   1.987   3.364   0.053
 5161SOL    HW116382   1.979   3.267   0.034
 5161SOL    HW216383   1.974   3.416   6.995
 5162SOL     OW16384   6.518   5.895   4.687
 5162SOL    HW116385   6.471   5.833   4.624
 5162SOL    HW216386   6.560   5.843   4.761
 5163SOL     OW16387   5.640   4.041   0.384
 5163SOL    HW116388   5.626   4.023   0.481
 5163SOL    HW216389   5.622   3.957   0.332
 5164SOL     OW16390   6.821   6.277   4.808
 5164SOL    HW116391   6.782   6.292   4.899
 5164SOL    HW216392   6.874   6.357   4.781
 5165SOL     OW16393   5.759   4.045   5.305
 5165SOL    HW116394   5.711   3.962   5.332
 5165SOL    HW216395   5.803   4.031   5.216
 5166SOL     OW16396   0.549   7.010   3.258
 5166SOL    HW116397   0.467   7.009   3.202
 5166SOL    HW216398   0.630   7.019   3.200
 5167SOL     OW16399   1.881   0.358   5.382
 5167SOL    HW116400   1.912   0.318   5.296
 5167SOL    HW216401   1.942   0.433   5.408
 5168SOL     OW16402   3.440   2.067   2.414
 5168SOL    HW116403   3.523   2.122   2.409
 5168SOL    HW216404   3.397   2.062   2.323
 5169SOL     OW16405   3.901   5.096   6.303
 5169SOL    HW116406   3.857   5.175   6.346
 5169SOL    HW216407   3.972   5.061   6.364
 5170SOL     OW16408   4.009   5.512   4.423
 5170SOL    HW116409   3.987   5.479   4.331
 5170SOL    HW216410   4.052   5.438   4.474
 5171SOL     OW16411   2.775   4.807   5.180
 5171SOL    HW116412   2.817   4.805   5.271
 5171SOL    HW216413   2.820   4.740   5.121
 5172SOL     OW16414   2.134   3.900   6.368
 5172SOL    HW116415   2.130   3.836   6.291
 5172SOL    HW216416   2.059   3.966   6.360
 5173SOL     OW16417   0.228   2.623   4.614
 5173SOL    HW116418   0.311   2.670   4.641
 5173SOL    HW216419   0.251   2.537   4.568
 5174SOL     OW16420   2.921   5.068   6.831
 5174SOL    HW116421   2.967   4.989   6.872
 5174SOL    HW216422   2.890   5.130   6.904
 5175SOL     OW16423   0.211   5.063   6.654
 5175SOL    HW116424   0.262   5.063   6.568
 5175SOL    HW216425   0.221   5.151   6.699
 5176SOL     OW16426   5.612   3.458   6.255
 5176SOL    HW116427   5.596   3.472   6.353
 5176SOL    HW216428   5.535   3.494   6.203
 5177SOL     OW16429   4.891   4.856   6.102
 5177SOL    HW116430   4.916   4.784   6.167
 5177SOL    HW216431   4.901   4.945   6.146
 5178SOL     OW16432   3.589   4.204   0.434
 5178SOL    HW116433   3.620   4.199   0.528
 5178SOL    HW216434   3.503   4.153   0.424
 5179SOL     OW16435   3.256   6.715   5.271
 5179SOL    HW116436   3.351   6.731   5.297
 5179SOL    HW216437   3.197   6.729   5.351
 5180SOL     OW16438   4.862   1.506   6.938
 5180SOL    HW116439   4.798   1.459   6.877
 5180SOL    HW216440   4.857   1.605   6.922
 5181SOL     OW16441   2.823   6.216   2.542
 5181SOL    HW116442   2.761   6.145   2.507
 5181SOL    HW216443   2.886   6.175   2.608
 5182SOL     OW16444   4.712   4.139   1.211
 5182SOL    HW116445   4.746   4.190   1.132
 5182SOL    HW216446   4.645   4.195   1.260
 5183SOL     OW16447   3.396   0.511   3.713
 5183SOL    HW116448   3.494   0.517   3.733
 5183SOL    HW216449   3.345   0.566   3.778
 5184SOL     OW16450   0.943   2.540   3.022
 5184SOL    HW116451   0.902   2.620   3.067
 5184SOL    HW216452   0.873   2.469   3.012
 5185SOL     OW16453   3.736   0.185   1.780
 5185SOL    HW116454   3.797   0.133   1.840
 5185SOL    HW216455   3.698   0.262   1.830
 5186SOL     OW16456   5.564   4.269   7.012
 5186SOL    HW116457   5.636   4.275   0.055
 5186SOL    HW216458   5.583   4.190   6.953
 5187SOL     OW16459   4.925   3.476   3.979
 5187SOL    HW116460   4.890   3.513   4.065
 5187SOL    HW216461   4.910   3.377   3.976
 5188SOL     OW16462   6.840   1.175   3.234
 5188SOL    HW116463   6.800   1.083   3.239
 5188SOL    HW216464   6.927   1.171   3.185
 5189SOL     OW16465   4.962   5.197   5.697
 5189SOL    HW116466   4.991   5.239   5.611
 5189SOL    HW216467   4.912   5.265   5.752
 5190SOL     OW16468   2.410   2.206   2.433
 5190SOL    HW116469   2.370   2.240   2.348
 5190SOL    HW216470   2.454   2.118   2.417
 5191SOL     OW16471   5.194   0.941   2.136
 5191SOL    HW116472   5.190   1.017   2.071
 5191SOL    HW216473   5.175   0.855   2.089
 5192SOL     OW16474   6.443   4.137   1.303
 5192SOL    HW116475   6.410   4.131   1.397
 5192SOL    HW216476   6.368   4.164   1.243
 5193SOL     OW16477   3.940   4.879   2.549
 5193SOL    HW116478   3.973   4.839   2.635
 5193SOL    HW216479   3.981   4.829   2.472
 5194SOL     OW16480   4.942   1.097   0.465
 5194SOL    HW116481   5.039   1.112   0.479
 5194SOL    HW216482   4.922   0.999   0.474
 5195SOL     OW16483   0.519   5.753   5.189
 5195SOL    HW116484   0.525   5.734   5.287
 5195SOL    HW216485   0.449   5.824   5.173
 5196SOL     OW16486   0.690   3.397   3.648
 5196SOL    HW116487   0.650   3.378   3.738
 5196SOL    HW216488   0.708   3.311   3.601
 5197SOL     OW16489   3.887   6.114   5.271
 5197SOL    HW116490   3.911   6.022   5.303
 5197SOL    HW216491   3.952   6.180   5.306
 5198SOL     OW16492   4.138   1.079   5.608
 5198SOL    HW116493   4.129   1.075   5.509
 5198SOL    HW216494   4.061   1.031   5.650
 5199SOL     OW16495   0.580   6.128   2.163
 5199SOL    HW116496   0.623   6.218   2.162
 5199SOL    HW216497   0.601   6.081   2.077
 5200SOL     OW16498   5.989   6.746   5.333
 5200SOL    HW116499   6.048   6.808   5.280
 5200SOL    HW216500   5.938   6.799   5.401
 5201SOL     OW16501   0.170   3.987   5.428
 5201SOL    HW116502   0.122   3.907   5.391
 5201SOL    HW216503   0.214   4.037   5.352
 5202SOL     OW16504   3.949   2.004   5.843
 5202SOL    HW116505   3.900   2.071   5.787
 5202SOL    HW216506   3.892   1.979   5.922
 5203SOL     OW16507   0.880   0.493   6.468
 5203SOL    HW116508   0.922   0.491   6.377
 5203SOL    HW216509   0.783   0.517   6.460
 5204SOL     OW16510   2.348   0.353   2.208
 5204SOL    HW116511   2.418   0.423   2.222
 5204SOL    HW216512   2.301   0.369   2.121
 5205SOL     OW16513   6.716   7.006   1.835
 5205SOL    HW116514   6.696   6.972   1.744
 5205SOL    HW216515   6.750   0.073   1.829
 5206SOL     OW16516   1.192   5.335   4.965
 5206SOL    HW116517   1.262   5.273   5.000
 5206SOL    HW216518   1.112   5.282   4.936
 5207SOL     OW16519   4.614   1.118   4.685
 5207SOL    HW116520   4.543   1.153   4.746
 5207SOL    HW216521   4.579   1.116   4.591
 5208SOL     OW16522   6.610   1.628   0.185
 5208SOL    HW116523   6.688   1.583   0.229
 5208SOL    HW216524   6.627   1.727   0.180
 5209SOL     OW16525   4.919   6.401   2.313
 5209SOL    HW116526   5.003   6.387   2.260
 5209SOL    HW216527   4.842   6.358   2.265
 5210SOL     OW16528   5.945   4.239   1.374
 5210SOL    HW116529   5.998   4.263   1.292
 5210SOL    HW216530   5.893   4.318   1.405
 5211SOL     OW16531   5.084   2.889   4.832
 5211SOL    HW116532   5.119   2.885   4.738
 5211SOL    HW216533   5.048   2.981   4.850
 5212SOL     OW16534   6.350   3.540   0.028
 5212SOL    HW116535   6.393   3.625   7.024
 5212SOL    HW216536   6.421   3.478   0.062
 5213SOL     OW16537   3.448   3.295   3.923
 5213SOL    HW116538   3.440   3.282   3.824
 5213SOL    HW216539   3.442   3.393   3.944
 5214SOL     OW16540   5.696   3.069   5.940
 5214SOL    HW116541   5.772   3.006   5.923
 5214SOL    HW216542   5.687   3.132   5.863
 5215SOL     OW16543   0.201   4.671   4.867
 5215SOL    HW116544   0.248   4.624   4.792
 5215SOL    HW216545   0.245   4.648   4.953
 5216SOL     OW16546   6.442   4.624   0.645
 5216SOL    HW116547   6.525   4.671   0.616
 5216SOL    HW216548   6.420   4.552   0.580
 5217SOL     OW16549   3.542   0.286   2.837
 5217SOL    HW116550   3.496   0.243   2.915
 5217SOL    HW216551   3.585   0.215   2.780
 5218SOL     OW16552   6.173   0.287   0.796
 5218SOL    HW116553   6.137   0.206   0.750
 5218SOL    HW216554   6.271   0.276   0.811
 5219SOL     OW16555   4.331   1.889   4.898
 5219SOL    HW116556   4.268   1.957   4.862
 5219SOL    HW216557   4.414   1.934   4.930
 5220SOL     OW16558   1.767   4.185   4.281
 5220SOL    HW116559   1.814   4.272   4.268
 5220SOL    HW216560   1.805   4.138   4.360
 5221SOL     OW16561   4.206   6.198   0.932
 5221SOL    HW116562   4.262   6.183   1.013
 5221SOL    HW216563   4.123   6.144   0.938
 5222SOL     OW16564   6.147   3.059   2.342
 5222SOL    HW116565   6.164   3.095   2.250
 5222SOL    HW216566   6.089   2.978   2.336
 5223SOL     OW16567   7.012   2.384   0.868
 5223SOL    HW116568   0.075   2.386   0.912
 5223SOL    HW216569   6.947   2.337   0.927
 5224SOL     OW16570   1.814   1.505   4.461
 5224SOL    HW116571   1.770   1.557   4.533
 5224SOL    HW216572   1.750   1.491   4.385
 5225SOL     OW16573   6.935   2.446   6.067
 5225SOL    HW116574   6.847   2.406   6.041
 5225SOL    HW216575   6.988   2.466   5.985
 5226SOL     OW16576   0.138   6.910   3.977
 5226SOL    HW116577   0.203   6.929   4.049
 5226SOL    HW216578   0.131   6.811   3.963
 5227SOL     OW16579   2.151   2.609   6.394
 5227SOL    HW116580   2.198   2.650   6.316
 5227SOL    HW216581   2.053   2.619   6.384
 5228SOL     OW16582   1.037   2.320   5.354
 5228SOL    HW116583   0.961   2.380   5.378
 5228SOL    HW216584   1.123   2.370   5.363
 5229SOL     OW16585   3.937   1.651   0.275
 5229SOL    HW116586   3.880   1.581   0.318
 5229SOL    HW216587   3.988   1.611   0.199
 5230SOL     OW16588   6.448   0.379   2.084
 5230SOL    HW116589   6.482   0.415   1.997
 5230SOL    HW216590   6.395   0.296   2.066
 5231SOL     OW16591   6.386   3.898   1.832
 5231SOL    HW116592   6.287   3.913   1.835
 5231SOL    HW216593   6.424   3.913   1.923
 5232SOL     OW16594   1.554   1.534   6.059
 5232SOL    HW116595   1.491   1.609   6.035
 5232SOL    HW216596   1.586   1.490   5.975
 5233SOL     OW16597   2.380   6.952   3.711
 5233SOL    HW116598   2.473   6.949   3.674
 5233SOL    HW216599   2.380   6.916   3.805
 5234SOL     OW16600   3.233   2.359   6.334
 5234SOL    HW116601   3.185   2.333   6.250
 5234SOL    HW216602   3.166   2.386   6.403
 5235SOL     OW16603   2.202   3.091   1.251
 5235SOL    HW116604   2.292   3.079   1.210
 5235SOL    HW216605   2.142   3.017   1.221
 5236SOL     OW16606   2.707   5.062   2.167
 5236SOL    HW116607   2.755   5.095   2.086
 5236SOL    HW216608   2.689   4.964   2.158
 5237SOL     OW16609   1.489   1.525   1.616
 5237SOL    HW116610   1.516   1.441   1.570
 5237SOL    HW216611   1.548   1.600   1.587
 5238SOL     OW16612   6.004   0.654   3.098
 5238SOL    HW116613   6.000   0.717   3.020
 5238SOL    HW216614   6.097   0.653   3.135
 5239SOL     OW16615   2.542   3.730   6.984
 5239SOL    HW116616   2.612   3.688   0.015
 5239SOL    HW216617   2.452   3.698   7.011
 5240SOL     OW16618   1.625   4.116   5.743
 5240SOL    HW116619   1.697   4.182   5.725
 5240SOL    HW216620   1.547   4.162   5.784
 5241SOL     OW16621   2.251   5.548   3.476
 5241SOL    HW116622   2.173   5.594   3.519
 5241SOL    HW216623   2.307   5.505   3.546
 5242SOL     OW16624   4.275   6.107   5.826
 5242SOL    HW116625   4.336   6.071   5.897
 5242SOL    HW216626   4.282   6.050   5.744
 5243SOL     OW16627   1.890   5.651   3.811
 5243SOL    HW116628   1.922   5.585   3.879
 5243SOL    HW216629   1.791   5.663   3.821
 5244SOL     OW16630   5.397   0.608   6.531
 5244SOL    HW116631   5.349   0.558   6.458
 5244SOL    HW216632   5.342   0.687   6.559
 5245SOL     OW16633   3.265   3.872   1.757
 5245SOL    HW116634   3.184   3.816   1.774
 5245SOL    HW216635   3.320   3.831   1.684
 5246SOL     OW16636   6.180   2.943   5.582
 5246SOL    HW116637   6.178   3.017   5.649
 5246SOL    HW216638   6.248   2.964   5.512
 5247SOL     OW16639   4.821   0.978   5.513
 5247SOL    HW116640   4.825   1.040   5.435
 5247SOL    HW216641   4.745   1.004   5.573
 5248SOL     OW16642   4.437   1.158   2.407
 5248SOL    HW116643   4.517   1.196   2.360
 5248SOL    HW216644   4.354   1.186   2.358
 5249SOL     OW16645   6.940   5.826   1.875
 5249SOL    HW116646   7.005   5.902   1.882
 5249SOL    HW216647   6.972   5.750   1.931
 5250SOL     OW16648   1.401   4.847   0.354
 5250SOL    HW116649   1.342   4.911   0.403
 5250SOL    HW216650   1.490   4.890   0.338
 5251SOL     OW16651   1.315   4.549   6.445
 5251SOL    HW116652   1.243   4.611   6.412
 5251SOL    HW216653   1.386   4.543   6.375
 5252SOL     OW16654   3.911   6.375   3.010
 5252SOL    HW116655   3.877   6.360   3.103
 5252SOL    HW216656   3.989   6.438   3.012
 5253SOL     OW16657   0.281   5.865   4.690
 5253SOL    HW116658   0.200   5.860   4.632
 5253SOL    HW216659   0.361   5.835   4.639
 5254SOL     OW16660   4.523   6.263   1.904
 5254SOL    HW116661   4.621   6.279   1.901
 5254SOL    HW216662   4.503   6.188   1.967
 5255SOL     OW16663   0.484   1.399   6.305
 5255SOL    HW116664   0.561   1.393   6.369
 5255SOL    HW216665   0.421   1.470   6.336
 5256SOL     OW16666   4.140   2.025   2.523
 5256SOL    HW116667   4.229   1.995   2.555
 5256SOL    HW216668   4.151   2.104   2.462
 5257SOL     OW16669   5.635   0.942   0.276
 5257SOL    HW116670   5.683   0.970   0.192
 5257SOL    HW216671   5.651   0.845   0.294
 5258SOL     OW16672   5.989   1.817   5.557
 5258SOL    HW116673   5.931   1.754   5.505
 5258SOL    HW216674   6.071   1.840   5.503
 5259SOL     OW16675   4.332   6.105   4.649
 5259SOL    HW116676   4.392   6.075   4.575
 5259SOL    HW216677   4.357   6.198   4.677
 5260SOL     OW16678   1.492   6.784   1.883
 5260SOL    HW116679   1.524   6.709   1.824
 5260SOL    HW216680   1.445   6.852   1.827
 5261SOL     OW16681   6.186   4.817   0.364
 5261SOL    HW116682   6.216   4.782   0.453
 5261SOL    HW216683   6.252   4.884   0.330
 5262SOL     OW16684   2.494   1.942   1.893
 5262SOL    HW116685   2.545   2.027   1.910
 5262SOL    HW216686   2.554   1.875   1.850
 5263SOL     OW16687   0.396   6.024   2.558
 5263SOL    HW116688   0.331   5.948   2.555
 5263SOL    HW216689   0.480   5.994   2.603
 5264SOL     OW16690   6.866   2.367   2.392
 5264SOL    HW116691   6.825   2.379   2.301
 5264SOL    HW216692   6.965   2.379   2.385
 5265SOL     OW16693   0.707   5.638   5.938
 5265SOL    HW116694   0.655   5.593   5.865
 5265SOL    HW216695   0.778   5.696   5.898
 5266SOL     OW16696   1.117   0.132   6.364
 5266SOL    HW116697   1.169   0.062   6.415
 5266SOL    HW216698   1.181   0.192   6.316
 5267SOL     OW16699   6.219   1.003   4.900
 5267SOL    HW116700   6.254   1.069   4.834
 5267SOL    HW216701   6.254   1.025   4.991
 5268SOL     OW16702   6.004   0.454   5.869
 5268SOL    HW116703   5.919   0.402   5.855
 5268SOL    HW216704   5.984   0.552   5.861
 5269SOL     OW16705   1.246   0.225   4.540
 5269SOL    HW116706   1.261   0.295   4.610
 5269SOL    HW216707   1.311   0.237   4.465
 5270SOL     OW16708   1.447   1.467   7.013
 5270SOL    HW116709   1.382   1.536   6.982
 5270SOL    HW216710   1.475   1.486   0.080
 5271SOL     OW16711   1.393   6.045   6.091
 5271SOL    HW116712   1.491   6.046   6.112
 5271SOL    HW216713   1.355   5.955   6.111
 5272SOL     OW16714   4.171   0.483   6.039
 5272SOL    HW116715   4.127   0.403   6.080
 5272SOL    HW216716   4.137   0.496   5.945
 5273SOL     OW16717   2.316   1.397   3.379
 5273SOL    HW116718   2.230   1.394   3.430
 5273SOL    HW216719   2.297   1.404   3.282
 5274SOL     OW16720   6.230   4.224   1.152
 5274SOL    HW116721   6.151   4.166   1.130
 5274SOL    HW216722   6.202   4.320   1.154
 5275SOL     OW16723   5.873   0.804   6.363
 5275SOL    HW116724   5.892   0.717   6.316
 5275SOL    HW216725   5.890   0.794   6.461
 5276SOL     OW16726   3.349   6.331   1.715
 5276SOL    HW116727   3.347   6.377   1.626
 5276SOL    HW216728   3.280   6.258   1.717
 5277SOL     OW16729   1.687   3.392   1.768
 5277SOL    HW116730   1.651   3.457   1.701
 5277SOL    HW216731   1.682   3.300   1.729
 5278SOL     OW16732   4.117   3.674   3.136
 5278SOL    HW116733   4.156   3.677   3.228
 5278SOL    HW216734   4.040   3.737   3.130
 5279SOL     OW16735   1.398   6.493   3.163
 5279SOL    HW116736   1.457   6.415   3.142
 5279SOL    HW216737   1.447   6.578   3.140
 5280SOL     OW16738   3.646   0.556   3.782
 5280SOL    HW116739   3.630   0.585   3.876
 5280SOL    HW216740   3.731   0.503   3.778
 5281SOL     OW16741   6.660   2.658   3.929
 5281SOL    HW116742   6.603   2.594   3.878
 5281SOL    HW216743   6.755   2.628   3.926
 5282SOL     OW16744   5.201   2.554   1.146
 5282SOL    HW116745   5.251   2.481   1.100
 5282SOL    HW216746   5.257   2.637   1.148
 5283SOL     OW16747   5.020   5.099   5.222
 5283SOL    HW116748   5.006   5.062   5.314
 5283SOL    HW216749   5.072   5.033   5.168
 5284SOL     OW16750   5.092   2.947   4.292
 5284SOL    HW116751   5.049   2.859   4.272
 5284SOL    HW216752   5.027   3.021   4.275
 5285SOL     OW16753   4.320   5.986   2.679
 5285SOL    HW116754   4.257   5.967   2.604
 5285SOL    HW216755   4.403   6.028   2.644
 5286SOL     OW16756   2.005   4.666   2.188
 5286SOL    HW116757   2.032   4.569   2.191
 5286SOL    HW216758   2.087   4.723   2.193
 5287SOL     OW16759   0.877   0.590   2.609
 5287SOL    HW116760   0.942   0.514   2.612
 5287SOL    HW216761   0.833   0.600   2.698
 5288SOL     OW16762   3.791   0.556   1.018
 5288SOL    HW116763   3.886   0.540   0.993
 5288SOL    HW216764   3.750   0.471   1.051
 5289SOL     OW16765   1.798   6.826   1.812
 5289SOL    HW116766   1.772   6.862   1.722
 5289SOL    HW216767   1.798   6.900   1.879
 5290SOL     OW16768   6.056   6.826   6.465
 5290SOL    HW116769   6.050   6.900   6.532
 5290SOL    HW216770   5.965   6.788   6.448
 5291SOL     OW16771   1.403   5.448   6.791
 5291SOL    HW116772   1.474   5.400   6.740
 5291SOL    HW216773   1.324   5.464   6.732
 5292SOL     OW16774   5.693   1.603   1.287
 5292SOL    HW116775   5.643   1.636   1.367
 5292SOL    HW216776   5.764   1.539   1.316
 5293SOL     OW16777   1.610   1.475   3.948
 5293SOL    HW116778   1.519   1.448   3.918
 5293SOL    HW216779   1.678   1.415   3.906
 5294SOL     OW16780   3.575   1.903   6.675
 5294SOL    HW116781   3.590   1.881   6.579
 5294SOL    HW216782   3.531   1.992   6.683
 5295SOL     OW16783   7.012   1.646   3.238
 5295SOL    HW116784   0.039   1.721   3.275
 5295SOL    HW216785   6.958   1.604   3.311
 5296SOL     OW16786   0.351   2.885   6.518
 5296SOL    HW116787   0.303   2.954   6.463
 5296SOL    HW216788   0.436   2.924   6.553
 5297SOL     OW16789   0.756   2.068   1.711
 5297SOL    HW116790   0.817   2.120   1.771
 5297SOL    HW216791   0.756   2.109   1.620
 5298SOL     OW16792   1.038   4.042   1.840
 5298SOL    HW116793   1.109   3.972   1.837
 5298SOL    HW216794   0.987   4.034   1.926
 5299SOL     OW16795   3.915   0.208   7.025
 5299SOL    HW116796   3.869   0.238   6.941
 5299SOL    HW216797   4.014   0.224   7.016
 5300SOL     OW16798   6.443   5.031   4.716
 5300SOL    HW116799   6.474   5.011   4.623
 5300SOL    HW216800   6.506   5.094   4.760
 5301SOL     OW16801   5.467   0.218   6.727
 5301SOL    HW116802   5.484   0.126   6.691
 5301SOL    HW216803   5.493   0.286   6.658
 5302SOL     OW16804   6.843   4.063   3.119
 5302SOL    HW116805   6.888   4.014   3.044
 5302SOL    HW216806   6.753   4.022   3.137
 5303SOL     OW16807   2.282   4.527   2.493
 5303SOL    HW116808   2.266   4.594   2.565
 5303SOL    HW216809   2.213   4.536   2.421
 5304SOL     OW16810   4.822   1.789   5.670
 5304SOL    HW116811   4.735   1.747   5.643
 5304SOL    HW216812   4.803   1.870   5.727
 5305SOL     OW16813   4.193   1.596   4.556
 5305SOL    HW116814   4.134   1.563   4.482
 5305SOL    HW216815   4.173   1.544   4.639
 5306SOL     OW16816   2.449   6.826   2.861
 5306SOL    HW116817   2.385   6.858   2.931
 5306SOL    HW216818   2.493   6.742   2.893
 5307SOL     OW16819   5.074   6.250   6.800
 5307SOL    HW116820   4.974   6.257   6.797
 5307SOL    HW216821   5.109   6.307   6.875
 5308SOL     OW16822   6.928   1.418   1.560
 5308SOL    HW116823   6.958   1.367   1.479
 5308SOL    HW216824   6.981   1.388   1.639
 5309SOL     OW16825   3.619   3.727   5.731
 5309SOL    HW116826   3.644   3.634   5.703
 5309SOL    HW216827   3.520   3.732   5.744
 5310SOL     OW16828   5.017   2.750   0.144
 5310SOL    HW116829   4.921   2.777   0.151
 5310SOL    HW216830   5.030   2.661   0.188
 5311SOL     OW16831   6.832   5.835   0.318
 5311SOL    HW116832   6.841   5.918   0.371
 5311SOL    HW216833   6.843   5.856   0.220
 5312SOL     OW16834   0.503   4.043   1.792
 5312SOL    HW116835   0.587   4.096   1.785
 5312SOL    HW216836   0.508   3.964   1.731
 5313SOL     OW16837   0.299   6.080   6.643
 5313SOL    HW116838   0.338   6.016   6.577
 5313SOL    HW216839   0.204   6.099   6.619
 5314SOL     OW16840   3.810   4.746   0.690
 5314SOL    HW116841   3.725   4.782   0.654
 5314SOL    HW216842   3.805   4.646   0.694
 5315SOL     OW16843   5.484   1.213   2.550
 5315SOL    HW116844   5.453   1.239   2.459
 5315SOL    HW216845   5.408   1.177   2.603
 5316SOL     OW16846   5.340   4.944   4.681
 5316SOL    HW116847   5.294   5.029   4.654
 5316SOL    HW216848   5.425   4.965   4.729
 5317SOL     OW16849   6.933   4.719   1.732
 5317SOL    HW116850   7.012   4.729   1.793
 5317SOL    HW216851   6.947   4.775   1.650
 5318SOL     OW16852   6.505   2.516   3.751
 5318SOL    HW116853   6.493   2.418   3.763
 5318SOL    HW216854   6.431   2.565   3.797
 5319SOL     OW16855   3.052   6.347   2.875
 5319SOL    HW116856   2.967   6.372   2.828
 5319SOL    HW216857   3.130   6.366   2.815
 5320SOL     OW16858   6.421   1.985   0.022
 5320SOL    HW116859   6.374   1.956   0.106
 5320SOL    HW216860   6.377   1.941   6.971
 5321SOL     OW16861   2.736   4.616   0.020
 5321SOL    HW116862   2.649   4.659   0.043
 5321SOL    HW216863   2.725   4.517   0.019
 5322SOL     OW16864   2.942   6.427   0.436
 5322SOL    HW116865   2.973   6.466   0.349
 5322SOL    HW216866   2.995   6.467   0.510
 5323SOL     OW16867   6.594   3.177   0.472
 5323SOL    HW116868   6.494   3.170   0.475
 5323SOL    HW216869   6.626   3.224   0.554
 5324SOL     OW16870   4.174   3.352   2.075
 5324SOL    HW116871   4.147   3.350   1.978
 5324SOL    HW216872   4.271   3.377   2.082
 5325SOL     OW16873   3.293   6.956   5.720
 5325SOL    HW116874   3.334   0.001   5.776
 5325SOL    HW216875   3.309   6.867   5.763
 5326SOL     OW16876   5.792   0.791   3.487
 5326SOL    HW116877   5.890   0.790   3.502
 5326SOL    HW216878   5.746   0.832   3.566
 5327SOL     OW16879   6.213   6.960   4.030
 5327SOL    HW116880   6.220   6.958   4.130
 5327SOL    HW216881   6.147   6.892   3.999
 5328SOL     OW16882   2.503   4.702   6.470
 5328SOL    HW116883   2.432   4.753   6.422
 5328SOL    HW216884   2.569   4.666   6.404
 5329SOL     OW16885   0.170   6.607   6.393
 5329SOL    HW116886   0.092   6.660   6.360
 5329SOL    HW216887   0.228   6.666   6.449
 5330SOL     OW16888   4.554   4.440   0.775
 5330SOL    HW116889   4.495   4.369   0.738
 5330SOL    HW216890   4.517   4.530   0.751
 5331SOL     OW16891   6.042   1.416   6.923
 5331SOL    HW116892   6.105   1.494   6.924
 5331SOL    HW216893   6.086   1.336   6.964
 5332SOL     OW16894   6.796   3.279   0.084
 5332SOL    HW116895   6.712   3.231   0.055
 5332SOL    HW216896   6.814   3.354   0.021
 5333SOL     OW16897   0.383   6.550   4.137
 5333SOL    HW116898   0.338   6.495   4.066
 5333SOL    HW216899   0.420   6.633   4.096
 5334SOL     OW16900   3.291   5.660   0.975
 5334SOL    HW116901   3.327   5.694   1.062
 5334SOL    HW216902   3.299   5.560   0.973
 5335SOL     OW16903   0.217   5.502   1.943
 5335SOL    HW116904   0.217   5.459   1.852
 5335SOL    HW216905   0.275   5.583   1.941
 5336SOL     OW16906   1.036   3.278   5.281
 5336SOL    HW116907   0.965   3.310   5.344
 5336SOL    HW216908   1.071   3.355   5.229
 5337SOL     OW16909   6.426   1.927   1.029
 5337SOL    HW116910   6.339   1.960   0.993
 5337SOL    HW216911   6.412   1.841   1.078
 5338SOL     OW16912   0.121   3.233   1.825
 5338SOL    HW116913   0.071   3.316   1.800
 5338SOL    HW216914   0.168   3.248   1.912
 5339SOL     OW16915   4.894   3.740   3.042
 5339SOL    HW116916   4.952   3.816   3.013
 5339SOL    HW216917   4.854   3.761   3.131
 5340SOL     OW16918   5.508   3.696   1.569
 5340SOL    HW116919   5.547   3.740   1.650
 5340SOL    HW216920   5.492   3.765   1.498
 5341SOL     OW16921   4.859   5.230   3.381
 5341SOL    HW116922   4.813   5.250   3.294
 5341SOL    HW216923   4.807   5.268   3.457
 5342SOL     OW16924   6.172   5.143   4.860
 5342SOL    HW116925   6.120   5.091   4.928
 5342SOL    HW216926   6.166   5.096   4.772
 5343SOL     OW16927   3.436   3.646   0.001
 5343SOL    HW116928   3.368   3.580   0.034
 5343SOL    HW216929   3.510   3.597   6.982
 5344SOL     OW16930   6.006   1.832   6.867
 5344SOL    HW116931   5.937   1.788   6.924
 5344SOL    HW216932   6.039   1.914   6.914
 5345SOL     OW16933   3.696   1.163   6.893
 5345SOL    HW116934   3.654   1.112   6.817
 5345SOL    HW216935   3.685   1.261   6.877
 5346SOL     OW16936   2.085   6.077   2.884
 5346SOL    HW116937   2.107   6.082   2.982
 5346SOL    HW216938   2.121   5.991   2.846
 5347SOL     OW16939   6.059   2.416   5.238
 5347SOL    HW116940   6.055   2.473   5.157
 5347SOL    HW216941   5.969   2.374   5.255
 5348SOL     OW16942   4.878   2.565   5.352
 5348SOL    HW116943   4.867   2.612   5.439
 5348SOL    HW216944   4.790   2.527   5.323
 5349SOL     OW16945   0.794   4.099   0.430
 5349SOL    HW116946   0.864   4.066   0.493
 5349SOL    HW216947   0.745   4.175   0.471
 5350SOL     OW16948   1.190   0.313   6.780
 5350SOL    HW116949   1.240   0.248   6.723
 5350SOL    HW216950   1.186   0.402   6.734
 5351SOL     OW16951   0.640   5.652   3.798
 5351SOL    HW116952   0.675   5.705   3.875
 5351SOL    HW216953   0.641   5.708   3.715
 5352SOL     OW16954   0.466   2.779   5.803
 5352SOL    HW116955   0.491   2.864   5.850
 5352SOL    HW216956   0.437   2.800   5.710
 5353SOL     OW16957   2.394   6.839   3.182
 5353SOL    HW116958   2.431   6.748   3.168
 5353SOL    HW216959   2.433   6.879   3.265
 5354SOL     OW16960   3.428   6.154   2.025
 5354SOL    HW116961   3.373   6.199   2.096
 5354SOL    HW216962   3.368   6.095   1.969
 5355SOL     OW16963   5.190   4.436   5.414
 5355SOL    HW116964   5.237   4.481   5.490
 5355SOL    HW216965   5.130   4.364   5.450
 5356SOL     OW16966   0.018   6.883   1.647
 5356SOL    HW116967   6.973   6.938   1.604
 5356SOL    HW216968   7.021   6.867   1.743
 5357SOL     OW16969   6.328   3.633   2.494
 5357SOL    HW116970   6.387   3.693   2.549
 5357SOL    HW216971   6.234   3.641   2.525
 5358SOL     OW16972   5.747   0.240   6.406
 5358SOL    HW116973   5.815   0.190   6.353
 5358SOL    HW216974   5.767   0.231   6.503
 5359SOL     OW16975   3.512   2.152   6.661
 5359SOL    HW116976   3.492   2.231   6.601
 5359SOL    HW216977   3.531   2.185   6.753
 5360SOL     OW16978   5.091   5.835   3.424
 5360SOL    HW116979   5.168   5.774   3.442
 5360SOL    HW216980   5.114   5.927   3.457
 5361SOL     OW16981   1.430   3.910   2.722
 5361SOL    HW116982   1.362   3.978   2.749
 5361SOL    HW216983   1.423   3.831   2.783
 5362SOL     OW16984   5.744   1.563   3.870
 5362SOL    HW116985   5.715   1.507   3.792
 5362SOL    HW216986   5.666   1.576   3.932
 5363SOL     OW16987   6.584   4.880   5.900
 5363SOL    HW116988   6.617   4.972   5.876
 5363SOL    HW216989   6.662   4.820   5.917
 5364SOL     OW16990   4.904   2.485   1.648
 5364SOL    HW116991   4.992   2.439   1.632
 5364SOL    HW216992   4.908   2.578   1.611
 5365SOL     OW16993   3.616   3.251   6.157
 5365SOL    HW116994   3.676   3.331   6.151
 5365SOL    HW216995   3.667   3.175   6.196
 5366SOL     OW16996   0.304   4.434   3.934
 5366SOL    HW116997   0.272   4.455   4.026
 5366SOL    HW216998   0.385   4.375   3.939
 5367SOL     OW16999   6.440   6.172   1.283
 5367SOL    HW117000   6.514   6.239   1.291
 5367SOL    HW217001   6.419   6.158   1.186
 5368SOL     OW17002   0.400   5.705   5.436
 5368SOL    HW117003   0.326   5.766   5.463
 5368SOL    HW217004   0.375   5.610   5.457
 5369SOL     OW17005   3.407   0.251   2.517
 5369SOL    HW117006   3.334   0.266   2.450
 5369SOL    HW217007   3.373   0.193   2.591
 5370SOL     OW17008   2.498   1.877   0.330
 5370SOL    HW117009   2.597   1.864   0.340
 5370SOL    HW217010   2.460   1.906   0.418
 5371SOL     OW17011   6.278   5.145   3.342
 5371SOL    HW117012   6.306   5.053   3.314
 5371SOL    HW217013   6.192   5.139   3.392
 5372SOL     OW17014   0.358   0.542   4.207
 5372SOL    HW117015   0.307   0.552   4.292
 5372SOL    HW217016   0.372   0.632   4.165
 5373SOL     OW17017   4.022   6.986   0.580
 5373SOL    HW117018   4.060   0.038   0.530
 5373SOL    HW217019   3.996   7.015   0.672
 5374SOL     OW17020   1.563   3.933   1.199
 5374SOL    HW117021   1.485   3.952   1.258
 5374SOL    HW217022   1.638   3.996   1.221
 5375SOL     OW17023   2.674   5.455   4.732
 5375SOL    HW117024   2.578   5.482   4.738
 5375SOL    HW217025   2.682   5.374   4.674
 5376SOL     OW17026   0.221   6.795   2.487
 5376SOL    HW117027   0.282   6.759   2.417
 5376SOL    HW217028   0.167   6.870   2.448
 5377SOL     OW17029   1.185   2.738   1.914
 5377SOL    HW117030   1.102   2.753   1.968
 5377SOL    HW217031   1.169   2.769   1.820
 5378SOL     OW17032   4.656   0.117   3.571
 5378SOL    HW117033   4.608   0.045   3.520
 5378SOL    HW217034   4.684   0.082   3.660
 5379SOL     OW17035   3.064   2.219   4.135
 5379SOL    HW117036   3.017   2.198   4.220
 5379SOL    HW217037   3.161   2.238   4.153
 5380SOL     OW17038   4.713   6.907   1.776
 5380SOL    HW117039   4.647   6.884   1.704
 5380SOL    HW217040   4.787   6.961   1.736
 5381SOL     OW17041   2.931   1.822   2.504
 5381SOL    HW117042   2.866   1.833   2.579
 5381SOL    HW217043   3.024   1.825   2.539
 5382SOL     OW17044   4.678   0.459   2.818
 5382SOL    HW117045   4.593   0.471   2.767
 5382SOL    HW217046   4.756   0.467   2.756
 5383SOL     OW17047   2.406   4.186   5.361
 5383SOL    HW117048   2.415   4.108   5.299
 5383SOL    HW217049   2.494   4.204   5.405
 5384SOL     OW17050   5.318   6.408   5.464
 5384SOL    HW117051   5.409   6.370   5.447
 5384SOL    HW217052   5.326   6.488   5.525
 5385SOL     OW17053   3.385   3.678   0.608
 5385SOL    HW117054   3.461   3.637   0.659
 5385SOL    HW217055   3.415   3.698   0.515
 5386SOL     OW17056   4.578   4.908   3.191
 5386SOL    HW117057   4.580   4.836   3.122
 5386SOL    HW217058   4.482   4.931   3.212
 5387SOL     OW17059   0.785   2.422   5.376
 5387SOL    HW117060   0.776   2.461   5.284
 5387SOL    HW217061   0.701   2.372   5.399
 5388SOL     OW17062   6.546   6.917   3.409
 5388SOL    HW117063   6.492   6.832   3.407
 5388SOL    HW217064   6.490   6.993   3.376
 5389SOL     OW17065   6.176   1.511   4.700
 5389SOL    HW117066   6.149   1.529   4.606
 5389SOL    HW217067   6.274   1.490   4.703
 5390SOL     OW17068   5.697   3.002   3.260
 5390SOL    HW117069   5.792   3.003   3.228
 5390SOL    HW217070   5.637   2.974   3.184
 5391SOL     OW17071   4.713   3.195   0.705
 5391SOL    HW117072   4.699   3.206   0.803
 5391SOL    HW217073   4.783   3.259   0.673
 5392SOL     OW17074   5.340   0.790   4.069
 5392SOL    HW117075   5.370   0.785   4.164
 5392SOL    HW217076   5.341   0.885   4.038
 5393SOL     OW17077   4.959   3.185   2.812
 5393SOL    HW117078   4.930   3.281   2.812
 5393SOL    HW217079   5.004   3.164   2.725
 5394SOL     OW17080   0.313   3.155   3.234
 5394SOL    HW117081   0.383   3.165   3.163
 5394SOL    HW217082   0.270   3.244   3.250
 5395SOL     OW17083   0.127   0.719   1.618
 5395SOL    HW117084   0.051   0.784   1.612
 5395SOL    HW217085   0.214   0.769   1.615
 5396SOL     OW17086   4.045   2.182   0.397
 5396SOL    HW117087   4.097   2.257   0.356
 5396SOL    HW217088   4.068   2.096   0.351
 5397SOL     OW17089   0.614   6.705   3.036
 5397SOL    HW117090   0.662   6.617   3.032
 5397SOL    HW217091   0.649   6.759   3.113
 5398SOL     OW17092   5.427   2.383   3.072
 5398SOL    HW117093   5.417   2.303   3.130
 5398SOL    HW217094   5.346   2.442   3.081
 5399SOL     OW17095   2.627   2.577   0.401
 5399SOL    HW117096   2.590   2.659   0.358
 5399SOL    HW217097   2.644   2.507   0.331
 5400SOL     OW17098   5.251   2.913   0.517
 5400SOL    HW117099   5.301   2.950   0.595
 5400SOL    HW217100   5.192   2.985   0.479
 5401SOL     OW17101   5.195   4.355   1.222
 5401SOL    HW117102   5.132   4.431   1.238
 5401SOL    HW217103   5.255   4.345   1.301
 5402SOL     OW17104   2.331   5.559   1.806
 5402SOL    HW117105   2.381   5.474   1.789
 5402SOL    HW217106   2.240   5.552   1.767
 5403SOL     OW17107   6.155   2.687   5.465
 5403SOL    HW117108   6.155   2.644   5.555
 5403SOL    HW217109   6.156   2.786   5.475
 5404SOL     OW17110   4.856   6.336   0.156
 5404SOL    HW117111   4.828   6.424   0.195
 5404SOL    HW217112   4.786   6.267   0.176
 5405SOL     OW17113   6.525   5.277   5.902
 5405SOL    HW117114   6.446   5.216   5.902
 5405SOL    HW217115   6.549   5.301   5.996
 5406SOL     OW17116   1.460   1.025   5.425
 5406SOL    HW117117   1.557   1.012   5.446
 5406SOL    HW217118   1.436   1.122   5.434
 5407SOL     OW17119   1.839   1.370   2.545
 5407SOL    HW117120   1.871   1.465   2.547
 5407SOL    HW217121   1.836   1.335   2.639
 5408SOL     OW17122   1.997   2.480   4.822
 5408SOL    HW117123   1.908   2.442   4.848
 5408SOL    HW217124   2.040   2.520   4.902
 5409SOL     OW17125   6.854   4.694   3.569
 5409SOL    HW117126   6.907   4.659   3.647
 5409SOL    HW217127   6.811   4.617   3.521
 5410SOL     OW17128   5.893   1.557   0.387
 5410SOL    HW117129   5.963   1.486   0.394
 5410SOL    HW217130   5.817   1.525   0.332
 5411SOL     OW17131   3.239   6.332   2.242
 5411SOL    HW117132   3.169   6.265   2.267
 5411SOL    HW217133   3.324   6.311   2.290
 5412SOL     OW17134   2.197   1.936   5.926
 5412SOL    HW117135   2.177   1.978   6.014
 5412SOL    HW217136   2.295   1.945   5.906
 5413SOL     OW17137   0.072   5.259   5.544
 5413SOL    HW117138   7.002   5.234   5.540
 5413SOL    HW217139   0.090   5.306   5.631
 5414SOL     OW17140   6.318   5.849   5.779
 5414SOL    HW117141   6.355   5.759   5.802
 5414SOL    HW217142   6.322   5.908   5.860
 5415SOL     OW17143   1.687   0.991   0.373
 5415SOL    HW117144   1.616   0.999   0.302
 5415SOL    HW217145   1.644   0.996   0.463
 5416SOL     OW17146   4.049   5.107   6.071
 5416SOL    HW117147   3.995   5.114   6.155
 5416SOL    HW217148   4.146   5.112   6.093
 5417SOL     OW17149   5.387   0.456   1.423
 5417SOL    HW117150   5.455   0.397   1.466
 5417SOL    HW217151   5.322   0.401   1.372
 5418SOL     OW17152   0.320   2.643   5.275
 5418SOL    HW117153   0.305   2.735   5.239
 5418SOL    HW217154   0.234   2.606   5.311
 5419SOL     OW17155   3.692   2.265   6.195
 5419SOL    HW117156   3.614   2.258   6.132
 5419SOL    HW217157   3.759   2.329   6.157
 5420SOL     OW17158   1.859   1.788   0.999
 5420SOL    HW117159   1.920   1.793   0.921
 5420SOL    HW217160   1.793   1.715   0.985
 5421SOL     OW17161   3.816   5.647   1.013
 5421SOL    HW117162   3.741   5.586   0.989
 5421SOL    HW217163   3.841   5.634   1.109
 5422SOL     OW17164   2.453   6.568   3.151
 5422SOL    HW117165   2.550   6.590   3.139
 5422SOL    HW217166   2.436   6.546   3.247
 5423SOL     OW17167   4.320   6.781   2.682
 5423SOL    HW117168   4.314   6.684   2.662
 5423SOL    HW217169   4.312   6.796   2.780
 5424SOL     OW17170   3.877   3.404   5.396
 5424SOL    HW117171   3.815   3.449   5.461
 5424SOL    HW217172   3.971   3.419   5.425
 5425SOL     OW17173   2.002   5.369   5.150
 5425SOL    HW117174   1.929   5.436   5.134
 5425SOL    HW217175   2.057   5.398   5.228
 5426SOL     OW17176   1.815   4.149   6.884
 5426SOL    HW117177   1.859   4.205   6.955
 5426SOL    HW217178   1.809   4.201   6.800
 5427SOL     OW17179   4.839   1.695   0.642
 5427SOL    HW117180   4.753   1.745   0.650
 5427SOL    HW217181   4.826   1.601   0.674
 5428SOL     OW17182   4.398   5.846   2.930
 5428SOL    HW117183   4.397   5.746   2.920
 5428SOL    HW217184   4.409   5.888   2.840
 5429SOL     OW17185   2.759   6.408   3.754
 5429SOL    HW117186   2.808   6.486   3.715
 5429SOL    HW217187   2.757   6.333   3.688
 5430SOL     OW17188   1.048   4.201   5.449
 5430SOL    HW117189   1.131   4.172   5.400
 5430SOL    HW217190   1.038   4.146   5.532
 5431SOL     OW17191   5.562   4.351   1.105
 5431SOL    HW117192   5.639   4.309   1.152
 5431SOL    HW217193   5.544   4.301   1.020
 5432SOL     OW17194   1.979   5.424   5.703
 5432SOL    HW117195   1.986   5.372   5.618
 5432SOL    HW217196   2.005   5.365   5.780
 5433SOL     OW17197   2.043   6.815   1.038
 5433SOL    HW117198   2.061   6.718   1.052
 5433SOL    HW217199   2.117   6.869   1.079
 5434SOL     OW17200   5.149   5.810   4.575
 5434SOL    HW117201   5.190   5.722   4.549
 5434SOL    HW217202   5.218   5.866   4.622
 5435SOL     OW17203   0.279   3.302   0.149
 5435SOL    HW117204   0.242   3.231   0.089
 5435SOL    HW217205   0.249   3.286   0.243
 5436SOL     OW17206   1.042   4.413   0.934
 5436SOL    HW117207   1.010   4.444   0.845
 5436SOL    HW217208   1.032   4.314   0.941
 5437SOL     OW17209   3.052   6.344   6.017
 5437SOL    HW117210   3.115   6.323   5.942
 5437SOL    HW217211   3.010   6.260   6.050
 5438SOL     OW17212   5.023   6.395   2.666
 5438SOL    HW117213   5.075   6.407   2.751
 5438SOL    HW217214   4.939   6.448   2.671
 5439SOL     OW17215   0.979   3.627   2.090
 5439SOL    HW117216   0.950   3.681   2.011
 5439SOL    HW217217   0.960   3.678   2.174
 5440SOL     OW17218   5.570   6.249   3.206
 5440SOL    HW117219   5.603   6.340   3.182
 5440SOL    HW217220   5.500   6.256   3.277
 5441SOL     OW17221   5.179   0.370   4.961
 5441SOL    HW117222   5.184   0.301   5.033
 5441SOL    HW217223   5.105   0.434   4.982
 5442SOL     OW17224   2.641   6.697   0.113
 5442SOL    HW117225   2.725   6.739   0.077
 5442SOL    HW217226   2.664   6.636   0.189
 5443SOL     OW17227   5.982   1.218   3.325
 5443SOL    HW117228   5.931   1.133   3.314
 5443SOL    HW217229   6.063   1.216   3.267
 5444SOL     OW17230   1.503   1.638   6.509
 5444SOL    HW117231   1.561   1.719   6.509
 5444SOL    HW217232   1.546   1.565   6.456
 5445SOL     OW17233   6.075   6.143   4.867
 5445SOL    HW117234   6.104   6.238   4.879
 5445SOL    HW217235   6.150   6.089   4.830
 5446SOL     OW17236   2.293   3.996   0.207
 5446SOL    HW117237   2.296   4.062   0.131
 5446SOL    HW217238   2.238   3.917   0.180
 5447SOL     OW17239   5.702   2.457   1.669
 5447SOL    HW117240   5.656   2.525   1.612
 5447SOL    HW217241   5.735   2.382   1.612
 5448SOL     OW17242   5.833   5.189   1.488
 5448SOL    HW117243   5.808   5.174   1.583
 5448SOL    HW217244   5.792   5.274   1.455
 5449SOL     OW17245   1.973   0.086   2.829
 5449SOL    HW117246   1.996   0.011   2.767
 5449SOL    HW217247   1.874   0.100   2.829
 5450SOL     OW17248   4.415   4.760   1.611
 5450SOL    HW117249   4.506   4.725   1.629
 5450SOL    HW217250   4.347   4.697   1.650
 5451SOL     OW17251   0.810   5.541   3.515
 5451SOL    HW117252   0.849   5.586   3.596
 5451SOL    HW217253   0.761   5.608   3.460
 5452SOL     OW17254   2.086   3.726   3.362
 5452SOL    HW117255   2.098   3.808   3.307
 5452SOL    HW217256   2.109   3.645   3.307
 5453SOL     OW17257   5.982   5.571   4.130
 5453SOL    HW117258   5.907   5.526   4.178
 5453SOL    HW217259   5.946   5.616   4.048
 5454SOL     OW17260   6.312   3.488   2.081
 5454SOL    HW117261   6.357   3.400   2.100
 5454SOL    HW217262   6.342   3.555   2.149
 5455SOL     OW17263   2.259   2.936   2.788
 5455SOL    HW117264   2.231   2.847   2.823
 5455SOL    HW217265   2.297   2.927   2.696
 5456SOL     OW17266   5.301   2.726   0.045
 5456SOL    HW117267   5.207   2.749   0.068
 5456SOL    HW217268   5.311   2.627   0.041
 5457SOL     OW17269   5.792   1.222   0.590
 5457SOL    HW117270   5.887   1.222   0.558
 5457SOL    HW217271   5.776   1.302   0.649
 5458SOL     OW17272   6.364   4.445   5.794
 5458SOL    HW117273   6.275   4.403   5.808
 5458SOL    HW217274   6.432   4.399   5.850
 5459SOL     OW17275   2.416   3.673   5.724
 5459SOL    HW117276   2.447   3.681   5.629
 5459SOL    HW217277   2.495   3.684   5.785
 5460SOL     OW17278   7.016   1.067   1.342
 5460SOL    HW117279   0.082   1.055   1.307
 5460SOL    HW217280   6.991   1.164   1.338
 5461SOL     OW17281   5.944   0.445   6.661
 5461SOL    HW117282   6.006   0.518   6.634
 5461SOL    HW217283   5.852   0.464   6.626
 5462SOL     OW17284   5.396   4.939   6.954
 5462SOL    HW117285   5.444   4.932   6.866
 5462SOL    HW217286   5.406   5.032   6.989
 5463SOL     OW17287   2.505   4.760   0.046
 5463SOL    HW117288   2.479   4.766   6.976
 5463SOL    HW217289   2.429   4.793   0.103
 5464SOL     OW17290   2.195   5.713   3.931
 5464SOL    HW117291   2.209   5.797   3.879
 5464SOL    HW217292   2.113   5.721   3.987
 5465SOL     OW17293   0.917   1.169   4.916
 5465SOL    HW117294   1.001   1.117   4.898
 5465SOL    HW217295   0.851   1.111   4.963
 5466SOL     OW17296   5.228   2.382   4.954
 5466SOL    HW117297   5.167   2.428   5.018
 5466SOL    HW217298   5.281   2.451   4.904
 5467SOL     OW17299   5.341   4.331   3.998
 5467SOL    HW117300   5.261   4.365   3.949
 5467SOL    HW217301   5.319   4.243   4.040
 5468SOL     OW17302   0.505   2.696   1.144
 5468SOL    HW117303   0.510   2.779   1.199
 5468SOL    HW217304   0.428   2.701   1.082
 5469SOL     OW17305   4.712   1.225   3.142
 5469SOL    HW117306   4.780   1.299   3.138
 5469SOL    HW217307   4.631   1.252   3.090
 5470SOL     OW17308   2.796   4.765   4.067
 5470SOL    HW117309   2.773   4.668   4.069
 5470SOL    HW217310   2.793   4.798   3.972
 5471SOL     OW17311   5.119   0.487   4.295
 5471SOL    HW117312   5.045   0.419   4.295
 5471SOL    HW217313   5.203   0.443   4.264
 5472SOL     OW17314   2.856   3.969   6.934
 5472SOL    HW117315   2.841   3.892   6.872
 5472SOL    HW217316   2.906   4.041   6.886
 5473SOL     OW17317   2.950   4.767   2.243
 5473SOL    HW117318   2.932   4.727   2.153
 5473SOL    HW217319   3.047   4.758   2.265
 5474SOL     OW17320   0.890   5.081   2.016
 5474SOL    HW117321   0.878   5.170   1.971
 5474SOL    HW217322   0.806   5.056   2.064
 5475SOL     OW17323   0.870   1.020   5.322
 5475SOL    HW117324   0.806   1.022   5.398
 5475SOL    HW217325   0.822   0.994   5.238
 5476SOL     OW17326   2.849   0.945   4.720
 5476SOL    HW117327   2.814   1.012   4.787
 5476SOL    HW217328   2.808   0.856   4.739
 5477SOL     OW17329   2.090   3.998   3.529
 5477SOL    HW117330   2.100   3.925   3.461
 5477SOL    HW217331   2.031   4.070   3.493
 5478SOL     OW17332   6.376   3.621   5.790
 5478SOL    HW117333   6.431   3.623   5.706
 5478SOL    HW217334   6.328   3.534   5.797
 5479SOL     OW17335   5.236   4.064   4.393
 5479SOL    HW117336   5.284   4.062   4.480
 5479SOL    HW217337   5.195   3.975   4.375
 5480SOL     OW17338   1.349   2.881   6.001
 5480SOL    HW117339   1.385   2.962   6.048
 5480SOL    HW217340   1.424   2.816   5.984
 5481SOL     OW17341   4.337   1.477   0.419
 5481SOL    HW117342   4.410   1.422   0.461
 5481SOL    HW217343   4.276   1.417   0.368
 5482SOL     OW17344   5.463   4.786   2.257
 5482SOL    HW117345   5.363   4.782   2.259
 5482SOL    HW217346   5.499   4.711   2.201
 5483SOL     OW17347   5.645   1.702   0.592
 5483SOL    HW117348   5.620   1.687   0.497
 5483SOL    HW217349   5.739   1.736   0.597
 5484SOL     OW17350   5.941   0.576   6.215
 5484SOL    HW117351   5.856   0.566   6.163
 5484SOL    HW217352   6.006   0.508   6.184
 5485SOL     OW17353   2.787   0.767   4.224
 5485SOL    HW117354   2.704   0.816   4.251
 5485SOL    HW217355   2.868   0.821   4.250
 5486SOL     OW17356   0.151   0.621   3.921
 5486SOL    HW117357   0.162   0.556   3.996
 5486SOL    HW217358   0.102   0.577   3.845
 5487SOL     OW17359   4.082   5.245   1.243
 5487SOL    HW117360   4.131   5.285   1.320
 5487SOL    HW217361   4.082   5.308   1.165
 5488SOL     OW17362   4.723   0.750   6.326
 5488SOL    HW117363   4.765   0.837   6.300
 5488SOL    HW217364   4.769   0.675   6.278
 5489SOL     OW17365   6.473   4.051   2.680
 5489SOL    HW117366   6.518   4.117   2.621
 5489SOL    HW217367   6.474   3.961   2.636
 5490SOL     OW17368   2.742   0.791   6.717
 5490SOL    HW117369   2.678   0.755   6.649
 5490SOL    HW217370   2.716   0.884   6.742
 5491SOL     OW17371   6.309   6.602   1.411
 5491SOL    HW117372   6.221   6.632   1.374
 5491SOL    HW217373   6.361   6.681   1.442
 5492SOL     OW17374   1.032   1.598   4.930
 5492SOL    HW117375   0.987   1.547   4.856
 5492SOL    HW217376   1.124   1.561   4.943
 5493SOL     OW17377   4.360   1.387   6.939
 5493SOL    HW117378   4.384   1.438   7.022
 5493SOL    HW217379   4.262   1.396   6.921
 5494SOL     OW17380   5.308   3.267   2.526
 5494SOL    HW117381   5.351   3.177   2.521
 5494SOL    HW217382   5.316   3.313   2.437
 5495SOL     OW17383   3.149   3.018   4.403
 5495SOL    HW117384   3.121   2.923   4.390
 5495SOL    HW217385   3.133   3.069   4.318
 5496SOL     OW17386   4.439   5.019   2.206
 5496SOL    HW117387   4.408   4.940   2.153
 5496SOL    HW217388   4.418   5.005   2.302
 5497SOL     OW17389   5.022   0.088   7.020
 5497SOL    HW117390   5.062   0.098   0.085
 5497SOL    HW217391   4.994   0.177   6.986
 5498SOL     OW17392   4.371   1.376   4.154
 5498SOL    HW117393   4.299   1.308   4.165
 5498SOL    HW217394   4.397   1.384   4.058
 5499SOL     OW17395   0.057   0.505   5.200
 5499SOL    HW117396   0.136   0.444   5.209
 5499SOL    HW217397   0.084   0.597   5.226
 5500SOL     OW17398   2.043   6.228   0.820
 5500SOL    HW117399   1.975   6.229   0.746
 5500SOL    HW217400   2.129   6.190   0.786
 5501SOL     OW17401   2.390   0.860   1.848
 5501SOL    HW117402   2.429   0.921   1.779
 5501SOL    HW217403   2.437   0.874   1.936
 5502SOL     OW17404   4.956   4.397   0.562
 5502SOL    HW117405   4.973   4.457   0.640
 5502SOL    HW217406   4.869   4.349   0.575
 5503SOL     OW17407   6.867   0.449   4.027
 5503SOL    HW117408   6.864   0.510   4.106
 5503SOL    HW217409   6.792   0.472   3.965
 5504SOL     OW17410   2.694   2.338   4.669
 5504SOL    HW117411   2.792   2.324   4.683
 5504SOL    HW217412   2.679   2.416   4.609
 5505SOL     OW17413   3.420   4.951   0.531
 5505SOL    HW117414   3.329   4.987   0.515
 5505SOL    HW217415   3.429   4.860   0.490
 5506SOL     OW17416   0.971   6.616   5.250
 5506SOL    HW117417   0.998   6.630   5.155
 5506SOL    HW217418   0.871   6.621   5.257
 5507SOL     OW17419   2.597   5.661   5.007
 5507SOL    HW117420   2.533   5.686   5.080
 5507SOL    HW217421   2.547   5.652   4.921
 5508SOL     OW17422   1.903   0.978   4.985
 5508SOL    HW117423   1.909   1.055   5.047
 5508SOL    HW217424   1.948   0.898   5.026
 5509SOL     OW17425   0.151   0.103   5.979
 5509SOL    HW117426   0.147   0.092   5.880
 5509SOL    HW217427   0.243   0.131   6.006
 5510SOL     OW17428   0.679   6.853   5.126
 5510SOL    HW117429   0.768   6.898   5.119
 5510SOL    HW217430   0.608   6.922   5.139
 5511SOL     OW17431   0.448   2.431   1.253
 5511SOL    HW117432   0.350   2.427   1.272
 5511SOL    HW217433   0.475   2.526   1.237
 5512SOL     OW17434   6.352   0.158   0.320
 5512SOL    HW117435   6.400   0.120   0.399
 5512SOL    HW217436   6.419   0.193   0.254
 5513SOL     OW17437   2.960   5.984   4.095
 5513SOL    HW117438   2.875   5.952   4.053
 5513SOL    HW217439   3.000   5.910   4.150
 5514SOL     OW17440   5.820   6.085   3.306
 5514SOL    HW117441   5.767   6.147   3.249
 5514SOL    HW217442   5.861   6.136   3.382
 5515SOL     OW17443   0.323   3.700   3.347
 5515SOL    HW117444   0.420   3.673   3.353
 5515SOL    HW217445   0.294   3.738   3.435
 5516SOL     OW17446   1.923   2.815   0.149
 5516SOL    HW117447   1.934   2.870   0.067
 5516SOL    HW217448   1.949   2.868   0.229
 5517SOL     OW17449   3.113   0.984   1.993
 5517SOL    HW117450   3.014   0.993   2.008
 5517SOL    HW217451   3.136   1.017   1.902
 5518SOL     OW17452   5.487   3.422   5.845
 5518SOL    HW117453   5.440   3.428   5.934
 5518SOL    HW217454   5.487   3.512   5.801
 5519SOL     OW17455   5.449   5.057   2.562
 5519SOL    HW117456   5.527   5.115   2.584
 5519SOL    HW217457   5.372   5.079   2.622
 5520SOL     OW17458   1.433   3.004   0.790
 5520SOL    HW117459   1.406   3.044   0.702
 5520SOL    HW217460   1.400   3.061   0.864
 5521SOL     OW17461   5.627   4.437   6.062
 5521SOL    HW117462   5.558   4.449   5.991
 5521SOL    HW217463   5.633   4.340   6.087
 5522SOL     OW17464   1.447   2.515   1.566
 5522SOL    HW117465   1.452   2.609   1.532
 5522SOL    HW217466   1.422   2.516   1.663
 5523SOL     OW17467   3.106   6.329   1.377
 5523SOL    HW117468   3.081   6.389   1.302
 5523SOL    HW217469   3.205   6.318   1.380
 5524SOL     OW17470   6.295   6.833   5.736
 5524SOL    HW117471   6.305   6.815   5.639
 5524SOL    HW217472   6.197   6.843   5.758
 5525SOL     OW17473   6.423   6.489   3.359
 5525SOL    HW117474   6.481   6.544   3.419
 5525SOL    HW217475   6.476   6.413   3.321
 5526SOL     OW17476   5.581   3.062   4.613
 5526SOL    HW117477   5.560   2.998   4.688
 5526SOL    HW217478   5.645   3.132   4.646
 5527SOL     OW17479   2.712   3.444   6.914
 5527SOL    HW117480   2.723   3.537   6.880
 5527SOL    HW217481   2.638   3.399   6.863
 5528SOL     OW17482   6.607   2.999   2.503
 5528SOL    HW117483   6.507   2.996   2.505
 5528SOL    HW217484   6.643   2.906   2.494
 5529SOL     OW17485   1.453   0.802   4.064
 5529SOL    HW117486   1.452   0.840   4.156
 5529SOL    HW217487   1.372   0.834   4.013
 5530SOL     OW17488   6.736   2.992   6.830
 5530SOL    HW117489   6.689   2.928   6.891
 5530SOL    HW217490   6.688   3.080   6.831
 5531SOL     OW17491   2.802   3.215   0.242
 5531SOL    HW117492   2.750   3.190   0.159
 5531SOL    HW217493   2.818   3.313   0.242
 5532SOL     OW17494   2.792   2.603   1.463
 5532SOL    HW117495   2.771   2.506   1.447
 5532SOL    HW217496   2.821   2.615   1.558
 5533SOL     OW17497   3.291   0.485   1.120
 5533SOL    HW117498   3.248   0.516   1.035
 5533SOL    HW217499   3.351   0.407   1.101
 5534SOL     OW17500   0.788   3.519   5.191
 5534SOL    HW117501   0.830   3.466   5.264
 5534SOL    HW217502   0.753   3.458   5.121
 5535SOL     OW17503   4.896   4.585   3.867
 5535SOL    HW117504   4.958   4.663   3.865
 5535SOL    HW217505   4.870   4.566   3.962
 5536SOL     OW17506   2.496   1.179   4.171
 5536SOL    HW117507   2.513   1.205   4.076
 5536SOL    HW217508   2.398   1.169   4.185
 5537SOL     OW17509   3.613   0.917   3.720
 5537SOL    HW117510   3.536   0.941   3.778
 5537SOL    HW217511   3.654   1.000   3.683
 5538SOL     OW17512   5.102   2.259   2.021
 5538SOL    HW117513   5.041   2.312   2.081
 5538SOL    HW217514   5.195   2.262   2.057
 5539SOL     OW17515   1.572   0.534   6.281
 5539SOL    HW117516   1.496   0.591   6.249
 5539SOL    HW217517   1.616   0.578   6.359
 5540SOL     OW17518   5.318   0.149   5.336
 5540SOL    HW117519   5.305   0.138   5.238
 5540SOL    HW217520   5.391   0.088   5.367
 5541SOL     OW17521   4.238   2.685   5.706
 5541SOL    HW117522   4.231   2.619   5.631
 5541SOL    HW217523   4.249   2.777   5.669
 5542SOL     OW17524   5.048   4.390   6.307
 5542SOL    HW117525   5.082   4.403   6.400
 5542SOL    HW217526   5.124   4.367   6.246
 5543SOL     OW17527   0.628   0.081   6.282
 5543SOL    HW117528   0.625   7.009   6.291
 5543SOL    HW217529   0.633   0.123   6.373
 5544SOL     OW17530   3.339   5.048   0.211
 5544SOL    HW117531   3.425   5.089   0.243
 5544SOL    HW217532   3.266   5.117   0.215
 5545SOL     OW17533   5.784   1.803   2.923
 5545SOL    HW117534   5.851   1.775   2.854
 5545SOL    HW217535   5.832   1.835   3.004
 5546SOL     OW17536   0.471   5.811   4.471
 5546SOL    HW117537   0.447   5.714   4.458
 5546SOL    HW217538   0.507   5.847   4.385
 5547SOL     OW17539   5.210   1.452   4.853
 5547SOL    HW117540   5.166   1.541   4.864
 5547SOL    HW217541   5.193   1.396   4.933
 5548SOL     OW17542   0.835   3.796   5.168
 5548SOL    HW117543   0.796   3.857   5.237
 5548SOL    HW217544   0.794   3.705   5.177
 5549SOL     OW17545   3.968   2.887   0.913
 5549SOL    HW117546   3.899   2.827   0.872
 5549SOL    HW217547   4.024   2.834   0.976
 5550SOL     OW17548   2.639   3.725   1.541
 5550SOL    HW117549   2.593   3.810   1.567
 5550SOL    HW217550   2.732   3.745   1.513
 5551SOL     OW17551   1.550   4.884   2.309
 5551SOL    HW117552   1.533   4.891   2.211
 5551SOL    HW217553   1.571   4.789   2.333
 5552SOL     OW17554   0.905   0.750   0.203
 5552SOL    HW117555   0.998   0.780   0.222
 5552SOL    HW217556   0.894   0.654   0.229
 5553SOL     OW17557   5.474   6.601   0.186
 5553SOL    HW117558   5.500   6.510   0.152
 5553SOL    HW217559   5.554   6.662   0.181
 5554SOL     OW17560   6.596   2.431   1.673
 5554SOL    HW117561   6.539   2.383   1.607
 5554SOL    HW217562   6.538   2.475   1.741
 5555SOL     OW17563   1.755   5.012   2.444
 5555SOL    HW117564   1.812   5.024   2.362
 5555SOL    HW217565   1.661   4.994   2.416
 5556SOL     OW17566   6.803   1.498   4.781
 5556SOL    HW117567   6.795   1.399   4.785
 5556SOL    HW217568   6.775   1.530   4.690
 5557SOL     OW17569   3.365   6.743   3.007
 5557SOL    HW117570   3.435   6.673   3.020
 5557SOL    HW217571   3.275   6.702   3.014
 5558SOL     OW17572   4.227   3.343   6.320
 5558SOL    HW117573   4.297   3.409   6.348
 5558SOL    HW217574   4.178   3.309   6.400
 5559SOL     OW17575   3.486   0.419   3.265
 5559SOL    HW117576   3.460   0.391   3.358
 5559SOL    HW217577   3.571   0.470   3.268
 5560SOL     OW17578   7.023   5.936   3.357
 5560SOL    HW117579   0.014   5.994   3.436
 5560SOL    HW217580   6.985   5.849   3.387
 5561SOL     OW17581   3.335   0.639   3.488
 5561SOL    HW117582   3.414   0.671   3.436
 5561SOL    HW217583   3.365   0.574   3.559
 5562SOL     OW17584   4.423   3.249   0.529
 5562SOL    HW117585   4.462   3.328   0.481
 5562SOL    HW217586   4.497   3.190   0.561
 5563SOL     OW17587   2.312   4.511   1.975
 5563SOL    HW117588   2.220   4.534   1.941
 5563SOL    HW217589   2.308   4.495   2.073
 5564SOL     OW17590   4.642   7.026   6.067
 5564SOL    HW117591   4.605   6.936   6.093
 5564SOL    HW217592   4.578   0.071   6.095
 5565SOL     OW17593   3.745   1.401   6.160
 5565SOL    HW117594   3.833   1.376   6.200
 5565SOL    HW217595   3.721   1.337   6.088
 5566SOL     OW17596   1.784   5.221   5.508
 5566SOL    HW117597   1.762   5.311   5.469
 5566SOL    HW217598   1.714   5.196   5.575
 5567SOL     OW17599   0.865   5.135   6.904
 5567SOL    HW117600   0.857   5.060   6.970
 5567SOL    HW217601   0.858   5.097   6.811
 5568SOL     OW17602   5.013   5.496   1.831
 5568SOL    HW117603   5.067   5.453   1.759
 5568SOL    HW217604   5.074   5.538   1.899
 5569SOL     OW17605   2.249   1.871   2.543
 5569SOL    HW117606   2.278   1.967   2.537
 5569SOL    HW217607   2.150   1.865   2.531
 5570SOL     OW17608   6.403   3.775   1.520
 5570SOL    HW117609   6.367   3.773   1.614
 5570SOL    HW217610   6.445   3.865   1.503
 5571SOL     OW17611   6.703   4.564   0.429
 5571SOL    HW117612   6.728   4.555   0.333
 5571SOL    HW217613   6.784   4.588   0.483
 5572SOL     OW17614   1.311   4.396   5.020
 5572SOL    HW117615   1.219   4.361   5.041
 5572SOL    HW217616   1.379   4.346   5.073
 5573SOL     OW17617   3.506   4.950   3.706
 5573SOL    HW117618   3.511   4.899   3.792
 5573SOL    HW217619   3.597   4.951   3.663
 5574SOL     OW17620   1.182   1.305   6.229
 5574SOL    HW117621   1.104   1.252   6.260
 5574SOL    HW217622   1.249   1.243   6.186
 5575SOL     OW17623   0.072   0.791   1.972
 5575SOL    HW117624   0.172   0.794   1.967
 5575SOL    HW217625   0.043   0.704   2.013
 5576SOL     OW17626   1.755   4.793   3.740
 5576SOL    HW117627   1.659   4.816   3.751
 5576SOL    HW217628   1.764   4.712   3.682
 5577SOL     OW17629   2.642   2.436   6.387
 5577SOL    HW117630   2.659   2.519   6.440
 5577SOL    HW217631   2.618   2.461   6.293
 5578SOL     OW17632   3.787   3.967   4.139
 5578SOL    HW117633   3.873   3.955   4.089
 5578SOL    HW217634   3.752   4.059   4.123
 5579SOL     OW17635   6.114   3.281   1.658
 5579SOL    HW117636   6.080   3.317   1.571
 5579SOL    HW217637   6.184   3.211   1.639
 5580SOL     OW17638   5.503   1.976   5.519
 5580SOL    HW117639   5.594   1.983   5.478
 5580SOL    HW217640   5.511   1.951   5.616
 5581SOL     OW17641   1.091   1.236   6.727
 5581SOL    HW117642   1.148   1.266   6.650
 5581SOL    HW217643   1.057   1.316   6.777
 5582SOL     OW17644   3.100   2.340   6.068
 5582SOL    HW117645   3.135   2.311   5.979
 5582SOL    HW217646   3.017   2.393   6.056
 5583SOL     OW17647   6.103   6.767   0.643
 5583SOL    HW117648   6.147   6.688   0.686
 5583SOL    HW217649   6.160   6.801   0.568
 5584SOL     OW17650   1.543   2.909   4.769
 5584SOL    HW117651   1.637   2.943   4.775
 5584SOL    HW217652   1.491   2.945   4.847
 5585SOL     OW17653   5.873   4.759   1.441
 5585SOL    HW117654   5.800   4.822   1.418
 5585SOL    HW217655   5.902   4.709   1.359
 5586SOL     OW17656   0.953   5.284   1.369
 5586SOL    HW117657   1.008   5.205   1.397
 5586SOL    HW217658   1.000   5.368   1.397
 5587SOL     OW17659   6.294   0.737   5.714
 5587SOL    HW117660   6.312   0.651   5.666
 5587SOL    HW217661   6.262   0.717   5.806
 5588SOL     OW17662   3.633   6.905   0.699
 5588SOL    HW117663   3.648   6.806   0.701
 5588SOL    HW217664   3.536   6.925   0.711
 5589SOL     OW17665   6.847   4.348   5.974
 5589SOL    HW117666   6.756   4.385   5.954
 5589SOL    HW217667   6.858   4.261   5.926
 5590SOL     OW17668   5.797   5.282   3.446
 5590SOL    HW117669   5.717   5.340   3.431
 5590SOL    HW217670   5.805   5.216   3.370
 5591SOL     OW17671   5.092   1.386   2.265
 5591SOL    HW117672   5.006   1.355   2.223
 5591SOL    HW217673   5.083   1.383   2.365
 5592SOL     OW17674   0.105   5.344   3.947
 5592SOL    HW117675   0.025   5.352   3.887
 5592SOL    HW217676   0.188   5.353   3.892
 5593SOL     OW17677   1.119   4.036   0.534
 5593SOL    HW117678   1.064   3.954   0.554
 5593SOL    HW217679   1.184   4.051   0.608
 5594SOL     OW17680   6.130   1.450   5.726
 5594SOL    HW117681   6.036   1.481   5.731
 5594SOL    HW217682   6.138   1.360   5.770
 5595SOL     OW17683   0.880   1.950   0.750
 5595SOL    HW117684   0.876   1.888   0.672
 5595SOL    HW217685   0.789   1.963   0.787
 5596SOL     OW17686   3.780   6.021   3.184
 5596SOL    HW117687   3.843   5.948   3.157
 5596SOL    HW217688   3.792   6.099   3.123
 5597SOL     OW17689   5.033   3.331   1.814
 5597SOL    HW117690   5.011   3.242   1.773
 5597SOL    HW217691   4.996   3.335   1.906
 5598SOL     OW17692   3.806   0.786   4.306
 5598SOL    HW117693   3.735   0.716   4.303
 5598SOL    HW217694   3.886   0.754   4.255
 5599SOL     OW17695   0.779   1.293   3.572
 5599SOL    HW117696   0.739   1.381   3.598
 5599SOL    HW217697   0.705   1.228   3.554
 5600SOL     OW17698   2.494   2.844   5.395
 5600SOL    HW117699   2.507   2.916   5.326
 5600SOL    HW217700   2.570   2.845   5.459
 5601SOL     OW17701   2.273   0.742   6.497
 5601SOL    HW117702   2.238   0.826   6.456
 5601SOL    HW217703   2.232   0.663   6.451
 5602SOL     OW17704   2.203   0.746   0.079
 5602SOL    HW117705   2.108   0.773   0.089
 5602SOL    HW217706   2.216   0.704   7.015
 5603SOL     OW17707   6.193   4.046   5.195
 5603SOL    HW117708   6.218   4.107   5.119
 5603SOL    HW217709   6.119   4.087   5.248
 5604SOL     OW17710   5.248   0.813   6.253
 5604SOL    HW117711   5.296   0.900   6.256
 5604SOL    HW217712   5.196   0.807   6.167
 5605SOL     OW17713   0.543   1.683   6.732
 5605SOL    HW117714   0.558   1.674   6.634
 5605SOL    HW217715   0.578   1.602   6.779
 5606SOL     OW17716   5.581   0.632   3.058
 5606SOL    HW117717   5.622   0.616   2.968
 5606SOL    HW217718   5.643   0.601   3.130
 5607SOL     OW17719   4.939   0.570   1.325
 5607SOL    HW117720   4.902   0.596   1.236
 5607SOL    HW217721   4.944   0.470   1.332
 5608SOL     OW17722   3.823   6.637   4.944
 5608SOL    HW117723   3.811   6.609   5.039
 5608SOL    HW217724   3.832   6.556   4.886
 5609SOL     OW17725   1.341   5.843   5.494
 5609SOL    HW117726   1.350   5.925   5.437
 5609SOL    HW217727   1.374   5.863   5.586
 5610SOL     OW17728   4.418   0.250   6.513
 5610SOL    HW117729   4.410   0.158   6.475
 5610SOL    HW217730   4.328   0.283   6.541
 5611SOL     OW17731   1.900   4.089   4.515
 5611SOL    HW117732   1.887   4.149   4.594
 5611SOL    HW217733   1.907   3.994   4.546
 5612SOL     OW17734   3.410   6.208   4.681
 5612SOL    HW117735   3.425   6.307   4.677
 5612SOL    HW217736   3.344   6.181   4.611
 5613SOL     OW17737   3.337   5.346   1.939
 5613SOL    HW117738   3.410   5.409   1.968
 5613SOL    HW217739   3.262   5.350   2.005
 5614SOL     OW17740   5.183   1.905   4.386
 5614SOL    HW117741   5.170   1.857   4.299
 5614SOL    HW217742   5.270   1.877   4.427
 5615SOL     OW17743   1.036   1.662   1.960
 5615SOL    HW117744   0.941   1.678   1.987
 5615SOL    HW217745   1.039   1.604   1.878
 5616SOL     OW17746   2.182   6.429   5.344
 5616SOL    HW117747   2.205   6.364   5.416
 5616SOL    HW217748   2.201   6.388   5.255
 5617SOL     OW17749   0.563   1.065   5.957
 5617SOL    HW117750   0.648   1.018   5.978
 5617SOL    HW217751   0.538   1.049   5.862
 5618SOL     OW17752   6.358   5.333   2.744
 5618SOL    HW117753   6.261   5.340   2.769
 5618SOL    HW217754   6.365   5.312   2.646
 5619SOL     OW17755   2.115   4.026   5.242
 5619SOL    HW117756   2.198   4.031   5.187
 5619SOL    HW217757   2.071   3.937   5.227
 5620SOL     OW17758   5.064   1.827   6.864
 5620SOL    HW117759   5.089   1.918   6.897
 5620SOL    HW217760   5.137   1.791   6.806
 5621SOL     OW17761   2.521   1.866   6.975
 5621SOL    HW117762   2.605   1.813   6.961
 5621SOL    HW217763   2.491   1.904   6.888
 5622SOL     OW17764   5.748   0.103   5.249
 5622SOL    HW117765   5.654   0.099   5.283
 5622SOL    HW217766   5.753   0.060   5.159
 5623SOL     OW17767   0.156   5.866   0.088
 5623SOL    HW117768   0.147   5.962   0.060
 5623SOL    HW217769   0.076   5.815   0.056
 5624SOL     OW17770   0.787   4.333   2.040
 5624SOL    HW117771   0.828   4.302   2.126
 5624SOL    HW217772   0.807   4.268   1.967
 5625SOL     OW17773   6.501   2.044   5.944
 5625SOL    HW117774   6.564   2.009   5.876
 5625SOL    HW217775   6.430   2.098   5.899
 5626SOL     OW17776   5.517   6.910   5.215
 5626SOL    HW117777   5.600   6.862   5.187
 5626SOL    HW217778   5.437   6.862   5.177
 5627SOL     OW17779   1.214   0.378   1.191
 5627SOL    HW117780   1.239   0.473   1.175
 5627SOL    HW217781   1.167   0.341   1.111
 5628SOL     OW17782   1.721   1.557   4.224
 5628SOL    HW117783   1.745   1.638   4.171
 5628SOL    HW217784   1.754   1.475   4.177
 5629SOL     OW17785   3.532   3.028   3.641
 5629SOL    HW117786   3.626   3.055   3.659
 5629SOL    HW217787   3.479   3.109   3.613
 5630SOL     OW17788   6.490   3.890   0.667
 5630SOL    HW117789   6.398   3.929   0.663
 5630SOL    HW217790   6.532   3.914   0.755
 5631SOL     OW17791   5.709   1.167   6.481
 5631SOL    HW117792   5.725   1.093   6.546
 5631SOL    HW217793   5.771   1.157   6.403
 5632SOL     OW17794   3.316   2.067   0.504
 5632SOL    HW117795   3.285   2.035   0.594
 5632SOL    HW217796   3.264   2.148   0.478
 5633SOL     OW17797   6.805   3.056   5.555
 5633SOL    HW117798   6.850   2.969   5.574
 5633SOL    HW217799   6.746   3.081   5.632
 5634SOL     OW17800   4.524   6.471   4.973
 5634SOL    HW117801   4.586   6.393   4.963
 5634SOL    HW217802   4.437   6.450   4.929
 5635SOL     OW17803   3.260   1.561   6.054
 5635SOL    HW117804   3.286   1.639   6.111
 5635SOL    HW217805   3.343   1.519   6.015
 5636SOL     OW17806   4.224   6.762   4.325
 5636SOL    HW117807   4.212   6.672   4.367
 5636SOL    HW217808   4.311   6.764   4.275
 5637SOL     OW17809   5.809   6.996   3.340
 5637SOL    HW117810   5.755   0.034   3.393
 5637SOL    HW217811   5.748   6.929   3.296
 5638SOL     OW17812   0.024   3.758   0.227
 5638SOL    HW117813   0.123   3.765   0.240
 5638SOL    HW217814   7.026   3.662   0.211
 5639SOL     OW17815   4.293   6.801   0.128
 5639SOL    HW117816   4.353   6.777   0.052
 5639SOL    HW217817   4.306   6.898   0.151
 5640SOL     OW17818   1.169   0.048   3.154
 5640SOL    HW117819   1.204   0.039   3.247
 5640SOL    HW217820   1.231   0.106   3.101
 5641SOL     OW17821   6.937   5.046   4.769
 5641SOL    HW117822   0.005   5.056   4.798
 5641SOL    HW217823   6.876   5.058   4.848
 5642SOL     OW17824   1.512   0.958   0.135
 5642SOL    HW117825   1.497   0.865   0.101
 5642SOL    HW217826   1.452   1.021   0.086
 5643SOL     OW17827   5.586   1.693   6.109
 5643SOL    HW117828   5.683   1.692   6.086
 5643SOL    HW217829   5.555   1.787   6.119
 5644SOL     OW17830   2.507   0.498   6.070
 5644SOL    HW117831   2.428   0.554   6.046
 5644SOL    HW217832   2.491   0.404   6.042
 5645SOL     OW17833   5.926   3.999   4.141
 5645SOL    HW117834   6.015   4.004   4.095
 5645SOL    HW217835   5.856   4.041   4.082
 5646SOL     OW17836   0.339   4.255   2.669
 5646SOL    HW117837   0.388   4.226   2.588
 5646SOL    HW217838   0.403   4.296   2.734
 5647SOL     OW17839   5.090   6.018   2.833
 5647SOL    HW117840   5.020   6.063   2.888
 5647SOL    HW217841   5.165   6.082   2.815
 5648SOL     OW17842   4.876   6.240   3.443
 5648SOL    HW117843   4.942   6.309   3.415
 5648SOL    HW217844   4.840   6.193   3.362
 5649SOL     OW17845   0.467   0.341   4.520
 5649SOL    HW117846   0.562   0.326   4.495
 5649SOL    HW217847   0.450   0.305   4.612
 5650SOL     OW17848   7.022   3.681   6.263
 5650SOL    HW117849   0.066   3.748   6.241
 5650SOL    HW217850   6.977   3.707   6.349
 5651SOL     OW17851   2.841   1.094   0.888
 5651SOL    HW117852   2.866   1.055   0.977
 5651SOL    HW217853   2.751   1.138   0.895
 5652SOL     OW17854   0.518   5.724   2.849
 5652SOL    HW117855   0.597   5.753   2.903
 5652SOL    HW217856   0.450   5.797   2.847
 5653SOL     OW17857   6.752   0.742   2.816
 5653SOL    HW117858   6.732   0.647   2.843
 5653SOL    HW217859   6.721   0.804   2.888
 5654SOL     OW17860   3.411   6.065   5.646
 5654SOL    HW117861   3.507   6.037   5.648
 5654SOL    HW217862   3.406   6.164   5.634
 5655SOL     OW17863   5.613   3.052   4.330
 5655SOL    HW117864   5.523   3.045   4.288
 5655SOL    HW217865   5.603   3.058   4.429
 5656SOL     OW17866   0.283   3.962   0.750
 5656SOL    HW117867   0.313   3.911   0.670
 5656SOL    HW217868   0.223   3.905   0.806
 5657SOL     OW17869   5.828   6.003   4.861
 5657SOL    HW117870   5.910   6.059   4.850
 5657SOL    HW217871   5.853   5.907   4.860
 5658SOL     OW17872   2.643   2.561   6.156
 5658SOL    HW117873   2.743   2.566   6.156
 5658SOL    HW217874   2.607   2.609   6.076
 5659SOL     OW17875   2.388   4.176   6.349
 5659SOL    HW117876   2.464   4.116   6.373
 5659SOL    HW217877   2.305   4.122   6.337
 5660SOL     OW17878   3.602   0.008   4.356
 5660SOL    HW117879   3.668   0.028   4.430
 5660SOL    HW217880   3.538   0.085   4.349
 5661SOL     OW17881   0.807   5.583   6.327
 5661SOL    HW117882   0.716   5.590   6.288
 5661SOL    HW217883   0.875   5.578   6.254
 5662SOL     OW17884   2.924   6.226   1.084
 5662SOL    HW117885   2.853   6.282   1.128
 5662SOL    HW217886   2.976   6.284   1.021
 5663SOL     OW17887   2.980   2.393   6.453
 5663SOL    HW117888   2.998   2.448   6.535
 5663SOL    HW217889   2.925   2.314   6.479
 5664SOL     OW17890   5.162   5.223   4.295
 5664SOL    HW117891   5.259   5.213   4.316
 5664SOL    HW217892   5.144   5.186   4.204
 5665SOL     OW17893   1.805   0.926   1.029
 5665SOL    HW117894   1.866   0.889   1.099
 5665SOL    HW217895   1.760   0.850   0.981
 5666SOL     OW17896   6.059   3.109   4.733
 5666SOL    HW117897   6.113   3.039   4.686
 5666SOL    HW217898   6.096   3.200   4.713
 5667SOL     OW17899   3.012   4.886   4.164
 5667SOL    HW117900   2.932   4.827   4.150
 5667SOL    HW217901   3.050   4.870   4.255
 5668SOL     OW17902   4.515   4.796   3.899
 5668SOL    HW117903   4.528   4.706   3.859
 5668SOL    HW217904   4.509   4.865   3.827
 5669SOL     OW17905   5.801   4.422   5.611
 5669SOL    HW117906   5.749   4.374   5.681
 5669SOL    HW217907   5.790   4.376   5.523
 5670SOL     OW17908   1.169   2.535   4.219
 5670SOL    HW117909   1.151   2.478   4.299
 5670SOL    HW217910   1.252   2.589   4.235
 5671SOL     OW17911   6.260   6.031   2.710
 5671SOL    HW117912   6.265   6.008   2.807
 5671SOL    HW217913   6.350   6.019   2.668
 5672SOL     OW17914   5.251   3.261   4.442
 5672SOL    HW117915   5.319   3.207   4.492
 5672SOL    HW217916   5.296   3.318   4.374
 5673SOL     OW17917   0.151   2.414   0.420
 5673SOL    HW117918   0.187   2.361   0.343
 5673SOL    HW217919   0.121   2.352   0.493
 5674SOL     OW17920   2.653   5.297   5.451
 5674SOL    HW117921   2.616   5.254   5.369
 5674SOL    HW217922   2.736   5.348   5.429
 5675SOL     OW17923   2.944   2.310   0.898
 5675SOL    HW117924   2.999   2.248   0.843
 5675SOL    HW217925   2.989   2.324   0.987
 5676SOL     OW17926   3.869   1.506   1.761
 5676SOL    HW117927   3.955   1.538   1.801
 5676SOL    HW217928   3.801   1.579   1.768
 5677SOL     OW17929   1.074   1.591   6.246
 5677SOL    HW117930   1.101   1.498   6.221
 5677SOL    HW217931   0.998   1.588   6.311
 5678SOL     OW17932   4.012   1.986   2.162
 5678SOL    HW117933   4.090   1.927   2.185
 5678SOL    HW217934   3.927   1.942   2.192
 5679SOL     OW17935   0.076   3.958   5.912
 5679SOL    HW117936   0.153   3.995   5.860
 5679SOL    HW217937   0.047   3.871   5.871
 5680SOL     OW17938   0.629   5.515   4.981
 5680SOL    HW117939   0.632   5.570   4.898
 5680SOL    HW217940   0.568   5.558   5.047
 5681SOL     OW17941   1.258   3.580   3.106
 5681SOL    HW117942   1.302   3.532   3.182
 5681SOL    HW217943   1.168   3.612   3.135
 5682SOL     OW17944   1.869   4.603   0.837
 5682SOL    HW117945   1.845   4.689   0.791
 5682SOL    HW217946   1.794   4.577   0.898
 5683SOL     OW17947   0.203   0.373   5.740
 5683SOL    HW117948   0.208   0.273   5.741
 5683SOL    HW217949   0.107   0.401   5.743
 5684SOL     OW17950   1.830   2.938   5.245
 5684SOL    HW117951   1.806   2.893   5.159
 5684SOL    HW217952   1.928   2.961   5.245
 5685SOL     OW17953   2.015   1.791   1.796
 5685SOL    HW117954   1.934   1.767   1.744
 5685SOL    HW217955   2.053   1.877   1.763
 5686SOL     OW17956   5.852   6.018   5.529
 5686SOL    HW117957   5.849   5.998   5.431
 5686SOL    HW217958   5.931   5.972   5.570
 5687SOL     OW17959   1.567   0.145   6.559
 5687SOL    HW117960   1.473   0.148   6.593
 5687SOL    HW217961   1.629   0.128   6.635
 5688SOL     OW17962   1.564   2.146   2.918
 5688SOL    HW117963   1.496   2.217   2.941
 5688SOL    HW217964   1.596   2.103   3.002
 5689SOL     OW17965   7.018   2.460   1.168
 5689SOL    HW117966   6.947   2.507   1.221
 5689SOL    HW217967   0.076   2.458   1.221
 5690SOL     OW17968   2.976   5.448   0.218
 5690SOL    HW117969   3.023   5.528   0.254
 5690SOL    HW217970   2.960   5.460   0.120
 5691SOL     OW17971   4.676   2.708   3.445
 5691SOL    HW117972   4.739   2.711   3.367
 5691SOL    HW217973   4.600   2.646   3.424
 5692SOL     OW17974   6.423   4.857   1.763
 5692SOL    HW117975   6.327   4.859   1.736
 5692SOL    HW217976   6.481   4.867   1.682
 5693SOL     OW17977   3.248   0.949   2.619
 5693SOL    HW117978   3.175   0.939   2.687
 5693SOL    HW217979   3.280   0.858   2.591
 5694SOL     OW17980   0.405   0.312   1.044
 5694SOL    HW117981   0.457   0.264   0.973
 5694SOL    HW217982   0.463   0.327   1.123
 5695SOL     OW17983   2.250   1.142   1.980
 5695SOL    HW117984   2.231   1.066   1.918
 5695SOL    HW217985   2.170   1.159   2.038
 5696SOL     OW17986   0.071   0.507   3.676
 5696SOL    HW117987   0.097   0.416   3.643
 5696SOL    HW217988   0.042   0.563   3.598
 5697SOL     OW17989   6.265   1.893   0.469
 5697SOL    HW117990   6.303   1.818   0.523
 5697SOL    HW217991   6.275   1.873   0.372
 5698SOL     OW17992   3.017   2.157   3.413
 5698SOL    HW117993   3.114   2.174   3.433
 5698SOL    HW217994   3.009   2.078   3.352
 5699SOL     OW17995   2.583   2.422   2.440
 5699SOL    HW117996   2.664   2.400   2.496
 5699SOL    HW217997   2.516   2.348   2.448
 5700SOL     OW17998   5.676   7.002   2.495
 5700SOL    HW117999   5.740   6.948   2.549
 5700SOL    HW218000   5.647   0.056   2.546
 5701SOL     OW18001   1.700   0.420   0.987
 5701SOL    HW118002   1.628   0.369   1.035
 5701SOL    HW218003   1.697   0.397   0.890
 5702SOL     OW18004   1.442   6.193   5.127
 5702SOL    HW118005   1.445   6.175   5.029
 5702SOL    HW218006   1.358   6.155   5.166
 5703SOL     OW18007   1.094   2.633   6.145
 5703SOL    HW118008   1.000   2.652   6.115
 5703SOL    HW218009   1.108   2.534   6.148
 5704SOL     OW18010   4.098   5.817   4.408
 5704SOL    HW118011   4.108   5.852   4.501
 5704SOL    HW218012   4.119   5.719   4.406
 5705SOL     OW18013   5.774   1.136   4.988
 5705SOL    HW118014   5.845   1.084   4.940
 5705SOL    HW218015   5.814   1.221   5.022
 5706SOL     OW18016   5.496   1.265   0.990
 5706SOL    HW118017   5.483   1.202   0.914
 5706SOL    HW218018   5.549   1.220   1.062
 5707SOL     OW18019   5.730   5.837   1.169
 5707SOL    HW118020   5.750   5.739   1.177
 5707SOL    HW218021   5.692   5.856   1.078
 5708SOL     OW18022   5.113   6.285   2.114
 5708SOL    HW118023   5.061   6.203   2.088
 5708SOL    HW218024   5.210   6.268   2.099
 5709SOL     OW18025   0.522   3.136   2.373
 5709SOL    HW118026   0.526   3.113   2.275
 5709SOL    HW218027   0.427   3.153   2.399
 5710SOL     OW18028   5.345   1.471   0.866
 5710SOL    HW118029   5.392   1.521   0.938
 5710SOL    HW218030   5.383   1.379   0.859
 5711SOL     OW18031   4.539   1.719   1.892
 5711SOL    HW118032   4.554   1.706   1.794
 5711SOL    HW218033   4.476   1.649   1.925
 5712SOL     OW18034   6.595   6.453   6.766
 5712SOL    HW118035   6.676   6.507   6.745
 5712SOL    HW218036   6.623   6.366   6.807
 5713SOL     OW18037   1.190   1.479   0.981
 5713SOL    HW118038   1.173   1.574   0.953
 5713SOL    HW218039   1.119   1.450   1.044
 5714SOL     OW18040   5.895   0.391   0.918
 5714SOL    HW118041   5.974   0.359   0.970
 5714SOL    HW218042   5.924   0.416   0.826
 5715SOL     OW18043   6.880   6.499   1.223
 5715SOL    HW118044   6.838   6.505   1.313
 5715SOL    HW218045   6.965   6.552   1.222
 5716SOL     OW18046   0.811   4.627   5.422
 5716SOL    HW118047   0.760   4.706   5.456
 5716SOL    HW218048   0.760   4.583   5.349
 5717SOL     OW18049   0.050   5.428   3.413
 5717SOL    HW118050   0.129   5.380   3.375
 5717SOL    HW218051   0.018   5.496   3.347
 5718SOL     OW18052   1.020   4.260   0.428
 5718SOL    HW118053   0.932   4.241   0.386
 5718SOL    HW218054   1.049   4.181   0.482
 5719SOL     OW18055   3.276   3.069   0.623
 5719SOL    HW118056   3.251   3.005   0.696
 5719SOL    HW218057   3.317   3.151   0.663
 5720SOL     OW18058   3.041   4.834   6.498
 5720SOL    HW118059   3.117   4.786   6.542
 5720SOL    HW218060   2.966   4.770   6.482
 5721SOL     OW18061   0.954   3.273   0.710
 5721SOL    HW118062   0.910   3.197   0.757
 5721SOL    HW218063   1.022   3.315   0.770
 5722SOL     OW18064   1.648   0.358   5.900
 5722SOL    HW118065   1.632   0.452   5.871
 5722SOL    HW218066   1.686   0.357   5.992
 5723SOL     OW18067   4.118   3.511   0.358
 5723SOL    HW118068   4.059   3.431   0.346
 5723SOL    HW218069   4.082   3.568   0.432
 5724SOL     OW18070   6.051   2.076   6.028
 5724SOL    HW118071   6.132   2.053   6.083
 5724SOL    HW218072   6.051   2.019   5.945
 5725SOL     OW18073   0.084   4.381   4.816
 5725SOL    HW118074   0.017   4.428   4.874
 5725SOL    HW218075   0.084   4.423   4.725
 5726SOL     OW18076   4.265   4.674   2.182
 5726SOL    HW118077   4.356   4.715   2.187
 5726SOL    HW218078   4.263   4.604   2.111
 5727SOL     OW18079   1.344   3.227   5.833
 5727SOL    HW118080   1.417   3.285   5.866
 5727SOL    HW218081   1.329   3.243   5.736
 5728SOL     OW18082   2.952   6.605   4.811
 5728SOL    HW118083   2.983   6.510   4.816
 5728SOL    HW218084   3.032   6.666   4.810
 5729SOL     OW18085   3.000   1.910   4.525
 5729SOL    HW118086   2.900   1.907   4.518
 5729SOL    HW218087   3.034   1.990   4.475
 5730SOL     OW18088   6.373   4.370   5.204
 5730SOL    HW118089   6.377   4.332   5.112
 5730SOL    HW218090   6.431   4.452   5.209
 5731SOL     OW18091   0.537   6.728   2.538
 5731SOL    HW118092   0.481   6.709   2.458
 5731SOL    HW218093   0.530   6.825   2.562
 5732SOL     OW18094   5.119   0.475   3.430
 5732SOL    HW118095   5.214   0.501   3.447
 5732SOL    HW218096   5.082   0.430   3.511
 5733SOL     OW18097   2.916   1.124   5.050
 5733SOL    HW118098   2.943   1.060   5.122
 5733SOL    HW218099   2.998   1.168   5.012
 5734SOL     OW18100   1.459   6.724   4.152
 5734SOL    HW118101   1.451   6.821   4.127
 5734SOL    HW218102   1.373   6.678   4.136
 5735SOL     OW18103   2.867   1.031   1.173
 5735SOL    HW118104   2.954   0.996   1.207
 5735SOL    HW218105   2.804   0.954   1.157
 5736SOL     OW18106   1.745   4.874   0.800
 5736SOL    HW118107   1.811   4.946   0.777
 5736SOL    HW218108   1.689   4.854   0.719
 5737SOL     OW18109   5.993   4.143   6.975
 5737SOL    HW118110   5.964   4.225   7.024
 5737SOL    HW218111   6.084   4.116   7.007
 5738SOL     OW18112   0.443   5.125   4.153
 5738SOL    HW118113   0.505   5.083   4.087
 5738SOL    HW218114   0.490   5.199   4.200
 5739SOL     OW18115   0.569   2.680   0.688
 5739SOL    HW118116   0.656   2.730   0.693
 5739SOL    HW218117   0.564   2.614   0.764
 5740SOL     OW18118   4.096   5.232   0.098
 5740SOL    HW118119   4.178   5.177   0.110
 5740SOL    HW218120   4.016   5.172   0.090
 5741SOL     OW18121   0.521   2.877   2.206
 5741SOL    HW118122   0.433   2.845   2.170
 5741SOL    HW218123   0.568   2.801   2.251
 5742SOL     OW18124   0.678   5.213   3.625
 5742SOL    HW118125   0.692   5.310   3.610
 5742SOL    HW218126   0.580   5.194   3.636
 5743SOL     OW18127   0.954   6.713   5.541
 5743SOL    HW118128   0.922   6.684   5.451
 5743SOL    HW218129   1.035   6.660   5.567
 5744SOL     OW18130   6.333   0.513   1.805
 5744SOL    HW118131   6.268   0.585   1.781
 5744SOL    HW218132   6.409   0.553   1.857
 5745SOL     OW18133   6.695   3.573   2.663
 5745SOL    HW118134   6.732   3.589   2.755
 5745SOL    HW218135   6.624   3.503   2.667
 5746SOL     OW18136   0.096   4.443   6.023
 5746SOL    HW118137   0.102   4.345   6.045
 5746SOL    HW218138   0.001   4.467   6.006
 5747SOL     OW18139   0.099   6.107   3.624
 5747SOL    HW118140   0.042   6.087   3.704
 5747SOL    HW218141   0.154   6.026   3.602
 5748SOL     OW18142   1.348   0.598   4.241
 5748SOL    HW118143   1.255   0.597   4.278
 5748SOL    HW218144   1.370   0.691   4.210
 5749SOL     OW18145   0.395   0.732   3.225
 5749SOL    HW118146   0.476   0.688   3.263
 5749SOL    HW218147   0.400   0.831   3.240
 5750SOL     OW18148   5.651   0.063   2.160
 5750SOL    HW118149   5.707   0.144   2.175
 5750SOL    HW218150   5.628   0.021   2.248
 5751SOL     OW18151   0.929   2.221   6.631
 5751SOL    HW118152   1.027   2.237   6.631
 5751SOL    HW218153   0.909   2.132   6.671
 5752SOL     OW18154   1.686   1.219   6.876
 5752SOL    HW118155   1.728   1.307   6.897
 5752SOL    HW218156   1.587   1.225   6.888
 5753SOL     OW18157   4.470   1.158   6.901
 5753SOL    HW118158   4.435   1.251   6.911
 5753SOL    HW218159   4.425   1.114   6.823
 5754SOL     OW18160   6.240   5.827   0.712
 5754SOL    HW118161   6.230   5.746   0.654
 5754SOL    HW218162   6.268   5.799   0.804
 5755SOL     OW18163   3.446   3.727   1.612
 5755SOL    HW118164   3.452   3.701   1.516
 5755SOL    HW218165   3.538   3.746   1.647
 5756SOL     OW18166   6.230   6.940   4.313
 5756SOL    HW118167   6.304   6.872   4.321
 5756SOL    HW218168   6.172   6.936   4.394
 5757SOL     OW18169   6.308   6.438   1.662
 5757SOL    HW118170   6.272   6.370   1.726
 5757SOL    HW218171   6.266   6.423   1.572
 5758SOL     OW18172   2.971   0.671   5.656
 5758SOL    HW118173   3.062   0.641   5.682
 5758SOL    HW218174   2.915   0.684   5.737
 5759SOL     OW18175   0.943   0.945   6.073
 5759SOL    HW118176   0.886   0.900   6.004
 5759SOL    HW218177   1.000   1.015   6.030
 5760SOL     OW18178   0.022   5.967   1.115
 5760SOL    HW118179   7.010   5.979   1.207
 5760SOL    HW218180   6.986   5.912   1.059
 5761SOL     OW18181   4.258   0.854   3.846
 5761SOL    HW118182   4.256   0.880   3.942
 5761SOL    HW218183   4.174   0.806   3.822
 5762SOL     OW18184   4.999   6.679   1.297
 5762SOL    HW118185   4.906   6.644   1.294
 5762SOL    HW218186   5.051   6.627   1.365
 5763SOL     OW18187   3.459   0.888   0.411
 5763SOL    HW118188   3.468   0.922   0.505
 5763SOL    HW218189   3.367   0.852   0.397
 5764SOL     OW18190   3.667   2.923   6.556
 5764SOL    HW118191   3.720   2.926   6.641
 5764SOL    HW218192   3.728   2.901   6.480
 5765SOL     OW18193   7.006   5.446   7.001
 5765SOL    HW118194   6.926   5.445   6.942
 5765SOL    HW218195   6.983   5.409   0.064
 5766SOL     OW18196   2.132   1.574   2.481
 5766SOL    HW118197   2.208   1.629   2.448
 5766SOL    HW218198   2.148   1.478   2.459
 5767SOL     OW18199   5.181   6.420   0.436
 5767SOL    HW118200   5.124   6.344   0.467
 5767SOL    HW218201   5.247   6.387   0.369
 5768SOL     OW18202   6.230   6.681   1.701
 5768SOL    HW118203   6.190   6.651   1.788
 5768SOL    HW218204   6.260   6.601   1.648
 5769SOL     OW18205   0.439   4.539   3.121
 5769SOL    HW118206   0.344   4.526   3.091
 5769SOL    HW218207   0.482   4.451   3.134
 5770SOL     OW18208   5.181   2.401   1.786
 5770SOL    HW118209   5.106   2.370   1.844
 5770SOL    HW218210   5.267   2.360   1.816
 5771SOL     OW18211   1.018   0.663   1.917
 5771SOL    HW118212   0.992   0.677   1.821
 5771SOL    HW218213   1.096   0.722   1.939
 5772SOL     OW18214   6.751   5.653   5.875
 5772SOL    HW118215   6.769   5.568   5.924
 5772SOL    HW218216   6.685   5.635   5.802
 5773SOL     OW18217   5.276   6.238   4.498
 5773SOL    HW118218   5.354   6.181   4.475
 5773SOL    HW218219   5.233   6.271   4.414
 5774SOL     OW18220   1.893   4.965   1.954
 5774SOL    HW118221   1.963   4.907   1.912
 5774SOL    HW218222   1.888   4.946   2.052
 5775SOL     OW18223   0.993   0.713   0.916
 5775SOL    HW118224   0.904   0.684   0.953
 5775SOL    HW218225   1.001   0.812   0.924
 5776SOL     OW18226   4.887   1.068   5.988
 5776SOL    HW118227   4.918   1.163   6.000
 5776SOL    HW218228   4.791   1.061   6.016
 5777SOL     OW18229   5.922   6.428   4.435
 5777SOL    HW118230   5.853   6.494   4.405
 5777SOL    HW218231   5.900   6.398   4.528
 5778SOL     OW18232   2.602   0.050   3.896
 5778SOL    HW118233   2.591   0.132   3.953
 5778SOL    HW218234   2.553   7.001   3.937
 5779SOL     OW18235   3.922   0.140   2.374
 5779SOL    HW118236   4.009   0.094   2.391
 5779SOL    HW218237   3.934   0.210   2.303
 5780SOL     OW18238   6.749   4.574   0.138
 5780SOL    HW118239   6.663   4.536   0.104
 5780SOL    HW218240   6.753   4.671   0.116
 5781SOL     OW18241   4.032   4.011   5.764
 5781SOL    HW118242   4.024   4.095   5.711
 5781SOL    HW218243   4.030   3.932   5.702
 5782SOL     OW18244   5.042   1.980   2.894
 5782SOL    HW118245   4.946   1.977   2.866
 5782SOL    HW218246   5.098   2.011   2.817
 5783SOL     OW18247   3.518   6.199   3.226
 5783SOL    HW118248   3.489   6.255   3.303
 5783SOL    HW218249   3.589   6.135   3.256
 5784SOL     OW18250   0.982   6.421   1.923
 5784SOL    HW118251   1.025   6.359   1.987
 5784SOL    HW218252   0.921   6.483   1.973
 5785SOL     OW18253   2.639   1.701   6.424
 5785SOL    HW118254   2.643   1.786   6.476
 5785SOL    HW218255   2.711   1.639   6.456
 5786SOL     OW18256   2.085   1.793   6.770
 5786SOL    HW118257   2.106   1.785   6.673
 5786SOL    HW218258   2.170   1.785   6.823
 5787SOL     OW18259   0.638   2.087   5.879
 5787SOL    HW118260   0.672   1.998   5.911
 5787SOL    HW218261   0.666   2.158   5.943
 5788SOL     OW18262   0.700   2.679   1.600
 5788SOL    HW118263   0.734   2.649   1.511
 5788SOL    HW218264   0.612   2.637   1.618
 5789SOL     OW18265   3.114   0.047   0.591
 5789SOL    HW118266   3.108   0.124   0.654
 5789SOL    HW218267   3.159   0.076   0.506
 5790SOL     OW18268   6.338   6.399   2.528
 5790SOL    HW118269   6.383   6.331   2.471
 5790SOL    HW218270   6.239   6.391   2.520
 5791SOL     OW18271   4.106   0.587   0.985
 5791SOL    HW118272   4.080   0.669   1.037
 5791SOL    HW218273   4.202   0.565   1.004
 5792SOL     OW18274   4.309   2.378   2.630
 5792SOL    HW118275   4.399   2.408   2.661
 5792SOL    HW218276   4.240   2.446   2.659
 5793SOL     OW18277   4.447   2.384   0.609
 5793SOL    HW118278   4.349   2.365   0.597
 5793SOL    HW218279   4.460   2.446   0.686
 5794SOL     OW18280   3.222   6.485   6.905
 5794SOL    HW118281   3.178   6.400   6.875
 5794SOL    HW218282   3.293   6.464   6.972
 5795SOL     OW18283   1.102   1.430   1.799
 5795SOL    HW118284   1.172   1.375   1.843
 5795SOL    HW218285   1.072   1.385   1.714
 5796SOL     OW18286   4.683   0.753   5.960
 5796SOL    HW118287   4.737   0.706   6.029
 5796SOL    HW218288   4.591   0.713   5.957
 5797SOL     OW18289   6.239   1.847   0.184
 5797SOL    HW118290   6.144   1.840   0.154
 5797SOL    HW218291   6.272   1.756   0.211
 5798SOL     OW18292   1.831   2.821   4.977
 5798SOL    HW118293   1.836   2.904   4.922
 5798SOL    HW218294   1.924   2.794   5.005
 5799SOL     OW18295   3.015   0.339   4.016
 5799SOL    HW118296   2.967   0.256   3.987
 5799SOL    HW218297   2.948   0.409   4.041
 5800SOL     OW18298   1.735   6.129   1.624
 5800SOL    HW118299   1.797   6.051   1.612
 5800SOL    HW218300   1.660   6.102   1.684
 5801SOL     OW18301   1.766   2.451   3.091
 5801SOL    HW118302   1.752   2.504   3.008
 5801SOL    HW218303   1.679   2.409   3.119
 5802SOL     OW18304   7.003   0.049   3.008
 5802SOL    HW118305   0.040   0.117   2.974
 5802SOL    HW218306   0.026   6.992   3.032
 5803SOL     OW18307   0.371   6.268   4.352
 5803SOL    HW118308   0.311   6.319   4.413
 5803SOL    HW218309   0.354   6.296   4.257
 5804SOL     OW18310   5.986   2.280   3.281
 5804SOL    HW118311   5.981   2.327   3.193
 5804SOL    HW218312   5.910   2.310   3.338
 5805SOL     OW18313   0.795   2.629   1.058
 5805SOL    HW118314   0.704   2.599   1.029
 5805SOL    HW218315   0.798   2.729   1.058
 5806SOL     OW18316   6.339   4.116   1.573
 5806SOL    HW118317   6.377   4.091   1.662
 5806SOL    HW218318   6.239   4.118   1.580
 5807SOL     OW18319   0.786   0.739   2.845
 5807SOL    HW118320   0.747   0.832   2.847
 5807SOL    HW218321   0.712   0.672   2.852
 5808SOL     OW18322   6.674   5.902   5.964
 5808SOL    HW118323   6.745   5.921   6.032
 5808SOL    HW218324   6.694   5.815   5.918
 5809SOL     OW18325   6.693   3.394   4.731
 5809SOL    HW118326   6.666   3.472   4.674
 5809SOL    HW218327   6.612   3.355   4.775
 5810SOL     OW18328   1.191   6.395   5.148
 5810SOL    HW118329   1.282   6.431   5.171
 5810SOL    HW218330   1.132   6.471   5.119
 5811SOL     OW18331   3.204   4.796   0.285
 5811SOL    HW118332   3.113   4.835   0.266
 5811SOL    HW218333   3.273   4.867   0.270
 5812SOL     OW18334   6.566   2.373   6.124
 5812SOL    HW118335   6.470   2.345   6.127
 5812SOL    HW218336   6.583   2.440   6.197
 5813SOL     OW18337   6.476   5.661   1.246
 5813SOL    HW118338   6.497   5.589   1.181
 5813SOL    HW218339   6.542   5.658   1.322
 5814SOL     OW18340   5.163   1.901   2.587
 5814SOL    HW118341   5.171   1.996   2.618
 5814SOL    HW218342   5.067   1.875   2.583
 5815SOL     OW18343   6.732   4.498   5.199
 5815SOL    HW118344   6.803   4.549   5.247
 5815SOL    HW218345   6.646   4.550   5.201
 5816SOL     OW18346   0.058   4.138   1.304
 5816SOL    HW118347   0.021   4.204   1.239
 5816SOL    HW218348   0.143   4.100   1.269
 5817SOL     OW18349   6.185   2.733   4.130
 5817SOL    HW118350   6.138   2.821   4.126
 5817SOL    HW218351   6.260   2.738   4.196
 5818SOL     OW18352   2.543   0.439   4.489
 5818SOL    HW118353   2.495   0.508   4.542
 5818SOL    HW218354   2.477   0.374   4.451
 5819SOL     OW18355   3.884   3.920   1.218
 5819SOL    HW118356   3.973   3.963   1.201
 5819SOL    HW218357   3.896   3.821   1.225
 5820SOL     OW18358   0.757   6.654   2.256
 5820SOL    HW118359   0.804   6.633   2.341
 5820SOL    HW218360   0.731   6.751   2.256
 5821SOL     OW18361   5.387   6.212   2.046
 5821SOL    HW118362   5.345   6.142   1.988
 5821SOL    HW218363   5.474   6.240   2.007
 5822SOL     OW18364   0.807   4.002   3.300
 5822SOL    HW118365   0.871   3.926   3.308
 5822SOL    HW218366   0.835   4.076   3.361
 5823SOL     OW18367   2.815   6.527   5.181
 5823SOL    HW118368   2.802   6.503   5.084
 5823SOL    HW218369   2.803   6.445   5.237
 5824SOL     OW18370   2.344   5.338   2.506
 5824SOL    HW118371   2.407   5.325   2.429
 5824SOL    HW218372   2.277   5.408   2.482
 5825SOL     OW18373   3.680   2.107   4.302
 5825SOL    HW118374   3.639   2.146   4.220
 5825SOL    HW218375   3.727   2.179   4.354
 5826SOL     OW18376   1.360   6.101   5.418
 5826SOL    HW118377   1.453   6.126   5.447
 5826SOL    HW218378   1.310   6.184   5.395
 5827SOL     OW18379   1.931   4.087   4.077
 5827SOL    HW118380   1.984   4.019   4.128
 5827SOL    HW218381   1.861   4.127   4.136
 5828SOL     OW18382   4.649   0.364   5.378
 5828SOL    HW118383   4.700   0.282   5.403
 5828SOL    HW218384   4.551   0.343   5.376
 5829SOL     OW18385   1.891   1.315   2.852
 5829SOL    HW118386   1.797   1.344   2.869
 5829SOL    HW218387   1.952   1.355   2.921
 5830SOL     OW18388   5.203   5.176   4.623
 5830SOL    HW118389   5.108   5.169   4.594
 5830SOL    HW218390   5.210   5.245   4.695
 5831SOL     OW18391   2.537   1.991   4.380
 5831SOL    HW118392   2.540   2.057   4.455
 5831SOL    HW218393   2.576   2.032   4.298
 5832SOL     OW18394   2.593   5.041   3.428
 5832SOL    HW118395   2.586   5.138   3.451
 5832SOL    HW218396   2.585   4.986   3.512
 5833SOL     OW18397   2.306   4.506   1.517
 5833SOL    HW118398   2.368   4.551   1.581
 5833SOL    HW218399   2.238   4.573   1.485
 5834SOL     OW18400   5.840   1.685   6.022
 5834SOL    HW118401   5.930   1.691   6.066
 5834SOL    HW218402   5.849   1.633   5.937
 5835SOL     OW18403   3.751   0.788   3.938
 5835SOL    HW118404   3.731   0.831   3.850
 5835SOL    HW218405   3.729   0.851   4.012
 5836SOL     OW18406   5.430   4.900   1.123
 5836SOL    HW118407   5.457   4.806   1.142
 5836SOL    HW218408   5.369   4.933   1.196
 5837SOL     OW18409   1.963   4.287   0.073
 5837SOL    HW118410   2.002   4.322   0.158
 5837SOL    HW218411   1.986   4.349   7.025
 5838SOL     OW18412   2.851   3.080   0.532
 5838SOL    HW118413   2.925   3.085   0.465
 5838SOL    HW218414   2.774   3.030   0.493
 5839SOL     OW18415   2.381   1.650   0.931
 5839SOL    HW118416   2.460   1.596   0.903
 5839SOL    HW218417   2.309   1.642   0.862
 5840SOL     OW18418   6.161   4.093   2.231
 5840SOL    HW118419   6.133   4.002   2.262
 5840SOL    HW218420   6.147   4.159   2.306
 5841SOL     OW18421   5.131   2.181   0.912
 5841SOL    HW118422   5.172   2.141   0.830
 5841SOL    HW218423   5.068   2.116   0.954
 5842SOL     OW18424   3.710   2.094   2.322
 5842SOL    HW118425   3.746   2.001   2.314
 5842SOL    HW218426   3.730   2.145   2.238
 5843SOL     OW18427   2.916   2.582   0.847
 5843SOL    HW118428   2.839   2.602   0.787
 5843SOL    HW218429   2.925   2.483   0.858
 5844SOL     OW18430   6.856   5.444   5.426
 5844SOL    HW118431   6.824   5.350   5.442
 5844SOL    HW218432   6.918   5.445   5.347
 5845SOL     OW18433   1.815   6.149   2.948
 5845SOL    HW118434   1.803   6.246   2.969
 5845SOL    HW218435   1.912   6.128   2.941
 5846SOL     OW18436   0.872   4.327   4.823
 5846SOL    HW118437   0.908   4.401   4.766
 5846SOL    HW218438   0.840   4.252   4.765
 5847SOL     OW18439   2.293   4.050   5.545
 5847SOL    HW118440   2.344   4.107   5.481
 5847SOL    HW218441   2.310   3.954   5.526
 5848SOL     OW18442   3.078   6.517   1.145
 5848SOL    HW118443   3.001   6.567   1.107
 5848SOL    HW218444   3.153   6.516   1.079
 5849SOL     OW18445   2.808   5.924   6.295
 5849SOL    HW118446   2.772   5.834   6.273
 5849SOL    HW218447   2.901   5.915   6.330
 5850SOL     OW18448   5.095   1.969   1.316
 5850SOL    HW118449   5.003   1.998   1.343
 5850SOL    HW218450   5.157   1.979   1.394
 5851SOL     OW18451   1.323   2.804   5.580
 5851SOL    HW118452   1.360   2.870   5.645
 5851SOL    HW218453   1.277   2.731   5.629
 5852SOL     OW18454   4.288   4.945   3.224
 5852SOL    HW118455   4.270   4.849   3.244
 5852SOL    HW218456   4.304   4.995   3.309
 5853SOL     OW18457   4.453   4.489   0.099
 5853SOL    HW118458   4.477   4.394   0.078
 5853SOL    HW218459   4.515   4.525   0.167
 5854SOL     OW18460   2.842   4.455   5.389
 5854SOL    HW118461   2.756   4.507   5.391
 5854SOL    HW218462   2.899   4.488   5.314
 5855SOL     OW18463   1.659   2.067   4.870
 5855SOL    HW118464   1.565   2.083   4.898
 5855SOL    HW218465   1.662   2.051   4.771
 5856SOL     OW18466   0.613   0.815   1.871
 5856SOL    HW118467   0.686   0.883   1.870
 5856SOL    HW218468   0.650   0.727   1.898
 5857SOL     OW18469   6.301   5.585   6.881
 5857SOL    HW118470   6.358   5.538   6.813
 5857SOL    HW218471   6.230   5.637   6.834
 5858SOL     OW18472   3.288   1.776   1.906
 5858SOL    HW118473   3.262   1.870   1.929
 5858SOL    HW218474   3.350   1.777   1.828
 5859SOL     OW18475   6.151   5.173   1.706
 5859SOL    HW118476   6.136   5.265   1.669
 5859SOL    HW218477   6.064   5.135   1.736
 5860SOL     OW18478   1.846   2.959   1.824
 5860SOL    HW118479   1.901   2.984   1.903
 5860SOL    HW218480   1.764   2.910   1.854
 5861SOL     OW18481   5.345   0.097   5.066
 5861SOL    HW118482   5.408   0.174   5.079
 5861SOL    HW218483   5.364   0.052   4.978
 5862SOL     OW18484   0.148   4.893   1.590
 5862SOL    HW118485   0.170   4.835   1.668
 5862SOL    HW218486   0.226   4.953   1.571
 5863SOL     OW18487   4.204   6.625   6.296
 5863SOL    HW118488   4.232   6.713   6.259
 5863SOL    HW218489   4.262   6.601   6.374
 5864SOL     OW18490   3.739   3.422   3.655
 5864SOL    HW118491   3.777   3.475   3.731
 5864SOL    HW218492   3.732   3.326   3.681
 5865SOL     OW18493   6.543   6.503   1.312
 5865SOL    HW118494   6.450   6.535   1.331
 5865SOL    HW218495   6.578   6.455   1.392
 5866SOL     OW18496   3.289   3.688   4.437
 5866SOL    HW118497   3.373   3.740   4.449
 5866SOL    HW218498   3.299   3.625   4.359
 5867SOL     OW18499   4.815   0.682   1.103
 5867SOL    HW118500   4.732   0.673   1.047
 5867SOL    HW218501   4.854   0.773   1.091
 5868SOL     OW18502   1.927   0.873   1.416
 5868SOL    HW118503   1.986   0.832   1.486
 5868SOL    HW218504   1.940   0.825   1.329
 5869SOL     OW18505   1.943   5.300   3.809
 5869SOL    HW118506   1.902   5.389   3.790
 5869SOL    HW218507   2.041   5.304   3.792
 5870SOL     OW18508   3.973   6.381   3.581
 5870SOL    HW118509   3.913   6.461   3.583
 5870SOL    HW218510   3.943   6.319   3.509
 5871SOL     OW18511   3.401   2.995   3.248
 5871SOL    HW118512   3.432   3.071   3.191
 5871SOL    HW218513   3.469   2.976   3.319
 5872SOL     OW18514   3.748   5.178   1.371
 5872SOL    HW118515   3.743   5.250   1.301
 5872SOL    HW218516   3.742   5.089   1.326
 5873SOL     OW18517   4.112   6.925   2.578
 5873SOL    HW118518   4.124   7.002   2.514
 5873SOL    HW218519   4.201   6.902   2.618
 5874SOL     OW18520   0.175   4.144   4.942
 5874SOL    HW118521   0.115   4.074   4.902
 5874SOL    HW218522   0.145   4.235   4.914
 5875SOL     OW18523   4.429   3.391   1.047
 5875SOL    HW118524   4.369   3.353   1.118
 5875SOL    HW218525   4.392   3.369   0.957
 5876SOL     OW18526   3.233   3.468   2.579
 5876SOL    HW118527   3.188   3.387   2.615
 5876SOL    HW218528   3.214   3.546   2.639
 5877SOL     OW18529   4.919   4.421   1.656
 5877SOL    HW118530   4.933   4.387   1.750
 5877SOL    HW218531   4.835   4.381   1.619
 5878SOL     OW18532   0.487   3.497   1.466
 5878SOL    HW118533   0.458   3.438   1.541
 5878SOL    HW218534   0.440   3.586   1.474
 5879SOL     OW18535   1.665   4.491   5.024
 5879SOL    HW118536   1.609   4.416   5.060
 5879SOL    HW218537   1.632   4.578   5.061
 5880SOL     OW18538   2.344   5.207   0.273
 5880SOL    HW118539   2.348   5.291   0.218
 5880SOL    HW218540   2.395   5.221   0.358
 5881SOL     OW18541   1.504   6.481   3.955
 5881SOL    HW118542   1.411   6.460   3.925
 5881SOL    HW218543   1.500   6.545   4.032
 5882SOL     OW18544   4.541   0.827   3.246
 5882SOL    HW118545   4.601   0.877   3.184
 5882SOL    HW218546   4.587   0.814   3.334
 5883SOL     OW18547   1.351   3.014   5.421
 5883SOL    HW118548   1.364   2.981   5.327
 5883SOL    HW218549   1.311   2.942   5.477
 5884SOL     OW18550   6.750   0.913   3.264
 5884SOL    HW118551   6.723   0.889   3.358
 5884SOL    HW218552   6.826   0.855   3.236
 5885SOL     OW18553   5.843   6.202   0.315
 5885SOL    HW118554   5.931   6.159   0.296
 5885SOL    HW218555   5.801   6.231   0.229
 5886SOL     OW18556   5.711   1.431   5.335
 5886SOL    HW118557   5.626   1.428   5.283
 5886SOL    HW218558   5.719   1.350   5.392
 5887SOL     OW18559   2.960   6.728   2.581
 5887SOL    HW118560   2.995   6.791   2.512
 5887SOL    HW218561   2.867   6.699   2.556
 5888SOL     OW18562   6.648   5.989   1.937
 5888SOL    HW118563   6.676   5.925   1.865
 5888SOL    HW218564   6.636   6.080   1.898
 5889SOL     OW18565   3.384   6.732   0.456
 5889SOL    HW118566   3.398   6.674   0.376
 5889SOL    HW218567   3.321   6.687   0.519
 5890SOL     OW18568   4.087   4.946   5.861
 5890SOL    HW118569   4.157   4.960   5.790
 5890SOL    HW218570   4.086   5.025   5.922
 5891SOL     OW18571   1.854   2.690   6.239
 5891SOL    HW118572   1.942   2.727   6.208
 5891SOL    HW218573   1.850   2.592   6.220
 5892SOL     OW18574   3.301   5.872   1.898
 5892SOL    HW118575   3.236   5.824   1.838
 5892SOL    HW218576   3.353   5.938   1.845
 5893SOL     OW18577   1.130   3.228   2.716
 5893SOL    HW118578   1.204   3.169   2.748
 5893SOL    HW218579   1.165   3.321   2.703
 5894SOL     OW18580   1.626   3.773   3.712
 5894SOL    HW118581   1.564   3.718   3.769
 5894SOL    HW218582   1.692   3.819   3.770
 5895SOL     OW18583   5.077   5.078   2.956
 5895SOL    HW118584   5.155   5.070   3.019
 5895SOL    HW218585   5.043   4.987   2.935
 5896SOL     OW18586   5.184   1.607   5.455
 5896SOL    HW118587   5.239   1.614   5.371
 5896SOL    HW218588   5.108   1.544   5.439
 5897SOL     OW18589   4.470   4.029   0.918
 5897SOL    HW118590   4.378   3.996   0.898
 5897SOL    HW218591   4.471   4.075   1.007
 5898SOL     OW18592   1.351   5.955   3.140
 5898SOL    HW118593   1.281   6.018   3.171
 5898SOL    HW218594   1.424   5.949   3.209
 5899SOL     OW18595   5.012   0.729   3.387
 5899SOL    HW118596   4.945   0.716   3.460
 5899SOL    HW218597   5.086   0.664   3.397
 5900SOL     OW18598   3.783   4.942   1.652
 5900SOL    HW118599   3.771   5.025   1.706
 5900SOL    HW218600   3.876   4.941   1.614
 5901SOL     OW18601   3.056   6.178   3.706
 5901SOL    HW118602   3.083   6.274   3.705
 5901SOL    HW218603   2.969   6.167   3.658
 5902SOL     OW18604   5.844   2.587   0.251
 5902SOL    HW118605   5.806   2.527   0.322
 5902SOL    HW218606   5.770   2.642   0.212
 5903SOL     OW18607   0.148   2.010   6.894
 5903SOL    HW118608   0.176   2.008   6.798
 5903SOL    HW218609   0.219   1.968   6.950
 5904SOL     OW18610   1.060   3.062   2.067
 5904SOL    HW118611   0.996   2.993   2.102
 5904SOL    HW218612   1.041   3.080   1.971
 5905SOL     OW18613   6.720   3.734   2.299
 5905SOL    HW118614   6.788   3.781   2.355
 5905SOL    HW218615   6.759   3.716   2.209
 5906SOL     OW18616   6.477   1.118   3.113
 5906SOL    HW118617   6.459   1.200   3.058
 5906SOL    HW218618   6.539   1.141   3.188
 5907SOL     OW18619   1.551   1.047   2.937
 5907SOL    HW118620   1.552   1.113   2.861
 5907SOL    HW218621   1.457   1.037   2.971
 5908SOL     OW18622   0.882   2.787   5.685
 5908SOL    HW118623   0.823   2.719   5.728
 5908SOL    HW218624   0.953   2.816   5.749
 5909SOL     OW18625   6.502   4.573   6.480
 5909SOL    HW118626   6.552   4.585   6.566
 5909SOL    HW218627   6.567   4.563   6.405
 5910SOL     OW18628   1.610   1.412   3.172
 5910SOL    HW118629   1.658   1.409   3.259
 5910SOL    HW218630   1.652   1.348   3.108
 5911SOL     OW18631   6.266   5.830   6.631
 5911SOL    HW118632   6.219   5.753   6.674
 5911SOL    HW218633   6.252   5.912   6.686
 5912SOL     OW18634   0.805   1.501   2.863
 5912SOL    HW118635   0.756   1.425   2.822
 5912SOL    HW218636   0.750   1.584   2.856
 5913SOL     OW18637   6.797   3.568   1.517
 5913SOL    HW118638   6.746   3.581   1.432
 5913SOL    HW218639   6.867   3.498   1.504
 5914SOL     OW18640   1.556   6.758   0.588
 5914SOL    HW118641   1.604   6.823   0.646
 5914SOL    HW218642   1.487   6.710   0.641
 5915SOL     OW18643   4.354   0.320   5.635
 5915SOL    HW118644   4.404   0.376   5.700
 5915SOL    HW218645   4.418   0.257   5.590
 5916SOL     OW18646   1.058   0.383   2.576
 5916SOL    HW118647   0.993   0.371   2.500
 5916SOL    HW218648   1.141   0.330   2.558
 5917SOL     OW18649   3.342   3.337   0.680
 5917SOL    HW118650   3.285   3.386   0.746
 5917SOL    HW218651   3.368   3.399   0.606
 5918SOL     OW18652   3.630   6.863   4.758
 5918SOL    HW118653   3.667   6.841   4.849
 5918SOL    HW218654   3.649   6.787   4.696
 5919SOL     OW18655   3.100   3.971   4.943
 5919SOL    HW118656   3.154   4.044   4.902
 5919SOL    HW218657   3.161   3.900   4.979
 5920SOL     OW18658   1.066   0.416   5.605
 5920SOL    HW118659   1.124   0.481   5.656
 5920SOL    HW218660   1.123   0.341   5.571
 5921SOL     OW18661   2.440   4.703   0.671
 5921SOL    HW118662   2.487   4.710   0.759
 5921SOL    HW218663   2.371   4.631   0.676
 5922SOL     OW18664   4.697   2.583   2.303
 5922SOL    HW118665   4.681   2.653   2.234
 5922SOL    HW218666   4.626   2.514   2.298
 5923SOL     OW18667   5.875   1.179   2.652
 5923SOL    HW118668   5.815   1.241   2.703
 5923SOL    HW218669   5.824   1.135   2.578
 5924SOL     OW18670   6.954   6.268   3.210
 5924SOL    HW118671   6.962   6.185   3.154
 5924SOL    HW218672   6.934   6.346   3.150
 5925SOL     OW18673   4.723   0.843   1.390
 5925SOL    HW118674   4.770   0.812   1.307
 5925SOL    HW218675   4.679   0.766   1.434
 5926SOL     OW18676   5.240   3.126   3.369
 5926SOL    HW118677   5.141   3.128   3.380
 5926SOL    HW218678   5.271   3.032   3.360
 5927SOL     OW18679   1.311   0.187   1.407
 5927SOL    HW118680   1.275   0.265   1.355
 5927SOL    HW218681   1.246   0.111   1.401
 5928SOL     OW18682   2.938   6.885   0.462
 5928SOL    HW118683   2.897   6.922   0.378
 5928SOL    HW218684   2.996   6.954   0.504
 5929SOL     OW18685   1.103   1.075   1.690
 5929SOL    HW118686   1.037   1.144   1.661
 5929SOL    HW218687   1.196   1.110   1.677
 5930SOL     OW18688   1.114   4.408   1.987
 5930SOL    HW118689   1.092   4.381   1.893
 5930SOL    HW218690   1.128   4.326   2.043
 5931SOL     OW18691   5.262   6.729   4.474
 5931SOL    HW118692   5.303   6.647   4.515
 5931SOL    HW218693   5.228   6.707   4.382
 5932SOL     OW18694   3.369   5.912   0.284
 5932SOL    HW118695   3.343   6.004   0.255
 5932SOL    HW218696   3.468   5.904   0.284
 5933SOL     OW18697   6.665   5.489   4.457
 5933SOL    HW118698   6.593   5.476   4.390
 5933SOL    HW218699   6.643   5.438   4.541
 5934SOL     OW18700   3.837   4.454   6.882
 5934SOL    HW118701   3.871   4.405   6.962
 5934SOL    HW218702   3.739   4.436   6.872
 5935SOL     OW18703   1.527   0.598   5.298
 5935SOL    HW118704   1.507   0.695   5.287
 5935SOL    HW218705   1.596   0.586   5.369
 5936SOL     OW18706   3.732   2.873   2.343
 5936SOL    HW118707   3.677   2.949   2.309
 5936SOL    HW218708   3.721   2.794   2.282
 5937SOL     OW18709   0.882   3.095   0.147
 5937SOL    HW118710   0.877   3.028   0.221
 5937SOL    HW218711   0.862   3.050   0.060
 5938SOL     OW18712   1.166   2.982   4.575
 5938SOL    HW118713   1.260   2.955   4.594
 5938SOL    HW218714   1.163   3.079   4.551
 5939SOL     OW18715   4.875   0.997   6.269
 5939SOL    HW118716   4.910   1.050   6.192
 5939SOL    HW218717   4.948   0.985   6.337
 5940SOL     OW18718   4.981   5.283   1.096
 5940SOL    HW118719   4.994   5.360   1.033
 5940SOL    HW218720   4.961   5.200   1.045
 5941SOL     OW18721   1.246   1.418   3.485
 5941SOL    HW118722   1.153   1.402   3.452
 5941SOL    HW218723   1.243   1.446   3.581
 5942SOL     OW18724   4.775   2.056   6.263
 5942SOL    HW118725   4.859   2.096   6.299
 5942SOL    HW218726   4.704   2.060   6.333
 5943SOL     OW18727   2.089   4.414   2.260
 5943SOL    HW118728   2.153   4.339   2.282
 5943SOL    HW218729   2.019   4.420   2.331
 5944SOL     OW18730   6.572   4.042   5.907
 5944SOL    HW118731   6.560   3.947   5.938
 5944SOL    HW218732   6.670   4.064   5.905
 5945SOL     OW18733   6.894   6.537   3.809
 5945SOL    HW118734   6.845   6.454   3.834
 5945SOL    HW218735   6.835   6.596   3.754
 5946SOL     OW18736   3.438   3.005   6.440
 5946SOL    HW118737   3.527   2.975   6.474
 5946SOL    HW218738   3.397   2.933   6.384
 5947SOL     OW18739   3.432   3.522   5.156
 5947SOL    HW118740   3.417   3.522   5.254
 5947SOL    HW218741   3.426   3.616   5.121
 5948SOL     OW18742   4.810   3.976   1.816
 5948SOL    HW118743   4.869   3.935   1.747
 5948SOL    HW218744   4.732   4.021   1.772
 5949SOL     OW18745   1.072   3.899   4.056
 5949SOL    HW118746   1.150   3.901   4.119
 5949SOL    HW218747   1.065   3.809   4.015
 5950SOL     OW18748   2.291   6.818   5.112
 5950SOL    HW118749   2.353   6.891   5.139
 5950SOL    HW218750   2.257   6.835   5.019
 5951SOL     OW18751   0.200   2.691   6.101
 5951SOL    HW118752   0.290   2.701   6.144
 5951SOL    HW218753   0.195   2.603   6.053
 5952SOL     OW18754   3.803   3.995   1.858
 5952SOL    HW118755   3.748   4.076   1.875
 5952SOL    HW218756   3.760   3.916   1.900
 5953SOL     OW18757   6.622   2.829   0.018
 5953SOL    HW118758   6.556   2.851   0.090
 5953SOL    HW218759   6.657   2.737   0.033
 5954SOL     OW18760   2.241   4.977   3.789
 5954SOL    HW118761   2.197   4.887   3.791
 5954SOL    HW218762   2.316   4.979   3.854
 5955SOL     OW18763   3.865   2.748   0.408
 5955SOL    HW118764   3.789   2.790   0.458
 5955SOL    HW218765   3.952   2.782   0.444
 5956SOL     OW18766   4.048   2.571   6.709
 5956SOL    HW118767   3.986   2.617   6.774
 5956SOL    HW218768   4.049   2.622   6.623
 5957SOL     OW18769   6.692   2.322   3.338
 5957SOL    HW118770   6.714   2.276   3.424
 5957SOL    HW218771   6.614   2.383   3.352
 5958SOL     OW18772   2.585   6.242   2.726
 5958SOL    HW118773   2.607   6.204   2.636
 5958SOL    HW218774   2.589   6.171   2.795
 5959SOL     OW18775   5.049   4.398   3.037
 5959SOL    HW118776   5.060   4.311   2.991
 5959SOL    HW218777   5.129   4.455   3.021
 5960SOL     OW18778   6.071   0.254   6.192
 5960SOL    HW118779   6.160   0.208   6.180
 5960SOL    HW218780   6.057   0.275   6.288
 5961SOL     OW18781   2.130   1.969   3.835
 5961SOL    HW118782   2.205   1.931   3.780
 5961SOL    HW218783   2.074   2.028   3.777
 5962SOL     OW18784   5.254   4.864   0.190
 5962SOL    HW118785   5.321   4.815   0.246
 5962SOL    HW218786   5.258   4.831   0.096
 5963SOL     OW18787   2.038   3.905   0.698
 5963SOL    HW118788   2.066   3.818   0.739
 5963SOL    HW218789   1.956   3.891   0.643
 5964SOL     OW18790   1.480   6.893   3.327
 5964SOL    HW118791   1.532   6.944   3.395
 5964SOL    HW218792   1.387   6.878   3.361
 5965SOL     OW18793   2.351   0.145   1.174
 5965SOL    HW118794   2.273   0.174   1.229
 5965SOL    HW218795   2.411   0.223   1.156
 5966SOL     OW18796   3.023   1.819   5.270
 5966SOL    HW118797   3.004   1.917   5.267
 5966SOL    HW218798   3.039   1.791   5.365
 5967SOL     OW18799   4.771   2.272   5.444
 5967SOL    HW118800   4.724   2.343   5.393
 5967SOL    HW218801   4.725   2.258   5.532
 5968SOL     OW18802   6.172   1.923   3.242
 5968SOL    HW118803   6.097   1.953   3.301
 5968SOL    HW218804   6.147   1.937   3.146
 5969SOL     OW18805   5.187   6.579   1.479
 5969SOL    HW118806   5.247   6.611   1.553
 5969SOL    HW218807   5.228   6.602   1.391
 5970SOL     OW18808   5.771   2.061   0.493
 5970SOL    HW118809   5.844   1.993   0.485
 5970SOL    HW218810   5.741   2.067   0.588
 5971SOL     OW18811   6.507   5.232   3.786
 5971SOL    HW118812   6.526   5.275   3.698
 5971SOL    HW218813   6.480   5.303   3.852
 5972SOL     OW18814   6.007   5.172   0.515
 5972SOL    HW118815   6.066   5.096   0.543
 5972SOL    HW218816   5.964   5.212   0.596
 5973SOL     OW18817   3.439   1.065   2.446
 5973SOL    HW118818   3.390   1.076   2.359
 5973SOL    HW218819   3.382   1.013   2.509
 5974SOL     OW18820   5.534   1.186   4.154
 5974SOL    HW118821   5.502   1.234   4.236
 5974SOL    HW218822   5.620   1.138   4.174
 5975SOL     OW18823   3.688   4.812   0.332
 5975SOL    HW118824   3.785   4.799   0.352
 5975SOL    HW218825   3.665   4.909   0.344
 5976SOL     OW18826   1.282   2.129   6.357
 5976SOL    HW118827   1.227   2.118   6.441
 5976SOL    HW218828   1.351   2.057   6.354
 5977SOL     OW18829   0.615   5.685   1.770
 5977SOL    HW118830   0.644   5.614   1.706
 5977SOL    HW218831   0.669   5.768   1.755
 5978SOL     OW18832   3.045   3.693   6.283
 5978SOL    HW118833   3.034   3.594   6.282
 5978SOL    HW218834   3.050   3.725   6.378
 5979SOL     OW18835   5.752   0.506   1.158
 5979SOL    HW118836   5.803   0.471   1.079
 5979SOL    HW218837   5.756   0.439   1.232
 5980SOL     OW18838   3.391   2.713   0.547
 5980SOL    HW118839   3.310   2.771   0.552
 5980SOL    HW218840   3.365   2.618   0.560
 5981SOL     OW18841   3.814   2.621   0.740
 5981SOL    HW118842   3.905   2.584   0.759
 5981SOL    HW218843   3.772   2.567   0.666
 5982SOL     OW18844   5.576   2.659   1.506
 5982SOL    HW118845   5.621   2.746   1.526
 5982SOL    HW218846   5.560   2.651   1.408
 5983SOL     OW18847   6.616   1.312   3.595
 5983SOL    HW118848   6.611   1.323   3.496
 5983SOL    HW218849   6.546   1.369   3.639
 5984SOL     OW18850   5.897   6.256   1.854
 5984SOL    HW118851   5.910   6.237   1.952
 5984SOL    HW218852   5.986   6.255   1.808
 5985SOL     OW18853   6.393   4.845   2.712
 5985SOL    HW118854   6.306   4.891   2.727
 5985SOL    HW218855   6.437   4.884   2.631
 5986SOL     OW18856   3.807   2.996   3.348
 5986SOL    HW118857   3.860   3.018   3.430
 5986SOL    HW218858   3.728   2.940   3.373
 5987SOL     OW18859   0.107   6.176   4.141
 5987SOL    HW118860   0.160   6.160   4.058
 5987SOL    HW218861   0.021   6.221   4.118
 5988SOL     OW18862   1.971   2.354   0.159
 5988SOL    HW118863   1.920   2.439   0.146
 5988SOL    HW218864   1.909   2.283   0.194
 5989SOL     OW18865   2.492   6.573   5.713
 5989SOL    HW118866   2.453   6.660   5.685
 5989SOL    HW218867   2.489   6.566   5.813
 5990SOL     OW18868   2.181   3.733   1.762
 5990SOL    HW118869   2.261   3.787   1.734
 5990SOL    HW218870   2.105   3.751   1.700
 5991SOL     OW18871   5.447   1.204   0.706
 5991SOL    HW118872   5.433   1.246   0.616
 5991SOL    HW218873   5.481   1.111   0.693
 5992SOL     OW18874   2.731   4.696   3.477
 5992SOL    HW118875   2.699   4.643   3.398
 5992SOL    HW218876   2.824   4.730   3.458
 5993SOL     OW18877   5.599   1.963   0.304
 5993SOL    HW118878   5.635   1.985   0.214
 5993SOL    HW218879   5.653   2.010   0.374
 5994SOL     OW18880   0.239   4.506   1.029
 5994SOL    HW118881   0.278   4.577   1.087
 5994SOL    HW218882   0.283   4.508   0.939
 5995SOL     OW18883   5.299   3.701   0.857
 5995SOL    HW118884   5.206   3.671   0.882
 5995SOL    HW218885   5.299   3.733   0.762
 5996SOL     OW18886   2.084   0.420   1.736
 5996SOL    HW118887   2.099   0.332   1.690
 5996SOL    HW218888   2.048   0.486   1.671
 5997SOL     OW18889   6.371   0.427   4.654
 5997SOL    HW118890   6.454   0.374   4.662
 5997SOL    HW218891   6.316   0.417   4.737
 5998SOL     OW18892   6.246   6.596   6.694
 5998SOL    HW118893   6.344   6.613   6.701
 5998SOL    HW218894   6.196   6.667   6.743
 5999SOL     OW18895   5.535   3.727   0.975
 5999SOL    HW118896   5.549   3.737   1.074
 5999SOL    HW218897   5.438   3.738   0.953
 6000SOL     OW18898   1.216   4.771   1.760
 6000SOL    HW118899   1.307   4.792   1.796
 6000SOL    HW218900   1.147   4.813   1.818
 6001SOL     OW18901   0.181   6.515   5.738
 6001SOL    HW118902   0.142   6.486   5.825
 6001SOL    HW218903   0.280   6.527   5.748
 6002SOL     OW18904   5.750   4.805   5.065
 6002SOL    HW118905   5.656   4.793   5.095
 6002SOL    HW218906   5.769   4.742   4.990
 6003SOL     OW18907   2.675   1.211   5.233
 6003SOL    HW118908   2.622   1.271   5.173
 6003SOL    HW218909   2.743   1.162   5.179
 6004SOL     OW18910   5.453   3.020   5.079
 6004SOL    HW118911   5.411   2.931   5.061
 6004SOL    HW218912   5.550   3.007   5.101
 6005SOL     OW18913   4.220   4.163   0.326
 6005SOL    HW118914   4.178   4.189   0.239
 6005SOL    HW218915   4.317   4.186   0.325
 6006SOL     OW18916   2.928   6.122   6.085
 6006SOL    HW118917   2.858   6.101   6.017
 6006SOL    HW218918   2.904   6.080   6.172
 6007SOL     OW18919   2.863   6.634   4.510
 6007SOL    HW118920   2.937   6.610   4.572
 6007SOL    HW218921   2.882   6.723   4.468
 6008SOL     OW18922   2.385   3.958   6.895
 6008SOL    HW118923   2.287   3.940   6.895
 6008SOL    HW218924   2.434   3.875   6.920
 6009SOL     OW18925   2.742   5.229   2.767
 6009SOL    HW118926   2.731   5.139   2.725
 6009SOL    HW218927   2.715   5.224   2.864
 6010SOL     OW18928   0.306   5.041   5.840
 6010SOL    HW118929   0.338   5.097   5.916
 6010SOL    HW218930   0.223   4.993   5.867
 6011SOL     OW18931   5.707   1.927   3.191
 6011SOL    HW118932   5.614   1.911   3.158
 6011SOL    HW218933   5.751   1.840   3.210
 6012SOL     OW18934   6.726   0.762   5.964
 6012SOL    HW118935   6.776   0.764   5.878
 6012SOL    HW218936   6.779   0.712   6.033
 6013SOL     OW18937   5.828   1.649   2.314
 6013SOL    HW118938   5.782   1.649   2.225
 6013SOL    HW218939   5.763   1.626   2.386
 6014SOL     OW18940   4.075   3.208   4.301
 6014SOL    HW118941   4.015   3.179   4.227
 6014SOL    HW218942   4.099   3.129   4.358
 6015SOL     OW18943   6.342   0.036   3.322
 6015SOL    HW118944   6.333   0.134   3.337
 6015SOL    HW218945   6.258   7.017   3.350
 6016SOL     OW18946   4.115   1.855   4.649
 6016SOL    HW118947   4.130   1.756   4.647
 6016SOL    HW218948   4.070   1.879   4.735
 6017SOL     OW18949   1.228   2.102   5.444
 6017SOL    HW118950   1.293   2.139   5.511
 6017SOL    HW218951   1.171   2.177   5.409
 6018SOL     OW18952   2.348   0.760   3.701
 6018SOL    HW118953   2.403   0.842   3.689
 6018SOL    HW218954   2.384   0.707   3.778
 6019SOL     OW18955   6.855   3.376   6.645
 6019SOL    HW118956   6.792   3.344   6.574
 6019SOL    HW218957   6.945   3.391   6.604
 6020SOL     OW18958   0.705   5.669   4.743
 6020SOL    HW118959   0.743   5.650   4.652
 6020SOL    HW218960   0.698   5.768   4.756
 6021SOL     OW18961   4.703   0.388   3.650
 6021SOL    HW118962   4.634   0.416   3.717
 6021SOL    HW218963   4.675   0.303   3.607
 6022SOL     OW18964   6.760   3.676   1.103
 6022SOL    HW118965   6.728   3.697   1.195
 6022SOL    HW218966   6.858   3.659   1.105
 6023SOL     OW18967   3.922   6.892   2.787
 6023SOL    HW118968   3.869   6.968   2.749
 6023SOL    HW218969   4.005   6.879   2.732
 6024SOL     OW18970   0.817   6.500   0.273
 6024SOL    HW118971   0.818   6.585   0.221
 6024SOL    HW218972   0.795   6.424   0.212
 6025SOL     OW18973   3.289   0.558   5.950
 6025SOL    HW118974   3.223   0.513   5.890
 6025SOL    HW218975   3.260   0.548   6.045
 6026SOL     OW18976   5.457   6.315   3.688
 6026SOL    HW118977   5.543   6.267   3.708
 6026SOL    HW218978   5.445   6.390   3.753
 6027SOL     OW18979   6.496   4.161   5.650
 6027SOL    HW118980   6.424   4.178   5.716
 6027SOL    HW218981   6.572   4.113   5.694
 6028SOL     OW18982   6.047   5.685   6.722
 6028SOL    HW118983   5.978   5.669   6.792
 6028SOL    HW218984   6.004   5.682   6.631
 6029SOL     OW18985   2.477   1.513   2.612
 6029SOL    HW118986   2.409   1.563   2.558
 6029SOL    HW218987   2.566   1.520   2.567
 6030SOL     OW18988   6.367   3.463   4.820
 6030SOL    HW118989   6.316   3.398   4.763
 6030SOL    HW218990   6.388   3.544   4.766
 6031SOL     OW18991   6.799   0.491   3.682
 6031SOL    HW118992   6.891   0.493   3.720
 6031SOL    HW218993   6.784   0.574   3.627
 6032SOL     OW18994   2.883   0.098   3.177
 6032SOL    HW118995   2.889   0.058   3.085
 6032SOL    HW218996   2.965   0.074   3.229
 6033SOL     OW18997   0.883   1.531   3.162
 6033SOL    HW118998   0.892   1.532   3.062
 6033SOL    HW218999   0.908   1.621   3.199
 6034SOL     OW19000   0.957   0.974   0.962
 6034SOL    HW119001   1.024   1.044   0.940
 6034SOL    HW219002   0.871   0.993   0.914
 6035SOL     OW19003   1.578   1.191   2.586
 6035SOL    HW119004   1.551   1.225   2.676
 6035SOL    HW219005   1.666   1.232   2.560
 6036SOL     OW19006   6.806   3.483   0.378
 6036SOL    HW119007   6.820   3.425   0.297
 6036SOL    HW219008   6.827   3.431   0.460
 6037SOL     OW19009   4.203   0.566   6.556
 6037SOL    HW119010   4.129   0.632   6.568
 6037SOL    HW219011   4.291   0.612   6.574
 6038SOL     OW19012   2.145   1.264   6.872
 6038SOL    HW119013   2.122   1.170   6.847
 6038SOL    HW219014   2.243   1.279   6.856
 6039SOL     OW19015   3.416   2.936   4.452
 6039SOL    HW119016   3.339   2.999   4.451
 6039SOL    HW219017   3.428   2.899   4.544
 6040SOL     OW19018   6.786   1.225   0.378
 6040SOL    HW119019   6.828   1.137   0.395
 6040SOL    HW219020   6.696   1.229   0.422
 6041SOL     OW19021   0.516   3.149   4.904
 6041SOL    HW119022   0.584   3.116   4.970
 6041SOL    HW219023   0.436   3.089   4.906
 6042SOL     OW19024   2.720   5.948   3.797
 6042SOL    HW119025   2.658   5.870   3.787
 6042SOL    HW219026   2.813   5.920   3.772
 6043SOL     OW19027   2.256   5.694   2.067
 6043SOL    HW119028   2.315   5.749   2.125
 6043SOL    HW219029   2.312   5.643   2.001
 6044SOL     OW19030   6.961   3.340   0.582
 6044SOL    HW119031   6.940   3.243   0.599
 6044SOL    HW219032   6.986   3.384   0.668
 6045SOL     OW19033   5.084   1.562   4.522
 6045SOL    HW119034   5.026   1.643   4.532
 6045SOL    HW219035   5.029   1.484   4.492
 6046SOL     OW19036   3.267   3.984   2.220
 6046SOL    HW119037   3.205   4.027   2.154
 6046SOL    HW219038   3.323   3.916   2.173
 6047SOL     OW19039   0.000   1.253   6.748
 6047SOL    HW119040   6.986   1.266   6.838
 6047SOL    HW219041   0.094   1.288   6.749
 6048SOL     OW19042   6.379   5.601   3.302
 6048SOL    HW119043   6.327   5.686   3.292
 6048SOL    HW219044   6.330   5.538   3.362
 6049SOL     OW19045   5.072   4.917   6.733
 6049SOL    HW119046   5.097   4.900   6.828
 6049SOL    HW219047   5.136   4.981   6.692
 6050SOL     OW19048   2.333   5.488   2.862
 6050SOL    HW119049   2.399   5.465   2.934
 6050SOL    HW219050   2.315   5.406   2.806
 6051SOL     OW19051   0.789   1.594   2.550
 6051SOL    HW119052   0.722   1.523   2.570
 6051SOL    HW219053   0.854   1.602   2.626
 6052SOL     OW19054   5.536   6.051   6.310
 6052SOL    HW119055   5.627   6.011   6.313
 6052SOL    HW219056   5.520   6.103   6.394
 6053SOL     OW19057   4.091   2.143   5.577
 6053SOL    HW119058   4.120   2.047   5.570
 6053SOL    HW219059   4.109   2.189   5.490
 6054SOL     OW19060   4.355   3.584   0.259
 6054SOL    HW119061   4.331   3.672   0.218
 6054SOL    HW219062   4.272   3.534   0.283
 6055SOL     OW19063   2.770   4.512   1.344
 6055SOL    HW119064   2.817   4.438   1.295
 6055SOL    HW219065   2.722   4.474   1.423
 6056SOL     OW19066   5.211   6.388   2.865
 6056SOL    HW119067   5.290   6.441   2.896
 6056SOL    HW219068   5.140   6.390   2.935
 6057SOL     OW19069   5.955   1.298   3.811
 6057SOL    HW119070   5.874   1.332   3.859
 6057SOL    HW219071   5.972   1.356   3.731
 6058SOL     OW19072   6.939   3.272   5.887
 6058SOL    HW119073   6.873   3.201   5.864
 6058SOL    HW219074   0.004   3.232   5.889
 6059SOL     OW19075   4.569   2.293   6.395
 6059SOL    HW119076   4.477   2.268   6.365
 6059SOL    HW219077   4.576   2.284   6.494
 6060SOL     OW19078   1.755   2.364   1.086
 6060SOL    HW119079   1.720   2.272   1.071
 6060SOL    HW219080   1.712   2.404   1.167
 6061SOL     OW19081   2.509   4.719   6.791
 6061SOL    HW119082   2.483   4.629   6.828
 6061SOL    HW219083   2.510   4.715   6.691
 6062SOL     OW19084   1.968   1.987   5.768
 6062SOL    HW119085   1.948   2.068   5.824
 6062SOL    HW219086   2.041   1.934   5.812
 6063SOL     OW19087   4.490   3.787   6.410
 6063SOL    HW119088   4.487   3.801   6.311
 6063SOL    HW219089   4.485   3.689   6.430
 6064SOL     OW19090   5.851   6.128   0.590
 6064SOL    HW119091   5.808   6.189   0.657
 6064SOL    HW219092   5.866   6.178   0.504
 6065SOL     OW19093   2.177   6.064   1.371
 6065SOL    HW119094   2.230   6.081   1.288
 6065SOL    HW219095   2.138   6.150   1.403
 6066SOL     OW19096   5.821   5.855   1.811
 6066SOL    HW119097   5.796   5.918   1.737
 6066SOL    HW219098   5.739   5.809   1.844
 6067SOL     OW19099   6.977   4.902   5.681
 6067SOL    HW119100   6.992   4.963   5.603
 6067SOL    HW219101   6.920   4.948   5.749
 6068SOL     OW19102   3.847   1.756   3.896
 6068SOL    HW119103   3.826   1.826   3.964
 6068SOL    HW219104   3.911   1.690   3.935
 6069SOL     OW19105   0.437   4.934   5.458
 6069SOL    HW119106   0.398   5.005   5.516
 6069SOL    HW219107   0.534   4.924   5.478
 6070SOL     OW19108   2.620   1.258   0.958
 6070SOL    HW119109   2.553   1.209   1.015
 6070SOL    HW219110   2.671   1.322   1.016
 6071SOL     OW19111   6.068   0.287   6.485
 6071SOL    HW119112   6.017   0.342   6.551
 6071SOL    HW219113   6.078   0.194   6.519
 6072SOL     OW19114   6.585   2.707   0.468
 6072SOL    HW119115   6.631   2.795   0.477
 6072SOL    HW219116   6.492   2.721   0.434
 6073SOL     OW19117   4.728   3.779   0.186
 6073SOL    HW119118   4.729   3.683   0.212
 6073SOL    HW219119   4.785   3.832   0.249
 6074SOL     OW19120   1.120   6.273   2.851
 6074SOL    HW119121   1.150   6.219   2.773
 6074SOL    HW219122   1.129   6.371   2.830
 6075SOL     OW19123   6.354   0.059   6.759
 6075SOL    HW119124   6.356   0.011   6.847
 6075SOL    HW219125   6.390   7.027   6.688
 6076SOL     OW19126   0.132   6.667   3.207
 6076SOL    HW119127   0.088   6.586   3.243
 6076SOL    HW219128   0.193   6.706   3.276
 6077SOL     OW19129   4.868   6.170   2.577
 6077SOL    HW119130   4.909   6.126   2.497
 6077SOL    HW219131   4.877   6.269   2.569
 6078SOL     OW19132   5.487   4.724   0.299
 6078SOL    HW119133   5.509   4.627   0.293
 6078SOL    HW219134   5.529   4.762   0.382
 6079SOL     OW19135   3.526   1.866   0.091
 6079SOL    HW119136   3.578   1.844   0.173
 6079SOL    HW219137   3.524   1.787   0.030
 6080SOL     OW19138   6.925   3.770   5.533
 6080SOL    HW119139   6.998   3.732   5.475
 6080SOL    HW219140   6.839   3.769   5.482
 6081SOL     OW19141   2.203   3.870   4.544
 6081SOL    HW119142   2.246   3.959   4.560
 6081SOL    HW219143   2.223   3.841   4.450
 6082SOL     OW19144   4.689   1.291   1.133
 6082SOL    HW119145   4.781   1.313   1.166
 6082SOL    HW219146   4.684   1.194   1.111
 6083SOL     OW19147   4.861   0.601   6.120
 6083SOL    HW119148   4.835   0.507   6.099
 6083SOL    HW219149   4.947   0.622   6.074
 6084SOL     OW19150   6.401   4.873   3.335
 6084SOL    HW119151   6.414   4.860   3.237
 6084SOL    HW219152   6.368   4.787   3.376
 6085SOL     OW19153   0.530   6.173   1.072
 6085SOL    HW119154   0.462   6.102   1.090
 6085SOL    HW219155   0.488   6.247   1.018
 6086SOL     OW19156   4.155   3.608   0.857
 6086SOL    HW119157   4.148   3.638   0.762
 6086SOL    HW219158   4.142   3.509   0.861
 6087SOL     OW19159   3.608   0.623   0.426
 6087SOL    HW119160   3.681   0.571   0.382
 6087SOL    HW219161   3.647   0.682   0.496
 6088SOL     OW19162   3.738   5.816   2.214
 6088SOL    HW119163   3.681   5.886   2.170
 6088SOL    HW219164   3.772   5.752   2.145
 6089SOL     OW19165   6.203   5.501   3.089
 6089SOL    HW119166   6.168   5.415   3.126
 6089SOL    HW219167   6.302   5.507   3.105
 6090SOL     OW19168   3.954   5.849   4.964
 6090SOL    HW119169   3.867   5.871   4.921
 6090SOL    HW219170   3.953   5.753   4.992
 6091SOL     OW19171   0.789   2.750   2.574
 6091SOL    HW119172   0.792   2.825   2.509
 6091SOL    HW219173   0.870   2.693   2.562
 6092SOL     OW19174   2.048   6.545   1.133
 6092SOL    HW119175   1.953   6.569   1.155
 6092SOL    HW219176   2.105   6.560   1.213
 6093SOL     OW19177   2.848   3.079   1.793
 6093SOL    HW119178   2.813   3.129   1.872
 6093SOL    HW219179   2.880   3.144   1.724
 6094SOL     OW19180   0.870   0.398   5.832
 6094SOL    HW119181   0.916   0.391   5.744
 6094SOL    HW219182   0.935   0.376   5.905
 6095SOL     OW19183   4.807   5.397   2.305
 6095SOL    HW119184   4.755   5.320   2.269
 6095SOL    HW219185   4.893   5.364   2.345
 6096SOL     OW19186   4.794   5.946   2.706
 6096SOL    HW119187   4.888   5.918   2.728
 6096SOL    HW219188   4.797   6.027   2.647
 6097SOL     OW19189   2.514   5.346   1.777
 6097SOL    HW119190   2.604   5.316   1.744
 6097SOL    HW219191   2.520   5.364   1.876
 6098SOL     OW19192   6.142   1.538   5.024
 6098SOL    HW119193   6.119   1.536   5.121
 6098SOL    HW219194   6.059   1.528   4.970
 6099SOL     OW19195   3.478   6.908   5.246
 6099SOL    HW119196   3.442   6.937   5.334
 6099SOL    HW219197   3.484   6.808   5.243
 6100SOL     OW19198   0.565   5.562   5.726
 6100SOL    HW119199   0.561   5.567   5.626
 6100SOL    HW219200   0.528   5.474   5.756
 6101SOL     OW19201   0.883   3.114   1.067
 6101SOL    HW119202   0.921   3.133   1.157
 6101SOL    HW219203   0.842   3.197   1.029
 6102SOL     OW19204   2.992   0.450   3.177
 6102SOL    HW119205   2.957   0.403   3.096
 6102SOL    HW219206   2.972   0.396   3.258
 6103SOL     OW19207   5.744   1.046   2.464
 6103SOL    HW119208   5.649   1.072   2.446
 6103SOL    HW219209   5.774   0.979   2.397
 6104SOL     OW19210   6.539   0.718   5.017
 6104SOL    HW119211   6.456   0.732   4.963
 6104SOL    HW219212   6.570   0.805   5.054
 6105SOL     OW19213   3.785   4.600   6.142
 6105SOL    HW119214   3.803   4.539   6.219
 6105SOL    HW219215   3.871   4.631   6.102
 6106SOL     OW19216   6.354   3.817   5.143
 6106SOL    HW119217   6.454   3.807   5.144
 6106SOL    HW219218   6.328   3.896   5.198
 6107SOL     OW19219   6.046   5.108   5.408
 6107SOL    HW119220   6.023   5.086   5.313
 6107SOL    HW219221   6.138   5.075   5.428
 6108SOL     OW19222   3.418   0.769   6.267
 6108SOL    HW119223   3.415   0.675   6.302
 6108SOL    HW219224   3.341   0.820   6.305
 6109SOL     OW19225   6.801   6.838   3.774
 6109SOL    HW119226   6.820   6.852   3.871
 6109SOL    HW219227   6.756   6.919   3.736
 6110SOL     OW19228   1.182   2.154   3.632
 6110SOL    HW119229   1.248   2.160   3.556
 6110SOL    HW219230   1.092   2.182   3.600
 6111SOL     OW19231   2.617   2.496   0.662
 6111SOL    HW119232   2.623   2.519   0.565
 6111SOL    HW219233   2.593   2.577   0.715
 6112SOL     OW19234   4.694   6.792   3.365
 6112SOL    HW119235   4.748   6.795   3.280
 6112SOL    HW219236   4.637   6.874   3.370
 6113SOL     OW19237   3.103   5.133   1.164
 6113SOL    HW119238   3.051   5.208   1.122
 6113SOL    HW219239   3.166   5.095   1.097
 6114SOL     OW19240   4.789   3.495   1.837
 6114SOL    HW119241   4.805   3.417   1.777
 6114SOL    HW219242   4.837   3.575   1.801
 6115SOL     OW19243   6.629   0.922   5.172
 6115SOL    HW119244   6.691   0.982   5.122
 6115SOL    HW219245   6.628   0.948   5.268
 6116SOL     OW19246   6.320   3.062   0.414
 6116SOL    HW119247   6.241   3.002   0.423
 6116SOL    HW219248   6.305   3.124   0.336
 6117SOL     OW19249   2.030   2.281   1.113
 6117SOL    HW119250   2.047   2.277   1.014
 6117SOL    HW219251   1.938   2.318   1.129
 6118SOL     OW19252   5.712   0.802   1.557
 6118SOL    HW119253   5.634   0.743   1.580
 6118SOL    HW219254   5.732   0.863   1.634
 6119SOL     OW19255   0.238   1.167   6.454
 6119SOL    HW119256   0.267   1.130   6.542
 6119SOL    HW219257   0.293   1.127   6.381
 6120SOL     OW19258   3.123   1.251   3.899
 6120SOL    HW119259   3.106   1.332   3.843
 6120SOL    HW219260   3.124   1.277   3.996
 6121SOL     OW19261   3.372   1.304   5.251
 6121SOL    HW119262   3.392   1.338   5.159
 6121SOL    HW219263   3.297   1.238   5.246
 6122SOL     OW19264   4.723   4.831   5.083
 6122SOL    HW119265   4.803   4.890   5.074
 6122SOL    HW219266   4.671   4.833   4.998
 6123SOL     OW19267   6.526   1.728   4.895
 6123SOL    HW119268   6.619   1.743   4.930
 6123SOL    HW219269   6.484   1.817   4.875
 6124SOL     OW19270   2.417   6.170   4.138
 6124SOL    HW119271   2.346   6.110   4.173
 6124SOL    HW219272   2.377   6.237   4.076
 6125SOL     OW19273   3.852   1.161   5.464
 6125SOL    HW119274   3.778   1.212   5.421
 6125SOL    HW219275   3.834   1.153   5.563
 6126SOL     OW19276   5.691   2.637   6.545
 6126SOL    HW119277   5.752   2.609   6.620
 6126SOL    HW219278   5.622   2.700   6.580
 6127SOL     OW19279   4.929   2.350   2.581
 6127SOL    HW119280   4.851   2.289   2.564
 6127SOL    HW219281   5.002   2.330   2.516
 6128SOL     OW19282   6.017   5.769   5.209
 6128SOL    HW119283   6.003   5.722   5.295
 6128SOL    HW219284   6.112   5.803   5.204
 6129SOL     OW19285   2.237   5.722   2.945
 6129SOL    HW119286   2.233   5.709   3.044
 6129SOL    HW219287   2.282   5.644   2.902
 6130SOL     OW19288   6.072   2.901   0.345
 6130SOL    HW119289   5.987   2.889   0.394
 6130SOL    HW219290   6.062   2.867   0.251
 6131SOL     OW19291   6.335   2.955   2.499
 6131SOL    HW119292   6.288   2.961   2.587
 6131SOL    HW219293   6.281   3.003   2.429
 6132SOL     OW19294   4.846   6.155   6.398
 6132SOL    HW119295   4.773   6.089   6.378
 6132SOL    HW219296   4.882   6.192   6.313
 6133SOL     OW19297   0.739   2.281   3.777
 6133SOL    HW119298   0.777   2.342   3.847
 6133SOL    HW219299   0.683   2.333   3.713
 6134SOL     OW19300   0.316   6.545   5.315
 6134SOL    HW119301   0.306   6.604   5.235
 6134SOL    HW219302   0.398   6.489   5.306
 6135SOL     OW19303   6.324   6.414   0.504
 6135SOL    HW119304   6.275   6.425   0.590
 6135SOL    HW219305   6.263   6.432   0.427
 6136SOL     OW19306   1.215   2.357   3.358
 6136SOL    HW119307   1.178   2.434   3.409
 6136SOL    HW219308   1.227   2.382   3.262
 6137SOL     OW19309   6.747   5.252   1.256
 6137SOL    HW119310   6.659   5.205   1.256
 6137SOL    HW219311   6.821   5.186   1.269
 6138SOL     OW19312   5.717   0.929   2.136
 6138SOL    HW119313   5.624   0.966   2.138
 6138SOL    HW219314   5.737   0.895   2.044
 6139SOL     OW19315   2.039   1.988   5.494
 6139SOL    HW119316   2.082   2.078   5.485
 6139SOL    HW219317   1.998   1.979   5.584
 6140SOL     OW19318   2.231   0.170   3.706
 6140SOL    HW119319   2.261   0.229   3.631
 6140SOL    HW219320   2.286   0.086   3.706
 6141SOL     OW19321   1.166   0.405   0.655
 6141SOL    HW119322   1.132   0.432   0.745
 6141SOL    HW219323   1.266   0.408   0.655
 6142SOL     OW19324   0.305   0.038   2.178
 6142SOL    HW119325   0.294   0.099   2.099
 6142SOL    HW219326   0.381   7.003   2.161
 6143SOL     OW19327   0.778   2.952   5.488
 6143SOL    HW119328   0.823   2.896   5.558
 6143SOL    HW219329   0.840   2.965   5.411
 6144SOL     OW19330   3.291   6.023   3.044
 6144SOL    HW119331   3.284   6.074   2.959
 6144SOL    HW219332   3.307   6.086   3.120
 6145SOL     OW19333   5.357   2.964   4.255
 6145SOL    HW119334   5.391   2.871   4.251
 6145SOL    HW219335   5.257   2.963   4.260
 6146SOL     OW19336   5.918   1.097   5.265
 6146SOL    HW119337   5.943   1.000   5.254
 6146SOL    HW219338   6.002   1.152   5.263
 6147SOL     OW19339   1.326   1.781   5.985
 6147SOL    HW119340   1.362   1.779   5.892
 6147SOL    HW219341   1.339   1.872   6.024
 6148SOL     OW19342   4.067   5.048   6.792
 6148SOL    HW119343   4.130   5.031   6.868
 6148SOL    HW219344   4.052   4.963   6.741
 6149SOL     OW19345   3.894   2.060   1.449
 6149SOL    HW119346   3.843   2.095   1.528
 6149SOL    HW219347   3.838   1.994   1.400
 6150SOL     OW19348   0.716   4.789   4.247
 6150SOL    HW119349   0.663   4.704   4.255
 6150SOL    HW219350   0.734   4.826   4.338
 6151SOL     OW19351   4.011   5.334   3.298
 6151SOL    HW119352   3.953   5.291   3.368
 6151SOL    HW219353   4.050   5.264   3.239
 6152SOL     OW19354   0.623   4.303   3.101
 6152SOL    HW119355   0.627   4.235   3.175
 6152SOL    HW219356   0.715   4.332   3.077
 6153SOL     OW19357   5.429   6.207   0.826
 6153SOL    HW119358   5.446   6.276   0.756
 6153SOL    HW219359   5.404   6.253   0.912
 6154SOL     OW19360   4.355   4.588   2.964
 6154SOL    HW119361   4.359   4.515   3.032
 6154SOL    HW219362   4.272   4.642   2.978
 6155SOL     OW19363   1.841   1.492   3.697
 6155SOL    HW119364   1.761   1.541   3.663
 6155SOL    HW219365   1.813   1.406   3.738
 6156SOL     OW19366   4.656   4.333   2.401
 6156SOL    HW119367   4.696   4.318   2.311
 6156SOL    HW219368   4.597   4.414   2.399
 6157SOL     OW19369   0.529   3.021   0.918
 6157SOL    HW119370   0.481   2.970   0.847
 6157SOL    HW219371   0.465   3.081   0.966
 6158SOL     OW19372   3.024   1.113   5.946
 6158SOL    HW119373   3.050   1.021   5.917
 6158SOL    HW219374   2.989   1.164   5.868
 6159SOL     OW19375   5.732   2.112   0.753
 6159SOL    HW119376   5.790   2.185   0.789
 6159SOL    HW219377   5.659   2.093   0.819
 6160SOL     OW19378   0.907   6.985   1.239
 6160SOL    HW119379   0.919   6.976   1.140
 6160SOL    HW219380   0.827   6.932   1.268
 6161SOL     OW19381   5.113   3.884   6.715
 6161SOL    HW119382   5.179   3.881   6.640
 6161SOL    HW219383   5.155   3.845   6.797
 6162SOL     OW19384   6.053   6.067   1.011
 6162SOL    HW119385   6.031   5.992   1.073
 6162SOL    HW219386   6.041   6.038   0.916
 6163SOL     OW19387   6.098   6.051   3.172
 6163SOL    HW119388   6.046   6.115   3.115
 6163SOL    HW219389   6.035   5.993   3.224
 6164SOL     OW19390   3.491   3.482   4.604
 6164SOL    HW119391   3.476   3.562   4.546
 6164SOL    HW219392   3.482   3.399   4.549
 6165SOL     OW19393   3.626   0.701   6.977
 6165SOL    HW119394   3.651   0.714   0.046
 6165SOL    HW219395   3.574   0.617   6.967
 6166SOL     OW19396   3.604   1.238   5.985
 6166SOL    HW119397   3.504   1.234   5.988
 6166SOL    HW219398   3.639   1.151   5.950
 6167SOL     OW19399   1.551   3.300   2.778
 6167SOL    HW119400   1.560   3.394   2.744
 6167SOL    HW219401   1.572   3.236   2.704
 6168SOL     OW19402   0.904   3.352   4.468
 6168SOL    HW119403   0.823   3.298   4.485
 6168SOL    HW219404   0.956   3.364   4.553
 6169SOL     OW19405   2.843   0.863   0.304
 6169SOL    HW119406   2.901   0.883   0.382
 6169SOL    HW219407   2.896   0.871   0.220
 6170SOL     OW19408   2.933   4.770   1.208
 6170SOL    HW119409   2.964   4.854   1.253
 6170SOL    HW219410   2.874   4.719   1.271
 6171SOL     OW19411   2.159   4.334   1.363
 6171SOL    HW119412   2.102   4.252   1.372
 6171SOL    HW219413   2.201   4.355   1.452
 6172SOL     OW19414   2.874   4.945   1.486
 6172SOL    HW119415   2.897   4.909   1.577
 6172SOL    HW219416   2.793   4.898   1.452
 6173SOL     OW19417   1.555   5.480   2.308
 6173SOL    HW119418   1.528   5.574   2.332
 6173SOL    HW219419   1.630   5.452   2.368
 6174SOL     OW19420   5.579   4.270   1.978
 6174SOL    HW119421   5.631   4.223   2.049
 6174SOL    HW219422   5.526   4.204   1.926
 6175SOL     OW19423   5.075   0.366   3.935
 6175SOL    HW119424   5.156   0.424   3.947
 6175SOL    HW219425   5.055   0.358   3.837
 6176SOL     OW19426   5.658   3.213   6.936
 6176SOL    HW119427   5.743   3.221   6.884
 6176SOL    HW219428   5.674   3.241   0.004
 6177SOL     OW19429   6.243   2.555   2.473
 6177SOL    HW119430   6.267   2.587   2.564
 6177SOL    HW219431   6.149   2.521   2.473
 6178SOL     OW19432   6.070   3.457   1.084
 6178SOL    HW119433   6.161   3.451   1.126
 6178SOL    HW219434   6.012   3.384   1.119
 6179SOL     OW19435   0.745   1.774   5.088
 6179SOL    HW119436   0.765   1.737   5.179
 6179SOL    HW219437   0.647   1.776   5.073
 6180SOL     OW19438   3.088   0.621   6.301
 6180SOL    HW119439   3.137   0.692   6.351
 6180SOL    HW219440   3.005   0.659   6.261
 6181SOL     OW19441   4.315   5.951   6.727
 6181SOL    HW119442   4.224   5.913   6.735
 6181SOL    HW219443   4.310   6.044   6.690
 6182SOL     OW19444   5.180   6.946   5.443
 6182SOL    HW119445   5.188   6.934   5.542
 6182SOL    HW219446   5.178   0.017   5.421
 6183SOL     OW19447   3.166   0.450   2.553
 6183SOL    HW119448   3.199   0.404   2.471
 6183SOL    HW219449   3.152   0.382   2.625
 6184SOL     OW19450   6.828   0.476   5.961
 6184SOL    HW119451   6.888   0.423   6.020
 6184SOL    HW219452   6.882   0.522   5.890
 6185SOL     OW19453   2.630   2.626   6.696
 6185SOL    HW119454   2.678   2.669   6.620
 6185SOL    HW219455   2.685   2.549   6.731
 6186SOL     OW19456   4.554   0.907   4.166
 6186SOL    HW119457   4.461   0.929   4.134
 6186SOL    HW219458   4.570   0.809   4.153
 6187SOL     OW19459   3.308   5.058   4.371
 6187SOL    HW119460   3.262   4.972   4.347
 6187SOL    HW219461   3.374   5.041   4.444
 6188SOL     OW19462   3.184   6.733   1.831
 6188SOL    HW119463   3.155   6.644   1.796
 6188SOL    HW219464   3.236   6.781   1.760
 6189SOL     OW19465   5.106   4.855   3.253
 6189SOL    HW119466   5.166   4.776   3.239
 6189SOL    HW219467   5.143   4.934   3.205
 6190SOL     OW19468   5.372   2.598   5.864
 6190SOL    HW119469   5.317   2.590   5.948
 6190SOL    HW219470   5.337   2.534   5.795
 6191SOL     OW19471   6.987   1.815   6.358
 6191SOL    HW119472   6.908   1.813   6.297
 6191SOL    HW219473   7.005   1.910   6.386
 6192SOL     OW19474   3.442   2.386   0.211
 6192SOL    HW119475   3.419   2.342   0.299
 6192SOL    HW219476   3.446   2.485   0.224
 6193SOL     OW19477   6.725   0.254   1.840
 6193SOL    HW119478   6.768   0.320   1.902
 6193SOL    HW219479   6.662   0.303   1.779
 6194SOL     OW19480   2.554   0.401   0.610
 6194SOL    HW119481   2.637   0.361   0.571
 6194SOL    HW219482   2.512   0.337   0.674
 6195SOL     OW19483   2.458   6.841   5.544
 6195SOL    HW119484   2.556   6.832   5.531
 6195SOL    HW219485   2.410   6.788   5.474
 6196SOL     OW19486   0.744   1.660   5.757
 6196SOL    HW119487   0.822   1.704   5.714
 6196SOL    HW219488   0.671   1.647   5.690
 6197SOL     OW19489   2.368   2.750   1.055
 6197SOL    HW119490   2.419   2.827   1.092
 6197SOL    HW219491   2.297   2.722   1.120
 6198SOL     OW19492   3.770   5.264   3.041
 6198SOL    HW119493   3.729   5.306   2.959
 6198SOL    HW219494   3.698   5.244   3.108
 6199SOL     OW19495   0.329   0.601   6.754
 6199SOL    HW119496   0.339   0.647   6.666
 6199SOL    HW219497   0.246   0.545   6.754
 6200SOL     OW19498   3.998   0.547   5.658
 6200SOL    HW119499   3.988   0.577   5.752
 6200SOL    HW219500   4.054   0.612   5.607
 6201SOL     OW19501   1.865   5.167   4.219
 6201SOL    HW119502   1.779   5.119   4.238
 6201SOL    HW219503   1.933   5.141   4.288
 6202SOL     OW19504   2.009   2.137   1.345
 6202SOL    HW119505   2.037   2.190   1.265
 6202SOL    HW219506   2.014   2.040   1.325
 6203SOL     OW19507   6.019   2.087   4.039
 6203SOL    HW119508   6.088   2.018   4.060
 6203SOL    HW219509   6.029   2.164   4.101
 6204SOL     OW19510   1.225   6.605   5.751
 6204SOL    HW119511   1.206   6.523   5.805
 6204SOL    HW219512   1.251   6.680   5.813
 6205SOL     OW19513   5.135   6.321   0.067
 6205SOL    HW119514   5.038   6.328   0.089
 6205SOL    HW219515   5.155   6.229   0.031
 6206SOL     OW19516   5.257   0.107   3.358
 6206SOL    HW119517   5.165   0.145   3.345
 6206SOL    HW219518   5.256   0.043   3.435
 6207SOL     OW19519   2.180   4.158   4.518
 6207SOL    HW119520   2.199   4.192   4.426
 6207SOL    HW219521   2.092   4.111   4.519
 6208SOL     OW19522   5.620   5.472   5.356
 6208SOL    HW119523   5.654   5.518   5.438
 6208SOL    HW219524   5.543   5.524   5.319
 6209SOL     OW19525   2.484   5.016   1.143
 6209SOL    HW119526   2.393   5.037   1.179
 6209SOL    HW219527   2.490   4.918   1.124
 6210SOL     OW19528   6.644   4.728   2.748
 6210SOL    HW119529   6.552   4.765   2.733
 6210SOL    HW219530   6.673   4.678   2.667
 6211SOL     OW19531   2.719   0.845   5.053
 6211SOL    HW119532   2.774   0.928   5.044
 6211SOL    HW219533   2.624   0.865   5.028
 6212SOL     OW19534   6.478   0.291   3.362
 6212SOL    HW119535   6.549   0.355   3.330
 6212SOL    HW219536   6.394   0.341   3.380
 6213SOL     OW19537   0.056   0.042   0.569
 6213SOL    HW119538   0.095   0.099   0.497
 6213SOL    HW219539   0.070   0.087   0.658
 6214SOL     OW19540   5.268   4.669   1.980
 6214SOL    HW119541   5.237   4.618   1.899
 6214SOL    HW219542   5.195   4.668   2.049
 6215SOL     OW19543   2.682   4.760   1.350
 6215SOL    HW119544   2.692   4.661   1.341
 6215SOL    HW219545   2.592   4.782   1.388
 6216SOL     OW19546   6.536   2.568   2.701
 6216SOL    HW119547   6.443   2.538   2.718
 6216SOL    HW219548   6.572   2.523   2.619
 6217SOL     OW19549   4.398   1.775   1.333
 6217SOL    HW119550   4.377   1.815   1.422
 6217SOL    HW219551   4.384   1.844   1.261
 6218SOL     OW19552   4.469   5.306   4.220
 6218SOL    HW119553   4.446   5.234   4.285
 6218SOL    HW219554   4.559   5.286   4.180
 6219SOL     OW19555   0.229   1.162   4.163
 6219SOL    HW119556   0.139   1.134   4.130
 6219SOL    HW219557   0.258   1.245   4.116
 6220SOL     OW19558   1.480   3.354   5.132
 6220SOL    HW119559   1.430   3.385   5.213
 6220SOL    HW219560   1.429   3.282   5.087
 6221SOL     OW19561   4.188   4.838   4.581
 6221SOL    HW119562   4.201   4.766   4.649
 6221SOL    HW219563   4.216   4.926   4.620
 6222SOL     OW19564   0.120   1.914   1.233
 6222SOL    HW119565   0.179   1.953   1.163
 6222SOL    HW219566   0.053   1.853   1.190
 6223SOL     OW19567   5.404   4.434   4.403
 6223SOL    HW119568   5.436   4.394   4.489
 6223SOL    HW219569   5.304   4.442   4.405
 6224SOL     OW19570   2.626   0.146   4.536
 6224SOL    HW119571   2.625   0.219   4.603
 6224SOL    HW219572   2.575   0.175   4.454
 6225SOL     OW19573   4.007   1.996   6.630
 6225SOL    HW119574   3.989   2.009   6.533
 6225SOL    HW219575   4.090   2.047   6.656
 6226SOL     OW19576   6.657   6.523   4.293
 6226SOL    HW119577   6.749   6.560   4.280
 6226SOL    HW219578   6.602   6.538   4.211
 6227SOL     OW19579   2.837   4.554   6.665
 6227SOL    HW119580   2.877   4.564   6.756
 6227SOL    HW219581   2.743   4.521   6.673
 6228SOL     OW19582   6.710   2.220   2.845
 6228SOL    HW119583   6.799   2.194   2.882
 6228SOL    HW219584   6.702   2.187   2.751
 6229SOL     OW19585   1.849   2.036   1.812
 6229SOL    HW119586   1.831   1.967   1.882
 6229SOL    HW219587   1.946   2.035   1.789
 6230SOL     OW19588   2.492   1.944   3.973
 6230SOL    HW119589   2.526   1.852   3.954
 6230SOL    HW219590   2.403   1.939   4.018
 6231SOL     OW19591   6.817   5.108   1.615
 6231SOL    HW119592   6.879   5.048   1.566
 6231SOL    HW219593   6.732   5.117   1.563
 6232SOL     OW19594   0.828   0.989   0.078
 6232SOL    HW119595   0.876   1.037   0.152
 6232SOL    HW219596   0.823   0.891   0.100
 6233SOL     OW19597   4.160   1.118   6.490
 6233SOL    HW119598   4.194   1.041   6.436
 6233SOL    HW219599   4.113   1.084   6.572
 6234SOL     OW19600   2.277   2.211   3.628
 6234SOL    HW119601   2.245   2.185   3.537
 6234SOL    HW219602   2.206   2.193   3.695
 6235SOL     OW19603   2.111   5.951   2.074
 6235SOL    HW119604   2.153   6.031   2.030
 6235SOL    HW219605   2.131   5.870   2.020
 6236SOL     OW19606   6.951   3.978   0.103
 6236SOL    HW119607   6.985   3.896   0.150
 6236SOL    HW219608   6.969   4.059   0.159
 6237SOL     OW19609   3.927   5.808   6.149
 6237SOL    HW119610   3.977   5.895   6.158
 6237SOL    HW219611   3.960   5.744   6.218
 6238SOL     OW19612   5.312   3.767   0.588
 6238SOL    HW119613   5.309   3.865   0.571
 6238SOL    HW219614   5.294   3.718   0.502
 6239SOL     OW19615   3.431   6.350   3.432
 6239SOL    HW119616   3.511   6.331   3.489
 6239SOL    HW219617   3.368   6.273   3.437
 6240SOL     OW19618   2.860   3.468   0.338
 6240SOL    HW119619   2.896   3.558   0.314
 6240SOL    HW219620   2.884   3.446   0.433
 6241SOL     OW19621   4.681   0.474   2.291
 6241SOL    HW119622   4.701   0.426   2.206
 6241SOL    HW219623   4.596   0.526   2.281
 6242SOL     OW19624   3.789   2.017   3.083
 6242SOL    HW119625   3.745   2.044   2.997
 6242SOL    HW219626   3.749   2.069   3.158
 6243SOL     OW19627   6.289   5.981   2.976
 6243SOL    HW119628   6.354   6.052   3.005
 6243SOL    HW219629   6.204   5.990   3.027
 6244SOL     OW19630   1.720   1.821   1.938
 6244SOL    HW119631   1.741   1.796   2.032
 6244SOL    HW219632   1.623   1.803   1.919
 6245SOL     OW19633   2.262   4.081   0.676
 6245SOL    HW119634   2.181   4.023   0.680
 6245SOL    HW219635   2.342   4.027   0.651
 6246SOL     OW19636   4.368   0.077   0.166
 6246SOL    HW119637   4.460   0.043   0.146
 6246SOL    HW219638   4.357   0.169   0.128
 6247SOL     OW19639   6.759   6.692   2.754
 6247SOL    HW119640   6.659   6.696   2.761
 6247SOL    HW219641   6.791   6.762   2.691
 6248SOL     OW19642   0.715   5.845   0.710
 6248SOL    HW119643   0.729   5.797   0.797
 6248SOL    HW219644   0.739   5.784   0.634
 6249SOL     OW19645   6.394   3.362   6.212
 6249SOL    HW119646   6.329   3.419   6.263
 6249SOL    HW219647   6.482   3.408   6.208
 6250SOL     OW19648   6.942   4.673   5.880
 6250SOL    HW119649   7.006   4.748   5.896
 6250SOL    HW219650   6.939   4.652   5.782
 6251SOL     OW19651   4.646   1.524   1.018
 6251SOL    HW119652   4.658   1.526   0.918
 6251SOL    HW219653   4.674   1.434   1.053
 6252SOL     OW19654   2.096   6.526   4.873
 6252SOL    HW119655   2.187   6.568   4.868
 6252SOL    HW219656   2.099   6.434   4.834
 6253SOL     OW19657   2.866   3.812   1.425
 6253SOL    HW119658   2.925   3.763   1.361
 6253SOL    HW219659   2.816   3.883   1.376
 6254SOL     OW19660   5.188   0.334   0.400
 6254SOL    HW119661   5.152   0.403   0.462
 6254SOL    HW219662   5.266   0.288   0.442
 6255SOL     OW19663   0.150   2.896   3.304
 6255SOL    HW119664   0.196   2.985   3.299
 6255SOL    HW219665   0.068   2.898   3.247
 6256SOL     OW19666   4.110   5.164   4.162
 6256SOL    HW119667   4.177   5.131   4.095
 6256SOL    HW219668   4.084   5.257   4.139
 6257SOL     OW19669   4.312   3.107   6.558
 6257SOL    HW119670   4.335   3.015   6.589
 6257SOL    HW219671   4.248   3.101   6.482
 6258SOL     OW19672   4.554   2.223   2.939
 6258SOL    HW119673   4.534   2.186   3.030
 6258SOL    HW219674   4.483   2.193   2.875
 6259SOL     OW19675   3.239   2.256   1.564
 6259SOL    HW119676   3.174   2.180   1.563
 6259SOL    HW219677   3.197   2.337   1.605
 6260SOL     OW19678   3.239   4.389   1.296
 6260SOL    HW119679   3.156   4.339   1.319
 6260SOL    HW219680   3.216   4.479   1.260
 6261SOL     OW19681   4.988   6.830   6.140
 6261SOL    HW119682   5.085   6.842   6.161
 6261SOL    HW219683   4.944   6.919   6.132
 6262SOL     OW19684   0.711   5.912   5.275
 6262SOL    HW119685   0.717   5.895   5.373
 6262SOL    HW219686   0.651   5.844   5.232
 6263SOL     OW19687   6.168   1.159   1.382
 6263SOL    HW119688   6.169   1.123   1.476
 6263SOL    HW219689   6.247   1.219   1.369
 6264SOL     OW19690   2.843   1.489   0.262
 6264SOL    HW119691   2.803   1.525   0.346
 6264SOL    HW219692   2.817   1.393   0.252
 6265SOL     OW19693   5.880   3.423   0.237
 6265SOL    HW119694   5.952   3.377   0.288
 6265SOL    HW219695   5.914   3.449   0.147
 6266SOL     OW19696   2.430   0.192   2.442
 6266SOL    HW119697   2.527   0.211   2.425
 6266SOL    HW219698   2.421   0.110   2.498
 6267SOL     OW19699   2.652   6.511   0.336
 6267SOL    HW119700   2.752   6.509   0.345
 6267SOL    HW219701   2.611   6.514   0.427
 6268SOL     OW19702   1.964   5.728   2.205
 6268SOL    HW119703   2.054   5.718   2.164
 6268SOL    HW219704   1.965   5.802   2.272
 6269SOL     OW19705   6.284   4.382   6.904
 6269SOL    HW119706   6.364   4.322   6.903
 6269SOL    HW219707   6.313   4.478   6.907
 6270SOL     OW19708   0.325   1.006   3.828
 6270SOL    HW119709   0.384   1.030   3.905
 6270SOL    HW219710   0.340   0.910   3.803
 6271SOL     OW19711   6.317   1.900   1.398
 6271SOL    HW119712   6.282   1.981   1.351
 6271SOL    HW219713   6.417   1.901   1.396
 6272SOL     OW19714   2.395   2.738   3.566
 6272SOL    HW119715   2.409   2.656   3.622
 6272SOL    HW219716   2.363   2.813   3.625
 6273SOL     OW19717   4.205   0.911   2.288
 6273SOL    HW119718   4.186   0.819   2.254
 6273SOL    HW219719   4.187   0.915   2.386
 6274SOL     OW19720   2.882   6.092   6.840
 6274SOL    HW119721   2.921   6.023   6.779
 6274SOL    HW219722   2.891   6.061   6.935
 6275SOL     OW19723   3.236   1.014   5.047
 6275SOL    HW119724   3.264   1.019   5.143
 6275SOL    HW219725   3.253   0.921   5.013
 6276SOL     OW19726   1.394   5.296   3.484
 6276SOL    HW119727   1.395   5.197   3.494
 6276SOL    HW219728   1.327   5.335   3.548
 6277SOL     OW19729   6.163   3.183   4.383
 6277SOL    HW119730   6.077   3.135   4.392
 6277SOL    HW219731   6.170   3.224   4.292
 6278SOL     OW19732   4.328   1.101   3.449
 6278SOL    HW119733   4.424   1.130   3.460
 6278SOL    HW219734   4.270   1.182   3.442
 6279SOL     OW19735   4.640   1.957   6.477
 6279SOL    HW119736   4.684   1.871   6.451
 6279SOL    HW219737   4.546   1.938   6.505
 6280SOL     OW19738   1.361   5.448   6.090
 6280SOL    HW119739   1.432   5.476   6.026
 6280SOL    HW219740   1.387   5.362   6.134
 6281SOL     OW19741   3.458   5.927   4.686
 6281SOL    HW119742   3.542   5.915   4.634
 6281SOL    HW219743   3.450   6.023   4.714
 6282SOL     OW19744   0.792   0.045   3.962
 6282SOL    HW119745   0.696   0.035   3.989
 6282SOL    HW219746   0.839   6.984   3.973
 6283SOL     OW19747   0.982   2.881   5.018
 6283SOL    HW119748   1.040   2.810   5.057
 6283SOL    HW219749   0.972   2.865   4.920
 6284SOL     OW19750   2.586   5.010   6.801
 6284SOL    HW119751   2.665   4.987   6.858
 6284SOL    HW219752   2.520   4.935   6.802
 6285SOL     OW19753   1.932   3.982   2.472
 6285SOL    HW119754   2.028   3.965   2.451
 6285SOL    HW219755   1.879   3.984   2.387
 6286SOL     OW19756   6.379   6.176   4.548
 6286SOL    HW119757   6.314   6.156   4.475
 6286SOL    HW219758   6.472   6.172   4.511
 6287SOL     OW19759   3.881   5.167   2.459
 6287SOL    HW119760   3.933   5.081   2.462
 6287SOL    HW219761   3.923   5.233   2.522
 6288SOL     OW19762   5.581   3.020   0.601
 6288SOL    HW119763   5.625   3.000   0.513
 6288SOL    HW219764   5.650   3.017   0.673
 6289SOL     OW19765   0.938   6.755   3.009
 6289SOL    HW119766   0.887   6.716   2.933
 6289SOL    HW219767   1.006   6.689   3.041
 6290SOL     OW19768   6.211   4.244   3.523
 6290SOL    HW119769   6.283   4.274   3.586
 6290SOL    HW219770   6.126   4.291   3.544
 6291SOL     OW19771   3.822   4.068   3.615
 6291SOL    HW119772   3.866   3.980   3.598
 6291SOL    HW219773   3.891   4.139   3.626
 6292SOL     OW19774   7.026   1.014   1.844
 6292SOL    HW119775   0.007   0.981   1.749
 6292SOL    HW219776   0.032   0.943   1.906
 6293SOL     OW19777   5.992   5.110   6.131
 6293SOL    HW119778   6.047   5.050   6.072
 6293SOL    HW219779   6.016   5.205   6.113
 6294SOL     OW19780   3.593   6.343   1.924
 6294SOL    HW119781   3.526   6.416   1.912
 6294SOL    HW219782   3.549   6.263   1.964
 6295SOL     OW19783   6.933   5.838   5.623
 6295SOL    HW119784   6.873   5.782   5.565
 6295SOL    HW219785   6.947   5.791   5.710
 6296SOL     OW19786   6.190   1.279   3.148
 6296SOL    HW119787   6.266   1.318   3.201
 6296SOL    HW219788   6.199   1.180   3.146
 6297SOL     OW19789   5.692   1.341   5.707
 6297SOL    HW119790   5.711   1.281   5.630
 6297SOL    HW219791   5.598   1.374   5.701
 6298SOL     OW19792   6.770   2.422   4.440
 6298SOL    HW119793   6.674   2.403   4.422
 6298SOL    HW219794   6.795   2.384   4.530
 6299SOL     OW19795   6.674   2.864   0.796
 6299SOL    HW119796   6.592   2.899   0.752
 6299SOL    HW219797   6.723   2.804   0.732
 6300SOL     OW19798   5.079   1.455   3.565
 6300SOL    HW119799   5.036   1.400   3.637
 6300SOL    HW219800   5.081   1.551   3.594
 6301SOL     OW19801   3.720   0.919   0.971
 6301SOL    HW119802   3.665   1.000   0.990
 6301SOL    HW219803   3.661   0.839   0.962
 6302SOL     OW19804   6.221   0.462   2.703
 6302SOL    HW119805   6.306   0.415   2.677
 6302SOL    HW219806   6.182   0.507   2.623
 6303SOL     OW19807   2.644   5.824   4.438
 6303SOL    HW119808   2.572   5.820   4.507
 6303SOL    HW219809   2.733   5.812   4.482
 6304SOL     OW19810   3.805   0.854   4.776
 6304SOL    HW119811   3.857   0.809   4.848
 6304SOL    HW219812   3.838   0.948   4.764
 6305SOL     OW19813   5.601   0.743   2.565
 6305SOL    HW119814   5.616   0.805   2.488
 6305SOL    HW219815   5.506   0.751   2.597
 6306SOL     OW19816   6.035   2.515   4.068
 6306SOL    HW119817   6.092   2.576   4.123
 6306SOL    HW219818   5.952   2.563   4.040
 6307SOL     OW19819   1.879   4.620   0.266
 6307SOL    HW119820   1.904   4.703   0.317
 6307SOL    HW219821   1.954   4.554   0.272
 6308SOL     OW19822   3.989   2.009   6.359
 6308SOL    HW119823   3.961   2.092   6.311
 6308SOL    HW219824   4.082   2.020   6.394
 6309SOL     OW19825   5.852   2.205   5.214
 6309SOL    HW119826   5.777   2.251   5.166
 6309SOL    HW219827   5.820   2.176   5.304
 6310SOL     OW19828   0.163   5.537   4.571
 6310SOL    HW119829   0.091   5.581   4.518
 6310SOL    HW219830   0.128   5.511   4.661
 6311SOL     OW19831   5.775   0.051   4.197
 6311SOL    HW119832   5.780   0.099   4.285
 6311SOL    HW219833   5.823   0.105   4.128
 6312SOL     OW19834   5.606   3.991   5.679
 6312SOL    HW119835   5.610   3.960   5.584
 6312SOL    HW219836   5.681   4.054   5.697
 6313SOL     OW19837   2.192   5.326   4.158
 6313SOL    HW119838   2.195   5.376   4.072
 6313SOL    HW219839   2.237   5.237   4.146
 6314SOL     OW19840   1.488   0.248   3.752
 6314SOL    HW119841   1.488   0.321   3.684
 6314SOL    HW219842   1.394   0.218   3.769
 6315SOL     OW19843   1.971   3.423   0.319
 6315SOL    HW119844   1.902   3.354   0.342
 6315SOL    HW219845   1.976   3.432   0.220
 6316SOL     OW19846   4.270   1.330   4.834
 6316SOL    HW119847   4.171   1.337   4.841
 6316SOL    HW219848   4.298   1.337   4.738
 6317SOL     OW19849   6.609   5.225   4.908
 6317SOL    HW119850   6.518   5.222   4.950
 6317SOL    HW219851   6.676   5.189   4.972
 6318SOL     OW19852   1.619   2.050   4.297
 6318SOL    HW119853   1.605   2.084   4.204
 6318SOL    HW219854   1.712   2.015   4.307
 6319SOL     OW19855   1.284   2.205   2.791
 6319SOL    HW119856   1.374   2.204   2.748
 6319SOL    HW219857   1.246   2.297   2.786
 6320SOL     OW19858   0.495   2.447   2.603
 6320SOL    HW119859   0.465   2.542   2.610
 6320SOL    HW219860   0.445   2.392   2.669
 6321SOL     OW19861   2.201   3.720   6.152
 6321SOL    HW119862   2.144   3.763   6.083
 6321SOL    HW219863   2.297   3.727   6.125
 6322SOL     OW19864   2.636   0.294   6.949
 6322SOL    HW119865   2.548   0.247   6.944
 6322SOL    HW219866   2.670   0.311   6.856
 6323SOL     OW19867   4.604   1.678   1.619
 6323SOL    HW119868   4.581   1.774   1.608
 6323SOL    HW219869   4.702   1.665   1.602
 6324SOL     OW19870   3.317   1.612   0.119
 6324SOL    HW119871   3.349   1.644   0.208
 6324SOL    HW219872   3.220   1.636   0.108
 6325SOL     OW19873   1.312   3.330   2.977
 6325SOL    HW119874   1.367   3.341   2.894
 6325SOL    HW219875   1.293   3.420   3.016
 6326SOL     OW19876   4.333   6.813   1.927
 6326SOL    HW119877   4.392   6.885   1.892
 6326SOL    HW219878   4.374   6.724   1.908
 6327SOL     OW19879   3.816   5.255   5.291
 6327SOL    HW119880   3.858   5.317   5.358
 6327SOL    HW219881   3.791   5.169   5.337
 6328SOL     OW19882   2.243   4.464   0.038
 6328SOL    HW119883   2.171   4.492   7.001
 6328SOL    HW219884   2.241   4.524   0.118
 6329SOL     OW19885   0.681   1.389   3.240
 6329SOL    HW119886   0.751   1.453   3.208
 6329SOL    HW219887   0.723   1.299   3.253
 6330SOL     OW19888   3.461   0.488   6.984
 6330SOL    HW119889   3.503   0.404   7.019
 6330SOL    HW219890   3.393   0.521   0.023
 6331SOL     OW19891   4.786   3.238   1.685
 6331SOL    HW119892   4.806   3.181   1.605
 6331SOL    HW219893   4.729   3.186   1.749
 6332SOL     OW19894   4.595   6.444   2.270
 6332SOL    HW119895   4.642   6.533   2.267
 6332SOL    HW219896   4.501   6.455   2.238
 6333SOL     OW19897   2.457   4.999   2.938
 6333SOL    HW119898   2.416   5.081   2.896
 6333SOL    HW219899   2.521   5.027   3.010
 6334SOL     OW19900   2.216   1.299   2.350
 6334SOL    HW119901   2.253   1.237   2.280
 6334SOL    HW219902   2.271   1.382   2.353
 6335SOL     OW19903   6.812   0.928   0.106
 6335SOL    HW119904   6.837   1.022   0.126
 6335SOL    HW219905   6.889   0.882   0.060
 6336SOL     OW19906   1.360   2.665   5.146
 6336SOL    HW119907   1.383   2.605   5.070
 6336SOL    HW219908   1.360   2.760   5.116
 6337SOL     OW19909   0.613   4.648   4.970
 6337SOL    HW119910   0.579   4.709   5.042
 6337SOL    HW219911   0.708   4.624   4.988
 6338SOL     OW19912   3.586   1.639   4.648
 6338SOL    HW119913   3.588   1.738   4.665
 6338SOL    HW219914   3.615   1.621   4.554
 6339SOL     OW19915   0.221   2.692   4.188
 6339SOL    HW119916   0.209   2.664   4.093
 6339SOL    HW219917   0.159   2.768   4.208
 6340SOL     OW19918   2.964   5.864   3.704
 6340SOL    HW119919   3.027   5.823   3.770
 6340SOL    HW219920   2.959   5.805   3.623
 6341SOL     OW19921   6.064   5.443   2.061
 6341SOL    HW119922   6.010   5.513   2.109
 6341SOL    HW219923   6.096   5.375   2.126
 6342SOL     OW19924   1.266   3.575   0.731
 6342SOL    HW119925   1.315   3.591   0.646
 6342SOL    HW219926   1.242   3.663   0.773
 6343SOL     OW19927   4.561   1.368   0.487
 6343SOL    HW119928   4.618   1.337   0.411
 6343SOL    HW219929   4.548   1.293   0.552
 6344SOL     OW19930   6.102   4.979   4.651
 6344SOL    HW119931   6.163   4.900   4.658
 6344SOL    HW219932   6.007   4.948   4.660
 6345SOL     OW19933   1.857   2.290   1.522
 6345SOL    HW119934   1.925   2.234   1.476
 6345SOL    HW219935   1.783   2.231   1.556
 6346SOL     OW19936   0.666   5.423   3.953
 6346SOL    HW119937   0.631   5.472   4.034
 6346SOL    HW219938   0.670   5.486   3.876
 6347SOL     OW19939   3.140   0.521   0.759
 6347SOL    HW119940   3.076   0.573   0.702
 6347SOL    HW219941   3.089   0.457   0.816
 6348SOL     OW19942   0.354   2.928   3.824
 6348SOL    HW119943   0.285   2.905   3.756
 6348SOL    HW219944   0.341   2.870   3.905
 6349SOL     OW19945   1.362   0.714   0.691
 6349SOL    HW119946   1.371   0.733   0.593
 6349SOL    HW219947   1.339   0.799   0.739
 6350SOL     OW19948   0.059   5.917   3.100
 6350SOL    HW119949   0.057   5.928   3.199
 6350SOL    HW219950   0.010   5.994   3.057
 6351SOL     OW19951   0.130   2.367   3.115
 6351SOL    HW119952   0.198   2.300   3.085
 6351SOL    HW219953   0.141   2.452   3.064
 6352SOL     OW19954   6.720   4.606   2.495
 6352SOL    HW119955   6.744   4.684   2.437
 6352SOL    HW219956   6.804   4.557   2.521
 6353SOL     OW19957   6.670   6.783   2.074
 6353SOL    HW119958   6.663   6.804   2.171
 6353SOL    HW219959   6.722   6.698   2.063
 6354SOL     OW19960   0.055   6.990   4.328
 6354SOL    HW119961   0.074   6.935   4.410
 6354SOL    HW219962   6.994   0.009   4.339
 6355SOL     OW19963   1.357   2.058   1.386
 6355SOL    HW119964   1.403   2.080   1.300
 6355SOL    HW219965   1.262   2.087   1.382
 6356SOL     OW19966   3.295   3.591   1.207
 6356SOL    HW119967   3.368   3.592   1.275
 6356SOL    HW219968   3.322   3.535   1.129
 6357SOL     OW19969   5.212   1.750   1.173
 6357SOL    HW119970   5.164   1.824   1.219
 6357SOL    HW219971   5.149   1.704   1.109
 6358SOL     OW19972   1.028   2.705   5.429
 6358SOL    HW119973   0.952   2.662   5.478
 6358SOL    HW219974   1.051   2.792   5.473
 6359SOL     OW19975   6.897   0.978   6.537
 6359SOL    HW119976   6.983   0.956   6.492
 6359SOL    HW219977   6.911   0.982   6.636
 6360SOL     OW19978   2.333   5.033   4.211
 6360SOL    HW119979   2.407   4.986   4.258
 6360SOL    HW219980   2.245   4.998   4.243
 6361SOL     OW19981   3.057   6.749   5.442
 6361SOL    HW119982   2.962   6.718   5.441
 6361SOL    HW219983   3.088   6.758   5.537
 6362SOL     OW19984   6.571   5.325   6.158
 6362SOL    HW119985   6.598   5.265   6.233
 6362SOL    HW219986   6.593   5.420   6.181
 6363SOL     OW19987   0.937   5.301   3.809
 6363SOL    HW119988   0.875   5.227   3.783
 6363SOL    HW219989   0.935   5.313   3.908
 6364SOL     OW19990   2.803   2.010   6.305
 6364SOL    HW119991   2.848   1.932   6.349
 6364SOL    HW219992   2.862   2.045   6.232
 6365SOL     OW19993   3.964   5.700   2.567
 6365SOL    HW119994   3.934   5.693   2.662
 6365SOL    HW219995   4.063   5.693   2.563
 6366SOL     OW19996   0.690   4.127   5.603
 6366SOL    HW119997   0.704   4.117   5.504
 6366SOL    HW219998   0.738   4.209   5.635
 6367SOL     OW19999   5.057   5.827   2.121
 6367SOL    HW120000   5.019   5.916   2.144
 6367SOL    HW220001   5.005   5.755   2.167
 6368SOL     OW20002   2.732   1.531   2.529
 6368SOL    HW120003   2.796   1.555   2.602
 6368SOL    HW220004   2.768   1.564   2.442
 6369SOL     OW20005   2.215   6.152   4.985
 6369SOL    HW120006   2.260   6.220   5.043
 6369SOL    HW220007   2.251   6.061   5.006
 6370SOL     OW20008   5.265   3.009   1.898
 6370SOL    HW120009   5.290   2.918   1.932
 6370SOL    HW220010   5.252   3.070   1.975
 6371SOL     OW20011   4.141   1.282   3.991
 6371SOL    HW120012   4.218   1.274   3.927
 6371SOL    HW220013   4.094   1.194   3.996
 6372SOL     OW20014   2.640   0.271   2.720
 6372SOL    HW120015   2.695   0.353   2.702
 6372SOL    HW220016   2.674   0.196   2.664
 6373SOL     OW20017   3.414   4.490   0.215
 6373SOL    HW120018   3.490   4.426   0.201
 6373SOL    HW220019   3.366   4.503   0.128
 6374SOL     OW20020   2.909   3.337   3.787
 6374SOL    HW120021   2.871   3.345   3.695
 6374SOL    HW220022   2.916   3.241   3.813
 6375SOL     OW20023   2.480   5.807   1.685
 6375SOL    HW120024   2.448   5.728   1.738
 6375SOL    HW220025   2.579   5.799   1.671
 6376SOL     OW20026   1.457   1.569   5.405
 6376SOL    HW120027   1.381   1.581   5.469
 6376SOL    HW220028   1.430   1.602   5.315
 6377SOL     OW20029   1.293   2.285   3.846
 6377SOL    HW120030   1.239   2.244   3.773
 6377SOL    HW220031   1.264   2.247   3.934
 6378SOL     OW20032   4.349   5.229   3.823
 6378SOL    HW120033   4.283   5.236   3.748
 6378SOL    HW220034   4.441   5.250   3.790
 6379SOL     OW20035   2.883   4.852   1.771
 6379SOL    HW120036   2.847   4.765   1.738
 6379SOL    HW220037   2.958   4.835   1.834
 6380SOL     OW20038   1.443   0.844   6.139
 6380SOL    HW120039   1.533   0.887   6.130
 6380SOL    HW220040   1.450   0.747   6.115
 6381SOL     OW20041   3.486   3.229   2.586
 6381SOL    HW120042   3.390   3.203   2.593
 6381SOL    HW220043   3.492   3.327   2.568
 6382SOL     OW20044   1.412   4.925   4.573
 6382SOL    HW120045   1.391   4.910   4.670
 6382SOL    HW220046   1.425   4.837   4.528
 6383SOL     OW20047   3.617   1.537   4.355
 6383SOL    HW120048   3.657   1.445   4.351
 6383SOL    HW220049   3.569   1.556   4.270
 6384SOL     OW20050   6.815   4.210   1.996
 6384SOL    HW120051   6.789   4.285   2.057
 6384SOL    HW220052   6.777   4.226   1.905
 6385SOL     OW20053   0.976   5.863   5.741
 6385SOL    HW120054   0.896   5.865   5.681
 6385SOL    HW220055   1.035   5.941   5.720
 6386SOL     OW20056   2.371   5.216   2.773
 6386SOL    HW120057   2.277   5.189   2.792
 6386SOL    HW220058   2.383   5.229   2.675
 6387SOL     OW20059   6.280   0.750   4.924
 6387SOL    HW120060   6.236   0.838   4.904
 6387SOL    HW220061   6.273   0.731   5.021
 6388SOL     OW20062   1.868   4.572   3.061
 6388SOL    HW120063   1.826   4.601   2.975
 6388SOL    HW220064   1.949   4.627   3.079
 6389SOL     OW20065   1.365   4.146   1.063
 6389SOL    HW120066   1.461   4.134   1.088
 6389SOL    HW220067   1.307   4.095   1.127
 6390SOL     OW20068   0.620   2.998   4.702
 6390SOL    HW120069   0.593   3.076   4.758
 6390SOL    HW220070   0.648   2.922   4.762
 6391SOL     OW20071   4.171   0.579   0.272
 6391SOL    HW120072   4.192   0.641   0.348
 6391SOL    HW220073   4.134   0.493   0.308
 6392SOL     OW20074   1.684   5.820   4.437
 6392SOL    HW120075   1.717   5.897   4.383
 6392SOL    HW220076   1.590   5.798   4.411
 6393SOL     OW20077   4.736   1.125   6.906
 6393SOL    HW120078   4.637   1.136   6.914
 6393SOL    HW220079   4.767   1.166   6.821
 6394SOL     OW20080   3.757   5.531   1.772
 6394SOL    HW120081   3.664   5.499   1.755
 6394SOL    HW220082   3.820   5.454   1.766
 6395SOL     OW20083   5.717   2.004   0.053
 6395SOL    HW120084   5.650   1.978   7.011
 6395SOL    HW220085   5.776   2.076   0.016
 6396SOL     OW20086   6.202   3.003   6.719
 6396SOL    HW120087   6.234   2.909   6.713
 6396SOL    HW220088   6.103   3.005   6.727
 6397SOL     OW20089   6.367   1.189   0.826
 6397SOL    HW120090   6.440   1.122   0.840
 6397SOL    HW220091   6.338   1.187   0.730
 6398SOL     OW20092   3.882   0.752   1.646
 6398SOL    HW120093   3.930   0.839   1.639
 6398SOL    HW220094   3.785   0.768   1.666
 6399SOL     OW20095   1.170   6.520   6.547
 6399SOL    HW120096   1.224   6.557   6.471
 6399SOL    HW220097   1.226   6.455   6.599
 6400SOL     OW20098   2.825   4.962   4.606
 6400SOL    HW120099   2.892   5.029   4.574
 6400SOL    HW220100   2.797   4.904   4.529
 6401SOL     OW20101   0.717   4.877   5.553
 6401SOL    HW120102   0.748   4.960   5.507
 6401SOL    HW220103   0.767   4.866   5.639
 6402SOL     OW20104   1.935   3.024   3.422
 6402SOL    HW120105   1.906   3.080   3.345
 6402SOL    HW220106   1.936   2.928   3.395
 6403SOL     OW20107   0.569   6.268   1.788
 6403SOL    HW120108   0.501   6.307   1.726
 6403SOL    HW220109   0.659   6.273   1.745
 6404SOL     OW20110   5.350   0.844   2.469
 6404SOL    HW120111   5.317   0.936   2.449
 6404SOL    HW220112   5.304   0.809   2.550
 6405SOL     OW20113   3.445   0.194   1.452
 6405SOL    HW120114   3.524   0.139   1.427
 6405SOL    HW220115   3.468   0.254   1.529
 6406SOL     OW20116   2.668   1.772   3.266
 6406SOL    HW120117   2.707   1.831   3.336
 6406SOL    HW220118   2.680   1.814   3.176
 6407SOL     OW20119   4.806   6.364   6.837
 6407SOL    HW120120   4.792   6.419   6.920
 6407SOL    HW220121   4.724   6.311   6.818
 6408SOL     OW20122   5.623   2.422   1.140
 6408SOL    HW120123   5.636   2.521   1.131
 6408SOL    HW220124   5.543   2.395   1.086
 6409SOL     OW20125   1.017   5.462   2.123
 6409SOL    HW120126   1.101   5.434   2.076
 6409SOL    HW220127   0.961   5.518   2.062
 6410SOL     OW20128   0.447   0.349   1.689
 6410SOL    HW120129   0.402   0.278   1.634
 6410SOL    HW220130   0.381   0.419   1.713
 6411SOL     OW20131   1.374   1.963   3.260
 6411SOL    HW120132   1.430   1.905   3.201
 6411SOL    HW220133   1.304   1.907   3.304
 6412SOL     OW20134   5.679   2.685   4.763
 6412SOL    HW120135   5.760   2.731   4.727
 6412SOL    HW220136   5.706   2.604   4.814
 6413SOL     OW20137   0.379   5.081   1.013
 6413SOL    HW120138   0.464   5.103   1.061
 6413SOL    HW220139   0.377   4.982   0.994
 6414SOL     OW20140   5.794   0.482   3.169
 6414SOL    HW120141   5.804   0.391   3.129
 6414SOL    HW220142   5.882   0.529   3.166
 6415SOL     OW20143   1.486   1.697   1.904
 6415SOL    HW120144   1.422   1.690   1.827
 6415SOL    HW220145   1.435   1.723   1.987
 6416SOL     OW20146   2.737   6.170   6.390
 6416SOL    HW120147   2.730   6.164   6.489
 6416SOL    HW220148   2.744   6.078   6.351
 6417SOL     OW20149   6.937   5.769   4.071
 6417SOL    HW120150   6.845   5.771   4.033
 6417SOL    HW220151   6.956   5.678   4.109
 6418SOL     OW20152   6.983   5.048   2.246
 6418SOL    HW120153   6.969   5.133   2.195
 6418SOL    HW220154   0.050   5.045   2.279
 6419SOL     OW20155   2.500   2.780   0.238
 6419SOL    HW120156   2.406   2.749   0.251
 6419SOL    HW220157   2.510   2.816   0.145
 6420SOL     OW20158   0.600   2.496   7.001
 6420SOL    HW120159   0.545   2.463   6.924
 6420SOL    HW220160   0.582   2.440   0.055
 6421SOL     OW20161   5.558   1.682   0.340
 6421SOL    HW120162   5.592   1.768   0.304
 6421SOL    HW220163   5.596   1.606   0.286
 6422SOL     OW20164   5.811   2.873   2.891
 6422SOL    HW120165   5.861   2.884   2.805
 6422SOL    HW220166   5.739   2.805   2.880
 6423SOL     OW20167   5.311   3.817   0.290
 6423SOL    HW120168   5.290   3.869   0.208
 6423SOL    HW220169   5.331   3.879   0.365
 6424SOL     OW20170   5.938   3.768   5.154
 6424SOL    HW120171   6.020   3.711   5.151
 6424SOL    HW220172   5.956   3.856   5.111
 6425SOL     OW20173   0.547   5.412   1.224
 6425SOL    HW120174   0.554   5.476   1.301
 6425SOL    HW220175   0.570   5.459   1.139
 6426SOL     OW20176   6.118   3.085   2.951
 6426SOL    HW120177   6.206   3.130   2.935
 6426SOL    HW220178   6.045   3.154   2.950
 6427SOL     OW20179   0.548   3.399   5.896
 6427SOL    HW120180   0.645   3.377   5.900
 6427SOL    HW220181   0.499   3.346   5.965
 6428SOL     OW20182   6.091   4.125   4.623
 6428SOL    HW120183   6.060   4.047   4.677
 6428SOL    HW220184   6.066   4.111   4.527
 6429SOL     OW20185   1.087   1.493   5.520
 6429SOL    HW120186   1.087   1.562   5.447
 6429SOL    HW220187   1.123   1.407   5.484
 6430SOL     OW20188   6.405   2.945   0.650
 6430SOL    HW120189   6.385   2.961   0.553
 6430SOL    HW220190   6.354   2.865   0.682
 6431SOL     OW20191   5.893   1.361   2.255
 6431SOL    HW120192   5.814   1.391   2.309
 6431SOL    HW220193   5.969   1.339   2.317
 6432SOL     OW20194   6.241   3.991   0.634
 6432SOL    HW120195   6.216   4.043   0.552
 6432SOL    HW220196   6.220   4.045   0.716
 6433SOL     OW20197   2.125   3.513   1.535
 6433SOL    HW120198   2.093   3.607   1.524
 6433SOL    HW220199   2.062   3.451   1.490
 6434SOL     OW20200   1.524   5.755   0.903
 6434SOL    HW120201   1.531   5.659   0.875
 6434SOL    HW220202   1.483   5.808   0.828
 6435SOL     OW20203   5.015   3.753   0.782
 6435SOL    HW120204   4.928   3.721   0.821
 6435SOL    HW220205   4.997   3.816   0.707
 6436SOL     OW20206   2.204   2.433   1.303
 6436SOL    HW120207   2.283   2.371   1.304
 6436SOL    HW220208   2.137   2.399   1.237
 6437SOL     OW20209   0.272   1.164   0.989
 6437SOL    HW120210   0.236   1.097   0.924
 6437SOL    HW220211   0.229   1.253   0.972
 6438SOL     OW20212   0.753   3.326   4.948
 6438SOL    HW120213   0.823   3.254   4.945
 6438SOL    HW220214   0.662   3.285   4.951
 6439SOL     OW20215   0.053   6.163   2.655
 6439SOL    HW120216   6.985   6.195   2.646
 6439SOL    HW220217   0.098   6.213   2.729
 6440SOL     OW20218   0.914   0.398   1.927
 6440SOL    HW120219   0.818   0.392   1.902
 6440SOL    HW220220   0.950   0.488   1.903
 6441SOL     OW20221   4.856   1.681   3.433
 6441SOL    HW120222   4.953   1.684   3.410
 6441SOL    HW220223   4.843   1.710   3.528
 6442SOL     OW20224   1.744   1.446   3.420
 6442SOL    HW120225   1.683   1.506   3.472
 6442SOL    HW220226   1.818   1.500   3.381
 6443SOL     OW20227   1.949   0.486   1.062
 6443SOL    HW120228   2.007   0.409   1.032
 6443SOL    HW220229   1.854   0.467   1.037
 6444SOL     OW20230   1.064   1.770   2.938
 6444SOL    HW120231   0.979   1.813   2.906
 6444SOL    HW220232   1.142   1.825   2.907
 6445SOL     OW20233   3.111   4.554   6.219
 6445SOL    HW120234   3.095   4.600   6.132
 6445SOL    HW220235   3.067   4.464   6.218
 6446SOL     OW20236   0.201   0.950   0.822
 6446SOL    HW120237   0.288   0.936   0.775
 6446SOL    HW220238   0.172   0.864   0.863
 6447SOL     OW20239   1.607   0.604   3.602
 6447SOL    HW120240   1.527   0.554   3.567
 6447SOL    HW220241   1.600   0.612   3.702
 6448SOL     OW20242   6.634   2.467   2.945
 6448SOL    HW120243   6.681   2.380   2.934
 6448SOL    HW220244   6.611   2.505   2.855
 6449SOL     OW20245   4.063   2.541   0.813
 6449SOL    HW120246   4.136   2.517   0.877
 6449SOL    HW220247   4.102   2.575   0.728
 6450SOL     OW20248   6.548   2.468   0.605
 6450SOL    HW120249   6.497   2.416   0.537
 6450SOL    HW220250   6.564   2.561   0.571
 6451SOL     OW20251   2.536   6.475   4.205
 6451SOL    HW120252   2.511   6.379   4.191
 6451SOL    HW220253   2.595   6.505   4.130
 6452SOL     OW20254   3.394   6.344   4.268
 6452SOL    HW120255   3.345   6.322   4.352
 6452SOL    HW220256   3.346   6.305   4.190
 6453SOL     OW20257   2.202   5.171   6.797
 6453SOL    HW120258   2.239   5.262   6.816
 6453SOL    HW220259   2.220   5.147   6.702
 6454SOL     OW20260   3.568   0.911   4.881
 6454SOL    HW120261   3.645   0.888   4.822
 6454SOL    HW220262   3.484   0.914   4.827
 6455SOL     OW20263   6.528   3.376   0.168
 6455SOL    HW120264   6.621   3.411   0.166
 6455SOL    HW220265   6.529   3.277   0.152
 6456SOL     OW20266   6.556   1.900   4.613
 6456SOL    HW120267   6.519   1.839   4.543
 6456SOL    HW220268   6.482   1.953   4.654
 6457SOL     OW20269   5.570   3.250   2.192
 6457SOL    HW120270   5.551   3.348   2.187
 6457SOL    HW220271   5.539   3.206   2.108
 6458SOL     OW20272   0.848   6.003   3.822
 6458SOL    HW120273   0.877   6.099   3.823
 6458SOL    HW220274   0.808   5.981   3.732
 6459SOL     OW20275   5.745   4.298   0.244
 6459SOL    HW120276   5.710   4.225   0.304
 6459SOL    HW220277   5.739   4.386   0.291
 6460SOL     OW20278   3.755   4.642   1.463
 6460SOL    HW120279   3.850   4.642   1.432
 6460SOL    HW220280   3.721   4.548   1.467
 6461SOL     OW20281   3.520   5.897   5.151
 6461SOL    HW120282   3.605   5.899   5.097
 6461SOL    HW220283   3.442   5.911   5.091
 6462SOL     OW20284   1.925   3.838   2.706
 6462SOL    HW120285   1.918   3.900   2.628
 6462SOL    HW220286   2.010   3.786   2.699
 6463SOL     OW20287   1.496   3.428   5.937
 6463SOL    HW120288   1.453   3.517   5.950
 6463SOL    HW220289   1.575   3.437   5.876
 6464SOL     OW20290   1.440   4.928   1.853
 6464SOL    HW120291   1.466   5.012   1.807
 6464SOL    HW220292   1.374   4.948   1.926
 6465SOL     OW20293   6.156   0.605   2.456
 6465SOL    HW120294   6.067   0.625   2.496
 6465SOL    HW220295   6.146   0.592   2.357
 6466SOL     OW20296   6.365   2.511   4.560
 6466SOL    HW120297   6.444   2.527   4.619
 6466SOL    HW220298   6.349   2.591   4.502
 6467SOL     OW20299   3.504   0.141   6.457
 6467SOL    HW120300   3.550   0.056   6.429
 6467SOL    HW220301   3.427   0.118   6.516
 6468SOL     OW20302   6.141   4.490   1.930
 6468SOL    HW120303   6.232   4.520   1.958
 6468SOL    HW220304   6.075   4.512   2.001
 6469SOL     OW20305   6.190   1.657   5.960
 6469SOL    HW120306   6.251   1.597   5.909
 6469SOL    HW220307   6.133   1.602   6.021
 6470SOL     OW20308   6.684   6.104   4.631
 6470SOL    HW120309   6.625   6.026   4.653
 6470SOL    HW220310   6.659   6.182   4.689
 6471SOL     OW20311   6.440   6.277   5.325
 6471SOL    HW120312   6.510   6.322   5.381
 6471SOL    HW220313   6.354   6.273   5.376
 6472SOL     OW20314   1.845   6.387   1.454
 6472SOL    HW120315   1.870   6.464   1.514
 6472SOL    HW220316   1.827   6.306   1.510
 6473SOL     OW20317   2.278   1.023   5.449
 6473SOL    HW120318   2.193   1.019   5.396
 6473SOL    HW220319   2.271   1.095   5.518
 6474SOL     OW20320   1.859   3.378   6.162
 6474SOL    HW120321   1.816   3.467   6.145
 6474SOL    HW220322   1.958   3.385   6.146
 6475SOL     OW20323   4.269   5.426   4.046
 6475SOL    HW120324   4.303   5.386   3.961
 6475SOL    HW220325   4.336   5.412   4.119
 6476SOL     OW20326   4.792   5.726   2.884
 6476SOL    HW120327   4.756   5.745   2.792
 6476SOL    HW220328   4.838   5.807   2.919
 6477SOL     OW20329   6.629   6.267   6.977
 6477SOL    HW120330   6.564   6.267   0.026
 6477SOL    HW220331   6.602   6.198   6.910
 6478SOL     OW20332   4.266   5.778   1.210
 6478SOL    HW120333   4.312   5.794   1.123
 6478SOL    HW220334   4.175   5.821   1.208
 6479SOL     OW20335   2.831   5.793   2.873
 6479SOL    HW120336   2.918   5.812   2.919
 6479SOL    HW220337   2.776   5.733   2.930
 6480SOL     OW20338   2.444   0.769   0.783
 6480SOL    HW120339   2.369   0.768   0.717
 6480SOL    HW220340   2.463   0.863   0.812
 6481SOL     OW20341   4.510   0.479   1.051
 6481SOL    HW120342   4.529   0.538   1.130
 6481SOL    HW220343   4.411   0.480   1.032
 6482SOL     OW20344   0.474   0.040   5.697
 6482SOL    HW120345   0.491   0.036   5.796
 6482SOL    HW220346   0.531   0.113   5.657
 6483SOL     OW20347   1.829   4.824   1.536
 6483SOL    HW120348   1.909   4.885   1.531
 6483SOL    HW220349   1.766   4.846   1.461
 6484SOL     OW20350   4.574   6.779   2.992
 6484SOL    HW120351   4.619   6.791   3.081
 6484SOL    HW220352   4.642   6.787   2.919
 6485SOL     OW20353   0.578   2.931   2.853
 6485SOL    HW120354   0.611   2.845   2.814
 6485SOL    HW220355   0.607   3.007   2.795
 6486SOL     OW20356   1.625   2.927   3.002
 6486SOL    HW120357   1.702   2.863   3.011
 6486SOL    HW220358   1.614   2.951   2.906
 6487SOL     OW20359   5.768   5.789   3.559
 6487SOL    HW120360   5.704   5.713   3.573
 6487SOL    HW220361   5.784   5.800   3.461
 6488SOL     OW20362   3.195   5.305   4.281
 6488SOL    HW120363   3.259   5.228   4.278
 6488SOL    HW220364   3.189   5.340   4.374
 6489SOL     OW20365   2.301   1.606   6.433
 6489SOL    HW120366   2.394   1.625   6.401
 6489SOL    HW220367   2.243   1.686   6.419
 6490SOL     OW20368   5.036   1.808   0.200
 6490SOL    HW120369   5.079   1.757   0.125
 6490SOL    HW220370   5.072   1.776   0.287
 6491SOL     OW20371   5.563   1.041   5.788
 6491SOL    HW120372   5.524   1.029   5.697
 6491SOL    HW220373   5.662   1.030   5.784
 6492SOL     OW20374   6.215   5.945   6.320
 6492SOL    HW120375   6.313   5.963   6.329
 6492SOL    HW220376   6.200   5.867   6.259
 6493SOL     OW20377   0.473   7.009   5.230
 6493SOL    HW120378   0.459   0.066   5.283
 6493SOL    HW220379   0.430   6.932   5.277
 6494SOL     OW20380   0.344   2.201   3.026
 6494SOL    HW120381   0.309   2.109   3.038
 6494SOL    HW220382   0.405   2.224   3.102
 6495SOL     OW20383   5.417   4.488   2.134
 6495SOL    HW120384   5.490   4.442   2.083
 6495SOL    HW220385   5.363   4.544   2.071
 6496SOL     OW20386   0.233   6.347   3.248
 6496SOL    HW120387   0.292   6.404   3.192
 6496SOL    HW220388   0.145   6.336   3.203
 6497SOL     OW20389   0.561   6.871   1.339
 6497SOL    HW120390   0.476   6.917   1.315
 6497SOL    HW220391   0.562   6.780   1.299
 6498SOL     OW20392   1.497   3.695   4.443
 6498SOL    HW120393   1.400   3.718   4.450
 6498SOL    HW220394   1.551   3.769   4.481
 6499SOL     OW20395   6.342   1.354   3.340
 6499SOL    HW120396   6.302   1.290   3.405
 6499SOL    HW220397   6.440   1.336   3.331
 6500SOL     OW20398   5.698   4.990   2.253
 6500SOL    HW120399   5.772   4.938   2.210
 6500SOL    HW220400   5.610   4.947   2.234
 6501SOL     OW20401   6.629   4.277   0.877
 6501SOL    HW120402   6.583   4.287   0.788
 6501SOL    HW220403   6.709   4.336   0.879
 6502SOL     OW20404   0.749   5.112   1.398
 6502SOL    HW120405   0.795   5.060   1.470
 6502SOL    HW220406   0.801   5.196   1.380
 6503SOL     OW20407   4.428   0.419   3.813
 6503SOL    HW120408   4.354   0.358   3.841
 6503SOL    HW220409   4.403   0.466   3.729
 6504SOL     OW20410   2.206   1.908   0.766
 6504SOL    HW120411   2.294   1.863   0.778
 6504SOL    HW220412   2.206   1.959   0.680
 6505SOL     OW20413   5.730   5.112   0.554
 6505SOL    HW120414   5.727   5.199   0.602
 6505SOL    HW220415   5.812   5.107   0.498
 6506SOL     OW20416   2.407   0.994   1.196
 6506SOL    HW120417   2.482   0.934   1.225
 6506SOL    HW220418   2.408   1.077   1.251
 6507SOL     OW20419   2.911   0.864   1.783
 6507SOL    HW120420   2.813   0.843   1.783
 6507SOL    HW220421   2.924   0.961   1.763
 6508SOL     OW20422   1.984   2.446   1.980
 6508SOL    HW120423   1.947   2.360   2.017
 6508SOL    HW220424   1.961   2.452   1.883
 6509SOL     OW20425   1.144   3.200   3.834
 6509SOL    HW120426   1.199   3.196   3.918
 6509SOL    HW220427   1.138   3.109   3.794
 6510SOL     OW20428   6.326   4.367   6.412
 6510SOL    HW120429   6.266   4.346   6.489
 6510SOL    HW220430   6.387   4.443   6.437
 6511SOL     OW20431   0.248   6.757   5.965
 6511SOL    HW120432   0.292   6.705   5.892
 6511SOL    HW220433   0.163   6.797   5.930
 6512SOL     OW20434   5.321   6.045   3.994
 6512SOL    HW120435   5.404   6.078   4.039
 6512SOL    HW220436   5.257   6.010   4.063
 6513SOL     OW20437   0.975   6.818   3.426
 6513SOL    HW120438   0.989   6.794   3.330
 6513SOL    HW220439   1.051   6.875   3.457
 6514SOL     OW20440   2.804   0.588   3.360
 6514SOL    HW120441   2.742   0.614   3.434
 6514SOL    HW220442   2.885   0.545   3.399
 6515SOL     OW20443   0.974   0.776   3.490
 6515SOL    HW120444   0.987   0.684   3.526
 6515SOL    HW220445   0.892   0.779   3.433
 6516SOL     OW20446   1.352   0.819   5.243
 6516SOL    HW120447   1.304   0.774   5.319
 6516SOL    HW220448   1.400   0.900   5.278
 6517SOL     OW20449   2.503   2.275   1.017
 6517SOL    HW120450   2.593   2.240   0.993
 6517SOL    HW220451   2.437   2.246   0.948
 6518SOL     OW20452   5.889   6.398   0.739
 6518SOL    HW120453   5.893   6.323   0.805
 6518SOL    HW220454   5.835   6.473   0.777
 6519SOL     OW20455   0.921   2.017   4.031
 6519SOL    HW120456   0.993   2.085   4.040
 6519SOL    HW220457   0.907   1.995   3.935
 6520SOL     OW20458   5.802   5.196   1.142
 6520SOL    HW120459   5.722   5.143   1.113
 6520SOL    HW220460   5.775   5.265   1.208
 6521SOL     OW20461   1.342   2.156   5.812
 6521SOL    HW120462   1.405   2.091   5.768
 6521SOL    HW220463   1.291   2.109   5.884
 6522SOL     OW20464   2.232   4.874   4.502
 6522SOL    HW120465   2.152   4.894   4.446
 6522SOL    HW220466   2.266   4.959   4.542
 6523SOL     OW20467   2.060   2.246   0.824
 6523SOL    HW120468   2.049   2.334   0.777
 6523SOL    HW220469   2.022   2.173   0.767
 6524SOL     OW20470   4.155   2.558   5.487
 6524SOL    HW120471   4.148   2.647   5.443
 6524SOL    HW220472   4.063   2.524   5.508
 6525SOL     OW20473   0.487   2.772   4.228
 6525SOL    HW120474   0.414   2.703   4.231
 6525SOL    HW220475   0.482   2.830   4.310
 6526SOL     OW20476   1.474   5.674   3.518
 6526SOL    HW120477   1.494   5.582   3.483
 6526SOL    HW220478   1.556   5.730   3.515
 6527SOL     OW20479   2.005   1.469   4.249
 6527SOL    HW120480   2.072   1.504   4.315
 6527SOL    HW220481   1.913   1.492   4.279
 6528SOL     OW20482   0.494   0.322   3.374
 6528SOL    HW120483   0.576   0.301   3.320
 6528SOL    HW220484   0.415   0.331   3.313
 6529SOL     OW20485   6.363   2.718   2.314
 6529SOL    HW120486   6.393   2.785   2.382
 6529SOL    HW220487   6.332   2.635   2.360
 6530SOL     OW20488   0.172   1.623   0.161
 6530SOL    HW120489   0.202   1.537   0.121
 6530SOL    HW220490   0.158   1.611   0.260
 6531SOL     OW20491   5.015   2.291   5.686
 6531SOL    HW120492   5.066   2.204   5.683
 6531SOL    HW220493   4.932   2.283   5.631
 6532SOL     OW20494   1.250   1.792   7.002
 6532SOL    HW120495   1.185   1.745   6.942
 6532SOL    HW220496   1.340   1.795   6.958
 6533SOL     OW20497   4.508   6.961   1.083
 6533SOL    HW120498   4.553   0.018   1.114
 6533SOL    HW220499   4.556   6.925   1.004
 6534SOL     OW20500   3.173   2.803   6.753
 6534SOL    HW120501   3.262   2.849   6.747
 6534SOL    HW220502   3.117   2.846   6.824
 6535SOL     OW20503   2.311   3.496   5.273
 6535SOL    HW120504   2.339   3.409   5.313
 6535SOL    HW220505   2.242   3.539   5.331
 6536SOL     OW20506   0.152   1.918   0.153
 6536SOL    HW120507   0.157   1.821   0.130
 6536SOL    HW220508   0.240   1.948   0.191
 6537SOL     OW20509   0.614   0.626   6.451
 6537SOL    HW120510   0.657   0.689   6.386
 6537SOL    HW220511   0.520   0.608   6.424
 6538SOL     OW20512   2.730   2.513   5.772
 6538SOL    HW120513   2.772   2.543   5.686
 6538SOL    HW220514   2.631   2.506   5.761
 6539SOL     OW20515   3.654   1.446   6.875
 6539SOL    HW120516   3.678   1.532   6.829
 6539SOL    HW220517   3.596   1.466   6.954
 6540SOL     OW20518   3.890   2.126   3.391
 6540SOL    HW120519   3.878   2.156   3.486
 6540SOL    HW220520   3.987   2.125   3.369
 6541SOL     OW20521   2.526   2.399   5.217
 6541SOL    HW120522   2.478   2.431   5.135
 6541SOL    HW220523   2.622   2.382   5.195
 6542SOL     OW20524   5.090   4.566   2.592
 6542SOL    HW120525   5.158   4.505   2.633
 6542SOL    HW220526   5.036   4.516   2.525
 6543SOL     OW20527   1.277   6.469   6.078
 6543SOL    HW120528   1.255   6.377   6.046
 6543SOL    HW220529   1.198   6.509   6.123
 6544SOL     OW20530   0.162   5.807   2.655
 6544SOL    HW120531   0.091   5.738   2.665
 6544SOL    HW220532   0.143   5.863   2.574
 6545SOL     OW20533   5.934   2.991   6.761
 6545SOL    HW120534   5.917   2.993   6.663
 6545SOL    HW220535   5.876   2.922   6.804
 6546SOL     OW20536   3.411   4.837   6.266
 6546SOL    HW120537   3.370   4.916   6.311
 6546SOL    HW220538   3.339   4.782   6.224
 6547SOL     OW20539   4.630   1.097   6.341
 6547SOL    HW120540   4.597   1.056   6.426
 6547SOL    HW220541   4.705   1.041   6.304
 6548SOL     OW20542   4.907   3.844   5.830
 6548SOL    HW120543   4.953   3.905   5.766
 6548SOL    HW220544   4.942   3.858   5.922
 6549SOL     OW20545   2.733   2.294   2.619
 6549SOL    HW120546   2.797   2.312   2.694
 6549SOL    HW220547   2.670   2.221   2.647
 6550SOL     OW20548   1.103   5.651   2.540
 6550SOL    HW120549   1.066   5.656   2.633
 6550SOL    HW220550   1.170   5.577   2.535
 6551SOL     OW20551   3.628   5.156   2.073
 6551SOL    HW120552   3.641   5.073   2.127
 6551SOL    HW220553   3.638   5.134   1.976
 6552SOL     OW20554   4.775   4.521   5.690
 6552SOL    HW120555   4.784   4.436   5.743
 6552SOL    HW220556   4.685   4.523   5.647
 6553SOL     OW20557   0.031   3.481   3.141
 6553SOL    HW120558   0.083   3.486   3.056
 6553SOL    HW220559   0.079   3.422   3.206
 6554SOL     OW20560   7.009   3.969   4.827
 6554SOL    HW120561   7.005   3.913   4.744
 6554SOL    HW220562   6.931   4.031   4.830
 6555SOL     OW20563   0.728   1.635   1.320
 6555SOL    HW120564   0.724   1.543   1.279
 6555SOL    HW220565   0.768   1.629   1.412
 6556SOL     OW20566   3.841   0.092   3.511
 6556SOL    HW120567   3.818   0.096   3.609
 6556SOL    HW220568   3.941   0.095   3.501
 6557SOL     OW20569   5.350   5.732   0.637
 6557SOL    HW120570   5.326   5.798   0.708
 6557SOL    HW220571   5.275   5.668   0.623
 6558SOL     OW20572   0.071   6.611   5.512
 6558SOL    HW120573   0.116   6.565   5.435
 6558SOL    HW220574   0.096   6.566   5.597
 6559SOL     OW20575   3.040   3.678   1.254
 6559SOL    HW120576   3.134   3.682   1.221
 6559SOL    HW220577   3.021   3.586   1.289
 6560SOL     OW20578   4.190   1.676   1.012
 6560SOL    HW120579   4.254   1.603   0.990
 6560SOL    HW220580   4.139   1.653   1.095
 6561SOL     OW20581   3.690   3.699   4.687
 6561SOL    HW120582   3.752   3.777   4.695
 6561SOL    HW220583   3.714   3.646   4.607
 6562SOL     OW20584   0.310   4.623   5.125
 6562SOL    HW120585   0.284   4.528   5.107
 6562SOL    HW220586   0.312   4.640   5.223
 6563SOL     OW20587   0.624   5.470   2.295
 6563SOL    HW120588   0.688   5.537   2.332
 6563SOL    HW220589   0.549   5.517   2.249
 6564SOL     OW20590   1.630   4.831   3.024
 6564SOL    HW120591   1.593   4.887   3.098
 6564SOL    HW220592   1.613   4.734   3.044
 6565SOL     OW20593   6.845   3.746   4.934
 6565SOL    HW120594   6.876   3.654   4.910
 6565SOL    HW220595   6.886   3.812   4.870
 6566SOL     OW20596   4.073   1.135   0.654
 6566SOL    HW120597   4.157   1.100   0.612
 6566SOL    HW220598   4.082   1.234   0.668
 6567SOL     OW20599   6.369   2.504   0.808
 6567SOL    HW120600   6.429   2.499   0.729
 6567SOL    HW220601   6.382   2.423   0.865
 6568SOL     OW20602   5.107   3.621   1.074
 6568SOL    HW120603   5.033   3.567   1.034
 6568SOL    HW220604   5.167   3.562   1.126
 6569SOL     OW20605   1.577   4.429   5.410
 6569SOL    HW120606   1.673   4.454   5.402
 6569SOL    HW220607   1.545   4.449   5.503
 6570SOL     OW20608   6.863   3.955   1.892
 6570SOL    HW120609   6.786   3.926   1.835
 6570SOL    HW220610   6.834   4.030   1.952
 6571SOL     OW20611   1.628   5.595   3.805
 6571SOL    HW120612   1.619   5.517   3.744
 6571SOL    HW220613   1.585   5.574   3.893
 6572SOL     OW20614   2.147   3.688   5.665
 6572SOL    HW120615   2.236   3.675   5.709
 6572SOL    HW220616   2.078   3.633   5.714
 6573SOL     OW20617   1.758   1.724   1.685
 6573SOL    HW120618   1.711   1.792   1.629
 6573SOL    HW220619   1.733   1.737   1.781
 6574SOL     OW20620   2.112   4.439   4.569
 6574SOL    HW120621   2.182   4.477   4.630
 6574SOL    HW220622   2.129   4.342   4.555
 6575SOL     OW20623   1.574   1.939   2.597
 6575SOL    HW120624   1.550   2.035   2.613
 6575SOL    HW220625   1.665   1.921   2.635
 6576SOL     OW20626   0.272   6.402   3.927
 6576SOL    HW120627   0.264   6.303   3.918
 6576SOL    HW220628   0.285   6.443   3.836
 6577SOL     OW20629   0.366   3.796   5.780
 6577SOL    HW120630   0.425   3.777   5.701
 6577SOL    HW220631   0.322   3.885   5.767
 6578SOL     OW20632   6.257   5.622   3.789
 6578SOL    HW120633   6.299   5.630   3.699
 6578SOL    HW220634   6.158   5.609   3.779
 6579SOL     OW20635   0.523   3.940   4.095
 6579SOL    HW120636   0.428   3.959   4.121
 6579SOL    HW220637   0.574   4.026   4.089
 6580SOL     OW20638   5.597   2.282   0.339
 6580SOL    HW120639   5.687   2.271   0.382
 6580SOL    HW220640   5.535   2.326   0.404
 6581SOL     OW20641   2.485   2.191   5.399
 6581SOL    HW120642   2.520   2.110   5.352
 6581SOL    HW220643   2.486   2.269   5.337
 6582SOL     OW20644   6.663   0.673   2.157
 6582SOL    HW120645   6.584   0.641   2.209
 6582SOL    HW220646   6.696   0.759   2.195
 6583SOL     OW20647   6.937   0.928   6.129
 6583SOL    HW120648   6.852   0.881   6.154
 6583SOL    HW220649   6.987   0.951   6.212
 6584SOL     OW20650   5.775   2.454   0.493
 6584SOL    HW120651   5.851   2.434   0.554
 6584SOL    HW220652   5.724   2.533   0.529
 6585SOL     OW20653   2.956   0.465   2.263
 6585SOL    HW120654   3.046   0.474   2.221
 6585SOL    HW220655   2.916   0.555   2.278
 6586SOL     OW20656   6.133   2.052   7.000
 6586SOL    HW120657   6.179   2.110   6.933
 6586SOL    HW220658   6.140   2.093   0.064
 6587SOL     OW20659   1.527   5.807   1.917
 6587SOL    HW120660   1.542   5.721   1.867
 6587SOL    HW220661   1.592   5.813   1.993
 6588SOL     OW20662   2.982   2.338   0.225
 6588SOL    HW120663   3.012   2.305   0.136
 6588SOL    HW220664   2.931   2.423   0.214
 6589SOL     OW20665   4.919   1.567   5.832
 6589SOL    HW120666   4.961   1.590   5.920
 6589SOL    HW220667   4.932   1.643   5.768
 6590SOL     OW20668   6.485   2.034   5.601
 6590SOL    HW120669   6.411   1.970   5.622
 6590SOL    HW220670   6.551   1.989   5.541
 6591SOL     OW20671   4.857   0.264   2.935
 6591SOL    HW120672   4.806   0.337   2.890
 6591SOL    HW220673   4.943   0.248   2.886
 6592SOL     OW20674   6.290   4.987   5.367
 6592SOL    HW120675   6.303   4.988   5.466
 6592SOL    HW220676   6.276   4.894   5.335
 6593SOL     OW20677   5.097   0.919   3.072
 6593SOL    HW120678   5.016   0.864   3.093
 6593SOL    HW220679   5.074   1.016   3.082
 6594SOL     OW20680   5.231   0.899   6.852
 6594SOL    HW120681   5.180   0.851   6.781
 6594SOL    HW220682   5.201   0.867   6.942
 6595SOL     OW20683   3.381   2.495   6.102
 6595SOL    HW120684   3.297   2.541   6.129
 6595SOL    HW220685   3.374   2.397   6.124
 6596SOL     OW20686   3.025   6.352   4.916
 6596SOL    HW120687   3.072   6.391   4.995
 6596SOL    HW220688   3.078   6.275   4.881
 6597SOL     OW20689   0.163   3.975   6.968
 6597SOL    HW120690   0.067   3.974   6.998
 6597SOL    HW220691   0.221   3.935   0.012
 6598SOL     OW20692   2.780   6.207   4.214
 6598SOL    HW120693   2.705   6.244   4.270
 6598SOL    HW220694   2.747   6.129   4.162
 6599SOL     OW20695   4.468   3.478   6.361
 6599SOL    HW120696   4.536   3.483   6.287
 6599SOL    HW220697   4.488   3.399   6.419
 6600SOL     OW20698   4.113   4.943   4.943
 6600SOL    HW120699   4.152   5.035   4.948
 6600SOL    HW220700   4.105   4.906   5.036
 6601SOL     OW20701   0.821   0.987   1.920
 6601SOL    HW120702   0.858   1.030   2.002
 6601SOL    HW220703   0.890   0.925   1.881
 6602SOL     OW20704   6.300   1.725   1.184
 6602SOL    HW120705   6.279   1.800   1.246
 6602SOL    HW220706   6.346   1.652   1.235
 6603SOL     OW20707   2.531   1.793   1.479
 6603SOL    HW120708   2.538   1.893   1.486
 6603SOL    HW220709   2.488   1.769   1.392
 6604SOL     OW20710   3.966   6.115   4.655
 6604SOL    HW120711   3.869   6.130   4.637
 6604SOL    HW220712   4.016   6.106   4.569
 6605SOL     OW20713   5.253   6.649   0.338
 6605SOL    HW120714   5.330   6.636   0.276
 6605SOL    HW220715   5.231   6.562   0.382
 6606SOL     OW20716   0.681   2.369   2.967
 6606SOL    HW120717   0.701   2.380   2.870
 6606SOL    HW220718   0.594   2.412   2.989
 6607SOL     OW20719   1.290   3.453   2.658
 6607SOL    HW120720   1.383   3.484   2.681
 6607SOL    HW220721   1.287   3.427   2.562
 6608SOL     OW20722   4.974   4.429   4.724
 6608SOL    HW120723   4.909   4.414   4.799
 6608SOL    HW220724   4.924   4.449   4.640
 6609SOL     OW20725   5.299   1.997   6.791
 6609SOL    HW120726   5.254   2.012   6.878
 6609SOL    HW220727   5.274   2.070   6.727
 6610SOL     OW20728   3.644   1.446   0.738
 6610SOL    HW120729   3.609   1.507   0.809
 6610SOL    HW220730   3.725   1.487   0.695
 6611SOL     OW20731   5.256   3.678   2.806
 6611SOL    HW120732   5.166   3.706   2.774
 6611SOL    HW220733   5.247   3.598   2.865
 6612SOL     OW20734   0.930   6.176   6.553
 6612SOL    HW120735   0.863   6.199   6.624
 6612SOL    HW220736   1.019   6.159   6.596
 6613SOL     OW20737   6.052   5.028   0.916
 6613SOL    HW120738   6.135   5.009   0.969
 6613SOL    HW220739   5.972   5.004   0.971
 6614SOL     OW20740   6.129   4.674   5.928
 6614SOL    HW120741   6.224   4.677   5.898
 6614SOL    HW220742   6.081   4.600   5.880
 6615SOL     OW20743   6.967   3.375   5.099
 6615SOL    HW120744   0.032   3.392   5.132
 6615SOL    HW220745   6.953   3.425   5.013
 6616SOL     OW20746   4.717   1.384   4.027
 6616SOL    HW120747   4.660   1.413   4.103
 6616SOL    HW220748   4.761   1.297   4.049
 6617SOL     OW20749   4.360   0.247   4.730
 6617SOL    HW120750   4.422   0.235   4.807
 6617SOL    HW220751   4.352   0.344   4.709
 6618SOL     OW20752   0.002   4.601   1.057
 6618SOL    HW120753   7.006   4.650   0.972
 6618SOL    HW220754   0.088   4.551   1.044
 6619SOL     OW20755   6.904   6.300   1.981
 6619SOL    HW120756   6.996   6.335   1.960
 6619SOL    HW220757   6.912   6.221   2.041
 6620SOL     OW20758   4.570   3.026   5.288
 6620SOL    HW120759   4.543   3.121   5.274
 6620SOL    HW220760   4.642   3.001   5.224
 6621SOL     OW20761   2.926   2.630   0.158
 6621SOL    HW120762   2.845   2.672   0.117
 6621SOL    HW220763   2.997   2.621   0.088
 6622SOL     OW20764   5.891   5.369   0.348
 6622SOL    HW120765   5.791   5.373   0.355
 6622SOL    HW220766   5.925   5.291   0.402
 6623SOL     OW20767   3.771   3.946   2.591
 6623SOL    HW120768   3.774   4.002   2.509
 6623SOL    HW220769   3.865   3.929   2.623
 6624SOL     OW20770   4.606   5.214   4.514
 6624SOL    HW120771   4.622   5.210   4.613
 6624SOL    HW220772   4.693   5.230   4.467
 6625SOL     OW20773   5.775   6.498   7.005
 6625SOL    HW120774   5.824   6.506   6.918
 6625SOL    HW220775   5.833   6.530   0.053
 6626SOL     OW20776   2.766   4.787   3.794
 6626SOL    HW120777   2.684   4.832   3.758
 6626SOL    HW220778   2.801   4.723   3.726
 6627SOL     OW20779   1.557   0.641   1.606
 6627SOL    HW120780   1.527   0.737   1.599
 6627SOL    HW220781   1.594   0.612   1.518
 6628SOL     OW20782   4.077   6.210   3.786
 6628SOL    HW120783   4.005   6.159   3.832
 6628SOL    HW220784   4.036   6.274   3.720
 6629SOL     OW20785   3.071   3.915   0.105
 6629SOL    HW120786   3.016   3.948   0.029
 6629SOL    HW220787   3.031   3.832   0.142
 6630SOL     OW20788   3.804   1.058   6.279
 6630SOL    HW120789   3.858   1.130   6.322
 6630SOL    HW220790   3.739   1.021   6.345
 6631SOL     OW20791   3.924   6.892   1.264
 6631SOL    HW120792   3.948   6.928   1.354
 6631SOL    HW220793   3.858   6.953   1.220
 6632SOL     OW20794   6.047   3.380   2.095
 6632SOL    HW120795   6.023   3.411   2.003
 6632SOL    HW220796   6.145   3.397   2.112
 6633SOL     OW20797   0.458   6.282   2.663
 6633SOL    HW120798   0.420   6.192   2.644
 6633SOL    HW220799   0.505   6.280   2.751
 6634SOL     OW20800   6.742   2.287   5.928
 6634SOL    HW120801   6.720   2.277   5.831
 6634SOL    HW220802   6.657   2.289   5.981
 6635SOL     OW20803   4.325   5.040   3.494
 6635SOL    HW120804   4.387   5.110   3.458
 6635SOL    HW220805   4.240   5.082   3.524
 6636SOL     OW20806   1.798   3.652   3.455
 6636SOL    HW120807   1.749   3.591   3.518
 6636SOL    HW220808   1.896   3.650   3.478
 6637SOL     OW20809   6.723   3.177   1.297
 6637SOL    HW120810   6.652   3.131   1.244
 6637SOL    HW220811   6.751   3.261   1.251
 6638SOL     OW20812   1.915   0.848   6.613
 6638SOL    HW120813   1.879   0.938   6.588
 6638SOL    HW220814   1.843   0.793   6.655
 6639SOL     OW20815   3.887   5.192   5.845
 6639SOL    HW120816   3.908   5.162   5.938
 6639SOL    HW220817   3.822   5.129   5.804
 6640SOL     OW20818   5.747   3.709   3.002
 6640SOL    HW120819   5.716   3.776   2.936
 6640SOL    HW220820   5.674   3.642   3.020
 6641SOL     OW20821   2.270   5.643   6.632
 6641SOL    HW120822   2.173   5.644   6.606
 6641SOL    HW220823   2.326   5.631   6.550
 6642SOL     OW20824   6.710   6.142   5.839
 6642SOL    HW120825   6.741   6.122   5.745
 6642SOL    HW220826   6.693   6.056   5.886
 6643SOL     OW20827   4.025   5.467   0.008
 6643SOL    HW120828   4.040   5.469   6.936
 6643SOL    HW220829   4.069   5.386   0.046
 6644SOL     OW20830   0.812   3.814   1.756
 6644SOL    HW120831   0.731   3.764   1.784
 6644SOL    HW220832   0.788   3.910   1.737
 6645SOL     OW20833   6.887   4.689   5.586
 6645SOL    HW120834   6.787   4.687   5.584
 6645SOL    HW220835   6.918   4.781   5.612
 6646SOL     OW20836   1.647   5.396   3.625
 6646SOL    HW120837   1.585   5.357   3.558
 6646SOL    HW220838   1.740   5.366   3.605
 6647SOL     OW20839   4.268   1.841   1.889
 6647SOL    HW120840   4.262   1.845   1.989
 6647SOL    HW220841   4.360   1.811   1.862
 6648SOL     OW20842   4.214   5.708   2.275
 6648SOL    HW120843   4.150   5.783   2.257
 6648SOL    HW220844   4.163   5.622   2.284
 6649SOL     OW20845   4.480   1.300   6.208
 6649SOL    HW120846   4.434   1.312   6.296
 6649SOL    HW220847   4.536   1.218   6.211
 6650SOL     OW20848   3.369   1.333   3.649
 6650SOL    HW120849   3.363   1.405   3.579
 6650SOL    HW220850   3.465   1.313   3.667
 6651SOL     OW20851   0.457   1.580   0.749
 6651SOL    HW120852   0.487   1.536   0.665
 6651SOL    HW220853   0.537   1.602   0.806
 6652SOL     OW20854   0.908   5.076   3.179
 6652SOL    HW120855   0.857   5.049   3.261
 6652SOL    HW220856   0.976   5.146   3.203
 6653SOL     OW20857   3.816   3.583   3.231
 6653SOL    HW120858   3.732   3.611   3.278
 6653SOL    HW220859   3.864   3.664   3.199
 6654SOL     OW20860   1.621   3.846   1.550
 6654SOL    HW120861   1.695   3.895   1.504
 6654SOL    HW220862   1.533   3.877   1.512
 6655SOL     OW20863   1.640   0.753   6.749
 6655SOL    HW120864   1.542   0.766   6.737
 6655SOL    HW220865   1.676   0.822   6.812
 6656SOL     OW20866   6.764   2.398   2.138
 6656SOL    HW120867   6.812   2.474   2.093
 6656SOL    HW220868   6.665   2.407   2.121
 6657SOL     OW20869   3.174   5.243   5.167
 6657SOL    HW120870   3.143   5.207   5.255
 6657SOL    HW220871   3.099   5.236   5.100
 6658SOL     OW20872   0.016   6.887   5.834
 6658SOL    HW120873   6.983   6.811   5.810
 6658SOL    HW220874   7.001   6.941   5.907
 6659SOL     OW20875   1.863   2.802   6.544
 6659SOL    HW120876   1.866   2.707   6.574
 6659SOL    HW220877   1.895   2.809   6.450
 6660SOL     OW20878   0.277   6.492   2.792
 6660SOL    HW120879   0.296   6.437   2.710
 6660SOL    HW220880   0.261   6.587   2.766
 6661SOL     OW20881   6.635   6.750   4.052
 6661SOL    HW120882   6.566   6.823   4.054
 6661SOL    HW220883   6.726   6.790   4.057
 6662SOL     OW20884   0.787   3.777   6.136
 6662SOL    HW120885   0.716   3.825   6.085
 6662SOL    HW220886   0.873   3.827   6.128
 6663SOL     OW20887   0.624   4.999   2.080
 6663SOL    HW120888   0.559   4.941   2.032
 6663SOL    HW220889   0.579   5.083   2.110
 6664SOL     OW20890   6.959   2.274   1.990
 6664SOL    HW120891   0.017   2.323   1.970
 6664SOL    HW220892   6.912   2.318   2.066
 6665SOL     OW20893   2.058   6.487   3.177
 6665SOL    HW120894   2.051   6.401   3.228
 6665SOL    HW220895   2.116   6.473   3.097
 6666SOL     OW20896   5.302   0.984   0.272
 6666SOL    HW120897   5.375   0.917   0.287
 6666SOL    HW220898   5.273   1.022   0.360
 6667SOL     OW20899   5.999   5.021   5.074
 6667SOL    HW120900   5.929   5.092   5.066
 6667SOL    HW220901   5.966   4.937   5.032
 6668SOL     OW20902   6.349   5.954   1.442
 6668SOL    HW120903   6.391   6.039   1.411
 6668SOL    HW220904   6.280   5.925   1.375
 6669SOL     OW20905   0.980   5.056   2.852
 6669SOL    HW120906   0.970   5.084   2.947
 6669SOL    HW220907   0.908   5.098   2.797
 6670SOL     OW20908   4.656   4.599   6.952
 6670SOL    HW120909   4.608   4.524   6.996
 6670SOL    HW220910   4.640   4.684   7.003
 6671SOL     OW20911   0.540   2.546   5.493
 6671SOL    HW120912   0.560   2.588   5.404
 6671SOL    HW220913   0.442   2.550   5.510
 6672SOL     OW20914   6.860   1.092   5.126
 6672SOL    HW120915   6.898   1.168   5.072
 6672SOL    HW220916   6.935   1.043   5.171
 6673SOL     OW20917   4.274   6.016   1.498
 6673SOL    HW120918   4.363   5.978   1.471
 6673SOL    HW220919   4.275   6.115   1.482
 6674SOL     OW20920   0.716   6.348   5.340
 6674SOL    HW120921   0.704   6.439   5.300
 6674SOL    HW220922   0.660   6.282   5.290
 6675SOL     OW20923   6.836   5.963   6.760
 6675SOL    HW120924   6.854   6.042   6.701
 6675SOL    HW220925   6.878   5.881   6.721
 6676SOL     OW20926   0.134   1.636   0.483
 6676SOL    HW120927   0.044   1.676   0.503
 6676SOL    HW220928   0.151   1.560   0.546
 6677SOL     OW20929   0.320   4.872   0.756
 6677SOL    HW120930   0.355   4.790   0.801
 6677SOL    HW220931   0.385   4.947   0.768
 6678SOL     OW20932   0.776   3.230   3.990
 6678SOL    HW120933   0.694   3.194   3.945
 6678SOL    HW220934   0.845   3.159   3.996
 6679SOL     OW20935   2.279   0.912   4.742
 6679SOL    HW120936   2.325   0.901   4.654
 6679SOL    HW220937   2.188   0.952   4.728
 6680SOL     OW20938   2.433   0.447   6.403
 6680SOL    HW120939   2.502   0.502   6.355
 6680SOL    HW220940   2.362   0.419   6.338
 6681SOL     OW20941   5.433   5.801   6.362
 6681SOL    HW120942   5.470   5.770   6.449
 6681SOL    HW220943   5.482   5.883   6.333
 6682SOL     OW20944   6.499   5.208   2.232
 6682SOL    HW120945   6.526   5.113   2.245
 6682SOL    HW220946   6.571   5.257   2.183
 6683SOL     OW20947   4.610   2.665   4.350
 6683SOL    HW120948   4.686   2.616   4.393
 6683SOL    HW220949   4.622   2.664   4.250
 6684SOL     OW20950   1.414   1.532   2.299
 6684SOL    HW120951   1.513   1.520   2.296
 6684SOL    HW220952   1.378   1.489   2.382
 6685SOL     OW20953   5.764   2.784   6.842
 6685SOL    HW120954   5.708   2.708   6.876
 6685SOL    HW220955   5.709   2.845   6.787
 6686SOL     OW20956   5.599   4.408   3.810
 6686SOL    HW120957   5.520   4.348   3.825
 6686SOL    HW220958   5.665   4.395   3.884
 6687SOL     OW20959   0.795   0.402   0.394
 6687SOL    HW120960   0.821   0.425   0.300
 6687SOL    HW220961   0.743   0.317   0.395
 6688SOL     OW20962   0.796   5.169   2.690
 6688SOL    HW120963   0.722   5.176   2.758
 6688SOL    HW220964   0.834   5.260   2.673
 6689SOL     OW20965   4.935   4.071   6.805
 6689SOL    HW120966   4.969   3.999   6.866
 6689SOL    HW220967   4.957   4.047   6.710
 6690SOL     OW20968   0.472   1.453   0.509
 6690SOL    HW120969   0.378   1.441   0.540
 6690SOL    HW220970   0.475   1.522   0.437
 6691SOL     OW20971   1.239   5.525   0.970
 6691SOL    HW120972   1.319   5.547   0.914
 6691SOL    HW220973   1.250   5.432   1.007
 6692SOL     OW20974   4.581   3.553   6.610
 6692SOL    HW120975   4.657   3.612   6.637
 6692SOL    HW220976   4.596   3.520   6.517
 6693SOL     OW20977   4.188   3.642   5.972
 6693SOL    HW120978   4.178   3.737   6.001
 6693SOL    HW220979   4.286   3.619   5.966
 6694SOL     OW20980   3.046   6.298   6.810
 6694SOL    HW120981   3.127   6.258   6.769
 6694SOL    HW220982   2.965   6.251   6.777
 6695SOL     OW20983   1.576   1.510   0.219
 6695SOL    HW120984   1.666   1.468   0.215
 6695SOL    HW220985   1.584   1.604   0.253
 6696SOL     OW20986   1.616   2.359   1.392
 6696SOL    HW120987   1.552   2.384   1.465
 6696SOL    HW220988   1.690   2.304   1.429
 6697SOL     OW20989   4.877   3.267   4.358
 6697SOL    HW120990   4.889   3.206   4.436
 6697SOL    HW220991   4.923   3.354   4.376
 6698SOL     OW20992   2.587   4.003   6.206
 6698SOL    HW120993   2.639   3.924   6.241
 6698SOL    HW220994   2.613   4.084   6.258
 6699SOL     OW20995   1.903   2.914   6.810
 6699SOL    HW120996   1.988   2.866   6.789
 6699SOL    HW220997   1.850   2.927   6.726
 6700SOL     OW20998   0.247   6.351   6.499
 6700SOL    HW120999   0.221   6.432   6.448
 6700SOL    HW221000   0.164   6.299   6.523
 6701SOL     OW21001   1.268   2.748   0.592
 6701SOL    HW121002   1.251   2.665   0.646
 6701SOL    HW221003   1.221   2.825   0.634
 6702SOL     OW21004   2.543   3.159   0.630
 6702SOL    HW121005   2.491   3.223   0.687
 6702SOL    HW221006   2.546   3.193   0.537
 6703SOL     OW21007   0.325   2.616   6.910
 6703SOL    HW121008   0.398   2.660   6.962
 6703SOL    HW221009   0.265   2.686   6.871
 6704SOL     OW21010   5.184   3.473   2.972
 6704SOL    HW121011   5.242   3.399   3.006
 6704SOL    HW221012   5.089   3.456   3.000
 6705SOL     OW21013   5.674   1.128   1.144
 6705SOL    HW121014   5.763   1.154   1.181
 6705SOL    HW221015   5.625   1.072   1.210
 6706SOL     OW21016   1.256   6.251   0.165
 6706SOL    HW121017   1.255   6.319   0.239
 6706SOL    HW221018   1.163   6.232   0.136
 6707SOL     OW21019   1.452   5.275   3.081
 6707SOL    HW121020   1.454   5.177   3.098
 6707SOL    HW221021   1.366   5.313   3.116
 6708SOL     OW21022   2.305   6.406   1.156
 6708SOL    HW121023   2.331   6.310   1.144
 6708SOL    HW221024   2.257   6.417   1.244
 6709SOL     OW21025   5.429   1.715   3.767
 6709SOL    HW121026   5.338   1.698   3.728
 6709SOL    HW221027   5.454   1.639   3.828
 6710SOL     OW21028   1.901   2.081   0.580
 6710SOL    HW121029   1.864   2.173   0.580
 6710SOL    HW221030   1.848   2.023   0.642
 6711SOL     OW21031   5.840   3.639   6.668
 6711SOL    HW121032   5.874   3.676   6.581
 6711SOL    HW221033   5.814   3.543   6.656
 6712SOL     OW21034   3.382   6.307   1.425
 6712SOL    HW121035   3.432   6.221   1.420
 6712SOL    HW221036   3.434   6.378   1.378
 6713SOL     OW21037   1.531   2.396   3.239
 6713SOL    HW121038   1.477   2.341   3.176
 6713SOL    HW221039   1.501   2.491   3.235
 6714SOL     OW21040   6.693   0.330   4.897
 6714SOL    HW121041   6.712   0.425   4.871
 6714SOL    HW221042   6.663   0.327   4.992
 6715SOL     OW21043   5.434   2.359   0.547
 6715SOL    HW121044   5.391   2.448   0.534
 6715SOL    HW221045   5.484   2.358   0.634
 6716SOL     OW21046   3.574   6.117   0.853
 6716SOL    HW121047   3.614   6.027   0.868
 6716SOL    HW221048   3.520   6.144   0.933
 6717SOL     OW21049   4.047   1.102   6.747
 6717SOL    HW121050   3.982   1.037   6.787
 6717SOL    HW221051   4.004   1.192   6.739
 6718SOL     OW21052   3.812   0.276   6.789
 6718SOL    HW121053   3.840   0.249   6.697
 6718SOL    HW221054   3.784   0.372   6.788
 6719SOL     OW21055   0.576   2.198   5.130
 6719SOL    HW121056   0.553   2.293   5.111
 6719SOL    HW221057   0.583   2.185   5.229
 6720SOL     OW21058   1.250   4.613   0.993
 6720SOL    HW121059   1.255   4.653   1.085
 6720SOL    HW221060   1.182   4.540   0.993
 6721SOL     OW21061   6.242   6.315   2.989
 6721SOL    HW121062   6.171   6.298   2.921
 6721SOL    HW221063   6.324   6.262   2.965
 6722SOL     OW21064   4.218   4.621   0.052
 6722SOL    HW121065   4.161   4.540   0.037
 6722SOL    HW221066   4.308   4.593   0.086
 6723SOL     OW21067   3.871   1.554   2.452
 6723SOL    HW121068   3.796   1.561   2.387
 6723SOL    HW221069   3.952   1.599   2.416
 6724SOL     OW21070   3.466   4.477   5.748
 6724SOL    HW121071   3.489   4.402   5.810
 6724SOL    HW221072   3.427   4.553   5.800
 6725SOL     OW21073   0.720   5.520   1.572
 6725SOL    HW121074   0.695   5.425   1.593
 6725SOL    HW221075   0.816   5.525   1.546
 6726SOL     OW21076   2.410   2.767   1.638
 6726SOL    HW121077   2.432   2.683   1.588
 6726SOL    HW221078   2.478   2.837   1.617
 6727SOL     OW21079   2.966   4.210   0.761
 6727SOL    HW121080   2.920   4.130   0.721
 6727SOL    HW221081   3.004   4.267   0.687
 6728SOL     OW21082   4.741   1.258   4.321
 6728SOL    HW121083   4.714   1.168   4.354
 6728SOL    HW221084   4.702   1.329   4.380
 6729SOL     OW21085   4.800   6.320   3.687
 6729SOL    HW121086   4.746   6.404   3.678
 6729SOL    HW221087   4.829   6.288   3.597
 6730SOL     OW21088   1.013   6.784   2.409
 6730SOL    HW121089   1.083   6.853   2.430
 6730SOL    HW221090   1.044   6.729   2.331
 6731SOL     OW21091   1.966   3.753   1.578
 6731SOL    HW121092   1.901   3.714   1.643
 6731SOL    HW221093   1.919   3.816   1.517
 6732SOL     OW21094   3.175   5.614   0.736
 6732SOL    HW121095   3.247   5.586   0.673
 6732SOL    HW221096   3.211   5.615   0.829
 6733SOL     OW21097   6.261   5.846   4.367
 6733SOL    HW121098   6.227   5.755   4.343
 6733SOL    HW221099   6.185   5.902   4.401
 6734SOL     OW21100   2.137   3.542   6.637
 6734SOL    HW121101   2.179   3.453   6.618
 6734SOL    HW221102   2.207   3.613   6.638
 6735SOL     OW21103   1.056   6.597   6.167
 6735SOL    HW121104   1.108   6.647   6.236
 6735SOL    HW221105   1.001   6.660   6.113
 6736SOL     OW21106   2.180   4.216   1.676
 6736SOL    HW121107   2.229   4.279   1.737
 6736SOL    HW221108   2.233   4.131   1.667
 6737SOL     OW21109   1.348   6.556   1.022
 6737SOL    HW121110   1.337   6.625   1.093
 6737SOL    HW221111   1.415   6.488   1.051
 6738SOL     OW21112   4.725   1.792   1.310
 6738SOL    HW121113   4.743   1.694   1.302
 6738SOL    HW221114   4.677   1.811   1.395
 6739SOL     OW21115   3.621   6.477   5.602
 6739SOL    HW121116   3.678   6.530   5.664
 6739SOL    HW221117   3.672   6.455   5.519
 6740SOL     OW21118   5.500   1.959   6.129
 6740SOL    HW121119   5.460   2.047   6.156
 6740SOL    HW221120   5.566   1.974   6.056
 6741SOL     OW21121   0.310   0.702   5.460
 6741SOL    HW121122   0.261   0.679   5.376
 6741SOL    HW221123   0.395   0.750   5.437
 6742SOL     OW21124   6.278   5.697   4.713
 6742SOL    HW121125   6.247   5.788   4.742
 6742SOL    HW221126   6.322   5.703   4.624
 6743SOL     OW21127   5.641   2.337   1.401
 6743SOL    HW121128   5.637   2.410   1.333
 6743SOL    HW221129   5.714   2.273   1.376
 6744SOL     OW21130   4.687   0.626   4.195
 6744SOL    HW121131   4.748   0.705   4.189
 6744SOL    HW221132   4.741   0.542   4.200
 6745SOL     OW21133   0.622   3.597   2.975
 6745SOL    HW121134   0.577   3.678   2.938
 6745SOL    HW221135   0.630   3.606   3.074
 6746SOL     OW21136   6.322   1.118   0.566
 6746SOL    HW121137   6.223   1.106   0.575
 6746SOL    HW221138   6.355   1.072   0.484
 6747SOL     OW21139   4.845   5.209   6.756
 6747SOL    HW121140   4.929   5.178   6.800
 6747SOL    HW221141   4.868   5.264   6.676
 6748SOL     OW21142   6.582   6.262   2.420
 6748SOL    HW121143   6.551   6.245   2.326
 6748SOL    HW221144   6.612   6.357   2.428
 6749SOL     OW21145   2.749   5.115   1.207
 6749SOL    HW121146   2.798   5.068   1.134
 6749SOL    HW221147   2.654   5.083   1.209
 6750SOL     OW21148   2.445   3.229   5.393
 6750SOL    HW121149   2.350   3.209   5.418
 6750SOL    HW221150   2.488   3.145   5.359
 6751SOL     OW21151   4.083   2.133   6.106
 6751SOL    HW121152   4.107   2.051   6.157
 6751SOL    HW221153   4.054   2.108   6.013
 6752SOL     OW21154   6.890   1.440   6.996
 6752SOL    HW121155   6.809   1.477   6.952
 6752SOL    HW221156   6.966   1.505   6.986
 6753SOL     OW21157   6.387   0.897   6.746
 6753SOL    HW121158   6.437   0.943   6.819
 6753SOL    HW221159   6.419   0.802   6.738
 6754SOL     OW21160   4.391   1.000   6.683
 6754SOL    HW121161   4.481   0.988   6.639
 6754SOL    HW221162   4.323   1.023   6.614
 6755SOL     OW21163   5.099   1.735   3.332
 6755SOL    HW121164   5.135   1.688   3.252
 6755SOL    HW221165   5.173   1.784   3.378
 6756SOL     OW21166   5.068   4.772   3.541
 6756SOL    HW121167   5.116   4.789   3.455
 6756SOL    HW221168   4.981   4.726   3.522
 6757SOL     OW21169   6.127   4.473   1.182
 6757SOL    HW121170   6.029   4.482   1.171
 6757SOL    HW221171   6.154   4.508   1.272
 6758SOL     OW21172   6.359   2.182   2.640
 6758SOL    HW121173   6.412   2.264   2.620
 6758SOL    HW221174   6.268   2.189   2.600
 6759SOL     OW21175   0.776   5.034   3.825
 6759SOL    HW121176   0.723   4.997   3.901
 6759SOL    HW221177   0.721   5.102   3.776
 6760SOL     OW21178   0.263   3.827   4.935
 6760SOL    HW121179   0.263   3.904   4.871
 6760SOL    HW221180   0.272   3.741   4.885
 6761SOL     OW21181   6.006   2.675   6.888
 6761SOL    HW121182   5.918   2.715   6.864
 6761SOL    HW221183   6.046   2.631   6.807
 6762SOL     OW21184   0.215   3.099   4.413
 6762SOL    HW121185   0.293   3.037   4.426
 6762SOL    HW221186   0.157   3.066   4.339
 6763SOL     OW21187   6.072   6.347   5.894
 6763SOL    HW121188   6.122   6.309   5.816
 6763SOL    HW221189   5.977   6.314   5.892
 6764SOL     OW21190   1.675   3.650   0.276
 6764SOL    HW121191   1.613   3.723   0.304
 6764SOL    HW221192   1.714   3.671   0.187
 6765SOL     OW21193   4.906   4.940   2.131
 6765SOL    HW121194   4.834   5.001   2.165
 6765SOL    HW221195   4.980   4.936   2.197
 6766SOL     OW21196   2.839   2.595   5.504
 6766SOL    HW121197   2.855   2.670   5.440
 6766SOL    HW221198   2.743   2.567   5.499
 6767SOL     OW21199   0.532   2.927   5.387
 6767SOL    HW121200   0.614   2.952   5.438
 6767SOL    HW221201   0.464   2.890   5.451
 6768SOL     OW21202   0.107   0.875   5.964
 6768SOL    HW121203   0.089   0.916   5.874
 6768SOL    HW221204   0.022   0.872   6.017
 6769SOL     OW21205   1.028   2.321   6.017
 6769SOL    HW121206   1.099   2.251   6.005
 6769SOL    HW221207   1.009   2.332   6.114
 6770SOL     OW21208   0.663   1.533   3.612
 6770SOL    HW121209   0.600   1.600   3.573
 6770SOL    HW221210   0.632   1.508   3.704
 6771SOL     OW21211   5.415   2.663   2.337
 6771SOL    HW121212   5.438   2.745   2.285
 6771SOL    HW221213   5.327   2.627   2.305
 6772SOL     OW21214   1.033   0.214   1.741
 6772SOL    HW121215   0.971   0.265   1.802
 6772SOL    HW221216   1.027   0.251   1.649
 6773SOL     OW21217   1.790   0.907   2.912
 6773SOL    HW121218   1.869   0.968   2.926
 6773SOL    HW221219   1.706   0.955   2.936
 6774SOL     OW21220   4.092   1.479   5.593
 6774SOL    HW121221   4.124   1.419   5.520
 6774SOL    HW221222   4.096   1.430   5.681
 6775SOL     OW21223   1.484   2.457   4.985
 6775SOL    HW121224   1.477   2.472   4.886
 6775SOL    HW221225   1.570   2.496   5.018
 6776SOL     OW21226   3.608   3.841   3.926
 6776SOL    HW121227   3.664   3.762   3.899
 6776SOL    HW221228   3.568   3.824   4.016
 6777SOL     OW21229   0.350   0.576   5.723
 6777SOL    HW121230   0.291   0.496   5.708
 6777SOL    HW221231   0.341   0.639   5.646
 6778SOL     OW21232   6.401   6.026   2.097
 6778SOL    HW121233   6.495   6.002   2.074
 6778SOL    HW221234   6.343   5.944   2.089
 6779SOL     OW21235   5.515   3.972   6.250
 6779SOL    HW121236   5.600   3.948   6.203
 6779SOL    HW221237   5.459   3.890   6.261
 6780SOL     OW21238   4.906   0.804   2.695
 6780SOL    HW121239   4.923   0.705   2.693
 6780SOL    HW221240   4.853   0.827   2.777
 6781SOL     OW21241   5.986   3.973   3.242
 6781SOL    HW121242   6.023   3.884   3.216
 6781SOL    HW221243   5.897   3.961   3.285
 6782SOL     OW21244   0.146   1.797   2.830
 6782SOL    HW121245   0.106   1.706   2.835
 6782SOL    HW221246   0.079   1.860   2.790
 6783SOL     OW21247   0.642   6.092   6.961
 6783SOL    HW121248   0.544   6.104   6.980
 6783SOL    HW221249   0.660   6.112   6.865
 6784SOL     OW21250   1.844   5.022   6.555
 6784SOL    HW121251   1.820   5.090   6.485
 6784SOL    HW221252   1.852   5.067   6.643
 6785SOL     OW21253   5.181   4.326   2.030
 6785SOL    HW121254   5.209   4.362   1.940
 6785SOL    HW221255   5.263   4.312   2.086
 6786SOL     OW21256   6.193   1.216   5.856
 6786SOL    HW121257   6.261   1.167   5.802
 6786SOL    HW221258   6.238   1.287   5.910
 6787SOL     OW21259   4.623   2.734   1.080
 6787SOL    HW121260   4.708   2.747   1.029
 6787SOL    HW221261   4.547   2.773   1.027
 6788SOL     OW21262   1.409   4.417   0.895
 6788SOL    HW121263   1.343   4.493   0.896
 6788SOL    HW221264   1.367   4.336   0.935
 6789SOL     OW21265   6.227   2.669   2.909
 6789SOL    HW121266   6.241   2.599   2.839
 6789SOL    HW221267   6.158   2.638   2.974
 6790SOL     OW21268   0.778   5.703   0.484
 6790SOL    HW121269   0.770   5.770   0.411
 6790SOL    HW221270   0.688   5.682   0.521
 6791SOL     OW21271   1.718   6.097   3.851
 6791SOL    HW121272   1.710   6.009   3.804
 6791SOL    HW221273   1.805   6.100   3.900
 6792SOL     OW21274   3.163   5.754   6.982
 6792SOL    HW121275   3.085   5.702   7.016
 6792SOL    HW221276   3.230   5.691   6.940
 6793SOL     OW21277   1.778   3.526   6.556
 6793SOL    HW121278   1.716   3.518   6.478
 6793SOL    HW221279   1.799   3.435   6.591
 6794SOL     OW21280   4.659   2.350   4.374
 6794SOL    HW121281   4.622   2.324   4.285
 6794SOL    HW221282   4.584   2.361   4.439
 6795SOL     OW21283   0.621   0.496   2.252
 6795SOL    HW121284   0.541   0.474   2.308
 6795SOL    HW221285   0.688   0.545   2.307
 6796SOL     OW21286   6.578   2.772   2.154
 6796SOL    HW121287   6.575   2.681   2.112
 6796SOL    HW221288   6.507   2.780   2.224
 6797SOL     OW21289   1.671   3.652   0.831
 6797SOL    HW121290   1.620   3.568   0.846
 6797SOL    HW221291   1.614   3.731   0.857
 6798SOL     OW21292   5.035   1.763   1.536
 6798SOL    HW121293   4.973   1.832   1.574
 6798SOL    HW221294   5.035   1.769   1.436
 6799SOL     OW21295   4.978   6.974   2.947
 6799SOL    HW121296   5.043   7.005   2.877
 6799SOL    HW221297   4.908   0.017   2.961
 6800SOL     OW21298   6.144   2.539   2.173
 6800SOL    HW121299   6.051   2.575   2.167
 6800SOL    HW221300   6.203   2.607   2.218
 6801SOL     OW21301   2.276   5.066   5.173
 6801SOL    HW121302   2.332   5.032   5.097
 6801SOL    HW221303   2.179   5.060   5.148
 6802SOL     OW21304   2.669   4.385   1.545
 6802SOL    HW121305   2.601   4.313   1.530
 6802SOL    HW221306   2.751   4.345   1.587
 6803SOL     OW21307   6.165   5.492   6.366
 6803SOL    HW121308   6.233   5.551   6.409
 6803SOL    HW221309   6.210   5.420   6.314
 6804SOL     OW21310   3.351   5.145   1.767
 6804SOL    HW121311   3.394   5.069   1.815
 6804SOL    HW221312   3.339   5.222   1.830
 6805SOL     OW21313   0.638   3.687   4.042
 6805SOL    HW121314   0.593   3.652   3.960
 6805SOL    HW221315   0.592   3.770   4.073
 6806SOL     OW21316   6.168   3.804   2.261
 6806SOL    HW121317   6.261   3.770   2.270
 6806SOL    HW221318   6.124   3.761   2.183
 6807SOL     OW21319   4.144   3.420   2.362
 6807SOL    HW121320   4.160   3.394   2.266
 6807SOL    HW221321   4.117   3.339   2.414
 6808SOL     OW21322   3.002   6.396   4.215
 6808SOL    HW121323   2.929   6.329   4.231
 6808SOL    HW221324   2.990   6.474   4.276
 6809SOL     OW21325   6.026   2.903   0.768
 6809SOL    HW121326   6.074   2.980   0.726
 6809SOL    HW221327   6.075   2.873   0.849
 6810SOL     OW21328   3.185   7.019   4.630
 6810SOL    HW121329   3.227   0.055   4.695
 6810SOL    HW221330   3.238   6.934   4.627
 6811SOL     OW21331   6.570   1.929   1.263
 6811SOL    HW121332   6.581   1.829   1.269
 6811SOL    HW221333   6.559   1.955   1.167
 6812SOL     OW21334   3.247   4.575   5.606
 6812SOL    HW121335   3.308   4.529   5.670
 6812SOL    HW221336   3.301   4.612   5.530
 6813SOL     OW21337   0.108   3.919   2.222
 6813SOL    HW121338   0.204   3.892   2.229
 6813SOL    HW221339   0.062   3.860   2.155
 6814SOL     OW21340   4.713   2.415   1.234
 6814SOL    HW121341   4.701   2.422   1.135
 6814SOL    HW221342   4.645   2.352   1.271
 6815SOL     OW21343   1.441   5.755   1.163
 6815SOL    HW121344   1.473   5.748   1.068
 6815SOL    HW221345   1.502   5.703   1.223
 6816SOL     OW21346   5.671   0.126   3.514
 6816SOL    HW121347   5.758   0.150   3.558
 6816SOL    HW221348   5.597   0.181   3.554
 6817SOL     OW21349   5.842   0.722   1.337
 6817SOL    HW121350   5.790   0.747   1.418
 6817SOL    HW221351   5.779   0.699   1.263
 6818SOL     OW21352   6.963   0.316   5.689
 6818SOL    HW121353   0.001   0.240   5.689
 6818SOL    HW221354   6.919   0.322   5.600
 6819SOL     OW21355   6.004   3.441   0.652
 6819SOL    HW121356   5.945   3.513   0.616
 6819SOL    HW221357   6.026   3.377   0.579
 6820SOL     OW21358   2.241   4.533   0.627
 6820SOL    HW121359   2.247   4.436   0.606
 6820SOL    HW221360   2.193   4.545   0.714
 6821SOL     OW21361   2.609   3.305   5.837
 6821SOL    HW121362   2.663   3.386   5.814
 6821SOL    HW221363   2.651   3.224   5.797
 6822SOL     OW21364   0.215   4.362   5.124
 6822SOL    HW121365   0.293   4.306   5.095
 6822SOL    HW221366   0.131   4.309   5.115
 6823SOL     OW21367   6.848   3.519   5.876
 6823SOL    HW121368   6.793   3.518   5.792
 6823SOL    HW221369   6.893   3.431   5.888
 6824SOL     OW21370   0.441   0.464   3.953
 6824SOL    HW121371   0.377   0.450   4.028
 6824SOL    HW221372   0.400   0.432   3.867
 6825SOL     OW21373   5.100   4.613   1.621
 6825SOL    HW121374   5.008   4.574   1.615
 6825SOL    HW221375   5.094   4.713   1.613
 6826SOL     OW21376   5.774   0.820   3.892
 6826SOL    HW121377   5.705   0.750   3.908
 6826SOL    HW221378   5.738   0.890   3.831
 6827SOL     OW21379   5.245   4.918   5.488
 6827SOL    HW121380   5.281   4.969   5.566
 6827SOL    HW221381   5.146   4.935   5.481
 6828SOL     OW21382   2.618   2.009   2.669
 6828SOL    HW121383   2.619   2.006   2.570
 6828SOL    HW221384   2.709   1.987   2.704
 6829SOL     OW21385   5.712   0.129   4.596
 6829SOL    HW121386   5.779   0.059   4.572
 6829SOL    HW221387   5.655   0.096   4.671
 6830SOL     OW21388   3.688   6.504   2.372
 6830SOL    HW121389   3.786   6.500   2.389
 6830SOL    HW221390   3.669   6.571   2.300
 6831SOL     OW21391   2.140   0.419   0.231
 6831SOL    HW121392   2.214   0.361   0.266
 6831SOL    HW221393   2.168   0.460   0.144
 6832SOL     OW21394   3.367   3.734   0.345
 6832SOL    HW121395   3.296   3.800   0.323
 6832SOL    HW221396   3.346   3.647   0.303
 6833SOL     OW21397   4.555   5.138   0.211
 6833SOL    HW121398   4.608   5.102   0.288
 6833SOL    HW221399   4.609   5.206   0.162
 6834SOL     OW21400   6.826   5.738   5.154
 6834SOL    HW121401   6.728   5.748   5.139
 6834SOL    HW221402   6.843   5.717   5.251
 6835SOL     OW21403   4.311   0.094   2.927
 6835SOL    HW121404   4.242   0.164   2.907
 6835SOL    HW221405   4.266   0.011   2.961
 6836SOL     OW21406   0.921   4.941   6.672
 6836SOL    HW121407   0.911   4.976   6.578
 6836SOL    HW221408   1.007   4.975   6.711
 6837SOL     OW21409   6.373   2.552   1.821
 6837SOL    HW121410   6.301   2.488   1.793
 6837SOL    HW221411   6.347   2.645   1.795
 6838SOL     OW21412   1.943   4.014   0.073
 6838SOL    HW121413   1.945   4.114   0.068
 6838SOL    HW221414   1.849   3.982   0.064
 6839SOL     OW21415   6.199   2.328   5.581
 6839SOL    HW121416   6.119   2.310   5.639
 6839SOL    HW221417   6.169   2.343   5.487
 6840SOL     OW21418   3.274   0.493   4.392
 6840SOL    HW121419   3.296   0.492   4.295
 6840SOL    HW221420   3.178   0.519   4.405
 6841SOL     OW21421   4.651   5.929   0.706
 6841SOL    HW121422   4.674   5.846   0.758
 6841SOL    HW221423   4.557   5.923   0.673
 6842SOL     OW21424   0.934   3.509   3.283
 6842SOL    HW121425   0.933   3.511   3.183
 6842SOL    HW221426   0.871   3.438   3.315
 6843SOL     OW21427   4.437   3.005   1.669
 6843SOL    HW121428   4.523   3.035   1.711
 6843SOL    HW221429   4.449   2.915   1.627
 6844SOL     OW21430   3.345   6.788   4.592
 6844SOL    HW121431   3.334   6.690   4.582
 6844SOL    HW221432   3.441   6.813   4.578
 6845SOL     OW21433   3.458   3.932   0.066
 6845SOL    HW121434   3.424   3.849   0.023
 6845SOL    HW221435   3.484   3.913   0.160
 6846SOL     OW21436   3.685   3.105   3.979
 6846SOL    HW121437   3.635   3.024   4.010
 6846SOL    HW221438   3.622   3.165   3.929
 6847SOL     OW21439   5.153   3.584   2.255
 6847SOL    HW121440   5.068   3.594   2.203
 6847SOL    HW221441   5.163   3.661   2.318
 6848SOL     OW21442   0.721   5.932   4.526
 6848SOL    HW121443   0.755   5.961   4.616
 6848SOL    HW221444   0.623   5.915   4.531
 6849SOL     OW21445   3.031   0.234   4.541
 6849SOL    HW121446   3.111   0.177   4.524
 6849SOL    HW221447   2.993   0.213   4.631
 6850SOL     OW21448   6.798   3.193   1.897
 6850SOL    HW121449   6.846   3.106   1.888
 6850SOL    HW221450   6.724   3.197   1.831
 6851SOL     OW21451   1.696   5.606   0.693
 6851SOL    HW121452   1.675   5.625   0.597
 6851SOL    HW221453   1.786   5.642   0.716
 6852SOL     OW21454   5.173   4.767   2.412
 6852SOL    HW121455   5.182   4.856   2.457
 6852SOL    HW221456   5.145   4.699   2.479
 6853SOL     OW21457   6.415   4.376   4.480
 6853SOL    HW121458   6.343   4.441   4.456
 6853SOL    HW221459   6.388   4.325   4.562
 6854SOL     OW21460   6.133   0.946   6.840
 6854SOL    HW121461   6.141   1.036   6.883
 6854SOL    HW221462   6.216   0.927   6.786
 6855SOL     OW21463   2.879   6.679   2.087
 6855SOL    HW121464   2.807   6.641   2.145
 6855SOL    HW221465   2.846   6.685   1.993
 6856SOL     OW21466   0.802   5.145   5.481
 6856SOL    HW121467   0.803   5.179   5.387
 6856SOL    HW221468   0.893   5.114   5.507
 6857SOL     OW21469   4.667   0.820   0.196
 6857SOL    HW121470   4.602   0.867   0.136
 6857SOL    HW221471   4.747   0.793   0.144
 6858SOL     OW21472   3.313   2.793   6.312
 6858SOL    HW121473   3.404   2.759   6.287
 6858SOL    HW221474   3.244   2.752   6.252
 6859SOL     OW21475   4.472   0.648   1.263
 6859SOL    HW121476   4.452   0.576   1.330
 6859SOL    HW221477   4.509   0.728   1.310
 6860SOL     OW21478   4.690   2.822   6.957
 6860SOL    HW121479   4.700   2.810   0.029
 6860SOL    HW221480   4.691   2.920   6.935
 6861SOL     OW21481   6.151   3.782   0.037
 6861SOL    HW121482   6.177   3.702   7.009
 6861SOL    HW221483   6.159   3.758   0.134
 6862SOL     OW21484   2.368   4.485   4.741
 6862SOL    HW121485   2.402   4.524   4.826
 6862SOL    HW221486   2.356   4.386   4.751
 6863SOL     OW21487   1.158   3.447   3.717
 6863SOL    HW121488   1.154   3.354   3.755
 6863SOL    HW221489   1.069   3.491   3.727
 6864SOL     OW21490   2.860   5.653   5.947
 6864SOL    HW121491   2.859   5.562   5.905
 6864SOL    HW221492   2.868   5.722   5.875
 6865SOL     OW21493   1.252   2.498   5.398
 6865SOL    HW121494   1.209   2.586   5.419
 6865SOL    HW221495   1.287   2.457   5.482
 6866SOL     OW21496   0.874   3.984   2.545
 6866SOL    HW121497   0.904   3.910   2.606
 6866SOL    HW221498   0.787   4.020   2.577
 6867SOL     OW21499   2.669   5.324   3.455
 6867SOL    HW121500   2.580   5.330   3.410
 6867SOL    HW221501   2.671   5.383   3.535
 6868SOL     OW21502   2.037   5.656   4.650
 6868SOL    HW121503   1.944   5.619   4.643
 6868SOL    HW221504   2.095   5.592   4.700
 6869SOL     OW21505   0.300   2.949   4.828
 6869SOL    HW121506   0.252   2.963   4.915
 6869SOL    HW221507   0.250   2.882   4.773
 6870SOL     OW21508   5.724   4.223   2.813
 6870SOL    HW121509   5.767   4.146   2.765
 6870SOL    HW221510   5.736   4.211   2.912
 6871SOL     OW21511   4.225   5.911   2.024
 6871SOL    HW121512   4.205   5.816   1.998
 6871SOL    HW221513   4.306   5.942   1.975
 6872SOL     OW21514   3.330   4.419   0.761
 6872SOL    HW121515   3.316   4.498   0.703
 6872SOL    HW221516   3.250   4.405   0.820
 6873SOL     OW21517   5.467   5.098   5.289
 6873SOL    HW121518   5.480   5.142   5.200
 6873SOL    HW221519   5.554   5.061   5.321
 6874SOL     OW21520   0.908   1.662   6.463
 6874SOL    HW121521   0.939   1.757   6.455
 6874SOL    HW221522   0.970   1.612   6.523
 6875SOL     OW21523   4.164   0.508   5.068
 6875SOL    HW121524   4.090   0.548   5.121
 6875SOL    HW221525   4.178   0.413   5.098
 6876SOL     OW21526   3.233   6.216   4.471
 6876SOL    HW121527   3.203   6.125   4.442
 6876SOL    HW221528   3.157   6.264   4.514
 6877SOL     OW21529   2.282   3.675   6.985
 6877SOL    HW121530   2.244   3.682   6.893
 6877SOL    HW221531   2.222   3.723   0.023
 6878SOL     OW21532   1.570   1.679   4.971
 6878SOL    HW121533   1.660   1.672   5.015
 6878SOL    HW221534   1.550   1.593   4.924
 6879SOL     OW21535   6.279   1.560   5.516
 6879SOL    HW121536   6.244   1.501   5.588
 6879SOL    HW221537   6.379   1.558   5.518
 6880SOL     OW21538   1.022   4.500   4.671
 6880SOL    HW121539   1.022   4.511   4.571
 6880SOL    HW221540   1.002   4.589   4.713
 6881SOL     OW21541   5.085   5.903   1.332
 6881SOL    HW121542   5.134   5.824   1.297
 6881SOL    HW221543   5.064   5.889   1.429
 6882SOL     OW21544   2.619   5.816   5.347
 6882SOL    HW121545   2.702   5.785   5.300
 6882SOL    HW221546   2.634   5.907   5.384
 6883SOL     OW21547   2.661   6.333   2.072
 6883SOL    HW121548   2.728   6.311   2.001
 6883SOL    HW221549   2.683   6.422   2.112
 6884SOL     OW21550   1.668   4.372   2.718
 6884SOL    HW121551   1.699   4.467   2.726
 6884SOL    HW221552   1.748   4.312   2.707
 6885SOL     OW21553   4.297   4.765   4.842
 6885SOL    HW121554   4.223   4.818   4.883
 6885SOL    HW221555   4.324   4.691   4.904
 6886SOL     OW21556   5.001   0.096   1.172
 6886SOL    HW121557   4.983   0.156   1.094
 6886SOL    HW221558   5.031   0.006   1.139
 6887SOL     OW21559   6.345   1.126   4.704
 6887SOL    HW121560   6.403   1.204   4.728
 6887SOL    HW221561   6.399   1.042   4.709
 6888SOL     OW21562   6.483   6.967   4.006
 6888SOL    HW121563   6.486   0.038   3.986
 6888SOL    HW221564   6.389   6.941   4.029
 6889SOL     OW21565   1.841   3.796   6.567
 6889SOL    HW121566   1.938   3.817   6.581
 6889SOL    HW221567   1.832   3.702   6.533
 6890SOL     OW21568   1.101   0.470   1.443
 6890SOL    HW121569   1.176   0.514   1.491
 6890SOL    HW221570   1.133   0.439   1.353
 6891SOL     OW21571   4.441   4.971   6.073
 6891SOL    HW121572   4.400   4.898   6.127
 6891SOL    HW221573   4.483   4.933   5.991
 6892SOL     OW21574   3.433   1.973   4.377
 6892SOL    HW121575   3.418   1.892   4.434
 6892SOL    HW221576   3.531   1.990   4.367
 6893SOL     OW21577   5.082   6.866   1.078
 6893SOL    HW121578   5.064   6.781   1.126
 6893SOL    HW221579   5.180   6.884   1.077
 6894SOL     OW21580   5.902   4.861   5.872
 6894SOL    HW121581   5.977   4.844   5.936
 6894SOL    HW221582   5.928   4.828   5.781
 6895SOL     OW21583   4.452   5.110   5.382
 6895SOL    HW121584   4.507   5.170   5.441
 6895SOL    HW221585   4.503   5.089   5.299
 6896SOL     OW21586   5.324   2.218   2.245
 6896SOL    HW121587   5.388   2.255   2.178
 6896SOL    HW221588   5.357   2.131   2.279
 6897SOL     OW21589   3.758   1.197   1.482
 6897SOL    HW121590   3.668   1.167   1.511
 6897SOL    HW221591   3.825   1.175   1.553
 6898SOL     OW21592   3.435   1.196   2.043
 6898SOL    HW121593   3.514   1.164   1.990
 6898SOL    HW221594   3.396   1.277   2.000
 6899SOL     OW21595   5.800   4.824   6.187
 6899SOL    HW121596   5.764   4.767   6.113
 6899SOL    HW221597   5.893   4.794   6.209
 6900SOL     OW21598   4.148   0.161   6.169
 6900SOL    HW121599   4.097   0.189   6.250
 6900SOL    HW221600   4.084   0.140   6.095
 6901SOL     OW21601   1.852   0.412   0.268
 6901SOL    HW121602   1.838   0.503   0.307
 6901SOL    HW221603   1.947   0.405   0.236
 6902SOL     OW21604   6.581   5.771   2.717
 6902SOL    HW121605   6.568   5.844   2.784
 6902SOL    HW221606   6.619   5.810   2.633
 6903SOL     OW21607   5.913   4.426   0.039
 6903SOL    HW121608   6.009   4.400   0.052
 6903SOL    HW221609   5.855   4.372   0.101
 6904SOL     OW21610   0.693   1.178   3.022
 6904SOL    HW121611   0.603   1.188   2.979
 6904SOL    HW221612   0.694   1.228   3.109
 6905SOL     OW21613   3.845   5.329   0.544
 6905SOL    HW121614   3.764   5.360   0.595
 6905SOL    HW221615   3.835   5.352   0.448
 6906SOL     OW21616   5.723   6.518   2.300
 6906SOL    HW121617   5.753   6.479   2.388
 6906SOL    HW221618   5.646   6.580   2.316
 6907SOL     OW21619   3.299   0.671   1.345
 6907SOL    HW121620   3.226   0.650   1.411
 6907SOL    HW221621   3.299   0.602   1.273
 6908SOL     OW21622   5.356   6.739   6.939
 6908SOL    HW121623   5.341   6.648   6.978
 6908SOL    HW221624   5.453   6.751   6.918
 6909SOL     OW21625   2.340   1.952   0.124
 6909SOL    HW121626   2.406   1.926   0.053
 6909SOL    HW221627   2.371   1.918   0.213
 6910SOL     OW21628   4.913   0.960   1.156
 6910SOL    HW121629   4.951   0.985   1.245
 6910SOL    HW221630   4.814   0.974   1.157
 6911SOL     OW21631   3.750   0.075   4.632
 6911SOL    HW121632   3.821   0.120   4.685
 6911SOL    HW221633   3.704   0.007   4.689
 6912SOL     OW21634   4.051   5.482   1.782
 6912SOL    HW121635   4.074   5.451   1.690
 6912SOL    HW221636   4.020   5.405   1.837
 6913SOL     OW21637   4.645   5.668   5.758
 6913SOL    HW121638   4.620   5.641   5.850
 6913SOL    HW221639   4.745   5.663   5.747
 6914SOL     OW21640   0.178   4.910   0.280
 6914SOL    HW121641   0.093   4.951   0.248
 6914SOL    HW221642   0.255   4.942   0.225
 6915SOL     OW21643   0.536   6.688   0.562
 6915SOL    HW121644   0.518   6.705   0.465
 6915SOL    HW221645   0.507   6.768   0.615
 6916SOL     OW21646   6.228   1.155   5.514
 6916SOL    HW121647   6.180   1.087   5.570
 6916SOL    HW221648   6.274   1.221   5.574
 6917SOL     OW21649   4.624   6.215   5.700
 6917SOL    HW121650   4.554   6.234   5.631
 6917SOL    HW221651   4.612   6.123   5.736
 6918SOL     OW21652   1.949   2.344   3.480
 6918SOL    HW121653   1.929   2.326   3.576
 6918SOL    HW221654   2.031   2.292   3.454
 6919SOL     OW21655   1.475   6.007   3.583
 6919SOL    HW121656   1.477   6.104   3.606
 6919SOL    HW221657   1.398   5.963   3.628
 6920SOL     OW21658   5.411   5.646   4.348
 6920SOL    HW121659   5.380   5.584   4.420
 6920SOL    HW221660   5.413   5.597   4.260
 6921SOL     OW21661   1.807   4.917   2.827
 6921SOL    HW121662   1.730   4.908   2.891
 6921SOL    HW221663   1.891   4.936   2.878
 6922SOL     OW21664   2.108   6.343   1.386
 6922SOL    HW121665   2.165   6.399   1.446
 6922SOL    HW221666   2.014   6.376   1.389
 6923SOL     OW21667   5.131   5.181   4.018
 6923SOL    HW121668   5.058   5.113   4.018
 6923SOL    HW221669   5.219   5.135   4.003
 6924SOL     OW21670   5.678   6.156   2.310
 6924SOL    HW121671   5.584   6.188   2.295
 6924SOL    HW221672   5.688   6.125   2.404
 6925SOL     OW21673   4.625   5.564   2.419
 6925SOL    HW121674   4.537   5.560   2.373
 6925SOL    HW221675   4.685   5.491   2.384
 6926SOL     OW21676   2.975   3.993   5.533
 6926SOL    HW121677   2.910   4.058   5.573
 6926SOL    HW221678   3.047   4.043   5.485
 6927SOL     OW21679   3.895   4.038   0.630
 6927SOL    HW121680   3.807   4.069   0.665
 6927SOL    HW221681   3.921   4.095   0.552
 6928SOL     OW21682   6.826   0.574   6.874
 6928SOL    HW121683   6.764   0.574   6.795
 6928SOL    HW221684   6.875   0.487   6.878
 6929SOL     OW21685   3.597   5.696   1.297
 6929SOL    HW121686   3.644   5.780   1.269
 6929SOL    HW221687   3.645   5.617   1.259
 6930SOL     OW21688   0.092   0.635   2.939
 6930SOL    HW121689   0.040   0.593   3.014
 6930SOL    HW221690   0.079   0.580   2.856
 6931SOL     OW21691   2.968   6.950   0.778
 6931SOL    HW121692   3.015   6.992   0.700
 6931SOL    HW221693   2.930   7.022   0.836
 6932SOL     OW21694   2.970   2.098   0.420
 6932SOL    HW121695   3.002   2.186   0.386
 6932SOL    HW221696   2.981   2.029   0.349
 6933SOL     OW21697   2.967   5.971   5.156
 6933SOL    HW121698   3.000   6.032   5.228
 6933SOL    HW221699   2.984   6.012   5.067
 6934SOL     OW21700   5.478   4.563   6.489
 6934SOL    HW121701   5.506   4.592   6.581
 6934SOL    HW221702   5.549   4.587   6.423
 6935SOL     OW21703   4.201   5.781   3.234
 6935SOL    HW121704   4.203   5.681   3.244
 6935SOL    HW221705   4.288   5.820   3.262
 6936SOL     OW21706   0.637   4.490   0.888
 6936SOL    HW121707   0.702   4.530   0.953
 6936SOL    HW221708   0.679   4.487   0.797
 6937SOL     OW21709   4.536   5.771   6.278
 6937SOL    HW121710   4.439   5.794   6.277
 6937SOL    HW221711   4.588   5.849   6.312
 6938SOL     OW21712   6.472   2.359   5.387
 6938SOL    HW121713   6.572   2.369   5.394
 6938SOL    HW221714   6.435   2.435   5.333
 6939SOL     OW21715   6.552   4.828   1.530
 6939SOL    HW121716   6.608   4.748   1.549
 6939SOL    HW221717   6.506   4.816   1.442
 6940SOL     OW21718   4.419   0.582   4.220
 6940SOL    HW121719   4.402   0.603   4.317
 6940SOL    HW221720   4.515   0.600   4.198
 6941SOL     OW21721   3.250   2.901   5.109
 6941SOL    HW121722   3.192   2.912   5.028
 6941SOL    HW221723   3.234   2.976   5.172
 6942SOL     OW21724   6.442   1.835   6.472
 6942SOL    HW121725   6.356   1.797   6.438
 6942SOL    HW221726   6.437   1.843   6.572
 6943SOL     OW21727   6.366   5.187   0.060
 6943SOL    HW121728   6.308   5.108   0.077
 6943SOL    HW221729   6.309   5.265   0.032
 6944SOL     OW21730   1.277   6.768   0.447
 6944SOL    HW121731   1.360   6.718   0.470
 6944SOL    HW221732   1.198   6.724   0.490
 6945SOL     OW21733   4.191   1.656   6.585
 6945SOL    HW121734   4.268   1.610   6.631
 6945SOL    HW221735   4.111   1.655   6.645
 6946SOL     OW21736   6.148   4.236   2.500
 6946SOL    HW121737   6.173   4.298   2.426
 6946SOL    HW221738   6.165   4.280   2.588
 6947SOL     OW21739   3.950   6.532   1.098
 6947SOL    HW121740   3.983   6.625   1.110
 6947SOL    HW221741   3.903   6.524   1.010
 6948SOL     OW21742   3.479   1.700   5.483
 6948SOL    HW121743   3.460   1.767   5.554
 6948SOL    HW221744   3.407   1.631   5.482
 6949SOL     OW21745   5.133   0.405   2.089
 6949SOL    HW121746   5.069   0.479   2.070
 6949SOL    HW221747   5.227   0.438   2.078
 6950SOL     OW21748   3.607   1.680   3.042
 6950SOL    HW121749   3.633   1.623   2.965
 6950SOL    HW221750   3.673   1.667   3.117
 6951SOL     OW21751   5.045   3.989   5.652
 6951SOL    HW121752   5.090   3.950   5.572
 6951SOL    HW221753   5.076   4.083   5.666
 6952SOL     OW21754   0.081   3.694   6.659
 6952SOL    HW121755   0.052   3.605   6.623
 6952SOL    HW221756   0.168   3.721   6.617
 6953SOL     OW21757   5.417   2.576   4.888
 6953SOL    HW121758   5.511   2.571   4.922
 6953SOL    HW221759   5.418   2.574   4.788
 6954SOL     OW21760   0.037   4.375   1.904
 6954SOL    HW121761   0.021   4.442   1.976
 6954SOL    HW221762   6.982   4.318   1.892
 6955SOL     OW21763   6.596   0.479   3.845
 6955SOL    HW121764   6.578   0.573   3.875
 6955SOL    HW221765   6.678   0.478   3.787
 6956SOL     OW21766   3.164   3.899   1.405
 6956SOL    HW121767   3.125   3.810   1.377
 6956SOL    HW221768   3.113   3.934   1.483
 6957SOL     OW21769   1.012   4.628   0.087
 6957SOL    HW121770   1.034   4.568   0.163
 6957SOL    HW221771   1.011   4.576   0.002
 6958SOL     OW21772   2.125   3.632   5.394
 6958SOL    HW121773   2.038   3.641   5.345
 6958SOL    HW221774   2.110   3.652   5.491
 6959SOL     OW21775   4.198   0.849   5.109
 6959SOL    HW121776   4.253   0.932   5.104
 6959SOL    HW221777   4.225   0.796   5.189
 6960SOL     OW21778   1.198   5.789   6.950
 6960SOL    HW121779   1.172   5.707   6.900
 6960SOL    HW221780   1.293   5.813   6.929
 6961SOL     OW21781   6.222   1.164   3.469
 6961SOL    HW121782   6.123   1.165   3.451
 6961SOL    HW221783   6.239   1.176   3.567
 6962SOL     OW21784   3.163   3.863   0.962
 6962SOL    HW121785   3.204   3.912   0.886
 6962SOL    HW221786   3.206   3.773   0.971
 6963SOL     OW21787   6.038   5.678   1.772
 6963SOL    HW121788   5.957   5.728   1.803
 6963SOL    HW221789   6.121   5.724   1.804
 6964SOL     OW21790   3.623   5.373   5.582
 6964SOL    HW121791   3.586   5.287   5.616
 6964SOL    HW221792   3.549   5.430   5.546
 6965SOL     OW21793   6.362   1.874   6.103
 6965SOL    HW121794   6.404   1.932   6.033
 6965SOL    HW221795   6.340   1.785   6.064
 6966SOL     OW21796   4.736   1.641   4.008
 6966SOL    HW121797   4.772   1.654   4.101
 6966SOL    HW221798   4.732   1.543   3.988
 6967SOL     OW21799   3.152   2.663   6.154
 6967SOL    HW121800   3.076   2.640   6.214
 6967SOL    HW221801   3.118   2.699   6.068
 6968SOL     OW21802   4.225   0.258   3.910
 6968SOL    HW121803   4.170   0.302   3.981
 6968SOL    HW221804   4.218   0.159   3.919
 6969SOL     OW21805   3.545   3.205   1.029
 6969SOL    HW121806   3.600   3.259   1.094
 6969SOL    HW221807   3.599   3.128   0.996
 6970SOL     OW21808   5.185   4.319   0.418
 6970SOL    HW121809   5.171   4.336   0.321
 6970SOL    HW221810   5.104   4.347   0.469
 6971SOL     OW21811   6.099   1.643   2.413
 6971SOL    HW121812   6.173   1.577   2.399
 6971SOL    HW221813   6.015   1.608   2.372
 6972SOL     OW21814   5.070   5.490   4.370
 6972SOL    HW121815   4.972   5.499   4.385
 6972SOL    HW221816   5.093   5.393   4.359
 6973SOL     OW21817   1.039   4.132   3.828
 6973SOL    HW121818   1.011   4.038   3.850
 6973SOL    HW221819   1.130   4.149   3.864
 6974SOL     OW21820   3.460   4.191   5.073
 6974SOL    HW121821   3.403   4.260   5.117
 6974SOL    HW221822   3.546   4.182   5.124
 6975SOL     OW21823   2.182   6.901   6.621
 6975SOL    HW121824   2.096   6.915   6.573
 6975SOL    HW221825   2.165   6.893   6.719
 6976SOL     OW21826   1.023   5.917   0.885
 6976SOL    HW121827   0.939   5.952   0.927
 6976SOL    HW221828   1.007   5.824   0.852
 6977SOL     OW21829   5.063   3.007   1.707
 6977SOL    HW121830   4.977   3.016   1.757
 6977SOL    HW221831   5.139   3.003   1.772
 6978SOL     OW21832   4.386   2.306   3.384
 6978SOL    HW121833   4.371   2.245   3.461
 6978SOL    HW221834   4.465   2.365   3.402
 6979SOL     OW21835   6.974   3.793   4.637
 6979SOL    HW121836   0.000   3.709   4.641
 6979SOL    HW221837   6.944   3.810   4.543
 6980SOL     OW21838   4.858   1.679   4.856
 6980SOL    HW121839   4.811   1.598   4.823
 6980SOL    HW221840   4.957   1.669   4.842
 6981SOL     OW21841   3.289   3.989   6.707
 6981SOL    HW121842   3.275   4.018   6.613
 6981SOL    HW221843   3.293   4.069   6.767
 6982SOL     OW21844   0.364   6.893   4.749
 6982SOL    HW121845   0.361   6.956   4.672
 6982SOL    HW221846   0.387   6.943   4.832
 6983SOL     OW21847   6.092   1.008   3.098
 6983SOL    HW121848   5.996   1.008   3.126
 6983SOL    HW221849   6.098   1.041   3.003
 6984SOL     OW21850   1.596   1.207   6.337
 6984SOL    HW121851   1.546   1.143   6.396
 6984SOL    HW221852   1.545   1.221   6.253
 6985SOL     OW21853   5.117   6.403   4.280
 6985SOL    HW121854   5.048   6.353   4.332
 6985SOL    HW221855   5.126   6.362   4.189
 6986SOL     OW21856   1.608   6.253   5.396
 6986SOL    HW121857   1.580   6.271   5.301
 6986SOL    HW221858   1.584   6.330   5.454
 6987SOL     OW21859   6.882   3.767   6.481
 6987SOL    HW121860   6.933   3.759   6.567
 6987SOL    HW221861   6.810   3.698   6.479
 6988SOL     OW21862   5.899   1.243   6.255
 6988SOL    HW121863   5.938   1.311   6.317
 6988SOL    HW221864   5.851   1.290   6.180
 6989SOL     OW21865   1.585   3.389   4.609
 6989SOL    HW121866   1.495   3.431   4.625
 6989SOL    HW221867   1.657   3.449   4.643
 6990SOL     OW21868   4.146   3.492   1.507
 6990SOL    HW121869   4.155   3.552   1.586
 6990SOL    HW221870   4.234   3.486   1.459
 6991SOL     OW21871   4.184   4.695   5.284
 6991SOL    HW121872   4.119   4.756   5.240
 6991SOL    HW221873   4.139   4.647   5.360
 6992SOL     OW21874   6.397   6.392   5.073
 6992SOL    HW121875   6.417   6.333   5.151
 6992SOL    HW221876   6.302   6.422   5.078
 6993SOL     OW21877   0.196   0.188   2.935
 6993SOL    HW121878   0.212   0.155   2.842
 6993SOL    HW221879   0.284   0.195   2.983
 6994SOL     OW21880   1.490   2.421   0.319
 6994SOL    HW121881   1.430   2.369   0.380
 6994SOL    HW221882   1.459   2.409   0.225
 6995SOL     OW21883   1.039   5.784   3.836
 6995SOL    HW121884   0.955   5.833   3.860
 6995SOL    HW221885   1.032   5.752   3.741
 6996SOL     OW21886   1.740   6.830   5.790
 6996SOL    HW121887   1.825   6.858   5.747
 6996SOL    HW221888   1.704   6.906   5.844
 6997SOL     OW21889   4.520   5.560   4.567
 6997SOL    HW121890   4.451   5.494   4.537
 6997SOL    HW221891   4.475   5.645   4.593
 6998SOL     OW21892   2.674   1.988   2.397
 6998SOL    HW121893   2.701   2.075   2.356
 6998SOL    HW221894   2.621   1.935   2.330
 6999SOL     OW21895   5.220   1.671   6.687
 6999SOL    HW121896   5.297   1.694   6.627
 6999SOL    HW221897   5.237   1.584   6.732
 7000SOL     OW21898   0.148   0.250   1.737
 7000SOL    HW121899   0.142   0.349   1.750
 7000SOL    HW221900   0.057   0.214   1.717
 7001SOL     OW21901   2.967   1.221   6.590
 7001SOL    HW121902   2.958   1.242   6.688
 7001SOL    HW221903   3.046   1.269   6.553
 7002SOL     OW21904   2.542   4.663   2.380
 7002SOL    HW121905   2.521   4.660   2.282
 7002SOL    HW221906   2.458   4.680   2.431
 7003SOL     OW21907   1.930   6.461   5.689
 7003SOL    HW121908   1.837   6.495   5.702
 7003SOL    HW221909   1.930   6.393   5.615
 7004SOL     OW21910   1.759   3.882   6.809
 7004SOL    HW121911   1.795   3.971   6.835
 7004SOL    HW221912   1.786   3.861   6.716
 7005SOL     OW21913   6.804   7.017   5.674
 7005SOL    HW121914   6.728   6.956   5.650
 7005SOL    HW221915   6.880   7.002   5.611
 7006SOL     OW21916   4.837   5.241   4.322
 7006SOL    HW121917   4.936   5.226   4.326
 7006SOL    HW221918   4.808   5.248   4.227
 7007SOL     OW21919   5.087   4.904   1.636
 7007SOL    HW121920   5.011   4.932   1.696
 7007SOL    HW221921   5.170   4.951   1.664
 7008SOL     OW21922   0.841   5.631   4.503
 7008SOL    HW121923   0.939   5.623   4.484
 7008SOL    HW221924   0.804   5.710   4.454
 7009SOL     OW21925   0.084   4.332   1.633
 7009SOL    HW121926   0.046   4.337   1.725
 7009SOL    HW221927   0.144   4.252   1.626
 7010SOL     OW21928   5.675   4.292   5.398
 7010SOL    HW121929   5.704   4.200   5.371
 7010SOL    HW221930   5.585   4.311   5.359
 7011SOL     OW21931   0.876   0.538   5.411
 7011SOL    HW121932   0.940   0.492   5.473
 7011SOL    HW221933   0.897   0.511   5.317
 7012SOL     OW21934   0.953   1.292   1.615
 7012SOL    HW121935   0.958   1.286   1.515
 7012SOL    HW221936   0.857   1.295   1.644
 7013SOL     OW21937   6.200   2.397   1.633
 7013SOL    HW121938   6.127   2.360   1.577
 7013SOL    HW221939   6.253   2.323   1.673
 7014SOL     OW21940   2.464   5.116   0.880
 7014SOL    HW121941   2.480   5.078   0.971
 7014SOL    HW221942   2.506   5.057   0.811
 7015SOL     OW21943   4.931   1.964   1.966
 7015SOL    HW121944   4.992   1.942   1.889
 7015SOL    HW221945   4.878   2.046   1.944
 7016SOL     OW21946   4.348   4.436   1.032
 7016SOL    HW121947   4.329   4.383   0.949
 7016SOL    HW221948   4.325   4.532   1.017
 7017SOL     OW21949   5.285   1.802   5.148
 7017SOL    HW121950   5.254   1.835   5.237
 7017SOL    HW221951   5.385   1.809   5.144
 7018SOL     OW21952   0.663   3.622   3.271
 7018SOL    HW121953   0.742   3.561   3.270
 7018SOL    HW221954   0.644   3.651   3.365
 7019SOL     OW21955   0.064   6.350   2.400
 7019SOL    HW121956   7.009   6.363   2.457
 7019SOL    HW221957   0.101   6.258   2.416
 7020SOL     OW21958   0.275   5.300   6.841
 7020SOL    HW121959   0.234   5.291   6.932
 7020SOL    HW221960   0.375   5.303   6.849
 7021SOL     OW21961   3.292   6.628   5.811
 7021SOL    HW121962   3.344   6.558   5.860
 7021SOL    HW221963   3.338   6.650   5.726
 7022SOL     OW21964   4.120   5.274   5.732
 7022SOL    HW121965   4.157   5.219   5.657
 7022SOL    HW221966   4.031   5.238   5.759
 7023SOL     OW21967   4.348   4.683   2.645
 7023SOL    HW121968   4.376   4.762   2.590
 7023SOL    HW221969   4.256   4.699   2.683
 7024SOL     OW21970   5.873   6.526   1.691
 7024SOL    HW121971   5.939   6.515   1.617
 7024SOL    HW221972   5.885   6.453   1.758
 7025SOL     OW21973   2.653   0.119   1.086
 7025SOL    HW121974   2.583   0.068   1.036
 7025SOL    HW221975   2.613   0.204   1.120
 7026SOL     OW21976   4.276   2.462   0.965
 7026SOL    HW121977   4.361   2.515   0.958
 7026SOL    HW221978   4.282   2.381   0.907
 7027SOL     OW21979   5.644   5.816   4.383
 7027SOL    HW121980   5.562   5.758   4.386
 7027SOL    HW221981   5.653   5.855   4.291
 7028SOL     OW21982   2.760   1.098   4.494
 7028SOL    HW121983   2.820   1.178   4.495
 7028SOL    HW221984   2.782   1.038   4.571
 7029SOL     OW21985   3.567   0.935   4.402
 7029SOL    HW121986   3.571   0.839   4.427
 7029SOL    HW221987   3.660   0.971   4.391
 7030SOL     OW21988   1.460   3.210   3.870
 7030SOL    HW121989   1.425   3.138   3.811
 7030SOL    HW221990   1.560   3.212   3.864
 7031SOL     OW21991   1.297   0.987   4.773
 7031SOL    HW121992   1.283   1.079   4.737
 7031SOL    HW221993   1.310   0.992   4.872
 7032SOL     OW21994   5.944   2.502   3.555
 7032SOL    HW121995   5.893   2.417   3.552
 7032SOL    HW221996   5.909   2.565   3.486
 7033SOL     OW21997   0.515   0.755   4.970
 7033SOL    HW121998   0.509   0.845   4.928
 7033SOL    HW221999   0.542   0.687   4.902
 7034SOL     OW22000   0.160   5.264   3.646
 7034SOL    HW122001   0.068   5.225   3.643
 7034SOL    HW222002   0.173   5.327   3.570
 7035SOL     OW22003   6.549   4.606   1.861
 7035SOL    HW122004   6.615   4.570   1.796
 7035SOL    HW222005   6.525   4.700   1.836
 7036SOL     OW22006   6.109   4.653   0.936
 7036SOL    HW122007   6.140   4.577   0.992
 7036SOL    HW222008   6.138   4.739   0.977
 7037SOL     OW22009   1.169   0.648   6.685
 7037SOL    HW122010   1.252   0.687   6.726
 7037SOL    HW222011   1.094   0.650   6.751
 7038SOL     OW22012   2.130   2.914   4.372
 7038SOL    HW122013   2.118   2.990   4.435
 7038SOL    HW222014   2.068   2.839   4.397
 7039SOL     OW22015   3.811   2.048   6.821
 7039SOL    HW122016   3.728   1.996   6.800
 7039SOL    HW222017   3.880   2.031   6.751
 7040SOL     OW22018   5.804   2.476   6.753
 7040SOL    HW122019   5.747   2.516   6.825
 7040SOL    HW222020   5.765   2.389   6.725
 7041SOL     OW22021   1.987   1.556   3.346
 7041SOL    HW122022   2.026   1.634   3.297
 7041SOL    HW222023   2.036   1.541   3.431
 7042SOL     OW22024   2.068   1.436   6.677
 7042SOL    HW122025   2.088   1.391   6.764
 7042SOL    HW222026   2.019   1.522   6.695
 7043SOL     OW22027   1.600   2.667   2.031
 7043SOL    HW122028   1.686   2.615   2.035
 7043SOL    HW222029   1.621   2.765   2.031
 7044SOL     OW22030   6.904   5.904   0.906
 7044SOL    HW122031   6.968   5.959   0.852
 7044SOL    HW222032   6.812   5.913   0.867
 7045SOL     OW22033   0.474   4.947   0.442
 7045SOL    HW122034   0.564   4.971   0.478
 7045SOL    HW222035   0.420   4.905   0.515
 7046SOL     OW22036   3.143   1.798   3.656
 7046SOL    HW122037   3.079   1.770   3.728
 7046SOL    HW222038   3.235   1.802   3.694
 7047SOL     OW22039   1.602   0.020   3.146
 7047SOL    HW122040   1.562   6.978   3.206
 7047SOL    HW222041   1.690   7.015   3.111
 7048SOL     OW22042   6.658   5.640   0.058
 7048SOL    HW122043   6.631   5.736   0.051
 7048SOL    HW222044   6.648   5.610   0.153
 7049SOL     OW22045   2.296   0.714   6.843
 7049SOL    HW122046   2.367   0.644   6.855
 7049SOL    HW222047   2.234   0.687   6.769
 7050SOL     OW22048   4.535   3.560   5.520
 7050SOL    HW122049   4.559   3.491   5.451
 7050SOL    HW222050   4.550   3.651   5.484
 7051SOL     OW22051   5.698   6.345   2.930
 7051SOL    HW122052   5.695   6.308   2.837
 7051SOL    HW222053   5.762   6.292   2.985
 7052SOL     OW22054   6.816   6.963   5.167
 7052SOL    HW122055   6.810   6.986   5.264
 7052SOL    HW222056   6.730   6.922   5.137
 7053SOL     OW22057   6.647   3.515   6.156
 7053SOL    HW122058   6.736   3.515   6.109
 7053SOL    HW222059   6.661   3.531   6.254
 7054SOL     OW22060   6.058   2.331   2.551
 7054SOL    HW122061   6.041   2.233   2.538
 7054SOL    HW222062   5.987   2.383   2.503
 7055SOL     OW22063   4.542   1.803   3.929
 7055SOL    HW122064   4.611   1.731   3.936
 7055SOL    HW222065   4.544   1.842   3.837
 7056SOL     OW22066   4.840   5.716   4.193
 7056SOL    HW122067   4.840   5.816   4.194
 7056SOL    HW222068   4.865   5.682   4.283
 7057SOL     OW22069   5.387   5.763   2.815
 7057SOL    HW122070   5.330   5.806   2.745
 7057SOL    HW222071   5.367   5.665   2.818
 7058SOL     OW22072   0.451   4.238   4.307
 7058SOL    HW122073   0.515   4.210   4.235
 7058SOL    HW222074   0.483   4.204   4.395
 7059SOL     OW22075   1.717   0.988   2.287
 7059SOL    HW122076   1.626   0.948   2.291
 7059SOL    HW222077   1.710   1.087   2.296
 7060SOL     OW22078   3.145   6.805   0.633
 7060SOL    HW122079   3.108   6.847   0.716
 7060SOL    HW222080   3.079   6.814   0.559
 7061SOL     OW22081   0.411   0.985   3.079
 7061SOL    HW122082   0.385   1.051   3.149
 7061SOL    HW222083   0.507   0.960   3.090
 7062SOL     OW22084   6.655   1.381   5.745
 7062SOL    HW122085   6.601   1.462   5.721
 7062SOL    HW222086   6.678   1.384   5.842
 7063SOL     OW22087   2.037   6.417   1.928
 7063SOL    HW122088   2.103   6.491   1.915
 7063SOL    HW222089   1.978   6.411   1.848
 7064SOL     OW22090   3.526   2.213   7.019
 7064SOL    HW122091   3.622   2.234   7.006
 7064SOL    HW222092   3.492   2.263   0.072
 7065SOL     OW22093   3.185   3.741   2.664
 7065SOL    HW122094   3.208   3.784   2.577
 7065SOL    HW222095   3.266   3.742   2.723
 7066SOL     OW22096   2.432   4.653   1.704
 7066SOL    HW122097   2.529   4.633   1.712
 7066SOL    HW222098   2.408   4.727   1.767
 7067SOL     OW22099   1.083   4.265   5.033
 7067SOL    HW122100   1.125   4.175   5.019
 7067SOL    HW222101   0.999   4.271   4.978
 7068SOL     OW22102   0.382   0.663   2.925
 7068SOL    HW122103   0.297   0.617   2.952
 7068SOL    HW222104   0.418   0.715   3.002
 7069SOL     OW22105   1.846   4.749   5.067
 7069SOL    HW122106   1.815   4.666   5.112
 7069SOL    HW222107   1.771   4.788   5.013
 7070SOL     OW22108   5.480   4.942   3.340
 7070SOL    HW122109   5.422   4.943   3.422
 7070SOL    HW222110   5.575   4.927   3.367
 7071SOL     OW22111   1.946   6.606   5.332
 7071SOL    HW122112   2.023   6.548   5.306
 7071SOL    HW222113   1.975   6.702   5.332
 7072SOL     OW22114   0.646   0.205   6.539
 7072SOL    HW122115   0.617   0.158   6.622
 7072SOL    HW222116   0.745   0.223   6.544
 7073SOL     OW22117   2.044   2.430   6.811
 7073SOL    HW122118   2.114   2.488   6.853
 7073SOL    HW222119   2.068   2.334   6.824
 7074SOL     OW22120   3.561   1.054   6.663
 7074SOL    HW122121   3.527   1.096   6.579
 7074SOL    HW222122   3.541   0.956   6.662
 7075SOL     OW22123   0.529   6.243   2.950
 7075SOL    HW122124   0.534   6.330   2.999
 7075SOL    HW222125   0.470   6.179   3.000
 7076SOL     OW22126   3.318   1.190   6.247
 7076SOL    HW122127   3.329   1.183   6.147
 7076SOL    HW222128   3.241   1.251   6.268
 7077SOL     OW22129   1.578   5.721   6.524
 7077SOL    HW122130   1.507   5.670   6.475
 7077SOL    HW222131   1.536   5.798   6.572
 7078SOL     OW22132   0.259   1.118   1.908
 7078SOL    HW122133   0.163   1.114   1.883
 7078SOL    HW222134   0.292   1.025   1.927
 7079SOL     OW22135   5.382   6.496   4.580
 7079SOL    HW122136   5.368   6.398   4.590
 7079SOL    HW222137   5.465   6.523   4.629
 7080SOL     OW22138   5.690   0.265   3.905
 7080SOL    HW122139   5.661   0.332   3.837
 7080SOL    HW222140   5.753   0.308   3.970
 7081SOL     OW22141   4.816   0.872   4.939
 7081SOL    HW122142   4.846   0.895   4.847
 7081SOL    HW222143   4.894   0.845   4.995
 7082SOL     OW22144   6.085   1.344   0.357
 7082SOL    HW122145   6.165   1.315   0.305
 7082SOL    HW222146   6.010   1.279   0.344
 7083SOL     OW22147   4.408   0.186   5.381
 7083SOL    HW122148   4.363   0.099   5.399
 7083SOL    HW222149   4.457   0.181   5.294
 7084SOL     OW22150   6.069   5.870   0.457
 7084SOL    HW122151   6.156   5.873   0.506
 7084SOL    HW222152   6.017   5.791   0.489
 7085SOL     OW22153   4.539   1.420   1.781
 7085SOL    HW122154   4.550   1.329   1.741
 7085SOL    HW222155   4.531   1.488   1.708
 7086SOL     OW22156   1.228   0.948   5.982
 7086SOL    HW122157   1.276   0.895   6.052
 7086SOL    HW222158   1.259   0.918   5.891
 7087SOL     OW22159   2.309   2.782   5.187
 7087SOL    HW122160   2.325   2.857   5.123
 7087SOL    HW222161   2.365   2.795   5.269
 7088SOL     OW22162   0.070   2.223   4.481
 7088SOL    HW122163   7.027   2.254   4.545
 7088SOL    HW222164   0.093   2.128   4.500
 7089SOL     OW22165   3.333   1.823   1.416
 7089SOL    HW122166   3.237   1.816   1.387
 7089SOL    HW222167   3.391   1.839   1.337
 7090SOL     OW22168   2.770   1.791   4.816
 7090SOL    HW122169   2.704   1.849   4.768
 7090SOL    HW222170   2.859   1.836   4.818
 7091SOL     OW22171   6.655   6.276   0.850
 7091SOL    HW122172   6.613   6.271   0.760
 7091SOL    HW222173   6.593   6.321   0.914
 7092SOL     OW22174   3.528   2.095   0.830
 7092SOL    HW122175   3.472   2.132   0.755
 7092SOL    HW222176   3.618   2.072   0.795
 7093SOL     OW22177   4.022   2.869   6.478
 7093SOL    HW122178   4.087   2.912   6.416
 7093SOL    HW222179   3.959   2.812   6.425
 7094SOL     OW22180   6.498   0.958   6.503
 7094SOL    HW122181   6.426   0.940   6.569
 7094SOL    HW222182   6.560   1.027   6.540
 7095SOL     OW22183   0.503   3.942   0.920
 7095SOL    HW122184   0.422   3.952   0.863
 7095SOL    HW222185   0.484   3.877   0.994
 7096SOL     OW22186   3.983   6.659   2.369
 7096SOL    HW122187   4.073   6.689   2.402
 7096SOL    HW222188   3.951   6.721   2.297
 7097SOL     OW22189   2.231   1.391   1.549
 7097SOL    HW122190   2.290   1.334   1.491
 7097SOL    HW222191   2.144   1.407   1.503
 7098SOL     OW22192   1.363   0.557   6.087
 7098SOL    HW122193   1.337   0.464   6.061
 7098SOL    HW222194   1.281   0.606   6.118
 7099SOL     OW22195   0.050   1.526   5.199
 7099SOL    HW122196   0.104   1.453   5.241
 7099SOL    HW222197   6.983   1.521   5.233
 7100SOL     OW22198   5.517   1.559   1.062
 7100SOL    HW122199   5.516   1.460   1.049
 7100SOL    HW222200   5.586   1.583   1.130
 7101SOL     OW22201   1.445   0.344   4.314
 7101SOL    HW122202   1.542   0.336   4.339
 7101SOL    HW222203   1.425   0.440   4.294
 7102SOL     OW22204   4.117   2.877   0.462
 7102SOL    HW122205   4.167   2.857   0.546
 7102SOL    HW222206   4.121   2.976   0.444
 7103SOL     OW22207   2.140   6.972   5.983
 7103SOL    HW122208   2.232   6.988   5.948
 7103SOL    HW222209   2.139   6.984   6.082
 7104SOL     OW22210   0.875   2.972   1.868
 7104SOL    HW122211   0.813   2.922   1.807
 7104SOL    HW222212   0.831   2.986   1.956
 7105SOL     OW22213   2.088   2.822   5.582
 7105SOL    HW122214   2.109   2.844   5.487
 7105SOL    HW222215   2.086   2.906   5.636
 7106SOL     OW22216   2.930   2.813   5.346
 7106SOL    HW122217   2.889   2.904   5.333
 7106SOL    HW222218   3.029   2.818   5.330
 7107SOL     OW22219   1.433   1.259   0.226
 7107SOL    HW122220   1.406   1.249   0.322
 7107SOL    HW222221   1.481   1.346   0.214
 7108SOL     OW22222   4.610   6.946   2.152
 7108SOL    HW122223   4.510   6.942   2.159
 7108SOL    HW222224   4.646   6.853   2.146
 7109SOL     OW22225   4.621   6.034   6.305
 7109SOL    HW122226   4.582   6.088   6.230
 7109SOL    HW222227   4.594   6.075   6.392
 7110SOL     OW22228   3.903   4.963   4.559
 7110SOL    HW122229   3.927   4.873   4.524
 7110SOL    HW222230   3.898   4.960   4.659
 7111SOL     OW22231   1.644   2.770   3.412
 7111SOL    HW122232   1.687   2.680   3.420
 7111SOL    HW222233   1.704   2.839   3.453
 7112SOL     OW22234   1.543   6.245   3.130
 7112SOL    HW122235   1.543   6.159   3.181
 7112SOL    HW222236   1.584   6.230   3.040
 7113SOL     OW22237   4.102   3.302   5.840
 7113SOL    HW122238   4.018   3.344   5.806
 7113SOL    HW222239   4.158   3.371   5.886
 7114SOL     OW22240   3.904   6.511   0.821
 7114SOL    HW122241   3.846   6.446   0.870
 7114SOL    HW222242   3.987   6.466   0.790
 7115SOL     OW22243   4.131   2.711   1.072
 7115SOL    HW122244   4.160   2.615   1.066
 7115SOL    HW222245   4.109   2.733   1.166
 7116SOL     OW22246   6.316   4.441   3.258
 7116SOL    HW122247   6.244   4.384   3.218
 7116SOL    HW222248   6.388   4.382   3.296
 7117SOL     OW22249   5.462   6.851   2.413
 7117SOL    HW122250   5.550   6.895   2.427
 7117SOL    HW222251   5.389   6.915   2.436
 7118SOL     OW22252   6.752   3.305   3.270
 7118SOL    HW122253   6.801   3.259   3.345
 7118SOL    HW222254   6.655   3.282   3.274
 7119SOL     OW22255   1.213   2.422   3.105
 7119SOL    HW122256   1.296   2.449   3.057
 7119SOL    HW222257   1.133   2.448   3.050
 7120SOL     OW22258   4.462   6.667   3.605
 7120SOL    HW122259   4.535   6.638   3.668
 7120SOL    HW222260   4.472   6.617   3.519
 7121SOL     OW22261   2.056   6.502   0.857
 7121SOL    HW122262   2.057   6.508   0.957
 7121SOL    HW222263   2.056   6.406   0.829
 7122SOL     OW22264   6.950   5.948   0.528
 7122SOL    HW122265   7.009   6.009   0.581
 7122SOL    HW222266   6.872   5.920   0.584
 7123SOL     OW22267   2.890   5.275   0.796
 7123SOL    HW122268   2.909   5.194   0.851
 7123SOL    HW222269   2.798   5.268   0.757
 7124SOL     OW22270   0.061   6.176   6.561
 7124SOL    HW122271   0.011   6.214   6.639
 7124SOL    HW222272   7.027   6.116   6.509
 7125SOL     OW22273   0.849   6.064   3.522
 7125SOL    HW122274   0.830   6.062   3.424
 7125SOL    HW222275   0.898   6.148   3.545
 7126SOL     OW22276   1.556   3.599   1.613
 7126SOL    HW122277   1.595   3.687   1.587
 7126SOL    HW222278   1.471   3.583   1.563
 7127SOL     OW22279   2.255   0.477   5.198
 7127SOL    HW122280   2.199   0.443   5.122
 7127SOL    HW222281   2.339   0.517   5.162
 7128SOL     OW22282   2.918   3.701   2.319
 7128SOL    HW122283   3.010   3.662   2.319
 7128SOL    HW222284   2.909   3.764   2.242
 7129SOL     OW22285   2.614   1.868   0.688
 7129SOL    HW122286   2.657   1.949   0.648
 7129SOL    HW222287   2.565   1.818   0.616
 7130SOL     OW22288   1.564   0.465   2.927
 7130SOL    HW122289   1.624   0.406   2.982
 7130SOL    HW222290   1.609   0.554   2.914
 7131SOL     OW22291   2.736   1.182   3.425
 7131SOL    HW122292   2.682   1.262   3.398
 7131SOL    HW222293   2.798   1.207   3.499
 7132SOL     OW22294   2.964   3.796   2.064
 7132SOL    HW122295   2.875   3.774   2.024
 7132SOL    HW222296   2.998   3.881   2.025
 7133SOL     OW22297   6.062   4.097   1.586
 7133SOL    HW122298   6.040   4.134   1.676
 7133SOL    HW222299   5.997   4.131   1.519
 7134SOL     OW22300   5.032   5.000   2.573
 7134SOL    HW122301   4.970   4.934   2.529
 7134SOL    HW222302   5.057   4.966   2.663
 7135SOL     OW22303   0.355   2.178   6.448
 7135SOL    HW122304   0.395   2.267   6.469
 7135SOL    HW222305   0.424   2.107   6.457
 7136SOL     OW22306   1.525   1.727   6.861
 7136SOL    HW122307   1.533   1.812   6.809
 7136SOL    HW222308   1.484   1.656   6.804
 7137SOL     OW22309   4.660   2.263   5.067
 7137SOL    HW122310   4.596   2.295   4.997
 7137SOL    HW222311   4.742   2.226   5.023
 7138SOL     OW22312   2.441   2.326   6.593
 7138SOL    HW122313   2.381   2.330   6.514
 7138SOL    HW222314   2.526   2.278   6.568
 7139SOL     OW22315   2.942   1.167   0.544
 7139SOL    HW122316   3.039   1.166   0.522
 7139SOL    HW222317   2.899   1.082   0.513
 7140SOL     OW22318   0.064   4.514   4.592
 7140SOL    HW122319   0.034   4.609   4.600
 7140SOL    HW222320   0.107   4.501   4.503
 7141SOL     OW22321   0.744   0.073   1.983
 7141SOL    HW122322   0.714   0.163   2.012
 7141SOL    HW222323   0.708   0.052   1.893
 7142SOL     OW22324   3.344   6.638   3.759
 7142SOL    HW122325   3.275   6.568   3.778
 7142SOL    HW222326   3.430   6.612   3.802
 7143SOL     OW22327   1.684   2.186   3.413
 7143SOL    HW122328   1.749   2.252   3.450
 7143SOL    HW222329   1.591   2.217   3.429
 7144SOL     OW22330   1.357   3.427   3.311
 7144SOL    HW122331   1.422   3.352   3.321
 7144SOL    HW222332   1.270   3.401   3.354
 7145SOL     OW22333   4.076   5.631   6.308
 7145SOL    HW122334   4.034   5.586   6.229
 7145SOL    HW222335   4.078   5.568   6.385
 7146SOL     OW22336   3.472   4.845   1.526
 7146SOL    HW122337   3.376   4.825   1.507
 7146SOL    HW222338   3.493   4.939   1.501
 7147SOL     OW22339   0.006   1.086   3.454
 7147SOL    HW122340   0.104   1.086   3.475
 7147SOL    HW222341   7.021   1.083   3.355
 7148SOL     OW22342   6.842   1.791   0.824
 7148SOL    HW122343   6.753   1.747   0.813
 7148SOL    HW222344   6.868   1.837   0.739
 7149SOL     OW22345   1.004   0.604   4.576
 7149SOL    HW122346   1.068   0.659   4.630
 7149SOL    HW222347   0.953   0.543   4.637
 7150SOL     OW22348   5.908   3.456   6.044
 7150SOL    HW122349   5.912   3.356   6.039
 7150SOL    HW222350   5.950   3.495   5.962
 7151SOL     OW22351   2.036   6.546   0.045
 7151SOL    HW122352   2.078   6.534   6.982
 7151SOL    HW222353   2.074   6.628   0.089
 7152SOL     OW22354   1.088   2.391   4.756
 7152SOL    HW122355   1.103   2.298   4.788
 7152SOL    HW222356   0.992   2.416   4.768
 7153SOL     OW22357   4.049   1.849   2.834
 7153SOL    HW122358   3.967   1.873   2.783
 7153SOL    HW222359   4.023   1.809   2.922
 7154SOL     OW22360   3.319   0.165   4.777
 7154SOL    HW122361   3.353   0.186   4.869
 7154SOL    HW222362   3.345   0.239   4.715
 7155SOL     OW22363   2.432   1.346   3.631
 7155SOL    HW122364   2.506   1.409   3.655
 7155SOL    HW222365   2.417   1.349   3.532
 7156SOL     OW22366   2.023   5.887   5.618
 7156SOL    HW122367   1.925   5.884   5.598
 7156SOL    HW222368   2.052   5.801   5.659
 7157SOL     OW22369   4.729   4.222   0.220
 7157SOL    HW122370   4.736   4.319   0.241
 7157SOL    HW222371   4.818   4.178   0.232
 7158SOL     OW22372   4.055   0.324   3.548
 7158SOL    HW122373   4.028   0.354   3.457
 7158SOL    HW222374   4.149   0.289   3.546
 7159SOL     OW22375   1.319   6.106   6.872
 7159SOL    HW122376   1.241   6.168   6.869
 7159SOL    HW222377   1.306   6.039   6.945
 7160SOL     OW22378   6.752   0.773   1.626
 7160SOL    HW122379   6.675   0.825   1.664
 7160SOL    HW222380   6.718   0.692   1.579
 7161SOL     OW22381   3.690   4.201   4.921
 7161SOL    HW122382   3.595   4.230   4.936
 7161SOL    HW222383   3.710   4.199   4.823
 7162SOL     OW22384   3.516   4.875   3.970
 7162SOL    HW122385   3.569   4.905   4.049
 7162SOL    HW222386   3.419   4.897   3.984
 7163SOL     OW22387   1.025   6.542   3.442
 7163SOL    HW122388   1.124   6.531   3.440
 7163SOL    HW222389   1.001   6.638   3.431
 7164SOL     OW22390   2.542   1.885   4.698
 7164SOL    HW122391   2.507   1.946   4.769
 7164SOL    HW222392   2.525   1.925   4.608
 7165SOL     OW22393   4.697   5.171   2.167
 7165SOL    HW122394   4.600   5.173   2.192
 7165SOL    HW222395   4.707   5.193   2.070
 7166SOL     OW22396   3.868   6.170   2.178
 7166SOL    HW122397   3.805   6.095   2.157
 7166SOL    HW222398   3.854   6.201   2.272
 7167SOL     OW22399   5.291   3.467   6.985
 7167SOL    HW122400   5.328   3.384   6.943
 7167SOL    HW222401   5.234   3.443   0.036
 7168SOL     OW22402   0.372   1.712   4.130
 7168SOL    HW122403   0.347   1.748   4.040
 7168SOL    HW222404   0.427   1.780   4.179
 7169SOL     OW22405   2.302   2.277   6.356
 7169SOL    HW122406   2.278   2.202   6.296
 7169SOL    HW222407   2.316   2.360   6.302
 7170SOL     OW22408   5.104   4.358   3.827
 7170SOL    HW122409   5.161   4.393   3.753
 7170SOL    HW222410   5.039   4.429   3.855
 7171SOL     OW22411   3.779   3.764   5.945
 7171SOL    HW122412   3.712   3.771   5.871
 7171SOL    HW222413   3.775   3.846   6.002
 7172SOL     OW22414   6.884   6.236   1.148
 7172SOL    HW122415   6.869   6.165   1.216
 7172SOL    HW222416   6.860   6.325   1.186
 7173SOL     OW22417   6.346   6.704   4.820
 7173SOL    HW122418   6.327   6.739   4.729
 7173SOL    HW222419   6.412   6.628   4.814
 7174SOL     OW22420   1.213   6.245   5.979
 7174SOL    HW122421   1.296   6.192   5.995
 7174SOL    HW222422   1.200   6.258   5.881
 7175SOL     OW22423   6.137   3.847   5.437
 7175SOL    HW122424   6.160   3.762   5.390
 7175SOL    HW222425   6.038   3.862   5.432
 7176SOL     OW22426   0.992   3.335   1.527
 7176SOL    HW122427   0.986   3.433   1.548
 7176SOL    HW222428   0.954   3.318   1.437
 7177SOL     OW22429   0.976   4.852   1.891
 7177SOL    HW122430   0.968   4.933   1.950
 7177SOL    HW222431   0.893   4.797   1.898
 7178SOL     OW22432   6.159   0.638   6.592
 7178SOL    HW122433   6.153   0.668   6.497
 7178SOL    HW222434   6.254   0.642   6.623
 7179SOL     OW22435   0.657   4.198   5.970
 7179SOL    HW122436   0.612   4.251   5.899
 7179SOL    HW222437   0.601   4.119   5.993
 7180SOL     OW22438   6.753   0.234   2.356
 7180SOL    HW122439   6.824   0.205   2.291
 7180SOL    HW222440   6.670   0.182   2.339
 7181SOL     OW22441   5.336   5.733   2.486
 7181SOL    HW122442   5.239   5.737   2.510
 7181SOL    HW222443   5.380   5.821   2.504
 7182SOL     OW22444   4.463   3.657   5.923
 7182SOL    HW122445   4.442   3.716   6.001
 7182SOL    HW222446   4.529   3.703   5.864
 7183SOL     OW22447   2.132   2.972   3.073
 7183SOL    HW122448   2.189   2.948   3.151
 7183SOL    HW222449   2.090   2.890   3.035
 7184SOL     OW22450   2.432   5.330   3.296
 7184SOL    HW122451   2.405   5.426   3.292
 7184SOL    HW222452   2.354   5.275   3.324
 7185SOL     OW22453   5.053   2.088   6.963
 7185SOL    HW122454   5.071   2.187   6.960
 7185SOL    HW222455   4.991   2.068   0.012
 7186SOL     OW22456   0.903   6.372   4.558
 7186SOL    HW122457   0.946   6.282   4.552
 7186SOL    HW222458   0.821   6.372   4.501
 7187SOL     OW22459   1.848   5.228   1.229
 7187SOL    HW122460   1.910   5.154   1.253
 7187SOL    HW222461   1.821   5.220   1.133
 7188SOL     OW22462   5.141   0.190   1.622
 7188SOL    HW122463   5.102   0.280   1.604
 7188SOL    HW222464   5.180   0.188   1.714
 7189SOL     OW22465   6.111   0.926   5.624
 7189SOL    HW122466   6.190   0.873   5.656
 7189SOL    HW222467   6.065   0.876   5.551
 7190SOL     OW22468   4.340   5.376   3.073
 7190SOL    HW122469   4.324   5.281   3.046
 7190SOL    HW222470   4.360   5.431   2.992
 7191SOL     OW22471   0.860   3.061   1.394
 7191SOL    HW122472   0.818   3.047   1.484
 7191SOL    HW222473   0.960   3.058   1.403
 7192SOL     OW22474   3.223   4.036   6.442
 7192SOL    HW122475   3.223   4.136   6.446
 7192SOL    HW222476   3.302   4.005   6.388
 7193SOL     OW22477   5.833   2.255   4.829
 7193SOL    HW122478   5.771   2.182   4.801
 7193SOL    HW222479   5.911   2.217   4.878
 7194SOL     OW22480   2.744   0.762   2.101
 7194SOL    HW122481   2.776   0.732   2.190
 7194SOL    HW222482   2.788   0.848   2.076
 7195SOL     OW22483   0.786   6.853   2.659
 7195SOL    HW122484   0.776   6.885   2.565
 7195SOL    HW222485   0.839   6.919   2.712
 7196SOL     OW22486   3.693   3.558   1.808
 7196SOL    HW122487   3.784   3.527   1.836
 7196SOL    HW222488   3.655   3.493   1.742
 7197SOL     OW22489   1.565   1.229   4.454
 7197SOL    HW122490   1.623   1.194   4.380
 7197SOL    HW222491   1.598   1.193   4.541
 7198SOL     OW22492   0.463   6.843   6.104
 7198SOL    HW122493   0.382   6.811   6.054
 7198SOL    HW222494   0.508   6.764   6.147
 7199SOL     OW22495   5.912   5.706   2.131
 7199SOL    HW122496   5.876   5.779   2.190
 7199SOL    HW222497   5.979   5.744   2.067
 7200SOL     OW22498   1.363   2.338   2.402
 7200SOL    HW122499   1.375   2.390   2.317
 7200SOL    HW222500   1.432   2.367   2.469
 7201SOL     OW22501   2.158   4.283   4.264
 7201SOL    HW122502   2.192   4.229   4.187
 7201SOL    HW222503   2.214   4.366   4.273
 7202SOL     OW22504   2.425   7.018   5.925
 7202SOL    HW122505   2.498   6.958   5.892
 7202SOL    HW222506   2.465   0.075   5.961
 7203SOL     OW22507   5.667   0.058   6.971
 7203SOL    HW122508   5.600   0.039   0.017
 7203SOL    HW222509   5.665   0.155   6.949
 7204SOL     OW22510   6.515   2.138   3.031
 7204SOL    HW122511   6.530   2.098   2.940
 7204SOL    HW222512   6.479   2.231   3.021
 7205SOL     OW22513   1.333   3.941   1.554
 7205SOL    HW122514   1.330   4.041   1.542
 7205SOL    HW222515   1.308   3.918   1.648
 7206SOL     OW22516   6.218   1.033   1.614
 7206SOL    HW122517   6.244   1.054   1.708
 7206SOL    HW222518   6.281   0.965   1.577
 7207SOL     OW22519   4.176   0.295   1.727
 7207SOL    HW122520   4.110   0.320   1.798
 7207SOL    HW222521   4.146   0.333   1.639
 7208SOL     OW22522   2.546   0.552   5.383
 7208SOL    HW122523   2.490   0.475   5.413
 7208SOL    HW222524   2.500   0.638   5.406
 7209SOL     OW22525   3.184   3.763   5.122
 7209SOL    HW122526   3.238   3.812   5.190
 7209SOL    HW222527   3.094   3.741   5.160
 7210SOL     OW22528   3.966   6.775   4.146
 7210SOL    HW122529   3.878   6.789   4.191
 7210SOL    HW222530   4.038   6.773   4.215
 7211SOL     OW22531   0.968   5.085   2.382
 7211SOL    HW122532   1.050   5.035   2.357
 7211SOL    HW222533   0.994   5.172   2.425
 7212SOL     OW22534   5.513   6.833   3.537
 7212SOL    HW122535   5.570   6.757   3.566
 7212SOL    HW222536   5.539   6.861   3.444
 7213SOL     OW22537   5.768   6.499   5.672
 7213SOL    HW122538   5.842   6.446   5.630
 7213SOL    HW222539   5.696   6.438   5.703
 7214SOL     OW22540   1.226   5.135   5.956
 7214SOL    HW122541   1.238   5.043   5.994
 7214SOL    HW222542   1.314   5.169   5.923
 7215SOL     OW22543   1.218   3.212   1.610
 7215SOL    HW122544   1.269   3.276   1.668
 7215SOL    HW222545   1.128   3.250   1.589
 7216SOL     OW22546   2.991   2.216   2.541
 7216SOL    HW122547   2.896   2.249   2.544
 7216SOL    HW222548   3.020   2.203   2.447
 7217SOL     OW22549   0.519   3.688   1.884
 7217SOL    HW122550   0.441   3.651   1.935
 7217SOL    HW222551   0.575   3.612   1.849
 7218SOL     OW22552   6.406   2.757   4.283
 7218SOL    HW122553   6.493   2.769   4.236
 7218SOL    HW222554   6.393   2.832   4.348
 7219SOL     OW22555   2.908   1.416   0.843
 7219SOL    HW122556   2.834   1.389   0.782
 7219SOL    HW222557   2.961   1.336   0.870
 7220SOL     OW22558   6.757   1.709   3.088
 7220SOL    HW122559   6.842   1.682   3.132
 7220SOL    HW222560   6.740   1.807   3.104
 7221SOL     OW22561   6.831   4.143   5.389
 7221SOL    HW122562   6.741   4.186   5.399
 7221SOL    HW222563   6.827   4.074   5.317
 7222SOL     OW22564   6.774   0.191   3.048
 7222SOL    HW122565   6.848   0.128   3.026
 7222SOL    HW222566   6.688   0.142   3.056
 7223SOL     OW22567   4.220   1.185   4.379
 7223SOL    HW122568   4.209   1.164   4.476
 7223SOL    HW222569   4.256   1.105   4.332
 7224SOL     OW22570   5.720   1.520   3.247
 7224SOL    HW122571   5.661   1.601   3.243
 7224SOL    HW222572   5.665   1.440   3.270
 7225SOL     OW22573   2.926   0.087   1.897
 7225SOL    HW122574   2.978   0.112   1.978
 7225SOL    HW222575   2.831   0.115   1.909
 7226SOL     OW22576   6.149   6.267   5.366
 7226SOL    HW122577   6.168   6.328   5.290
 7226SOL    HW222578   6.103   6.185   5.332
 7227SOL     OW22579   0.134   3.177   6.115
 7227SOL    HW122580   0.223   3.173   6.071
 7227SOL    HW222581   0.111   3.273   6.135
 7228SOL     OW22582   1.735   0.444   2.478
 7228SOL    HW122583   1.792   0.520   2.510
 7228SOL    HW222584   1.644   0.452   2.517
 7229SOL     OW22585   6.912   0.398   3.134
 7229SOL    HW122586   6.954   0.373   3.221
 7229SOL    HW222587   6.856   0.322   3.101
 7230SOL     OW22588   6.488   5.142   1.201
 7230SOL    HW122589   6.402   5.182   1.232
 7230SOL    HW222590   6.484   5.126   1.102
 7231SOL     OW22591   5.905   0.738   0.277
 7231SOL    HW122592   5.815   0.726   0.234
 7231SOL    HW222593   5.974   0.687   0.225
 7232SOL     OW22594   3.257   4.035   0.696
 7232SOL    HW122595   3.212   4.050   0.608
 7232SOL    HW222596   3.348   3.995   0.681
 7233SOL     OW22597   1.270   2.344   5.631
 7233SOL    HW122598   1.290   2.269   5.695
 7233SOL    HW222599   1.171   2.356   5.624
 7234SOL     OW22600   5.380   2.672   3.923
 7234SOL    HW122601   5.421   2.600   3.866
 7234SOL    HW222602   5.389   2.760   3.877
 7235SOL     OW22603   6.264   2.748   5.041
 7235SOL    HW122604   6.272   2.762   4.942
 7235SOL    HW222605   6.216   2.826   5.082
 7236SOL     OW22606   0.984   1.768   3.246
 7236SOL    HW122607   1.022   1.785   3.155
 7236SOL    HW222608   1.058   1.768   3.313
 7237SOL     OW22609   5.656   6.113   4.685
 7237SOL    HW122610   5.719   6.059   4.741
 7237SOL    HW222611   5.680   6.103   4.589
 7238SOL     OW22612   1.762   0.047   2.110
 7238SOL    HW122613   1.826   0.061   2.035
 7238SOL    HW222614   1.760   0.129   2.167
 7239SOL     OW22615   4.712   1.816   2.087
 7239SOL    HW122616   4.646   1.761   2.036
 7239SOL    HW222617   4.775   1.859   2.024
 7240SOL     OW22618   3.251   3.651   2.992
 7240SOL    HW122619   3.318   3.654   2.918
 7240SOL    HW222620   3.160   3.669   2.955
 7241SOL     OW22621   4.600   0.017   4.387
 7241SOL    HW122622   4.531   0.089   4.392
 7241SOL    HW222623   4.624   7.014   4.479
 7242SOL     OW22624   6.715   5.805   0.651
 7242SOL    HW122625   6.681   5.717   0.617
 7242SOL    HW222626   6.661   5.879   0.610
 7243SOL     OW22627   0.531   5.855   1.264
 7243SOL    HW122628   0.533   5.849   1.164
 7243SOL    HW222629   0.524   5.763   1.303
 7244SOL     OW22630   5.964   1.963   1.696
 7244SOL    HW122631   5.912   1.906   1.632
 7244SOL    HW222632   6.059   1.969   1.665
 7245SOL     OW22633   5.642   1.742   3.611
 7245SOL    HW122634   5.557   1.736   3.662
 7245SOL    HW222635   5.716   1.771   3.672
 7246SOL     OW22636   1.500   5.630   5.508
 7246SOL    HW122637   1.511   5.579   5.422
 7246SOL    HW222638   1.431   5.701   5.496
 7247SOL     OW22639   4.022   5.827   3.915
 7247SOL    HW122640   4.120   5.807   3.914
 7247SOL    HW222641   3.972   5.751   3.874
 7248SOL     OW22642   3.277   1.265   4.967
 7248SOL    HW122643   3.374   1.285   4.953
 7248SOL    HW222644   3.260   1.169   4.946
 7249SOL     OW22645   4.579   3.346   5.674
 7249SOL    HW122646   4.493   3.309   5.710
 7249SOL    HW222647   4.566   3.441   5.648
 7250SOL     OW22648   3.037   3.167   0.066
 7250SOL    HW122649   2.941   3.151   0.044
 7250SOL    HW222650   3.056   3.135   0.159
 7251SOL     OW22651   5.880   1.402   5.091
 7251SOL    HW122652   5.842   1.433   5.178
 7251SOL    HW222653   5.955   1.339   5.108
 7252SOL     OW22654   4.645   3.344   5.344
 7252SOL    HW122655   4.672   3.406   5.271
 7252SOL    HW222656   4.716   3.276   5.359
 7253SOL     OW22657   5.059   4.991   0.001
 7253SOL    HW122658   5.009   5.065   0.047
 7253SOL    HW222659   5.091   4.925   0.069
 7254SOL     OW22660   4.983   6.569   5.413
 7254SOL    HW122661   4.967   6.656   5.366
 7254SOL    HW222662   5.054   6.517   5.366
 7255SOL     OW22663   3.525   3.172   3.098
 7255SOL    HW122664   3.614   3.195   3.137
 7255SOL    HW222665   3.518   3.213   3.007
 7256SOL     OW22666   2.950   5.589   3.579
 7256SOL    HW122667   3.027   5.578   3.642
 7256SOL    HW222668   2.950   5.513   3.514
 7257SOL     OW22669   6.096   5.329   2.759
 7257SOL    HW122670   6.082   5.288   2.669
 7257SOL    HW222671   6.063   5.424   2.758
 7258SOL     OW22672   2.261   7.017   5.621
 7258SOL    HW122673   2.199   6.970   5.683
 7258SOL    HW222674   2.324   6.951   5.580
 7259SOL     OW22675   3.122   4.062   6.172
 7259SOL    HW122676   3.199   4.019   6.124
 7259SOL    HW222677   3.142   4.066   6.270
 7260SOL     OW22678   4.596   2.455   2.595
 7260SOL    HW122679   4.565   2.512   2.520
 7260SOL    HW222680   4.654   2.508   2.656
 7261SOL     OW22681   2.428   4.789   1.468
 7261SOL    HW122682   2.336   4.824   1.450
 7261SOL    HW222683   2.427   4.735   1.552
 7262SOL     OW22684   6.415   0.717   4.677
 7262SOL    HW122685   6.416   0.629   4.630
 7262SOL    HW222686   6.385   0.704   4.772
 7263SOL     OW22687   5.655   5.329   1.351
 7263SOL    HW122688   5.604   5.382   1.283
 7263SOL    HW222689   5.606   5.244   1.369
 7264SOL     OW22690   0.138   6.615   4.552
 7264SOL    HW122691   0.136   6.714   4.570
 7264SOL    HW222692   0.209   6.596   4.484
 7265SOL     OW22693   4.751   3.106   6.603
 7265SOL    HW122694   4.819   3.034   6.597
 7265SOL    HW222695   4.747   3.140   6.697
 7266SOL     OW22696   4.292   1.470   2.841
 7266SOL    HW122697   4.357   1.472   2.916
 7266SOL    HW222698   4.199   1.461   2.877
 7267SOL     OW22699   5.150   1.696   3.739
 7267SOL    HW122700   5.170   1.666   3.833
 7267SOL    HW222701   5.058   1.734   3.736
 7268SOL     OW22702   4.040   6.799   0.021
 7268SOL    HW122703   4.091   6.876   7.008
 7268SOL    HW222704   4.103   6.740   0.071
 7269SOL     OW22705   1.590   0.074   2.404
 7269SOL    HW122706   1.620   7.014   2.365
 7269SOL    HW222707   1.638   0.149   2.359
 7270SOL     OW22708   3.092   2.463   1.687
 7270SOL    HW122709   3.033   2.442   1.765
 7270SOL    HW222710   3.177   2.504   1.719
 7271SOL     OW22711   5.762   5.170   3.694
 7271SOL    HW122712   5.861   5.157   3.702
 7271SOL    HW222713   5.742   5.213   3.605
 7272SOL     OW22714   6.015   1.494   1.664
 7272SOL    HW122715   6.102   1.456   1.695
 7272SOL    HW222716   6.029   1.587   1.630
 7273SOL     OW22717   6.357   5.269   5.022
 7273SOL    HW122718   6.320   5.198   4.963
 7273SOL    HW222719   6.290   5.343   5.032
 7274SOL     OW22720   5.539   4.998   3.815
 7274SOL    HW122721   5.623   5.018   3.765
 7274SOL    HW222722   5.522   4.899   3.814
 7275SOL     OW22723   5.768   6.768   1.695
 7275SOL    HW122724   5.722   6.780   1.783
 7275SOL    HW222725   5.815   6.680   1.694
 7276SOL     OW22726   3.913   1.787   3.053
 7276SOL    HW122727   3.887   1.703   3.101
 7276SOL    HW222728   3.871   1.865   3.099
 7277SOL     OW22729   5.910   2.294   4.207
 7277SOL    HW122730   5.942   2.280   4.301
 7277SOL    HW222731   5.952   2.378   4.171
 7278SOL     OW22732   3.366   1.055   3.315
 7278SOL    HW122733   3.378   1.153   3.331
 7278SOL    HW222734   3.446   1.019   3.267
 7279SOL     OW22735   3.718   3.784   1.645
 7279SOL    HW122736   3.806   3.803   1.603
 7279SOL    HW222737   3.726   3.707   1.708
 7280SOL     OW22738   6.841   1.361   5.561
 7280SOL    HW122739   6.902   1.440   5.576
 7280SOL    HW222740   6.774   1.357   5.635
 7281SOL     OW22741   3.516   6.866   3.265
 7281SOL    HW122742   3.458   6.839   3.188
 7281SOL    HW222743   3.469   6.937   3.318
 7282SOL     OW22744   0.102   3.853   0.903
 7282SOL    HW122745   0.019   3.899   0.935
 7282SOL    HW222746   0.130   3.784   0.969
 7283SOL     OW22747   2.948   6.130   3.029
 7283SOL    HW122748   2.973   6.204   2.967
 7283SOL    HW222749   2.990   6.044   2.998
 7284SOL     OW22750   0.809   0.509   3.723
 7284SOL    HW122751   0.780   0.414   3.710
 7284SOL    HW222752   0.839   0.522   3.818
 7285SOL     OW22753   5.311   2.772   1.672
 7285SOL    HW122754   5.324   2.858   1.623
 7285SOL    HW222755   5.263   2.707   1.614
 7286SOL     OW22756   6.786   1.192   4.713
 7286SOL    HW122757   6.863   1.199   4.650
 7286SOL    HW222758   6.782   1.099   4.750
 7287SOL     OW22759   3.243   1.932   3.996
 7287SOL    HW122760   3.217   1.848   4.044
 7287SOL    HW222761   3.249   2.007   4.061
 7288SOL     OW22762   3.127   1.984   1.772
 7288SOL    HW122763   3.086   2.000   1.682
 7288SOL    HW222764   3.065   2.015   1.843
 7289SOL     OW22765   6.642   2.389   1.218
 7289SOL    HW122766   6.660   2.452   1.142
 7289SOL    HW222767   6.690   2.420   1.300
 7290SOL     OW22768   3.260   2.036   4.892
 7290SOL    HW122769   3.278   2.075   4.802
 7290SOL    HW222770   3.262   2.108   4.961
 7291SOL     OW22771   1.132   0.890   0.248
 7291SOL    HW122772   1.125   0.966   0.183
 7291SOL    HW222773   1.106   0.921   0.339
 7292SOL     OW22774   3.908   1.347   2.093
 7292SOL    HW122775   3.966   1.281   2.045
 7292SOL    HW222776   3.819   1.353   2.047
 7293SOL     OW22777   6.575   1.278   4.267
 7293SOL    HW122778   6.594   1.322   4.179
 7293SOL    HW222779   6.492   1.222   4.258
 7294SOL     OW22780   2.988   1.114   2.900
 7294SOL    HW122781   2.932   1.173   2.842
 7294SOL    HW222782   2.946   1.105   2.990
 7295SOL     OW22783   5.511   4.115   1.733
 7295SOL    HW122784   5.564   4.146   1.653
 7295SOL    HW222785   5.551   4.030   1.768
 7296SOL     OW22786   2.990   6.996   2.733
 7296SOL    HW122787   2.980   6.904   2.695
 7296SOL    HW222788   3.001   6.991   2.832
 7297SOL     OW22789   4.090   0.324   0.374
 7297SOL    HW122790   4.016   0.270   0.333
 7297SOL    HW222791   4.096   0.302   0.472
 7298SOL     OW22792   3.973   4.466   1.180
 7298SOL    HW122793   4.026   4.518   1.113
 7298SOL    HW222794   3.994   4.368   1.171
 7299SOL     OW22795   6.958   3.099   0.171
 7299SOL    HW122796   6.900   3.019   0.186
 7299SOL    HW222797   6.904   3.174   0.134
 7300SOL     OW22798   0.886   4.218   1.514
 7300SOL    HW122799   0.840   4.302   1.483
 7300SOL    HW222800   0.968   4.202   1.459
 7301SOL     OW22801   4.440   1.527   0.154
 7301SOL    HW122802   4.407   1.499   0.244
 7301SOL    HW222803   4.517   1.591   0.164
 7302SOL     OW22804   5.719   1.634   6.374
 7302SOL    HW122805   5.699   1.541   6.405
 7302SOL    HW222806   5.664   1.655   6.293
 7303SOL     OW22807   3.492   2.148   1.534
 7303SOL    HW122808   3.540   2.219   1.482
 7303SOL    HW222809   3.394   2.167   1.534
 7304SOL     OW22810   2.228   7.007   0.526
 7304SOL    HW122811   2.214   0.040   0.448
 7304SOL    HW222812   2.309   6.951   0.511
 7305SOL     OW22813   0.049   0.165   6.559
 7305SOL    HW122814   0.096   0.109   6.490
 7305SOL    HW222815   0.096   0.155   6.647
 7306SOL     OW22816   1.795   3.774   0.611
 7306SOL    HW122817   1.732   3.844   0.578
 7306SOL    HW222818   1.755   3.726   0.689
 7307SOL     OW22819   4.346   6.530   2.195
 7307SOL    HW122820   4.279   6.459   2.217
 7307SOL    HW222821   4.315   6.617   2.233
 7308SOL     OW22822   3.470   1.821   2.848
 7308SOL    HW122823   3.524   1.774   2.918
 7308SOL    HW222824   3.506   1.798   2.757
 7309SOL     OW22825   2.550   4.840   4.287
 7309SOL    HW122826   2.613   4.820   4.362
 7309SOL    HW222827   2.590   4.809   4.201
 7310SOL     OW22828   3.991   3.285   0.261
 7310SOL    HW122829   3.908   3.340   0.255
 7310SOL    HW222830   3.987   3.210   0.195
 7311SOL     OW22831   1.260   6.618   5.478
 7311SOL    HW122832   1.316   6.696   5.451
 7311SOL    HW222833   1.246   6.619   5.577
 7312SOL     OW22834   6.231   1.994   4.444
 7312SOL    HW122835   6.221   2.093   4.434
 7312SOL    HW222836   6.242   1.971   4.540
 7313SOL     OW22837   3.355   1.319   3.225
 7313SOL    HW122838   3.377   1.278   3.137
 7313SOL    HW222839   3.255   1.321   3.237
 7314SOL     OW22840   2.449   5.850   4.640
 7314SOL    HW122841   2.362   5.888   4.609
 7314SOL    HW222842   2.518   5.922   4.641
 7315SOL     OW22843   2.211   4.737   2.666
 7315SOL    HW122844   2.294   4.791   2.659
 7315SOL    HW222845   2.143   4.772   2.601
 7316SOL     OW22846   3.817   0.802   2.076
 7316SOL    HW122847   3.839   0.841   2.166
 7316SOL    HW222848   3.854   0.709   2.070
 7317SOL     OW22849   6.385   1.808   1.821
 7317SOL    HW122850   6.461   1.873   1.816
 7317SOL    HW222851   6.368   1.785   1.917
 7318SOL     OW22852   4.666   5.853   1.837
 7318SOL    HW122853   4.729   5.930   1.831
 7318SOL    HW222854   4.695   5.780   1.775
 7319SOL     OW22855   4.497   4.831   5.815
 7319SOL    HW122856   4.476   4.814   5.719
 7319SOL    HW222857   4.579   4.780   5.841
 7320SOL     OW22858   1.666   2.962   0.442
 7320SOL    HW122859   1.574   2.991   0.471
 7320SOL    HW222860   1.660   2.915   0.354
 7321SOL     OW22861   2.178   2.207   5.400
 7321SOL    HW122862   2.153   2.304   5.399
 7321SOL    HW222863   2.275   2.198   5.420
 7322SOL     OW22864   2.149   2.056   4.115
 7322SOL    HW122865   2.185   2.145   4.143
 7322SOL    HW222866   2.170   2.039   4.019
 7323SOL     OW22867   2.501   1.658   0.542
 7323SOL    HW122868   2.415   1.667   0.594
 7323SOL    HW222869   2.495   1.578   0.482
 7324SOL     OW22870   5.291   3.790   4.474
 7324SOL    HW122871   5.363   3.725   4.498
 7324SOL    HW222872   5.236   3.809   4.555
 7325SOL     OW22873   3.484   0.516   6.396
 7325SOL    HW122874   3.442   0.441   6.344
 7325SOL    HW222875   3.450   0.513   6.490
 7326SOL     OW22876   3.787   6.328   0.017
 7326SOL    HW122877   3.703   6.274   0.028
 7326SOL    HW222878   3.792   6.365   6.952
 7327SOL     OW22879   1.209   4.594   3.294
 7327SOL    HW122880   1.213   4.673   3.233
 7327SOL    HW222881   1.155   4.617   3.375
 7328SOL     OW22882   4.400   5.248   6.908
 7328SOL    HW122883   4.405   5.151   6.931
 7328SOL    HW222884   4.442   5.302   6.981
 7329SOL     OW22885   2.779   3.830   6.566
 7329SOL    HW122886   2.875   3.835   6.539
 7329SOL    HW222887   2.733   3.915   6.541
 7330SOL     OW22888   2.270   3.550   1.152
 7330SOL    HW122889   2.172   3.534   1.138
 7330SOL    HW222890   2.282   3.618   1.225
 7331SOL     OW22891   5.251   1.136   2.686
 7331SOL    HW122892   5.217   1.167   2.597
 7331SOL    HW222893   5.241   1.210   2.753
 7332SOL     OW22894   2.497   6.973   5.165
 7332SOL    HW122895   2.539   6.887   5.194
 7332SOL    HW222896   2.566   0.005   5.123
 7333SOL     OW22897   6.564   1.149   1.722
 7333SOL    HW122898   6.570   1.144   1.622
 7333SOL    HW222899   6.652   1.179   1.758
 7334SOL     OW22900   1.104   4.994   4.723
 7334SOL    HW122901   1.075   5.043   4.805
 7334SOL    HW222902   1.075   5.044   4.641
 7335SOL     OW22903   0.250   2.946   2.380
 7335SOL    HW122904   0.233   3.045   2.385
 7335SOL    HW222905   0.178   2.903   2.325
 7336SOL     OW22906   2.916   0.076   0.993
 7336SOL    HW122907   2.964   7.027   1.037
 7336SOL    HW222908   2.829   0.092   1.039
 7337SOL     OW22909   3.137   1.734   2.152
 7337SOL    HW122910   3.194   1.762   2.075
 7337SOL    HW222911   3.195   1.702   2.227
 7338SOL     OW22912   5.465   2.860   0.372
 7338SOL    HW122913   5.472   2.932   0.303
 7338SOL    HW222914   5.381   2.874   0.426
 7339SOL     OW22915   6.811   0.159   4.151
 7339SOL    HW122916   6.792   0.256   4.136
 7339SOL    HW222917   6.822   0.142   4.249
 7340SOL     OW22918   3.119   6.508   0.626
 7340SOL    HW122919   3.133   6.605   0.605
 7340SOL    HW222920   3.200   6.471   0.671
 7341SOL     OW22921   6.623   5.485   3.310
 7341SOL    HW122922   6.580   5.420   3.248
 7341SOL    HW222923   6.555   5.553   3.339
 7342SOL     OW22924   0.195   5.233   0.125
 7342SOL    HW122925   0.267   5.165   0.137
 7342SOL    HW222926   0.168   5.270   0.214
 7343SOL     OW22927   0.749   2.432   2.707
 7343SOL    HW122928   0.822   2.419   2.639
 7343SOL    HW222929   0.661   2.407   2.667
 7344SOL     OW22930   2.272   1.130   5.951
 7344SOL    HW122931   2.259   1.161   6.045
 7344SOL    HW222932   2.358   1.079   5.945
 7345SOL     OW22933   1.258   6.932   6.848
 7345SOL    HW122934   1.169   6.887   6.855
 7345SOL    HW222935   1.310   6.918   6.933
 7346SOL     OW22936   3.555   5.193   3.354
 7346SOL    HW122937   3.457   5.209   3.371
 7346SOL    HW222938   3.568   5.099   3.322
 7347SOL     OW22939   5.499   3.144   3.445
 7347SOL    HW122940   5.402   3.145   3.421
 7347SOL    HW222941   5.547   3.076   3.388
 7348SOL     OW22942   5.447   0.153   6.395
 7348SOL    HW122943   5.451   0.054   6.377
 7348SOL    HW222944   5.534   0.183   6.432
 7349SOL     OW22945   3.246   2.212   1.168
 7349SOL    HW122946   3.154   2.251   1.179
 7349SOL    HW222947   3.247   2.120   1.207
 7350SOL     OW22948   1.758   1.765   3.021
 7350SOL    HW122949   1.768   1.666   3.034
 7350SOL    HW222950   1.808   1.813   3.093
 7351SOL     OW22951   5.912   4.802   0.198
 7351SOL    HW122952   5.977   4.745   0.147
 7351SOL    HW222953   5.831   4.817   0.142
 7352SOL     OW22954   6.506   1.325   2.951
 7352SOL    HW122955   6.519   1.330   2.852
 7352SOL    HW222956   6.545   1.406   2.995
 7353SOL     OW22957   5.747   1.752   5.070
 7353SOL    HW122958   5.720   1.755   4.974
 7353SOL    HW222959   5.683   1.805   5.125
 7354SOL     OW22960   5.389   4.382   5.057
 7354SOL    HW122961   5.302   4.417   5.021
 7354SOL    HW222962   5.373   4.334   5.144
 7355SOL     OW22963   0.148   5.528   0.475
 7355SOL    HW122964   0.117   5.434   0.464
 7355SOL    HW222965   0.167   5.567   0.385
 7356SOL     OW22966   0.111   1.823   6.076
 7356SOL    HW122967   0.042   1.848   6.144
 7356SOL    HW222968   0.174   1.899   6.062
 7357SOL     OW22969   0.225   1.377   0.635
 7357SOL    HW122970   0.213   1.380   0.734
 7357SOL    HW222971   0.195   1.288   0.600
 7358SOL     OW22972   3.100   1.064   3.480
 7358SOL    HW122973   3.148   1.104   3.401
 7358SOL    HW222974   3.021   1.121   3.503
 7359SOL     OW22975   3.076   3.587   4.177
 7359SOL    HW122976   3.088   3.588   4.078
 7359SOL    HW222977   3.161   3.556   4.221
 7360SOL     OW22978   1.558   4.334   6.104
 7360SOL    HW122979   1.655   4.315   6.119
 7360SOL    HW222980   1.526   4.401   6.170
 7361SOL     OW22981   4.817   0.064   1.998
 7361SOL    HW122982   4.821   0.019   1.909
 7361SOL    HW222983   4.749   0.018   2.056
 7362SOL     OW22984   1.423   5.135   0.050
 7362SOL    HW122985   1.375   5.220   0.070
 7362SOL    HW222986   1.448   5.090   0.135
 7363SOL     OW22987   4.655   1.847   6.088
 7363SOL    HW122988   4.652   1.882   5.994
 7363SOL    HW222989   4.716   1.904   6.143
 7364SOL     OW22990   5.279   6.986   0.661
 7364SOL    HW122991   5.376   6.967   0.644
 7364SOL    HW222992   5.226   6.959   0.581
 7365SOL     OW22993   5.347   6.899   1.125
 7365SOL    HW122994   5.404   6.934   1.051
 7365SOL    HW222995   5.395   6.908   1.212
 7366SOL     OW22996   2.423   6.813   0.484
 7366SOL    HW122997   2.449   6.818   0.388
 7366SOL    HW222998   2.461   6.731   0.525
 7367SOL     OW22999   4.524   2.880   6.251
 7367SOL    HW123000   4.446   2.908   6.195
 7367SOL    HW223001   4.501   2.797   6.302
 7368SOL     OW23002   3.049   3.081   5.000
 7368SOL    HW123003   2.961   3.043   5.028
 7368SOL    HW223004   3.042   3.181   4.996
 7369SOL     OW23005   6.752   6.801   6.385
 7369SOL    HW123006   6.731   6.795   6.482
 7369SOL    HW223007   6.673   6.838   6.336
 7370SOL     OW23008   0.280   6.015   1.051
 7370SOL    HW123009   0.332   5.953   0.993
 7370SOL    HW223010   0.188   5.978   1.066
 7371SOL     OW23011   2.112   4.762   3.914
 7371SOL    HW123012   2.055   4.839   3.944
 7371SOL    HW223013   2.054   4.685   3.889
 7372SOL     OW23014   2.673   0.302   5.488
 7372SOL    HW123015   2.672   0.211   5.447
 7372SOL    HW223016   2.581   0.326   5.519
 7373SOL     OW23017   3.760   1.408   0.983
 7373SOL    HW123018   3.723   1.408   0.890
 7373SOL    HW223019   3.826   1.482   0.992
 7374SOL     OW23020   2.313   3.613   0.724
 7374SOL    HW123021   2.333   3.670   0.644
 7374SOL    HW223022   2.215   3.619   0.745
 7375SOL     OW23023   2.616   5.615   3.266
 7375SOL    HW123024   2.605   5.678   3.190
 7375SOL    HW223025   2.710   5.581   3.267
 7376SOL     OW23026   3.285   4.112   6.969
 7376SOL    HW123027   3.336   4.034   7.008
 7376SOL    HW223028   3.272   4.181   0.013
 7377SOL     OW23029   5.905   6.023   1.309
 7377SOL    HW123030   5.837   6.092   1.334
 7377SOL    HW223031   5.864   5.958   1.245
 7378SOL     OW23032   0.964   1.774   6.085
 7378SOL    HW123033   1.004   1.706   6.145
 7378SOL    HW223034   0.973   1.865   6.127
 7379SOL     OW23035   4.515   0.470   0.473
 7379SOL    HW123036   4.465   0.442   0.555
 7379SOL    HW223037   4.484   0.560   0.444
 7380SOL     OW23038   0.077   2.767   6.949
 7380SOL    HW123039   0.124   2.779   0.009
 7380SOL    HW223040   0.042   2.673   6.943
 7381SOL     OW23041   5.127   2.671   0.554
 7381SOL    HW123042   5.185   2.731   0.500
 7381SOL    HW223043   5.169   2.656   0.644
 7382SOL     OW23044   1.196   5.405   3.687
 7382SOL    HW123045   1.273   5.355   3.729
 7382SOL    HW223046   1.110   5.372   3.726
 7383SOL     OW23047   1.527   4.821   2.692
 7383SOL    HW123048   1.607   4.880   2.706
 7383SOL    HW223049   1.458   4.872   2.640
 7384SOL     OW23050   6.189   1.637   1.434
 7384SOL    HW123051   6.209   1.735   1.423
 7384SOL    HW223052   6.241   1.602   1.512
 7385SOL     OW23053   5.947   0.562   1.978
 7385SOL    HW123054   6.041   0.573   2.010
 7385SOL    HW223055   5.946   0.506   1.896
 7386SOL     OW23056   6.544   1.645   5.646
 7386SOL    HW123057   6.524   1.714   5.576
 7386SOL    HW223058   6.620   1.676   5.703
 7387SOL     OW23059   4.494   5.843   3.603
 7387SOL    HW123060   4.584   5.809   3.577
 7387SOL    HW223061   4.502   5.936   3.639
 7388SOL     OW23062   5.027   3.488   4.796
 7388SOL    HW123063   4.977   3.405   4.821
 7388SOL    HW223064   4.988   3.566   4.845
 7389SOL     OW23065   1.758   2.977   5.504
 7389SOL    HW123066   1.759   2.896   5.563
 7389SOL    HW223067   1.769   2.949   5.409
 7390SOL     OW23068   4.523   6.609   0.400
 7390SOL    HW123069   4.474   6.522   0.385
 7390SOL    HW223070   4.458   6.679   0.429
 7391SOL     OW23071   6.900   5.123   0.676
 7391SOL    HW123072   6.992   5.160   0.669
 7391SOL    HW223073   6.834   5.191   0.645
 7392SOL     OW23074   1.922   4.448   2.475
 7392SOL    HW123075   1.881   4.521   2.529
 7392SOL    HW223076   1.942   4.369   2.534
 7393SOL     OW23077   0.907   3.580   0.463
 7393SOL    HW123078   0.997   3.559   0.424
 7393SOL    HW223079   0.885   3.513   0.534
 7394SOL     OW23080   2.969   3.452   0.004
 7394SOL    HW123081   2.875   3.453   6.997
 7394SOL    HW223082   2.985   3.367   0.055
 7395SOL     OW23083   2.635   0.450   0.275
 7395SOL    HW123084   2.616   0.390   0.352
 7395SOL    HW223085   2.711   0.413   0.222
 7396SOL     OW23086   6.400   6.834   2.381
 7396SOL    HW123087   6.423   6.763   2.316
 7396SOL    HW223088   6.301   6.836   2.396
 7397SOL     OW23089   6.590   4.298   4.054
 7397SOL    HW123090   6.539   4.384   4.048
 7397SOL    HW223091   6.540   4.234   4.113
 7398SOL     OW23092   4.320   6.530   2.571
 7398SOL    HW123093   4.234   6.480   2.583
 7398SOL    HW223094   4.394   6.466   2.554
 7399SOL     OW23095   4.832   6.003   4.172
 7399SOL    HW123096   4.826   6.040   4.080
 7399SOL    HW223097   4.786   6.065   4.236
 7400SOL     OW23098   2.474   4.466   6.903
 7400SOL    HW123099   2.389   4.443   6.951
 7400SOL    HW223100   2.552   4.445   6.961
 7401SOL     OW23101   6.376   3.009   3.848
 7401SOL    HW123102   6.429   3.015   3.763
 7401SOL    HW223103   6.327   2.922   3.850
 7402SOL     OW23104   1.907   6.412   4.546
 7402SOL    HW123105   1.902   6.449   4.453
 7402SOL    HW223106   1.859   6.474   4.608
 7403SOL     OW23107   2.362   3.239   1.667
 7403SOL    HW123108   2.359   3.312   1.736
 7403SOL    HW223109   2.292   3.170   1.689
 7404SOL     OW23110   1.344   3.060   2.791
 7404SOL    HW123111   1.321   3.064   2.888
 7404SOL    HW223112   1.441   3.079   2.779
 7405SOL     OW23113   3.565   4.419   6.033
 7405SOL    HW123114   3.645   4.477   6.051
 7405SOL    HW223115   3.491   4.446   6.095
 7406SOL     OW23116   6.495   6.179   2.968
 7406SOL    HW123117   6.516   6.226   2.882
 7406SOL    HW223118   6.533   6.087   2.966
 7407SOL     OW23119   3.593   1.267   5.638
 7407SOL    HW123120   3.658   1.332   5.598
 7407SOL    HW223121   3.536   1.314   5.706
 7408SOL     OW23122   1.403   3.626   5.282
 7408SOL    HW123123   1.322   3.667   5.240
 7408SOL    HW223124   1.483   3.647   5.226
 7409SOL     OW23125   2.189   0.134   4.250
 7409SOL    HW123126   2.181   0.225   4.209
 7409SOL    HW223127   2.108   0.080   4.226
 7410SOL     OW23128   4.908   5.856   6.186
 7410SOL    HW123129   4.953   5.945   6.180
 7410SOL    HW223130   4.848   5.844   6.107
 7411SOL     OW23131   5.881   4.024   5.578
 7411SOL    HW123132   5.872   4.110   5.529
 7411SOL    HW223133   5.876   3.948   5.513
 7412SOL     OW23134   1.444   0.794   0.387
 7412SOL    HW123135   1.439   0.712   0.330
 7412SOL    HW223136   1.393   0.868   0.343
 7413SOL     OW23137   6.463   3.660   3.572
 7413SOL    HW123138   6.537   3.593   3.579
 7413SOL    HW223139   6.435   3.690   3.663
 7414SOL     OW23140   0.377   5.976   1.972
 7414SOL    HW123141   0.441   5.979   1.896
 7414SOL    HW223142   0.404   6.043   2.041
 7415SOL     OW23143   3.170   1.482   2.777
 7415SOL    HW123144   3.257   1.438   2.801
 7415SOL    HW223145   3.185   1.580   2.764
 7416SOL     OW23146   6.047   0.139   2.539
 7416SOL    HW123147   6.009   0.047   2.544
 7416SOL    HW223148   6.090   0.163   2.626
 7417SOL     OW23149   0.292   5.117   1.509
 7417SOL    HW123150   0.244   5.199   1.479
 7417SOL    HW223151   0.312   5.060   1.430
 7418SOL     OW23152   2.108   3.769   0.941
 7418SOL    HW123153   2.136   3.833   1.012
 7418SOL    HW223154   2.068   3.687   0.982
 7419SOL     OW23155   6.304   2.233   5.882
 7419SOL    HW123156   6.206   2.226   5.863
 7419SOL    HW223157   6.318   2.284   5.967
 7420SOL     OW23158   0.352   5.514   2.206
 7420SOL    HW123159   0.291   5.516   2.127
 7420SOL    HW223160   0.329   5.588   2.269
 7421SOL     OW23161   4.308   2.479   1.326
 7421SOL    HW123162   4.274   2.406   1.386
 7421SOL    HW223163   4.343   2.439   1.241
 7422SOL     OW23164   1.306   2.479   0.734
 7422SOL    HW123165   1.401   2.449   0.733
 7422SOL    HW223166   1.246   2.400   0.726
 7423SOL     OW23167   3.109   4.012   0.443
 7423SOL    HW123168   3.066   3.922   0.441
 7423SOL    HW223169   3.049   4.079   0.398
 7424SOL     OW23170   4.941   0.664   3.853
 7424SOL    HW123171   4.888   0.585   3.884
 7424SOL    HW223172   5.023   0.674   3.910
 7425SOL     OW23173   3.214   0.473   4.821
 7425SOL    HW123174   3.174   0.557   4.785
 7425SOL    HW223175   3.272   0.431   4.752
 7426SOL     OW23176   0.348   0.631   6.371
 7426SOL    HW123177   0.343   0.667   6.278
 7426SOL    HW223178   0.258   0.634   6.413
 7427SOL     OW23179   5.655   5.181   5.768
 7427SOL    HW123180   5.717   5.168   5.691
 7427SOL    HW223181   5.615   5.273   5.764
 7428SOL     OW23182   5.054   1.372   5.379
 7428SOL    HW123183   4.984   1.348   5.312
 7428SOL    HW223184   5.070   1.294   5.439
 7429SOL     OW23185   6.176   6.233   3.979
 7429SOL    HW123186   6.090   6.268   3.941
 7429SOL    HW223187   6.200   6.286   4.061
 7430SOL     OW23188   0.648   3.975   4.387
 7430SOL    HW123189   0.616   3.995   4.294
 7430SOL    HW223190   0.747   3.964   4.386
 7431SOL     OW23191   6.954   4.171   2.744
 7431SOL    HW123192   0.005   4.132   2.793
 7431SOL    HW223193   6.960   4.146   2.647
 7432SOL     OW23194   2.029   5.977   5.891
 7432SOL    HW123195   1.941   5.936   5.915
 7432SOL    HW223196   2.042   5.973   5.792
 7433SOL     OW23197   0.627   6.965   0.773
 7433SOL    HW123198   0.672   0.017   0.731
 7433SOL    HW223199   0.551   6.996   0.829
 7434SOL     OW23200   4.372   0.024   0.451
 7434SOL    HW123201   4.361   0.050   0.355
 7434SOL    HW223202   4.469   0.023   0.474
 7435SOL     OW23203   1.131   4.881   0.046
 7435SOL    HW123204   1.102   4.789   0.074
 7435SOL    HW223205   1.188   4.875   6.991
 7436SOL     OW23206   5.317   3.704   6.802
 7436SOL    HW123207   5.314   3.632   6.871
 7436SOL    HW223208   5.411   3.733   6.789
 7437SOL     OW23209   0.138   6.107   5.557
 7437SOL    HW123210   0.144   6.088   5.655
 7437SOL    HW223211   0.072   6.181   5.541
 7438SOL     OW23212   5.329   4.019   0.501
 7438SOL    HW123213   5.419   4.059   0.485
 7438SOL    HW223214   5.261   4.092   0.508
 7439SOL     OW23215   0.979   6.506   3.123
 7439SOL    HW123216   1.033   6.457   3.054
 7439SOL    HW223217   1.022   6.494   3.213
 7440SOL     OW23218   0.735   1.112   4.456
 7440SOL    HW123219   0.661   1.113   4.389
 7440SOL    HW223220   0.808   1.050   4.425
 7441SOL     OW23221   6.459   0.463   4.208
 7441SOL    HW123222   6.423   0.404   4.280
 7441SOL    HW223223   6.394   0.466   4.132
 7442SOL     OW23224   1.709   0.940   6.950
 7442SOL    HW123225   1.657   0.970   0.003
 7442SOL    HW223226   1.695   1.005   6.875
 7443SOL     OW23227   6.939   1.799   1.869
 7443SOL    HW123228   6.877   1.877   1.865
 7443SOL    HW223229   6.911   1.730   1.802
 7444SOL     OW23230   1.511   2.510   5.733
 7444SOL    HW123231   1.448   2.545   5.664
 7444SOL    HW223232   1.587   2.462   5.689
 7445SOL     OW23233   5.761   3.008   1.850
 7445SOL    HW123234   5.831   3.076   1.869
 7445SOL    HW223235   5.758   2.941   1.925
 7446SOL     OW23236   4.829   4.092   2.807
 7446SOL    HW123237   4.774   4.162   2.761
 7446SOL    HW223238   4.804   4.088   2.904
 7447SOL     OW23239   1.455   3.885   6.334
 7447SOL    HW123240   1.441   3.846   6.426
 7447SOL    HW223241   1.536   3.944   6.336
 7448SOL     OW23242   0.489   1.362   5.882
 7448SOL    HW123243   0.572   1.306   5.888
 7448SOL    HW223244   0.490   1.430   5.955
 7449SOL     OW23245   3.430   0.669   3.107
 7449SOL    HW123246   3.440   0.653   3.009
 7449SOL    HW223247   3.372   0.598   3.147
 7450SOL     OW23248   3.908   1.876   1.765
 7450SOL    HW123249   3.868   1.829   1.844
 7450SOL    HW223250   3.900   1.975   1.779
 7451SOL     OW23251   1.245   0.806   1.982
 7451SOL    HW123252   1.274   0.792   2.076
 7451SOL    HW223253   1.208   0.898   1.972
 7452SOL     OW23254   1.911   5.850   3.078
 7452SOL    HW123255   1.915   5.831   2.979
 7452SOL    HW223256   1.841   5.920   3.095
 7453SOL     OW23257   6.508   4.586   4.776
 7453SOL    HW123258   6.593   4.613   4.731
 7453SOL    HW223259   6.485   4.492   4.752
 7454SOL     OW23260   2.919   1.973   6.946
 7454SOL    HW123261   2.995   1.949   6.886
 7454SOL    HW223262   2.851   1.899   6.945
 7455SOL     OW23263   4.631   6.804   0.871
 7455SOL    HW123264   4.657   6.721   0.821
 7455SOL    HW223265   4.710   6.864   0.880
 7456SOL     OW23266   1.320   3.600   5.680
 7456SOL    HW123267   1.314   3.689   5.635
 7456SOL    HW223268   1.362   3.534   5.618
 7457SOL     OW23269   0.202   6.142   6.030
 7457SOL    HW123270   0.286   6.197   6.031
 7457SOL    HW223271   0.215   6.063   5.970
 7458SOL     OW23272   2.828   0.231   1.622
 7458SOL    HW123273   2.898   0.171   1.659
 7458SOL    HW223274   2.783   0.186   1.544
 7459SOL     OW23275   3.900   5.934   3.599
 7459SOL    HW123276   3.838   5.869   3.555
 7459SOL    HW223277   3.995   5.905   3.586
 7460SOL     OW23278   0.774   5.405   6.527
 7460SOL    HW123279   0.708   5.447   6.589
 7460SOL    HW223280   0.799   5.470   6.455
 7461SOL     OW23281   3.931   1.379   3.433
 7461SOL    HW123282   3.956   1.383   3.530
 7461SOL    HW223283   3.948   1.467   3.390
 7462SOL     OW23284   1.789   1.283   3.853
 7462SOL    HW123285   1.877   1.286   3.900
 7462SOL    HW223286   1.775   1.192   3.813
 7463SOL     OW23287   4.008   3.848   2.662
 7463SOL    HW123288   4.090   3.904   2.675
 7463SOL    HW223289   4.035   3.761   2.620
 7464SOL     OW23290   4.303   5.653   0.268
 7464SOL    HW123291   4.243   5.591   0.320
 7464SOL    HW223292   4.392   5.658   0.313
 7465SOL     OW23293   3.692   1.471   2.883
 7465SOL    HW123294   3.749   1.411   2.940
 7465SOL    HW223295   3.723   1.467   2.788
 7466SOL     OW23296   6.434   0.116   0.589
 7466SOL    HW123297   6.442   0.102   0.687
 7466SOL    HW223298   6.510   0.173   0.557
 7467SOL     OW23299   4.795   2.721   0.848
 7467SOL    HW123300   4.870   2.679   0.899
 7467SOL    HW223301   4.821   2.814   0.820
 7468SOL     OW23302   5.514   4.562   4.736
 7468SOL    HW123303   5.416   4.557   4.717
 7468SOL    HW223304   5.559   4.478   4.705
 7469SOL     OW23305   5.771   1.831   1.521
 7469SOL    HW123306   5.710   1.867   1.591
 7469SOL    HW223307   5.780   1.732   1.532
 7470SOL     OW23308   0.230   3.418   3.330
 7470SOL    HW123309   0.262   3.421   3.425
 7470SOL    HW223310   0.277   3.489   3.277
 7471SOL     OW23311   6.546   4.513   5.606
 7471SOL    HW123312   6.484   4.455   5.659
 7471SOL    HW223313   6.572   4.466   5.522
 7472SOL     OW23314   4.188   5.514   3.261
 7472SOL    HW123315   4.100   5.468   3.272
 7472SOL    HW223316   4.246   5.460   3.200
 7473SOL     OW23317   1.536   2.656   6.588
 7473SOL    HW123318   1.609   2.597   6.624
 7473SOL    HW223319   1.451   2.604   6.581
 7474SOL     OW23320   2.863   1.013   2.082
 7474SOL    HW123321   2.787   1.076   2.066
 7474SOL    HW223322   2.902   1.030   2.172
 7475SOL     OW23323   5.140   0.663   5.985
 7475SOL    HW123324   5.083   0.741   5.958
 7475SOL    HW223325   5.232   0.674   5.947
 7476SOL     OW23326   1.942   6.815   4.613
 7476SOL    HW123327   1.912   6.771   4.698
 7476SOL    HW223328   2.042   6.816   4.609
 7477SOL     OW23329   4.604   4.493   4.480
 7477SOL    HW123330   4.512   4.506   4.441
 7477SOL    HW223331   4.668   4.472   4.407
 7478SOL     OW23332   0.176   4.463   1.411
 7478SOL    HW123333   0.083   4.465   1.375
 7478SOL    HW223334   0.176   4.421   1.501
 7479SOL     OW23335   3.842   0.638   5.005
 7479SOL    HW123336   3.897   0.709   5.048
 7479SOL    HW223337   3.786   0.592   5.074
 7480SOL     OW23338   5.763   5.203   0.087
 7480SOL    HW123339   5.701   5.164   0.155
 7480SOL    HW223340   5.855   5.166   0.099
 7481SOL     OW23341   6.091   6.476   0.334
 7481SOL    HW123342   6.024   6.548   0.348
 7481SOL    HW223343   6.109   6.465   0.236
 7482SOL     OW23344   4.569   0.277   4.941
 7482SOL    HW123345   4.554   0.349   4.873
 7482SOL    HW223346   4.614   0.199   4.898
 7483SOL     OW23347   3.387   6.952   6.824
 7483SOL    HW123348   3.373   6.854   6.805
 7483SOL    HW223349   3.376   7.004   6.739
 7484SOL     OW23350   3.683   6.777   1.027
 7484SOL    HW123351   3.747   6.795   0.952
 7484SOL    HW223352   3.656   6.864   1.069
 7485SOL     OW23353   0.706   6.618   5.280
 7485SOL    HW123354   0.701   6.632   5.379
 7485SOL    HW223355   0.663   6.695   5.233
 7486SOL     OW23356   1.399   1.989   5.237
 7486SOL    HW123357   1.364   2.018   5.326
 7486SOL    HW223358   1.375   1.893   5.223
 7487SOL     OW23359   3.361   5.265   2.866
 7487SOL    HW123360   3.298   5.221   2.931
 7487SOL    HW223361   3.437   5.306   2.916
 7488SOL     OW23362   4.540   1.334   4.910
 7488SOL    HW123363   4.556   1.384   4.994
 7488SOL    HW223364   4.443   1.341   4.884
 7489SOL     OW23365   0.615   3.104   3.374
 7489SOL    HW123366   0.627   3.013   3.335
 7489SOL    HW223367   0.517   3.125   3.380
 7490SOL     OW23368   5.685   6.725   2.792
 7490SOL    HW123369   5.590   6.700   2.777
 7490SOL    HW223370   5.707   6.809   2.741
 7491SOL     OW23371   0.701   6.826   1.009
 7491SOL    HW123372   0.667   6.732   1.007
 7491SOL    HW223373   0.679   6.873   0.924
 7492SOL     OW23374   2.012   1.654   2.712
 7492SOL    HW123375   2.073   1.644   2.791
 7492SOL    HW223376   2.065   1.647   2.628
 7493SOL     OW23377   5.550   4.628   6.738
 7493SOL    HW123378   5.559   4.725   6.760
 7493SOL    HW223379   5.629   4.578   6.773
 7494SOL     OW23380   4.953   2.015   1.021
 7494SOL    HW123381   4.971   2.002   1.119
 7494SOL    HW223382   4.920   1.930   0.981
 7495SOL     OW23383   1.447   1.708   3.409
 7495SOL    HW123384   1.478   1.624   3.455
 7495SOL    HW223385   1.526   1.769   3.397
 7496SOL     OW23386   0.883   5.173   6.144
 7496SOL    HW123387   0.892   5.216   6.054
 7496SOL    HW223388   0.952   5.211   6.206
 7497SOL     OW23389   1.357   4.968   2.967
 7497SOL    HW123390   1.450   4.934   2.951
 7497SOL    HW223391   1.296   4.932   2.897
 7498SOL     OW23392   5.515   1.872   4.369
 7498SOL    HW123393   5.457   1.812   4.314
 7498SOL    HW223394   5.611   1.856   4.348
 7499SOL     OW23395   3.784   4.951   3.651
 7499SOL    HW123396   3.864   4.933   3.594
 7499SOL    HW223397   3.798   4.912   3.742
 7500SOL     OW23398   4.956   3.867   1.565
 7500SOL    HW123399   4.988   3.888   1.473
 7500SOL    HW223400   5.034   3.848   1.624
 7501SOL     OW23401   0.827   4.138   3.532
 7501SOL    HW123402   0.916   4.172   3.502
 7501SOL    HW223403   0.804   4.177   3.621
 7502SOL     OW23404   1.496   1.963   3.738
 7502SOL    HW123405   1.520   2.057   3.712
 7502SOL    HW223406   1.448   1.964   3.825
 7503SOL     OW23407   2.481   1.662   0.145
 7503SOL    HW123408   2.448   1.687   0.236
 7503SOL    HW223409   2.494   1.746   0.091
 7504SOL     OW23410   5.127   5.569   5.204
 7504SOL    HW123411   5.054   5.577   5.272
 7504SOL    HW223412   5.088   5.539   5.117
 7505SOL     OW23413   1.681   1.905   3.425
 7505SOL    HW123414   1.683   2.004   3.438
 7505SOL    HW223415   1.721   1.860   3.505
 7506SOL     OW23416   3.610   0.872   3.246
 7506SOL    HW123417   3.684   0.808   3.269
 7506SOL    HW223418   3.542   0.826   3.189
 7507SOL     OW23419   1.496   0.105   5.262
 7507SOL    HW123420   1.444   0.048   5.198
 7507SOL    HW223421   1.474   0.201   5.245
 7508SOL     OW23422   5.369   5.995   3.308
 7508SOL    HW123423   5.404   5.941   3.232
 7508SOL    HW223424   5.275   6.024   3.288
 7509SOL     OW23425   3.653   4.142   5.967
 7509SOL    HW123426   3.570   4.094   5.939
 7509SOL    HW223427   3.637   4.240   5.966
 7510SOL     OW23428   3.966   3.104   4.799
 7510SOL    HW123429   3.898   3.032   4.785
 7510SOL    HW223430   3.998   3.136   4.710
 7511SOL     OW23431   1.302   1.471   2.543
 7511SOL    HW123432   1.302   1.404   2.618
 7511SOL    HW223433   1.307   1.563   2.581
 7512SOL     OW23434   2.415   2.675   2.346
 7512SOL    HW123435   2.408   2.706   2.441
 7512SOL    HW223436   2.508   2.688   2.313
 7513SOL     OW23437   2.216   2.919   6.458
 7513SOL    HW123438   2.241   3.009   6.492
 7513SOL    HW223439   2.186   2.861   6.534
 7514SOL     OW23440   3.202   5.194   3.307
 7514SOL    HW123441   3.146   5.112   3.321
 7514SOL    HW223442   3.253   5.214   3.391
 7515SOL     OW23443   0.359   4.970   3.246
 7515SOL    HW123444   0.432   5.037   3.256
 7515SOL    HW223445   0.270   5.015   3.256
 7516SOL     OW23446   1.869   3.156   1.167
 7516SOL    HW123447   1.773   3.129   1.159
 7516SOL    HW223448   1.927   3.076   1.152
 7517SOL     OW23449   1.461   5.253   2.391
 7517SOL    HW123450   1.491   5.252   2.486
 7517SOL    HW223451   1.450   5.348   2.361
 7518SOL     OW23452   4.881   3.897   2.598
 7518SOL    HW123453   4.864   3.946   2.512
 7518SOL    HW223454   4.860   3.956   2.675
 7519SOL     OW23455   1.965   7.020   4.885
 7519SOL    HW123456   1.961   0.063   4.814
 7519SOL    HW223457   1.891   0.009   4.951
 7520SOL     OW23458   1.948   0.015   4.212
 7520SOL    HW123459   1.874   0.010   4.146
 7520SOL    HW223460   2.018   6.975   4.188
 7521SOL     OW23461   4.614   3.020   5.800
 7521SOL    HW123462   4.586   3.007   5.705
 7521SOL    HW223463   4.555   3.088   5.844
 7522SOL     OW23464   2.089   6.668   2.794
 7522SOL    HW123465   2.062   6.761   2.769
 7522SOL    HW223466   2.121   6.667   2.889
 7523SOL     OW23467   6.984   6.470   6.960
 7523SOL    HW123468   7.015   6.481   0.028
 7523SOL    HW223469   6.930   6.550   6.934
 7524SOL     OW23470   6.468   1.266   5.048
 7524SOL    HW123471   6.509   1.269   4.956
 7524SOL    HW223472   6.448   1.359   5.078
 7525SOL     OW23473   0.972   0.427   0.866
 7525SOL    HW123474   0.954   0.486   0.944
 7525SOL    HW223475   0.887   0.412   0.815
 7526SOL     OW23476   3.883   3.014   5.694
 7526SOL    HW123477   3.939   2.950   5.747
 7526SOL    HW223478   3.943   3.070   5.636
 7527SOL     OW23479   3.131   6.163   1.750
 7527SOL    HW123480   3.096   6.116   1.831
 7527SOL    HW223481   3.064   6.157   1.676
 7528SOL     OW23482   6.158   3.177   0.194
 7528SOL    HW123483   6.099   3.241   0.145
 7528SOL    HW223484   6.194   3.109   0.130
 7529SOL     OW23485   1.710   6.804   4.221
 7529SOL    HW123486   1.624   6.755   4.207
 7529SOL    HW223487   1.704   6.894   4.178
 7530SOL     OW23488   0.050   3.138   2.700
 7530SOL    HW123489   7.023   3.114   2.781
 7530SOL    HW223490   0.003   3.208   2.648
 7531SOL     OW23491   1.892   1.797   3.896
 7531SOL    HW123492   1.957   1.873   3.897
 7531SOL    HW223493   1.932   1.719   3.944
 7532SOL     OW23494   4.744   4.475   2.116
 7532SOL    HW123495   4.798   4.488   2.033
 7532SOL    HW223496   4.681   4.398   2.104
 7533SOL     OW23497   3.306   0.761   4.966
 7533SOL    HW123498   3.373   0.697   5.002
 7533SOL    HW223499   3.325   0.780   4.870
 7534SOL     OW23500   3.735   6.592   3.890
 7534SOL    HW123501   3.718   6.675   3.837
 7534SOL    HW223502   3.834   6.580   3.902
 7535SOL     OW23503   2.824   5.167   0.039
 7535SOL    HW123504   2.778   5.168   0.127
 7535SOL    HW223505   2.840   5.261   0.008
 7536SOL     OW23506   4.628   5.375   6.287
 7536SOL    HW123507   4.639   5.310   6.212
 7536SOL    HW223508   4.540   5.422   6.278
 7537SOL     OW23509   2.400   4.623   5.013
 7537SOL    HW123510   2.301   4.629   5.020
 7537SOL    HW223511   2.442   4.696   5.067
 7538SOL     OW23512   3.591   3.957   5.309
 7538SOL    HW123513   3.637   3.869   5.324
 7538SOL    HW223514   3.495   3.949   5.335
 7539SOL     OW23515   0.648   2.261   4.779
 7539SOL    HW123516   0.561   2.266   4.731
 7539SOL    HW223517   0.683   2.168   4.776
 7540SOL     OW23518   2.721   0.636   0.441
 7540SOL    HW123519   2.689   0.566   0.377
 7540SOL    HW223520   2.758   0.714   0.390
 7541SOL     OW23521   0.034   2.567   5.843
 7541SOL    HW123522   0.052   2.551   5.746
 7541SOL    HW223523   0.110   2.531   5.898
 7542SOL     OW23524   1.382   0.163   4.844
 7542SOL    HW123525   1.426   0.239   4.797
 7542SOL    HW223526   1.399   0.170   4.942
 7543SOL     OW23527   2.473   2.487   1.216
 7543SOL    HW123528   2.441   2.571   1.171
 7543SOL    HW223529   2.501   2.421   1.146
 7544SOL     OW23530   1.193   2.102   2.355
 7544SOL    HW123531   1.252   2.057   2.288
 7544SOL    HW223532   1.224   2.196   2.368
 7545SOL     OW23533   4.674   0.452   3.333
 7545SOL    HW123534   4.758   0.437   3.282
 7545SOL    HW223535   4.613   0.511   3.280
 7546SOL     OW23536   5.562   0.234   5.556
 7546SOL    HW123537   5.469   0.271   5.551
 7546SOL    HW223538   5.564   0.143   5.513
 7547SOL     OW23539   2.457   6.885   0.222
 7547SOL    HW123540   2.405   6.933   0.151
 7547SOL    HW223541   2.550   6.866   0.189
 7548SOL     OW23542   2.188   3.924   1.137
 7548SOL    HW123543   2.212   3.872   1.219
 7548SOL    HW223544   2.264   3.985   1.113
 7549SOL     OW23545   5.877   0.364   2.536
 7549SOL    HW123546   5.905   0.443   2.592
 7549SOL    HW223547   5.942   0.289   2.551
 7550SOL     OW23548   0.939   5.325   1.083
 7550SOL    HW123549   0.950   5.315   1.182
 7550SOL    HW223550   0.905   5.417   1.062
 7551SOL     OW23551   5.103   3.868   6.057
 7551SOL    HW123552   5.142   3.784   6.021
 7551SOL    HW223553   5.123   3.876   6.154
 7552SOL     OW23554   3.659   5.994   3.829
 7552SOL    HW123555   3.589   5.936   3.870
 7552SOL    HW223556   3.653   5.989   3.729
 7553SOL     OW23557   4.397   3.847   6.147
 7553SOL    HW123558   4.447   3.921   6.100
 7553SOL    HW223559   4.314   3.885   6.188
 7554SOL     OW23560   0.264   1.691   1.089
 7554SOL    HW123561   0.332   1.620   1.067
 7554SOL    HW223562   0.290   1.737   1.173
 7555SOL     OW23563   1.670   6.567   5.768
 7555SOL    HW123564   1.603   6.551   5.840
 7555SOL    HW223565   1.707   6.659   5.776
 7556SOL     OW23566   6.822   3.660   2.874
 7556SOL    HW123567   6.760   3.736   2.851
 7556SOL    HW223568   6.784   3.609   2.952
 7557SOL     OW23569   4.168   4.063   0.631
 7557SOL    HW123570   4.075   4.033   0.653
 7557SOL    HW223571   4.218   3.987   0.590
 7558SOL     OW23572   1.672   3.487   3.663
 7558SOL    HW123573   1.665   3.407   3.604
 7558SOL    HW223574   1.588   3.497   3.715
 7559SOL     OW23575   1.050   4.201   6.928
 7559SOL    HW123576   1.072   4.136   7.000
 7559SOL    HW223577   0.952   4.199   6.910
 7560SOL     OW23578   4.748   0.388   5.698
 7560SOL    HW123579   4.685   0.378   5.775
 7560SOL    HW223580   4.738   0.480   5.659
 7561SOL     OW23581   0.829   3.251   6.818
 7561SOL    HW123582   0.906   3.290   6.868
 7561SOL    HW223583   0.755   3.318   6.813
 7562SOL     OW23584   4.477   6.149   5.220
 7562SOL    HW123585   4.539   6.187   5.151
 7562SOL    HW223586   4.433   6.067   5.184
 7563SOL     OW23587   2.102   1.449   3.558
 7563SOL    HW123588   2.022   1.391   3.578
 7563SOL    HW223589   2.162   1.451   3.638
 7564SOL     OW23590   6.173   5.393   4.047
 7564SOL    HW123591   6.255   5.410   4.102
 7564SOL    HW223592   6.099   5.451   4.081
 7565SOL     OW23593   5.200   5.113   6.588
 7565SOL    HW123594   5.212   5.184   6.657
 7565SOL    HW223595   5.232   5.147   6.500
 7566SOL     OW23596   1.900   5.414   4.142
 7566SOL    HW123597   1.811   5.442   4.104
 7566SOL    HW223598   1.898   5.316   4.162
 7567SOL     OW23599   2.704   3.582   0.130
 7567SOL    HW123600   2.747   3.542   0.212
 7567SOL    HW223601   2.682   3.508   0.066
 7568SOL     OW23602   4.175   4.710   3.555
 7568SOL    HW123603   4.141   4.752   3.639
 7568SOL    HW223604   4.266   4.671   3.571
 7569SOL     OW23605   3.842   0.122   2.632
 7569SOL    HW123606   3.857   0.133   2.533
 7569SOL    HW223607   3.766   0.059   2.647
 7570SOL     OW23608   5.944   4.716   5.274
 7570SOL    HW123609   5.891   4.685   5.352
 7570SOL    HW223610   5.883   4.737   5.198
 7571SOL     OW23611   6.702   3.916   0.033
 7571SOL    HW123612   6.800   3.931   0.043
 7571SOL    HW223613   6.652   3.977   0.094
 7572SOL     OW23614   6.451   1.589   3.512
 7572SOL    HW123615   6.389   1.539   3.451
 7572SOL    HW223616   6.396   1.644   3.575
 7573SOL     OW23617   3.317   5.358   3.858
 7573SOL    HW123618   3.348   5.366   3.953
 7573SOL    HW223619   3.391   5.387   3.797
 7574SOL     OW23620   4.126   5.837   1.663
 7574SOL    HW123621   4.162   5.915   1.612
 7574SOL    HW223622   4.076   5.871   1.743
 7575SOL     OW23623   4.738   2.902   4.355
 7575SOL    HW123624   4.659   2.841   4.349
 7575SOL    HW223625   4.784   2.889   4.443
 7576SOL     OW23626   0.275   4.111   1.642
 7576SOL    HW123627   0.188   4.098   1.690
 7576SOL    HW223628   0.351   4.093   1.704
 7577SOL     OW23629   4.075   1.414   4.378
 7577SOL    HW123630   4.014   1.350   4.426
 7577SOL    HW223631   4.159   1.367   4.353
 7578SOL     OW23632   2.365   5.438   5.145
 7578SOL    HW123633   2.391   5.518   5.199
 7578SOL    HW223634   2.427   5.362   5.166
 7579SOL     OW23635   4.636   1.918   4.356
 7579SOL    HW123636   4.654   1.956   4.265
 7579SOL    HW223637   4.538   1.904   4.367
 7580SOL     OW23638   2.106   3.349   2.179
 7580SOL    HW123639   2.174   3.380   2.113
 7580SOL    HW223640   2.018   3.336   2.133
 7581SOL     OW23641   5.950   1.022   0.875
 7581SOL    HW123642   6.002   1.057   0.953
 7581SOL    HW223643   5.854   1.013   0.902
 7582SOL     OW23644   4.143   2.787   1.347
 7582SOL    HW123645   4.221   2.743   1.394
 7582SOL    HW223646   4.058   2.755   1.388
 7583SOL     OW23647   6.768   4.274   2.933
 7583SOL    HW123648   6.797   4.231   2.847
 7583SOL    HW223649   6.783   4.210   3.008
 7584SOL     OW23650   2.087   2.011   1.694
 7584SOL    HW123651   2.142   2.084   1.737
 7584SOL    HW223652   2.147   1.951   1.642
 7585SOL     OW23653   2.597   4.334   0.541
 7585SOL    HW123654   2.521   4.274   0.514
 7585SOL    HW223655   2.667   4.332   0.469
 7586SOL     OW23656   1.795   2.280   3.725
 7586SOL    HW123657   1.823   2.364   3.771
 7586SOL    HW223658   1.696   2.283   3.709
 7587SOL     OW23659   2.463   1.321   5.545
 7587SOL    HW123660   2.391   1.253   5.559
 7587SOL    HW223661   2.441   1.375   5.463
 7588SOL     OW23662   0.545   4.622   2.163
 7588SOL    HW123663   0.506   4.685   2.095
 7588SOL    HW223664   0.527   4.528   2.136
 7589SOL     OW23665   4.971   5.316   6.264
 7589SOL    HW123666   4.902   5.364   6.211
 7589SOL    HW223667   5.055   5.307   6.209
 7590SOL     OW23668   1.914   0.715   5.295
 7590SOL    HW123669   1.960   0.638   5.340
 7590SOL    HW223670   1.839   0.747   5.353
 7591SOL     OW23671   6.549   6.087   6.789
 7591SOL    HW123672   6.499   6.095   6.702
 7591SOL    HW223673   6.523   6.002   6.835
 7592SOL     OW23674   4.390   4.566   5.939
 7592SOL    HW123675   4.304   4.570   5.888
 7592SOL    HW223676   4.426   4.658   5.952
 7593SOL     OW23677   6.486   4.557   0.168
 7593SOL    HW123678   6.511   4.638   0.222
 7593SOL    HW223679   6.515   4.475   0.217
 7594SOL     OW23680   0.887   6.805   3.975
 7594SOL    HW123681   0.859   6.749   4.053
 7594SOL    HW223682   0.839   6.775   3.893
 7595SOL     OW23683   6.833   3.490   6.909
 7595SOL    HW123684   6.821   3.588   6.895
 7595SOL    HW223685   6.846   3.445   6.821
 7596SOL     OW23686   4.885   5.695   2.320
 7596SOL    HW123687   4.876   5.607   2.367
 7596SOL    HW223688   4.799   5.719   2.276
 7597SOL     OW23689   2.407   4.883   1.847
 7597SOL    HW123690   2.479   4.890   1.916
 7597SOL    HW223691   2.411   4.963   1.786
 7598SOL     OW23692   6.020   0.819   2.822
 7598SOL    HW123693   5.999   0.915   2.844
 7598SOL    HW223694   6.119   0.810   2.812
 7599SOL     OW23695   5.339   3.401   2.295
 7599SOL    HW123696   5.425   3.445   2.268
 7599SOL    HW223697   5.262   3.459   2.269
 7600SOL     OW23698   2.370   2.539   2.604
 7600SOL    HW123699   2.419   2.532   2.691
 7600SOL    HW223700   2.433   2.517   2.529
 7601SOL     OW23701   1.452   0.363   5.177
 7601SOL    HW123702   1.473   0.455   5.209
 7601SOL    HW223703   1.519   0.336   5.108
 7602SOL     OW23704   2.113   2.989   5.246
 7602SOL    HW123705   2.155   2.902   5.219
 7602SOL    HW223706   2.150   3.063   5.189
 7603SOL     OW23707   6.846   1.471   1.939
 7603SOL    HW123708   6.806   1.543   1.883
 7603SOL    HW223709   6.940   1.453   1.909
 7604SOL     OW23710   5.581   5.621   6.531
 7604SOL    HW123711   5.508   5.554   6.540
 7604SOL    HW223712   5.640   5.596   6.454
 7605SOL     OW23713   5.957   3.194   6.071
 7605SOL    HW123714   5.867   3.188   6.115
 7605SOL    HW223715   6.022   3.134   6.118
 7606SOL     OW23716   5.598   1.189   3.551
 7606SOL    HW123717   5.558   1.205   3.461
 7606SOL    HW223718   5.663   1.261   3.572
 7607SOL     OW23719   5.176   6.615   5.604
 7607SOL    HW123720   5.102   6.605   5.536
 7607SOL    HW223721   5.151   6.686   5.670
 7608SOL     OW23722   3.706   3.565   4.960
 7608SOL    HW123723   3.738   3.601   4.872
 7608SOL    HW223724   3.748   3.617   5.034
 7609SOL     OW23725   1.207   2.757   3.143
 7609SOL    HW123726   1.244   2.841   3.184
 7609SOL    HW223727   1.135   2.721   3.202
 7610SOL     OW23728   5.383   0.591   2.157
 7610SOL    HW123729   5.387   0.656   2.233
 7610SOL    HW223730   5.415   0.634   2.073
 7611SOL     OW23731   1.753   1.728   1.352
 7611SOL    HW123732   1.681   1.792   1.382
 7611SOL    HW223733   1.832   1.780   1.321
 7612SOL     OW23734   4.585   1.725   2.746
 7612SOL    HW123735   4.608   1.627   2.746
 7612SOL    HW223736   4.504   1.740   2.804
 7613SOL     OW23737   6.425   0.850   2.258
 7613SOL    HW123738   6.469   0.903   2.330
 7613SOL    HW223739   6.422   0.753   2.285
 7614SOL     OW23740   4.709   0.951   0.809
 7614SOL    HW123741   4.776   1.024   0.802
 7614SOL    HW223742   4.669   0.934   0.718
 7615SOL     OW23743   3.388   5.041   5.202
 7615SOL    HW123744   3.440   5.126   5.205
 7615SOL    HW223745   3.291   5.061   5.215
 7616SOL     OW23746   0.295   5.754   3.196
 7616SOL    HW123747   0.292   5.712   3.286
 7616SOL    HW223748   0.203   5.772   3.163
 7617SOL     OW23749   3.860   5.534   3.863
 7617SOL    HW123750   3.858   5.440   3.896
 7617SOL    HW223751   3.941   5.547   3.805
 7618SOL     OW23752   3.245   2.161   6.961
 7618SOL    HW123753   3.229   2.110   0.019
 7618SOL    HW223754   3.342   2.180   6.950
 7619SOL     OW23755   5.527   2.791   5.957
 7619SOL    HW123756   5.464   2.738   5.900
 7619SOL    HW223757   5.495   2.885   5.964
 7620SOL     OW23758   3.404   5.813   1.586
 7620SOL    HW123759   3.478   5.805   1.519
 7620SOL    HW223760   3.432   5.873   1.660
 7621SOL     OW23761   2.459   2.684   0.828
 7621SOL    HW123762   2.536   2.740   0.796
 7621SOL    HW223763   2.444   2.702   0.925
 7622SOL     OW23764   4.918   2.345   0.920
 7622SOL    HW123765   4.856   2.279   0.962
 7622SOL    HW223766   5.003   2.299   0.894
 7623SOL     OW23767   6.733   6.324   5.078
 7623SOL    HW123768   6.714   6.227   5.094
 7623SOL    HW223769   6.732   6.372   5.165
 7624SOL     OW23770   6.835   0.721   4.658
 7624SOL    HW123771   6.923   0.684   4.627
 7624SOL    HW223772   6.796   0.660   4.727
 7625SOL     OW23773   2.880   5.012   0.953
 7625SOL    HW123774   2.974   5.047   0.954
 7625SOL    HW223775   2.880   4.919   0.918
 7626SOL     OW23776   2.681   4.228   5.426
 7626SOL    HW123777   2.726   4.184   5.503
 7626SOL    HW223778   2.715   4.322   5.417
 7627SOL     OW23779   6.955   0.982   0.445
 7627SOL    HW123780   7.026   0.959   0.379
 7627SOL    HW223781   6.923   0.898   0.489
 7628SOL     OW23782   4.780   1.748   1.026
 7628SOL    HW123783   4.761   1.824   1.089
 7628SOL    HW223784   4.700   1.689   1.020
 7629SOL     OW23785   6.102   5.759   3.178
 7629SOL    HW123786   6.128   5.682   3.121
 7629SOL    HW223787   6.182   5.815   3.198
 7630SOL     OW23788   6.004   1.763   1.899
 7630SOL    HW123789   6.001   1.663   1.903
 7630SOL    HW223790   6.017   1.793   1.805
 7631SOL     OW23791   1.318   0.579   3.798
 7631SOL    HW123792   1.409   0.582   3.838
 7631SOL    HW223793   1.249   0.568   3.870
 7632SOL     OW23794   4.420   0.864   4.741
 7632SOL    HW123795   4.384   0.835   4.830
 7632SOL    HW223796   4.497   0.806   4.716
 7633SOL     OW23797   6.118   3.512   6.241
 7633SOL    HW123798   6.053   3.473   6.176
 7633SOL    HW223799   6.114   3.461   6.327
 7634SOL     OW23800   1.202   2.458   2.079
 7634SOL    HW123801   1.189   2.511   2.163
 7634SOL    HW223802   1.264   2.506   2.018
 7635SOL     OW23803   2.570   4.811   5.813
 7635SOL    HW123804   2.561   4.711   5.813
 7635SOL    HW223805   2.573   4.845   5.719
 7636SOL     OW23806   0.967   0.899   3.740
 7636SOL    HW123807   0.975   0.998   3.742
 7636SOL    HW223808   0.959   0.868   3.646
 7637SOL     OW23809   2.632   6.045   4.042
 7637SOL    HW123810   2.654   6.011   3.951
 7637SOL    HW223811   2.555   6.109   4.037
 7638SOL     OW23812   4.644   4.439   1.803
 7638SOL    HW123813   4.565   4.378   1.813
 7638SOL    HW223814   4.676   4.466   1.893
 7639SOL     OW23815   0.662   2.139   4.151
 7639SOL    HW123816   0.644   2.181   4.062
 7639SOL    HW223817   0.759   2.115   4.156
 7640SOL     OW23818   2.443   3.169   6.084
 7640SOL    HW123819   2.354   3.162   6.038
 7640SOL    HW223820   2.458   3.087   6.139
 7641SOL     OW23821   5.784   3.488   2.567
 7641SOL    HW123822   5.698   3.536   2.579
 7641SOL    HW223823   5.803   3.478   2.469
 7642SOL     OW23824   1.765   2.261   2.779
 7642SOL    HW123825   1.694   2.223   2.838
 7642SOL    HW223826   1.851   2.266   2.830
 7643SOL     OW23827   5.369   3.585   3.268
 7643SOL    HW123828   5.400   3.575   3.174
 7643SOL    HW223829   5.289   3.644   3.271
 7644SOL     OW23830   6.273   3.277   4.145
 7644SOL    HW123831   6.199   3.275   4.078
 7644SOL    HW223832   6.357   3.308   4.100
 7645SOL     OW23833   4.099   3.107   0.826
 7645SOL    HW123834   4.071   3.142   0.737
 7645SOL    HW223835   4.037   3.034   0.855
 7646SOL     OW23836   0.978   7.026   2.125
 7646SOL    HW123837   1.037   6.957   2.082
 7646SOL    HW223838   0.889   7.026   2.081
 7647SOL     OW23839   2.116   4.866   0.104
 7647SOL    HW123840   2.203   4.886   0.148
 7647SOL    HW223841   2.041   4.894   0.164
 7648SOL     OW23842   2.449   0.576   3.500
 7648SOL    HW123843   2.402   0.489   3.490
 7648SOL    HW223844   2.436   0.611   3.592
 7649SOL     OW23845   3.231   1.904   1.158
 7649SOL    HW123846   3.280   1.931   1.076
 7649SOL    HW223847   3.208   1.806   1.152
 7650SOL     OW23848   6.469   4.833   0.872
 7650SOL    HW123849   6.565   4.802   0.877
 7650SOL    HW223850   6.412   4.757   0.840
 7651SOL     OW23851   5.875   1.545   5.750
 7651SOL    HW123852   5.833   1.454   5.753
 7651SOL    HW223853   5.808   1.611   5.717
 7652SOL     OW23854   0.762   3.434   2.668
 7652SOL    HW123855   0.862   3.434   2.662
 7652SOL    HW223856   0.729   3.528   2.678
 7653SOL     OW23857   4.779   2.198   1.951
 7653SOL    HW123858   4.779   2.199   2.051
 7653SOL    HW223859   4.757   2.289   1.917
 7654SOL     OW23860   5.316   3.656   5.088
 7654SOL    HW123861   5.300   3.595   5.166
 7654SOL    HW223862   5.369   3.608   5.018
 7655SOL     OW23863   4.709   4.948   6.814
 7655SOL    HW123864   4.727   5.046   6.809
 7655SOL    HW223865   4.746   4.902   6.733
 7656SOL     OW23866   0.650   0.276   5.133
 7656SOL    HW123867   0.578   0.338   5.104
 7656SOL    HW223868   0.657   0.200   5.068
 7657SOL     OW23869   4.072   1.814   3.486
 7657SOL    HW123870   3.978   1.801   3.518
 7657SOL    HW223871   4.121   1.870   3.552
 7658SOL     OW23872   4.347   0.631   5.654
 7658SOL    HW123873   4.430   0.623   5.599
 7658SOL    HW223874   4.268   0.641   5.594
 7659SOL     OW23875   5.169   5.920   6.287
 7659SOL    HW123876   5.269   5.912   6.289
 7659SOL    HW223877   5.129   5.829   6.277
 7660SOL     OW23878   5.533   5.290   4.016
 7660SOL    HW123879   5.467   5.215   4.009
 7660SOL    HW223880   5.620   5.256   4.051
 7661SOL     OW23881   6.007   3.266   4.030
 7661SOL    HW123882   5.922   3.238   3.985
 7661SOL    HW223883   5.991   3.347   4.086
 7662SOL     OW23884   6.311   5.401   3.527
 7662SOL    HW123885   6.241   5.375   3.593
 7662SOL    HW223886   6.307   5.339   3.448
 7663SOL     OW23887   0.745   6.094   0.487
 7663SOL    HW123888   0.662   6.139   0.517
 7663SOL    HW223889   0.819   6.113   0.552
 7664SOL     OW23890   3.703   5.404   4.656
 7664SOL    HW123891   3.781   5.466   4.666
 7664SOL    HW223892   3.731   5.323   4.604
 7665SOL     OW23893   2.006   5.684   3.496
 7665SOL    HW123894   2.009   5.751   3.422
 7665SOL    HW223895   1.963   5.725   3.576
 7666SOL     OW23896   1.981   0.359   2.376
 7666SOL    HW123897   1.903   0.348   2.437
 7666SOL    HW223898   1.958   0.424   2.304
 7667SOL     OW23899   5.962   0.105   5.461
 7667SOL    HW123900   5.911   0.130   5.379
 7667SOL    HW223901   5.924   0.020   5.499
 7668SOL     OW23902   3.189   3.661   2.061
 7668SOL    HW123903   3.103   3.708   2.041
 7668SOL    HW223904   3.188   3.570   2.021
 7669SOL     OW23905   4.655   6.611   5.193
 7669SOL    HW123906   4.624   6.605   5.098
 7669SOL    HW223907   4.594   6.558   5.252
 7670SOL     OW23908   1.786   5.779   0.979
 7670SOL    HW123909   1.765   5.828   1.064
 7670SOL    HW223910   1.700   5.753   0.935
 7671SOL     OW23911   4.611   2.362   4.744
 7671SOL    HW123912   4.708   2.379   4.729
 7671SOL    HW223913   4.564   2.362   4.656
 7672SOL     OW23914   6.382   0.138   1.829
 7672SOL    HW123915   6.417   0.118   1.920
 7672SOL    HW223916   6.359   0.053   1.782
 7673SOL     OW23917   1.319   3.403   0.287
 7673SOL    HW123918   1.414   3.390   0.315
 7673SOL    HW223919   1.263   3.331   0.328
 7674SOL     OW23920   6.365   0.950   5.375
 7674SOL    HW123921   6.305   1.014   5.423
 7674SOL    HW223922   6.356   0.964   5.276
 7675SOL     OW23923   4.954   0.412   3.230
 7675SOL    HW123924   4.942   0.490   3.168
 7675SOL    HW223925   5.024   0.433   3.298
 7676SOL     OW23926   1.789   6.887   1.091
 7676SOL    HW123927   1.881   6.865   1.060
 7676SOL    HW223928   1.780   6.868   1.189
 7677SOL     OW23929   1.911   2.982   2.604
 7677SOL    HW123930   1.914   2.995   2.704
 7677SOL    HW223931   1.893   3.070   2.560
 7678SOL     OW23932   5.161   0.000   5.965
 7678SOL    HW123933   5.171   0.087   5.917
 7678SOL    HW223934   5.091   0.010   6.036
 7679SOL     OW23935   1.224   5.031   4.350
 7679SOL    HW123936   1.270   5.020   4.439
 7679SOL    HW223937   1.257   4.960   4.287
 7680SOL     OW23938   4.742   0.469   0.646
 7680SOL    HW123939   4.790   0.383   0.631
 7680SOL    HW223940   4.661   0.473   0.588
 7681SOL     OW23941   4.046   2.355   5.740
 7681SOL    HW123942   4.029   2.276   5.681
 7681SOL    HW223943   4.142   2.381   5.733
 7682SOL     OW23944   2.923   0.666   0.675
 7682SOL    HW123945   2.923   0.719   0.760
 7682SOL    HW223946   2.830   0.639   0.652
 7683SOL     OW23947   6.815   3.280   3.692
 7683SOL    HW123948   6.887   3.224   3.650
 7683SOL    HW223949   6.814   3.263   3.790
 7684SOL     OW23950   3.773   1.872   5.423
 7684SOL    HW123951   3.772   1.818   5.507
 7684SOL    HW223952   3.830   1.827   5.354
 7685SOL     OW23953   4.133   3.959   1.418
 7685SOL    HW123954   4.101   3.925   1.330
 7685SOL    HW223955   4.068   3.932   1.490
 7686SOL     OW23956   2.214   0.892   2.323
 7686SOL    HW123957   2.121   0.927   2.337
 7686SOL    HW223958   2.214   0.829   2.245
 7687SOL     OW23959   4.628   4.144   5.651
 7687SOL    HW123960   4.571   4.217   5.690
 7687SOL    HW223961   4.710   4.131   5.707
 7688SOL     OW23962   6.688   0.927   3.001
 7688SOL    HW123963   6.705   0.908   3.098
 7688SOL    HW223964   6.626   1.005   2.993
 7689SOL     OW23965   3.640   0.027   5.054
 7689SOL    HW123966   3.584   7.004   5.120
 7689SOL    HW223967   3.583   0.092   5.003
 7690SOL     OW23968   0.854   5.418   2.938
 7690SOL    HW123969   0.925   5.352   2.962
 7690SOL    HW223970   0.773   5.370   2.904
 7691SOL     OW23971   6.439   3.631   5.533
 7691SOL    HW123972   6.417   3.727   5.513
 7691SOL    HW223973   6.410   3.574   5.457
 7692SOL     OW23974   1.426   6.027   1.141
 7692SOL    HW123975   1.445   5.931   1.157
 7692SOL    HW223976   1.328   6.041   1.129
 7693SOL     OW23977   5.199   1.147   0.561
 7693SOL    HW123978   5.250   1.227   0.531
 7693SOL    HW223979   5.212   1.134   0.659
 7694SOL     OW23980   5.941   4.825   3.427
 7694SOL    HW123981   6.020   4.815   3.487
 7694SOL    HW223982   5.858   4.801   3.477
 7695SOL     OW23983   4.458   0.559   6.705
 7695SOL    HW123984   4.430   0.640   6.755
 7695SOL    HW223985   4.549   0.574   6.665
 7696SOL     OW23986   1.309   3.848   5.635
 7696SOL    HW123987   1.306   3.900   5.720
 7696SOL    HW223988   1.217   3.841   5.597
 7697SOL     OW23989   4.823   1.413   2.419
 7697SOL    HW123990   4.727   1.399   2.394
 7697SOL    HW223991   4.850   1.344   2.485
 7698SOL     OW23992   0.215   2.138   6.123
 7698SOL    HW123993   0.235   2.163   6.218
 7698SOL    HW223994   0.121   2.162   6.101
 7699SOL     OW23995   3.084   3.224   0.971
 7699SOL    HW123996   3.130   3.140   0.943
 7699SOL    HW223997   3.074   3.225   1.071
 7700SOL     OW23998   5.583   0.093   4.874
 7700SOL    HW123999   5.629   0.068   4.960
 7700SOL    HW224000   5.600   0.189   4.854
 7701SOL     OW24001   6.682   2.274   5.643
 7701SOL    HW124002   6.738   2.194   5.622
 7701SOL    HW224003   6.685   2.338   5.567
 7702SOL     OW24004   1.371   6.362   6.702
 7702SOL    HW124005   1.373   6.397   6.796
 7702SOL    HW224006   1.399   6.266   6.703
 7703SOL     OW24007   0.991   1.992   6.223
 7703SOL    HW124008   0.895   2.017   6.230
 7703SOL    HW224009   1.031   1.987   6.315
 7704SOL     OW24010   2.976   3.435   1.330
 7704SOL    HW124011   2.977   3.335   1.333
 7704SOL    HW224012   2.882   3.468   1.337
 7705SOL     OW24013   3.999   3.624   4.498
 7705SOL    HW124014   3.911   3.586   4.473
 7705SOL    HW224015   4.054   3.640   4.416
 7706SOL     OW24016   6.493   0.746   5.454
 7706SOL    HW124017   6.436   0.823   5.424
 7706SOL    HW224018   6.451   0.704   5.535
 7707SOL     OW24019   6.870   5.780   6.453
 7707SOL    HW124020   6.843   5.745   6.543
 7707SOL    HW224021   6.946   5.726   6.417
 7708SOL     OW24022   5.199   1.271   5.031
 7708SOL    HW124023   5.101   1.261   5.010
 7708SOL    HW224024   5.238   1.182   5.052
 7709SOL     OW24025   3.808   2.369   1.298
 7709SOL    HW124026   3.879   2.374   1.369
 7709SOL    HW224027   3.718   2.376   1.341
 7710SOL     OW24028   3.443   2.364   6.506
 7710SOL    HW124029   3.405   2.442   6.556
 7710SOL    HW224030   3.388   2.346   6.424
 7711SOL     OW24031   4.610   5.962   5.018
 7711SOL    HW124032   4.673   5.893   5.054
 7711SOL    HW224033   4.516   5.930   5.026
 7712SOL     OW24034   6.101   4.049   6.266
 7712SOL    HW124035   6.185   4.095   6.295
 7712SOL    HW224036   6.112   3.950   6.273
 7713SOL     OW24037   0.273   5.415   6.587
 7713SOL    HW124038   0.225   5.362   6.657
 7713SOL    HW224039   0.220   5.497   6.565
 7714SOL     OW24040   5.359   4.141   4.692
 7714SOL    HW124041   5.266   4.178   4.698
 7714SOL    HW224042   5.358   4.044   4.715
 7715SOL     OW24043   3.933   2.396   1.747
 7715SOL    HW124044   3.851   2.370   1.797
 7715SOL    HW224045   4.013   2.354   1.790
 7716SOL     OW24046   4.283   2.327   4.280
 7716SOL    HW124047   4.183   2.331   4.288
 7716SOL    HW224048   4.312   2.232   4.273
 7717SOL     OW24049   2.753   0.184   6.386
 7717SOL    HW124050   2.769   0.282   6.396
 7717SOL    HW224051   2.833   0.134   6.420
 7718SOL     OW24052   2.554   6.493   3.444
 7718SOL    HW124053   2.644   6.518   3.478
 7718SOL    HW224054   2.557   6.401   3.404
 7719SOL     OW24055   5.778   2.610   5.168
 7719SOL    HW124056   5.683   2.641   5.166
 7719SOL    HW224057   5.834   2.679   5.214
 7720SOL     OW24058   4.744   6.565   1.297
 7720SOL    HW124059   4.735   6.521   1.386
 7720SOL    HW224060   4.724   6.499   1.225
 7721SOL     OW24061   0.711   4.967   2.947
 7721SOL    HW124062   0.635   4.914   2.985
 7721SOL    HW224063   0.797   4.937   2.989
 7722SOL     OW24064   0.729   5.828   4.005
 7722SOL    HW124065   0.688   5.860   4.091
 7722SOL    HW224066   0.752   5.906   3.947
 7723SOL     OW24067   6.664   1.913   0.135
 7723SOL    HW124068   6.722   1.975   0.187
 7723SOL    HW224069   6.598   1.965   0.081
 7724SOL     OW24070   2.637   6.499   6.528
 7724SOL    HW124071   2.563   6.439   6.559
 7724SOL    HW224072   2.708   6.444   6.484
 7725SOL     OW24073   5.302   4.103   4.136
 7725SOL    HW124074   5.293   4.003   4.133
 7725SOL    HW224075   5.269   4.136   4.225
 7726SOL     OW24076   5.235   5.630   3.469
 7726SOL    HW124077   5.241   5.550   3.408
 7726SOL    HW224078   5.217   5.600   3.562
 7727SOL     OW24079   6.040   3.697   2.038
 7727SOL    HW124080   6.113   3.706   1.971
 7727SOL    HW224081   6.000   3.606   2.032
 7728SOL     OW24082   1.931   2.630   2.727
 7728SOL    HW124083   1.860   2.653   2.660
 7728SOL    HW224084   1.989   2.558   2.689
 7729SOL     OW24085   5.427   1.486   6.185
 7729SOL    HW124086   5.414   1.524   6.277
 7729SOL    HW224087   5.501   1.534   6.139
 7730SOL     OW24088   4.411   6.956   2.501
 7730SOL    HW124089   4.508   6.950   2.475
 7730SOL    HW224090   4.396   6.900   2.583
 7731SOL     OW24091   6.262   1.713   3.677
 7731SOL    HW124092   6.196   1.732   3.605
 7731SOL    HW224093   6.222   1.648   3.743
 7732SOL     OW24094   4.584   5.204   0.860
 7732SOL    HW124095   4.595   5.122   0.917
 7732SOL    HW224096   4.563   5.176   0.766
 7733SOL     OW24097   3.333   5.360   1.005
 7733SOL    HW124098   3.367   5.306   0.927
 7733SOL    HW224099   3.385   5.336   1.087
 7734SOL     OW24100   1.180   3.220   2.248
 7734SOL    HW124101   1.201   3.316   2.229
 7734SOL    HW224102   1.140   3.178   2.167
 7735SOL     OW24103   5.345   4.414   0.683
 7735SOL    HW124104   5.270   4.412   0.750
 7735SOL    HW224105   5.313   4.376   0.596
 7736SOL     OW24106   5.844   4.529   6.809
 7736SOL    HW124107   5.873   4.505   6.902
 7736SOL    HW224108   5.923   4.557   6.755
 7737SOL     OW24109   4.890   2.698   6.819
 7737SOL    HW124110   4.988   2.697   6.840
 7737SOL    HW224111   4.843   2.760   6.883
 7738SOL     OW24112   2.016   5.394   6.950
 7738SOL    HW124113   2.019   5.310   7.004
 7738SOL    HW224114   1.968   5.376   6.864
 7739SOL     OW24115   5.273   4.187   2.627
 7739SOL    HW124116   5.327   4.132   2.691
 7739SOL    HW224117   5.236   4.127   2.556
 7740SOL     OW24118   6.781   6.027   3.624
 7740SOL    HW124119   6.792   6.091   3.548
 7740SOL    HW224120   6.815   6.069   3.708
 7741SOL     OW24121   2.970   5.305   3.553
 7741SOL    HW124122   2.892   5.267   3.601
 7741SOL    HW224123   3.047   5.241   3.557
 7742SOL     OW24124   6.820   0.416   4.524
 7742SOL    HW124125   6.872   0.483   4.577
 7742SOL    HW224126   6.757   0.464   4.463
 7743SOL     OW24127   4.890   3.156   2.340
 7743SOL    HW124128   4.836   3.073   2.333
 7743SOL    HW224129   4.927   3.165   2.432
 7744SOL     OW24130   0.516   6.451   4.614
 7744SOL    HW124131   0.456   6.495   4.547
 7744SOL    HW224132   0.461   6.408   4.685
 7745SOL     OW24133   5.291   2.888   5.678
 7745SOL    HW124134   5.264   2.856   5.587
 7745SOL    HW224135   5.245   2.833   5.748
 7746SOL     OW24136   1.957   0.613   6.330
 7746SOL    HW124137   1.858   0.605   6.328
 7746SOL    HW224138   1.983   0.703   6.295
 7747SOL     OW24139   4.368   5.148   0.564
 7747SOL    HW124140   4.270   5.129   0.561
 7747SOL    HW224141   4.383   5.240   0.602
 7748SOL     OW24142   2.110   3.977   6.832
 7748SOL    HW124143   2.068   3.985   6.742
 7748SOL    HW224144   2.040   3.995   6.902
 7749SOL     OW24145   5.908   3.035   6.473
 7749SOL    HW124146   5.885   2.962   6.408
 7749SOL    HW224147   5.903   3.123   6.426
 7750SOL     OW24148   4.481   5.237   3.398
 7750SOL    HW124149   4.503   5.226   3.301
 7750SOL    HW224150   4.511   5.327   3.429
 7751SOL     OW24151   0.737   2.312   1.001
 7751SOL    HW124152   0.800   2.357   1.064
 7751SOL    HW224153   0.708   2.225   1.040
 7752SOL     OW24154   3.440   1.178   3.019
 7752SOL    HW124155   3.532   1.150   2.991
 7752SOL    HW224156   3.374   1.149   2.950
 7753SOL     OW24157   4.118   0.768   5.541
 7753SOL    HW124158   4.063   0.820   5.607
 7753SOL    HW224159   4.163   0.830   5.477
 7754SOL     OW24160   4.427   5.420   1.394
 7754SOL    HW124161   4.424   5.479   1.475
 7754SOL    HW224162   4.474   5.335   1.417
 7755SOL     OW24163   0.414   4.621   6.287
 7755SOL    HW124164   0.411   4.523   6.267
 7755SOL    HW224165   0.333   4.665   6.251
 7756SOL     OW24166   2.179   3.877   2.393
 7756SOL    HW124167   2.241   3.854   2.469
 7756SOL    HW224168   2.162   3.795   2.338
 7757SOL     OW24169   0.696   4.615   0.064
 7757SOL    HW124170   0.672   4.566   0.147
 7757SOL    HW224171   0.687   4.553   7.012
 7758SOL     OW24172   0.609   0.865   5.585
 7758SOL    HW124173   0.549   0.868   5.666
 7758SOL    HW224174   0.689   0.810   5.606
 7759SOL     OW24175   3.724   0.891   2.537
 7759SOL    HW124176   3.808   0.919   2.584
 7759SOL    HW224177   3.648   0.894   2.602
 7760SOL     OW24178   4.085   2.846   0.196
 7760SOL    HW124179   4.107   2.815   0.288
 7760SOL    HW224180   4.008   2.910   0.200
 7761SOL     OW24181   5.547   5.448   3.408
 7761SOL    HW124182   5.507   5.503   3.481
 7761SOL    HW224183   5.476   5.427   3.340
 7762SOL     OW24184   4.573   2.009   1.205
 7762SOL    HW124185   4.482   2.019   1.245
 7762SOL    HW224186   4.606   1.915   1.219
 7763SOL     OW24187   2.040   0.615   3.416
 7763SOL    HW124188   2.012   0.560   3.494
 7763SOL    HW224189   1.962   0.631   3.356
 7764SOL     OW24190   3.949   4.794   5.195
 7764SOL    HW124191   3.930   4.851   5.274
 7764SOL    HW224192   3.902   4.706   5.205
 7765SOL     OW24193   6.354   4.190   4.966
 7765SOL    HW124194   6.309   4.103   4.946
 7765SOL    HW224195   6.430   4.204   4.903
 7766SOL     OW24196   6.954   2.120   6.003
 7766SOL    HW124197   6.874   2.174   5.975
 7766SOL    HW224198   6.923   2.035   6.046
 7767SOL     OW24199   4.538   0.318   4.065
 7767SOL    HW124200   4.510   0.370   3.984
 7767SOL    HW224201   4.532   0.376   4.146
 7768SOL     OW24202   3.365   5.581   3.462
 7768SOL    HW124203   3.336   5.605   3.555
 7768SOL    HW224204   3.463   5.561   3.462
 7769SOL     OW24205   4.186   2.564   6.335
 7769SOL    HW124206   4.159   2.612   6.251
 7769SOL    HW224207   4.105   2.532   6.383
 7770SOL     OW24208   0.916   3.542   3.666
 7770SOL    HW124209   0.895   3.639   3.664
 7770SOL    HW224210   0.832   3.489   3.650
 7771SOL     OW24211   0.933   3.894   4.932
 7771SOL    HW124212   0.903   3.831   5.003
 7771SOL    HW224213   1.015   3.859   4.888
 7772SOL     OW24214   4.750   5.498   1.855
 7772SOL    HW124215   4.847   5.509   1.837
 7772SOL    HW224216   4.735   5.413   1.905
 7773SOL     OW24217   2.678   6.698   6.721
 7773SOL    HW124218   2.714   6.634   6.654
 7773SOL    HW224219   2.578   6.692   6.723
 7774SOL     OW24220   5.252   1.395   2.752
 7774SOL    HW124221   5.258   1.480   2.699
 7774SOL    HW224222   5.289   1.410   2.844
 7775SOL     OW24223   3.400   1.852   0.935
 7775SOL    HW124224   3.451   1.768   0.956
 7775SOL    HW224225   3.463   1.929   0.929
 7776SOL     OW24226   2.733   1.476   3.952
 7776SOL    HW124227   2.748   1.390   4.001
 7776SOL    HW224228   2.813   1.497   3.895
 7777SOL     OW24229   4.996   5.484   3.179
 7777SOL    HW124230   4.978   5.582   3.184
 7777SOL    HW224231   4.926   5.435   3.231
 7778SOL     OW24232   1.267   3.449   2.121
 7778SOL    HW124233   1.201   3.430   2.050
 7778SOL    HW224234   1.352   3.484   2.080
 7779SOL     OW24235   2.679   0.555   3.094
 7779SOL    HW124236   2.738   0.570   3.173
 7779SOL    HW224237   2.691   0.631   3.029
 7780SOL     OW24238   6.493   5.573   4.242
 7780SOL    HW124239   6.474   5.556   4.146
 7780SOL    HW224240   6.449   5.657   4.272
 7781SOL     OW24241   3.174   2.994   0.884
 7781SOL    HW124242   3.190   2.927   0.957
 7781SOL    HW224243   3.088   2.972   0.838
 7782SOL     OW24244   5.709   4.432   4.346
 7782SOL    HW124245   5.631   4.369   4.343
 7782SOL    HW224246   5.677   4.524   4.369
 7783SOL     OW24247   0.872   6.292   3.828
 7783SOL    HW124248   0.798   6.257   3.885
 7783SOL    HW224249   0.849   6.278   3.732
 7784SOL     OW24250   1.320   2.878   2.557
 7784SOL    HW124251   1.364   2.941   2.493
 7784SOL    HW224252   1.313   2.921   2.647
 7785SOL     OW24253   5.856   6.928   2.707
 7785SOL    HW124254   5.861   6.991   2.785
 7785SOL    HW224255   5.937   6.870   2.706
 7786SOL     OW24256   5.499   0.558   7.016
 7786SOL    HW124257   5.405   0.545   0.023
 7786SOL    HW224258   5.496   0.604   6.928
 7787SOL     OW24259   0.954   2.431   1.152
 7787SOL    HW124260   1.025   2.448   1.221
 7787SOL    HW224261   0.909   2.517   1.129
 7788SOL     OW24262   1.280   4.244   2.191
 7788SOL    HW124263   1.306   4.263   2.285
 7788SOL    HW224264   1.356   4.201   2.143
 7789SOL     OW24265   3.328   0.303   6.301
 7789SOL    HW124266   3.393   0.242   6.345
 7789SOL    HW224267   3.257   0.329   6.366
 7790SOL     OW24268   4.108   5.339   4.598
 7790SOL    HW124269   4.153   5.253   4.573
 7790SOL    HW224270   4.052   5.324   4.679
 7791SOL     OW24271   2.720   6.143   1.711
 7791SOL    HW124272   2.738   6.235   1.747
 7791SOL    HW224273   2.770   6.129   1.626
 7792SOL     OW24274   0.898   1.310   2.009
 7792SOL    HW124275   0.995   1.336   2.010
 7792SOL    HW224276   0.867   1.297   2.103
 7793SOL     OW24277   4.744   1.573   0.313
 7793SOL    HW124278   4.694   1.519   0.381
 7793SOL    HW224279   4.842   1.566   0.330
 7794SOL     OW24280   1.284   1.267   2.694
 7794SOL    HW124281   1.319   1.307   2.778
 7794SOL    HW224282   1.272   1.168   2.706
 7795SOL     OW24283   4.018   3.612   1.314
 7795SOL    HW124284   4.057   3.584   1.402
 7795SOL    HW224285   4.074   3.575   1.239
 7796SOL     OW24286   4.372   1.477   0.941
 7796SOL    HW124287   4.469   1.499   0.955
 7796SOL    HW224288   4.355   1.384   0.972
 7797SOL     OW24289   1.241   6.233   3.099
 7797SOL    HW124290   1.183   6.256   3.021
 7797SOL    HW224291   1.334   6.263   3.082
 7798SOL     OW24292   1.630   3.666   1.183
 7798SOL    HW124293   1.594   3.758   1.198
 7798SOL    HW224294   1.691   3.666   1.104
 7799SOL     OW24295   2.007   6.045   3.920
 7799SOL    HW124296   2.070   6.022   3.846
 7799SOL    HW224297   1.969   5.961   3.959
 7800SOL     OW24298   0.628   0.966   2.324
 7800SOL    HW124299   0.639   0.877   2.368
 7800SOL    HW224300   0.631   0.955   2.225
 7801SOL     OW24301   1.711   1.927   0.688
 7801SOL    HW124302   1.727   1.843   0.739
 7801SOL    HW224303   1.653   1.988   0.743
 7802SOL     OW24304   6.231   5.118   3.924
 7802SOL    HW124305   6.221   5.212   3.955
 7802SOL    HW224306   6.303   5.113   3.854
 7803SOL     OW24307   3.432   2.212   6.052
 7803SOL    HW124308   3.389   2.253   5.972
 7803SOL    HW224309   3.425   2.113   6.047
 7804SOL     OW24310   2.977   1.109   5.486
 7804SOL    HW124311   2.969   1.138   5.581
 7804SOL    HW224312   2.889   1.075   5.454
 7805SOL     OW24313   6.398   2.095   6.666
 7805SOL    HW124314   6.452   2.159   6.720
 7805SOL    HW224315   6.384   2.010   6.718
 7806SOL     OW24316   6.229   2.173   5.322
 7806SOL    HW124317   6.264   2.228   5.397
 7806SOL    HW224318   6.164   2.228   5.268
 7807SOL     OW24319   1.850   5.664   5.380
 7807SOL    HW124320   1.846   5.703   5.288
 7807SOL    HW224321   1.864   5.737   5.447
 7808SOL     OW24322   0.087   3.052   4.638
 7808SOL    HW124323   0.105   3.060   4.540
 7808SOL    HW224324   0.030   3.128   4.668
 7809SOL     OW24325   3.226   0.387   3.026
 7809SOL    HW124326   3.275   0.352   3.105
 7809SOL    HW224327   3.147   0.441   3.057
 7810SOL     OW24328   2.103   6.658   6.367
 7810SOL    HW124329   2.126   6.613   6.281
 7810SOL    HW224330   2.127   6.755   6.362
 7811SOL     OW24331   1.327   5.466   2.847
 7811SOL    HW124332   1.416   5.475   2.892
 7811SOL    HW224333   1.285   5.557   2.837
 7812SOL     OW24334   3.013   0.995   6.198
 7812SOL    HW124335   3.058   1.036   6.119
 7812SOL    HW224336   2.970   1.066   6.253
 7813SOL     OW24337   6.030   1.062   0.613
 7813SOL    HW124338   5.944   1.013   0.595
 7813SOL    HW224339   6.037   1.080   0.711
 7814SOL     OW24340   0.091   2.694   1.892
 7814SOL    HW124341   0.063   2.599   1.905
 7814SOL    HW224342   0.143   2.725   1.971
 7815SOL     OW24343   4.901   5.938   3.054
 7815SOL    HW124344   4.828   6.006   3.053
 7815SOL    HW224345   4.983   5.977   3.095
 7816SOL     OW24346   1.343   1.571   5.652
 7816SOL    HW124347   1.405   1.640   5.688
 7816SOL    HW224348   1.251   1.586   5.690
 7817SOL     OW24349   5.010   0.956   5.758
 7817SOL    HW124350   4.933   0.920   5.705
 7817SOL    HW224351   4.978   0.988   5.847
 7818SOL     OW24352   4.791   1.166   2.832
 7818SOL    HW124353   4.862   1.234   2.849
 7818SOL    HW224354   4.798   1.093   2.899
 7819SOL     OW24355   2.532   2.584   4.622
 7819SOL    HW124356   2.477   2.667   4.631
 7819SOL    HW224357   2.472   2.505   4.607
 7820SOL     OW24358   1.712   0.910   6.082
 7820SOL    HW124359   1.771   0.914   6.162
 7820SOL    HW224360   1.732   0.988   6.022
 7821SOL     OW24361   3.985   5.509   6.527
 7821SOL    HW124362   3.983   5.409   6.535
 7821SOL    HW224363   4.068   5.544   6.571
 7822SOL     OW24364   0.517   1.450   4.712
 7822SOL    HW124365   0.522   1.382   4.638
 7822SOL    HW224366   0.609   1.478   4.738
 7823SOL     OW24367   2.731   2.996   5.909
 7823SOL    HW124368   2.632   3.005   5.908
 7823SOL    HW224369   2.758   2.919   5.967
 7824SOL     OW24370   5.869   4.334   2.479
 7824SOL    HW124371   5.960   4.292   2.485
 7824SOL    HW224372   5.841   4.366   2.570
 7825SOL     OW24373   3.376   3.261   3.646
 7825SOL    HW124374   3.368   3.315   3.562
 7825SOL    HW224375   3.286   3.226   3.671
 7826SOL     OW24376   6.344   6.786   1.059
 7826SOL    HW124377   6.394   6.852   1.115
 7826SOL    HW224378   6.246   6.805   1.066
 7827SOL     OW24379   4.893   3.880   0.393
 7827SOL    HW124380   4.948   3.939   0.334
 7827SOL    HW224381   4.864   3.932   0.474
 7828SOL     OW24382   0.459   6.371   0.897
 7828SOL    HW124383   0.468   6.281   0.853
 7828SOL    HW224384   0.408   6.432   0.836
 7829SOL     OW24385   3.601   3.999   2.773
 7829SOL    HW124386   3.663   3.981   2.696
 7829SOL    HW224387   3.519   4.046   2.740
 7830SOL     OW24388   6.864   4.518   6.905
 7830SOL    HW124389   6.872   4.613   6.877
 7830SOL    HW224390   6.899   4.507   6.998
 7831SOL     OW24391   2.636   2.512   0.000
 7831SOL    HW124392   2.568   2.447   6.994
 7831SOL    HW224393   2.664   2.486   0.093
 7832SOL     OW24394   3.604   2.918   5.791
 7832SOL    HW124395   3.582   2.838   5.846
 7832SOL    HW224396   3.703   2.923   5.777
 7833SOL     OW24397   6.252   0.143   1.481
 7833SOL    HW124398   6.227   0.226   1.532
 7833SOL    HW224399   6.226   0.063   1.534
 7834SOL     OW24400   5.408   1.291   1.419
 7834SOL    HW124401   5.329   1.230   1.417
 7834SOL    HW224402   5.492   1.237   1.410
 7835SOL     OW24403   2.542   2.484   4.338
 7835SOL    HW124404   2.445   2.461   4.338
 7835SOL    HW224405   2.557   2.564   4.395
 7836SOL     OW24406   2.535   0.546   6.865
 7836SOL    HW124407   2.539   0.542   6.965
 7836SOL    HW224408   2.587   0.470   6.827
 7837SOL     OW24409   5.468   6.586   2.083
 7837SOL    HW124410   5.523   6.505   2.062
 7837SOL    HW224411   5.462   6.598   2.182
 7838SOL     OW24412   3.583   5.664   3.836
 7838SOL    HW124413   3.545   5.668   3.928
 7838SOL    HW224414   3.682   5.652   3.841
 7839SOL     OW24415   6.578   5.446   3.573
 7839SOL    HW124416   6.634   5.443   3.491
 7839SOL    HW224417   6.482   5.435   3.548
 7840SOL     OW24418   4.446   2.630   6.333
 7840SOL    HW124419   4.463   2.587   6.244
 7840SOL    HW224420   4.348   2.631   6.351
 7841SOL     OW24421   1.163   2.058   5.993
 7841SOL    HW124422   1.119   1.995   5.929
 7841SOL    HW224423   1.139   2.031   6.087
 7842SOL     OW24424   1.698   0.682   2.774
 7842SOL    HW124425   1.737   0.694   2.683
 7842SOL    HW224426   1.731   0.754   2.834
 7843SOL     OW24427   0.159   2.435   1.977
 7843SOL    HW124428   0.218   2.418   1.898
 7843SOL    HW224429   0.206   2.405   2.060
 7844SOL     OW24430   3.313   2.027   3.267
 7844SOL    HW124431   3.230   2.044   3.214
 7844SOL    HW224432   3.392   2.068   3.221
 7845SOL     OW24433   0.798   0.669   4.399
 7845SOL    HW124434   0.880   0.660   4.456
 7845SOL    HW224435   0.784   0.584   4.348
 7846SOL     OW24436   4.976   0.249   2.505
 7846SOL    HW124437   4.885   0.291   2.513
 7846SOL    HW224438   5.027   0.266   2.589
 7847SOL     OW24439   0.564   6.643   6.530
 7847SOL    HW124440   0.507   6.703   6.475
 7847SOL    HW224441   0.627   6.697   6.585
 7848SOL     OW24442   4.242   3.705   1.705
 7848SOL    HW124443   4.336   3.732   1.686
 7848SOL    HW224444   4.225   3.710   1.803
 7849SOL     OW24445   5.334   3.906   4.829
 7849SOL    HW124446   5.287   3.937   4.911
 7849SOL    HW224447   5.288   3.826   4.792
 7850SOL     OW24448   1.079   2.674   5.178
 7850SOL    HW124449   1.179   2.670   5.174
 7850SOL    HW224450   1.050   2.679   5.274
 7851SOL     OW24451   3.831   6.832   0.495
 7851SOL    HW124452   3.750   6.881   0.529
 7851SOL    HW224453   3.913   6.876   0.530
 7852SOL     OW24454   2.559   6.535   0.576
 7852SOL    HW124455   2.528   6.456   0.629
 7852SOL    HW224456   2.604   6.600   0.638
 7853SOL     OW24457   2.424   1.465   0.372
 7853SOL    HW124458   2.406   1.380   0.421
 7853SOL    HW224459   2.353   1.480   0.304
 7854SOL     OW24460   4.091   3.745   4.224
 7854SOL    HW124461   4.085   3.650   4.195
 7854SOL    HW224462   4.072   3.806   4.147
 7855SOL     OW24463   2.890   0.181   4.777
 7855SOL    HW124464   2.902   0.090   4.736
 7855SOL    HW224465   2.799   0.187   4.818
 7856SOL     OW24466   3.444   2.880   6.741
 7856SOL    HW124467   3.458   2.934   6.659
 7856SOL    HW224468   3.528   2.881   6.796
 7857SOL     OW24469   0.066   2.486   5.036
 7857SOL    HW124470   0.075   2.585   5.048
 7857SOL    HW224471   0.155   2.443   5.052
 7858SOL     OW24472   5.303   3.244   3.114
 7858SOL    HW124473   5.392   3.203   3.135
 7858SOL    HW224474   5.257   3.268   3.200
 7859SOL     OW24475   0.378   0.424   0.513
 7859SOL    HW124476   0.409   0.513   0.547
 7859SOL    HW224477   0.366   0.362   0.591
 7860SOL     OW24478   4.733   6.169   0.941
 7860SOL    HW124479   4.763   6.238   1.008
 7860SOL    HW224480   4.773   6.081   0.965
 7861SOL     OW24481   6.325   3.437   0.363
 7861SOL    HW124482   6.378   3.500   0.419
 7861SOL    HW224483   6.377   3.411   0.282
 7862SOL     OW24484   2.694   4.610   1.680
 7862SOL    HW124485   2.762   4.598   1.752
 7862SOL    HW224486   2.686   4.525   1.627
 7863SOL     OW24487   4.029   6.178   2.880
 7863SOL    HW124488   4.126   6.196   2.890
 7863SOL    HW224489   3.976   6.255   2.915
 7864SOL     OW24490   1.633   5.647   5.122
 7864SOL    HW124491   1.653   5.548   5.120
 7864SOL    HW224492   1.534   5.661   5.125
 7865SOL     OW24493   4.279   0.891   3.252
 7865SOL    HW124494   4.275   0.982   3.295
 7865SOL    HW224495   4.373   0.859   3.251
 7866SOL     OW24496   2.860   0.834   5.467
 7866SOL    HW124497   2.777   0.881   5.497
 7866SOL    HW224498   2.896   0.779   5.542
 7867SOL     OW24499   6.281   3.132   0.974
 7867SOL    HW124500   6.260   3.106   0.880
 7867SOL    HW224501   6.199   3.167   1.018
 7868SOL     OW24502   4.279   6.583   0.876
 7868SOL    HW124503   4.246   6.509   0.818
 7868SOL    HW224504   4.213   6.659   0.874
 7869SOL     OW24505   6.079   1.773   3.962
 7869SOL    HW124506   6.106   1.806   4.053
 7869SOL    HW224507   6.153   1.718   3.923
 7870SOL     OW24508   6.609   0.263   3.614
 7870SOL    HW124509   6.573   0.245   3.522
 7870SOL    HW224510   6.663   0.347   3.612
 7871SOL     OW24511   5.789   3.202   3.860
 7871SOL    HW124512   5.712   3.166   3.807
 7871SOL    HW224513   5.869   3.211   3.800
 7872SOL     OW24514   6.648   4.222   4.411
 7872SOL    HW124515   6.680   4.281   4.485
 7872SOL    HW224516   6.552   4.242   4.391
 7873SOL     OW24517   6.878   5.634   4.742
 7873SOL    HW124518   6.865   5.595   4.651
 7873SOL    HW224519   6.948   5.582   4.791
 7874SOL     OW24520   5.921   7.021   6.912
 7874SOL    HW124521   5.837   7.022   6.966
 7874SOL    HW224522   5.978   0.072   6.937
 7875SOL     OW24523   5.350   3.118   0.166
 7875SOL    HW124524   5.252   3.102   0.165
 7875SOL    HW224525   5.395   3.059   0.099
 7876SOL     OW24526   7.015   1.631   4.496
 7876SOL    HW124527   6.931   1.672   4.533
 7876SOL    HW224528   0.033   1.696   4.435
 7877SOL     OW24529   5.649   3.935   2.093
 7877SOL    HW124530   5.664   3.909   1.997
 7877SOL    HW224531   5.732   3.975   2.130
 7878SOL     OW24532   3.875   3.835   2.268
 7878SOL    HW124533   3.961   3.788   2.251
 7878SOL    HW224534   3.812   3.818   2.192
 7879SOL     OW24535   6.989   1.271   4.964
 7879SOL    HW124536   0.044   1.215   4.973
 7879SOL    HW224537   6.990   1.319   4.876
 7880SOL     OW24538   1.917   5.977   6.628
 7880SOL    HW124539   1.896   6.034   6.708
 7880SOL    HW224540   1.866   6.012   6.549
 7881SOL     OW24541   0.478   5.215   4.831
 7881SOL    HW124542   0.447   5.304   4.798
 7881SOL    HW224543   0.574   5.220   4.858
 7882SOL     OW24544   1.460   4.944   1.378
 7882SOL    HW124545   1.405   4.903   1.450
 7882SOL    HW224546   1.538   4.885   1.358
 7883SOL     OW24547   3.321   2.032   2.185
 7883SOL    HW124548   3.241   2.082   2.220
 7883SOL    HW224549   3.356   2.078   2.103
 7884SOL     OW24550   0.732   2.267   6.048
 7884SOL    HW124551   0.703   2.359   6.073
 7884SOL    HW224552   0.828   2.269   6.019
 7885SOL     OW24553   5.995   5.200   2.564
 7885SOL    HW124554   5.900   5.216   2.590
 7885SOL    HW224555   5.996   5.144   2.481
 7886SOL     OW24556   3.894   4.856   2.970
 7886SOL    HW124557   3.808   4.859   2.919
 7886SOL    HW224558   3.875   4.838   3.066
 7887SOL     OW24559   0.610   3.028   0.521
 7887SOL    HW124560   0.605   3.099   0.451
 7887SOL    HW224561   0.521   2.984   0.529
 7888SOL     OW24562   0.401   1.805   5.412
 7888SOL    HW124563   0.427   1.823   5.318
 7888SOL    HW224564   0.394   1.891   5.462
 7889SOL     OW24565   5.174   4.984   0.465
 7889SOL    HW124566   5.266   4.998   0.501
 7889SOL    HW224567   5.178   4.926   0.384
 7890SOL     OW24568   2.051   2.948   2.004
 7890SOL    HW124569   2.048   2.968   2.102
 7890SOL    HW224570   2.089   2.857   1.990
 7891SOL     OW24571   5.942   1.357   4.235
 7891SOL    HW124572   5.897   1.442   4.264
 7891SOL    HW224573   5.880   1.280   4.249
 7892SOL     OW24574   1.177   2.182   4.070
 7892SOL    HW124575   1.101   2.243   4.093
 7892SOL    HW224576   1.235   2.169   4.151
 7893SOL     OW24577   5.075   6.189   1.264
 7893SOL    HW124578   5.086   6.240   1.349
 7893SOL    HW224579   5.095   6.093   1.280
 7894SOL     OW24580   3.098   0.346   0.055
 7894SOL    HW124581   3.097   0.321   6.985
 7894SOL    HW224582   3.171   0.412   0.072
 7895SOL     OW24583   5.450   6.465   2.991
 7895SOL    HW124584   5.442   6.472   3.091
 7895SOL    HW224585   5.545   6.445   2.967
 7896SOL     OW24586   2.734   2.120   0.617
 7896SOL    HW124587   2.815   2.101   0.562
 7896SOL    HW224588   2.708   2.216   0.607
 7897SOL     OW24589   4.854   1.325   1.644
 7897SOL    HW124590   4.780   1.293   1.585
 7897SOL    HW224591   4.940   1.322   1.594
 7898SOL     OW24592   4.459   6.326   2.884
 7898SOL    HW124593   4.512   6.330   2.799
 7898SOL    HW224594   4.365   6.299   2.864
 7899SOL     OW24595   5.971   4.879   2.694
 7899SOL    HW124596   5.998   4.795   2.741
 7899SOL    HW224597   6.043   4.947   2.703
 7900SOL     OW24598   0.182   3.259   0.711
 7900SOL    HW124599   0.112   3.257   0.641
 7900SOL    HW224600   0.271   3.280   0.669
 7901SOL     OW24601   0.557   2.281   0.144
 7901SOL    HW124602   0.495   2.289   0.222
 7901SOL    HW224603   0.647   2.251   0.176
 7902SOL     OW24604   1.912   0.147   1.231
 7902SOL    HW124605   1.944   0.165   1.138
 7902SOL    HW224606   1.969   0.077   1.273
 7903SOL     OW24607   2.896   1.826   5.810
 7903SOL    HW124608   2.954   1.762   5.759
 7903SOL    HW224609   2.855   1.891   5.746
 7904SOL     OW24610   5.376   3.371   2.784
 7904SOL    HW124611   5.300   3.399   2.843
 7904SOL    HW224612   5.343   3.362   2.690
 7905SOL     OW24613   6.299   2.172   1.752
 7905SOL    HW124614   6.254   2.096   1.705
 7905SOL    HW224615   6.386   2.141   1.789
 7906SOL     OW24616   0.121   5.951   6.233
 7906SOL    HW124617   0.136   6.036   6.183
 7906SOL    HW224618   0.188   5.942   6.306
 7907SOL     OW24619   5.654   5.987   3.709
 7907SOL    HW124620   5.682   6.083   3.704
 7907SOL    HW224621   5.721   5.929   3.662
 7908SOL     OW24622   1.842   0.209   5.694
 7908SOL    HW124623   1.810   0.173   5.782
 7908SOL    HW224624   1.764   0.223   5.633
 7909SOL     OW24625   6.554   3.604   1.950
 7909SOL    HW124626   6.560   3.568   1.857
 7909SOL    HW224627   6.515   3.696   1.947
 7910SOL     OW24628   1.599   3.963   4.908
 7910SOL    HW124629   1.537   4.024   4.858
 7910SOL    HW224630   1.656   4.017   4.970
 7911SOL     OW24631   5.862   3.816   5.753
 7911SOL    HW124632   5.857   3.901   5.701
 7911SOL    HW224633   5.889   3.837   5.847
 7912SOL     OW24634   5.366   6.018   1.513
 7912SOL    HW124635   5.364   5.942   1.578
 7912SOL    HW224636   5.378   5.983   1.421
 7913SOL     OW24637   1.482   5.062   6.392
 7913SOL    HW124638   1.385   5.041   6.401
 7913SOL    HW224639   1.536   4.980   6.413
 7914SOL     OW24640   1.063   6.857   4.860
 7914SOL    HW124641   1.160   6.879   4.844
 7914SOL    HW224642   1.016   6.848   4.772
 7915SOL     OW24643   3.485   5.602   2.018
 7915SOL    HW124644   3.446   5.693   2.034
 7915SOL    HW224645   3.559   5.586   2.082
 7916SOL     OW24646   1.490   0.893   4.341
 7916SOL    HW124647   1.561   0.959   4.315
 7916SOL    HW224648   1.522   0.839   4.419
 7917SOL     OW24649   5.165   2.146   2.689
 7917SOL    HW124650   5.117   2.229   2.662
 7917SOL    HW224651   5.260   2.168   2.711
 7918SOL     OW24652   1.707   2.552   2.386
 7918SOL    HW124653   1.734   2.480   2.450
 7918SOL    HW224654   1.785   2.576   2.328
 7919SOL     OW24655   0.577   6.681   4.939
 7919SOL    HW124656   0.626   6.596   4.923
 7919SOL    HW224657   0.641   6.752   4.968
 7920SOL     OW24658   5.170   6.751   0.801
 7920SOL    HW124659   5.195   6.847   0.791
 7920SOL    HW224660   5.183   6.722   0.896
 7921SOL     OW24661   5.430   3.375   0.706
 7921SOL    HW124662   5.372   3.457   0.694
 7921SOL    HW224663   5.484   3.361   0.623
 7922SOL     OW24664   2.174   6.385   3.591
 7922SOL    HW124665   2.080   6.416   3.599
 7922SOL    HW224666   2.233   6.463   3.571
 7923SOL     OW24667   4.879   6.974   0.914
 7923SOL    HW124668   4.954   6.919   0.951
 7923SOL    HW224669   4.896   0.044   0.936
 7924SOL     OW24670   5.729   5.926   6.924
 7924SOL    HW124671   5.669   5.912   6.846
 7924SOL    HW224672   5.787   5.845   6.937
 7925SOL     OW24673   1.965   5.023   5.947
 7925SOL    HW124674   1.991   4.971   6.028
 7925SOL    HW224675   2.012   4.985   5.867
 7926SOL     OW24676   4.422   5.495   5.911
 7926SOL    HW124677   4.336   5.472   5.957
 7926SOL    HW224678   4.470   5.411   5.886
 7927SOL     OW24679   4.822   0.129   3.354
 7927SOL    HW124680   4.879   0.206   3.381
 7927SOL    HW224681   4.746   0.120   3.419
 7928SOL     OW24682   5.740   2.094   4.276
 7928SOL    HW124683   5.797   2.152   4.218
 7928SOL    HW224684   5.798   2.045   4.341
 7929SOL     OW24685   4.593   3.834   5.425
 7929SOL    HW124686   4.552   3.886   5.500
 7929SOL    HW224687   4.605   3.893   5.345
 7930SOL     OW24688   4.096   5.192   0.707
 7930SOL    HW124689   4.111   5.154   0.615
 7930SOL    HW224690   4.007   5.238   0.709
 7931SOL     OW24691   4.854   0.701   0.782
 7931SOL    HW124692   4.791   0.773   0.811
 7931SOL    HW224693   4.807   0.639   0.719
 7932SOL     OW24694   0.944   3.530   1.026
 7932SOL    HW124695   0.868   3.590   1.001
 7932SOL    HW224696   0.973   3.551   1.119
 7933SOL     OW24697   1.582   1.649   0.653
 7933SOL    HW124698   1.660   1.614   0.600
 7933SOL    HW224699   1.510   1.680   0.591
 7934SOL     OW24700   6.663   5.275   0.917
 7934SOL    HW124701   6.597   5.201   0.930
 7934SOL    HW224702   6.753   5.247   0.950
 7935SOL     OW24703   6.107   3.544   3.430
 7935SOL    HW124704   6.167   3.623   3.418
 7935SOL    HW224705   6.012   3.573   3.424
 7936SOL     OW24706   2.289   6.183   3.416
 7936SOL    HW124707   2.364   6.227   3.366
 7936SOL    HW224708   2.256   6.243   3.488
 7937SOL     OW24709   3.865   1.659   0.971
 7937SOL    HW124710   3.811   1.739   0.998
 7937SOL    HW224711   3.940   1.645   1.037
 7938SOL     OW24712   2.355   6.589   3.609
 7938SOL    HW124713   2.428   6.572   3.544
 7938SOL    HW224714   2.382   6.557   3.699
 7939SOL     OW24715   1.451   0.064   2.662
 7939SOL    HW124716   1.538   0.014   2.662
 7939SOL    HW224717   1.428   0.091   2.568
 7940SOL     OW24718   6.626   1.946   5.372
 7940SOL    HW124719   6.568   1.992   5.305
 7940SOL    HW224720   6.677   1.873   5.327
 7941SOL     OW24721   3.370   6.969   0.708
 7941SOL    HW124722   3.303   0.005   0.747
 7941SOL    HW224723   3.325   6.908   0.643
 7942SOL     OW24724   0.864   3.925   0.988
 7942SOL    HW124725   0.793   3.988   1.022
 7942SOL    HW224726   0.918   3.892   1.065
 7943SOL     OW24727   1.997   5.695   0.219
 7943SOL    HW124728   1.906   5.727   0.191
 7943SOL    HW224729   2.042   5.767   0.272
 7944SOL     OW24730   1.209   1.788   0.979
 7944SOL    HW124731   1.294   1.796   1.030
 7944SOL    HW224732   1.137   1.842   1.024
 7945SOL     OW24733   6.345   3.967   3.119
 7945SOL    HW124734   6.404   3.895   3.155
 7945SOL    HW224735   6.285   4.001   3.191
 7946SOL     OW24736   4.671   1.494   5.927
 7946SOL    HW124737   4.760   1.517   5.886
 7946SOL    HW224738   4.634   1.413   5.882
 7947SOL     OW24739   0.721   3.825   6.672
 7947SOL    HW124740   0.697   3.907   6.723
 7947SOL    HW224741   0.819   3.809   6.678
 7948SOL     OW24742   1.268   5.425   1.349
 7948SOL    HW124743   1.242   5.521   1.346
 7948SOL    HW224744   1.273   5.389   1.256
 7949SOL     OW24745   3.177   5.534   5.205
 7949SOL    HW124746   3.170   5.437   5.180
 7949SOL    HW224747   3.271   5.565   5.192
 7950SOL     OW24748   6.491   3.356   5.648
 7950SOL    HW124749   6.402   3.336   5.689
 7950SOL    HW224750   6.491   3.449   5.611
 7951SOL     OW24751   3.732   0.438   3.054
 7951SOL    HW124752   3.671   0.502   3.007
 7951SOL    HW224753   3.680   0.358   3.084
 7952SOL     OW24754   6.696   3.203   5.341
 7952SOL    HW124755   6.725   3.299   5.347
 7952SOL    HW224756   6.731   3.153   5.420
 7953SOL     OW24757   1.883   6.814   0.515
 7953SOL    HW124758   1.967   6.793   0.566
 7953SOL    HW224759   1.803   6.791   0.570
 7954SOL     OW24760   3.465   2.556   6.902
 7954SOL    HW124761   3.471   2.513   6.992
 7954SOL    HW224762   3.547   2.534   6.849
 7955SOL     OW24763   6.733   0.815   6.408
 7955SOL    HW124764   6.638   0.824   6.437
 7955SOL    HW224765   6.786   0.893   6.442
 7956SOL     OW24766   0.333   0.279   0.747
 7956SOL    HW124767   0.290   0.191   0.768
 7956SOL    HW224768   0.422   0.283   0.791
 7957SOL     OW24769   5.460   1.482   5.606
 7957SOL    HW124770   5.475   1.559   5.544
 7957SOL    HW224771   5.387   1.505   5.671
 7958SOL     OW24772   4.817   2.330   6.628
 7958SOL    HW124773   4.812   2.379   6.715
 7958SOL    HW224774   4.782   2.237   6.640
 7959SOL     OW24775   5.060   3.157   6.870
 7959SOL    HW124776   4.990   3.192   6.808
 7959SOL    HW224777   5.101   3.075   6.831
 7960SOL     OW24778   0.702   1.593   4.864
 7960SOL    HW124779   0.729   1.637   4.778
 7960SOL    HW224780   0.688   1.662   4.934
 7961SOL     OW24781   6.448   0.305   6.772
 7961SOL    HW124782   6.402   0.216   6.777
 7961SOL    HW224783   6.491   0.315   6.683
 7962SOL     OW24784   5.787   6.998   5.025
 7962SOL    HW124785   5.818   0.057   4.983
 7962SOL    HW224786   5.835   6.922   4.981
 7963SOL     OW24787   5.329   6.141   2.755
 7963SOL    HW124788   5.291   6.233   2.765
 7963SOL    HW224789   5.369   6.112   2.842
 7964SOL     OW24790   0.010   4.038   1.688
 7964SOL    HW124791   7.004   4.091   1.610
 7964SOL    HW224792   6.962   4.020   1.751
 7965SOL     OW24793   4.388   1.859   6.553
 7965SOL    HW124794   4.303   1.807   6.565
 7965SOL    HW224795   4.447   1.844   6.633
 7966SOL     OW24796   5.737   3.377   5.049
 7966SOL    HW124797   5.731   3.388   5.148
 7966SOL    HW224798   5.672   3.307   5.019
 7967SOL     OW24799   1.658   4.209   1.907
 7967SOL    HW124800   1.656   4.121   1.859
 7967SOL    HW224801   1.588   4.269   1.868
 7968SOL     OW24802   2.408   2.475   3.739
 7968SOL    HW124803   2.378   2.384   3.708
 7968SOL    HW224804   2.490   2.465   3.796
 7969SOL     OW24805   3.300   4.448   6.712
 7969SOL    HW124806   3.294   4.387   6.633
 7969SOL    HW224807   3.252   4.533   6.692
 7970SOL     OW24808   6.416   3.145   2.888
 7970SOL    HW124809   6.392   3.053   2.919
 7970SOL    HW224810   6.480   3.139   2.812
 7971SOL     OW24811   3.133   0.144   0.250
 7971SOL    HW124812   3.126   0.196   0.165
 7971SOL    HW224813   3.219   0.169   0.296
 7972SOL     OW24814   4.056   3.463   4.741
 7972SOL    HW124815   4.141   3.505   4.771
 7972SOL    HW224816   4.004   3.528   4.686
 7973SOL     OW24817   0.494   5.262   2.159
 7973SOL    HW124818   0.406   5.218   2.175
 7973SOL    HW224819   0.518   5.319   2.238
 7974SOL     OW24820   0.017   2.762   4.707
 7974SOL    HW124821   0.043   2.853   4.675
 7974SOL    HW224822   0.096   2.701   4.702
 7975SOL     OW24823   3.878   6.999   6.759
 7975SOL    HW124824   3.885   6.908   6.799
 7975SOL    HW224825   3.911   0.040   6.824
 7976SOL     OW24826   0.819   0.814   0.470
 7976SOL    HW124827   0.882   0.753   0.518
 7976SOL    HW224828   0.822   0.795   0.372
 7977SOL     OW24829   4.727   5.357   3.157
 7977SOL    HW124830   4.711   5.454   3.144
 7977SOL    HW224831   4.691   5.306   3.079
 7978SOL     OW24832   0.191   4.223   0.894
 7978SOL    HW124833   0.254   4.208   0.817
 7978SOL    HW224834   0.230   4.183   0.977
 7979SOL     OW24835   3.142   2.734   5.559
 7979SOL    HW124836   3.042   2.725   5.561
 7979SOL    HW224837   3.177   2.692   5.475
 7980SOL     OW24838   3.775   6.187   2.452
 7980SOL    HW124839   3.788   6.239   2.536
 7980SOL    HW224840   3.766   6.090   2.474
 7981SOL     OW24841   1.260   3.228   5.018
 7981SOL    HW124842   1.233   3.323   5.030
 7981SOL    HW224843   1.316   3.219   4.936
 7982SOL     OW24844   6.843   6.955   0.440
 7982SOL    HW124845   6.918   6.974   0.504
 7982SOL    HW224846   6.789   0.011   0.427
 7983SOL     OW24847   3.497   1.418   1.378
 7983SOL    HW124848   3.593   1.388   1.378
 7983SOL    HW224849   3.449   1.378   1.300
 7984SOL     OW24850   6.248   2.914   2.754
 7984SOL    HW124851   6.199   2.979   2.812
 7984SOL    HW224852   6.227   2.821   2.784
 7985SOL     OW24853   3.377   3.527   5.882
 7985SOL    HW124854   3.349   3.438   5.847
 7985SOL    HW224855   3.391   3.520   5.981
 7986SOL     OW24856   3.036   0.945   3.882
 7986SOL    HW124857   3.052   1.037   3.919
 7986SOL    HW224858   3.102   0.927   3.808
 7987SOL     OW24859   1.454   2.989   5.753
 7987SOL    HW124860   1.407   3.068   5.792
 7987SOL    HW224861   1.537   2.969   5.807
 7988SOL     OW24862   6.646   0.524   1.481
 7988SOL    HW124863   6.673   0.495   1.389
 7988SOL    HW224864   6.620   0.444   1.535
 7989SOL     OW24865   0.657   4.565   1.257
 7989SOL    HW124866   0.726   4.552   1.186
 7989SOL    HW224867   0.602   4.646   1.237
 7990SOL     OW24868   4.244   5.040   5.228
 7990SOL    HW124869   4.321   5.045   5.292
 7990SOL    HW224870   4.164   5.002   5.274
 7991SOL     OW24871   5.238   0.902   4.545
 7991SOL    HW124872   5.282   0.827   4.594
 7991SOL    HW224873   5.203   0.968   4.611
 7992SOL     OW24874   1.977   0.523   6.964
 7992SOL    HW124875   1.946   0.429   6.979
 7992SOL    HW224876   2.018   0.531   6.873
 7993SOL     OW24877   6.241   6.462   0.990
 7993SOL    HW124878   6.266   6.366   1.001
 7993SOL    HW224879   6.322   6.515   0.969
 7994SOL     OW24880   0.792   1.723   4.618
 7994SOL    HW124881   0.874   1.718   4.562
 7994SOL    HW224882   0.713   1.741   4.560
 7995SOL     OW24883   0.340   6.600   1.641
 7995SOL    HW124884   0.315   6.504   1.656
 7995SOL    HW224885   0.423   6.604   1.585
 7996SOL     OW24886   2.065   6.566   3.855
 7996SOL    HW124887   2.137   6.550   3.789
 7996SOL    HW224888   2.054   6.485   3.914
 7997SOL     OW24889   2.775   0.807   5.826
 7997SOL    HW124890   2.736   0.718   5.848
 7997SOL    HW224891   2.715   0.856   5.763
 7998SOL     OW24892   2.220   0.817   1.105
 7998SOL    HW124893   2.271   0.754   1.048
 7998SOL    HW224894   2.282   0.884   1.145
 7999SOL     OW24895   0.129   1.073   2.489
 7999SOL    HW124896   0.111   1.042   2.582
 7999SOL    HW224897   0.225   1.102   2.481
 8000SOL     OW24898   4.709   5.670   0.854
 8000SOL    HW124899   4.649   5.702   0.928
 8000SOL    HW224900   4.721   5.571   0.862
 8001SOL     OW24901   5.059   4.676   2.156
 8001SOL    HW124902   4.962   4.700   2.158
 8001SOL    HW224903   5.100   4.697   2.245
 8002SOL     OW24904   1.135   0.764   4.750
 8002SOL    HW124905   1.177   0.702   4.817
 8002SOL    HW224906   1.180   0.853   4.755
 8003SOL     OW24907   2.778   5.340   3.021
 8003SOL    HW124908   2.868   5.372   2.991
 8003SOL    HW224909   2.707   5.401   2.987
 8004SOL     OW24910   2.108   3.788   4.010
 8004SOL    HW124911   2.098   3.778   3.911
 8004SOL    HW224912   2.049   3.721   4.056
 8005SOL     OW24913   3.003   0.491   4.462
 8005SOL    HW124914   2.915   0.513   4.419
 8005SOL    HW224915   3.004   0.394   4.486
 8006SOL     OW24916   4.643   5.166   6.079
 8006SOL    HW124917   4.723   5.139   6.133
 8006SOL    HW224918   4.577   5.091   6.078
 8007SOL     OW24919   0.230   0.748   1.205
 8007SOL    HW124920   0.250   0.683   1.279
 8007SOL    HW224921   0.194   0.833   1.244
 8008SOL     OW24922   5.462   5.196   0.841
 8008SOL    HW124923   5.514   5.144   0.909
 8008SOL    HW224924   5.516   5.274   0.810
 8009SOL     OW24925   6.210   0.976   1.183
 8009SOL    HW124926   6.198   1.054   1.245
 8009SOL    HW224927   6.126   0.922   1.181
 8010SOL     OW24928   2.518   0.114   6.272
 8010SOL    HW124929   2.459   0.091   6.350
 8010SOL    HW224930   2.607   0.143   6.306
 8011SOL     OW24931   3.700   2.069   2.584
 8011SOL    HW124932   3.779   2.111   2.627
 8011SOL    HW224933   3.708   2.077   2.484
 8012SOL     OW24934   6.587   0.591   5.285
 8012SOL    HW124935   6.560   0.615   5.192
 8012SOL    HW224936   6.565   0.667   5.346
 8013SOL     OW24937   3.862   0.742   3.196
 8013SOL    HW124938   3.887   0.681   3.271
 8013SOL    HW224939   3.874   0.693   3.109
 8014SOL     OW24940   2.259   2.920   3.312
 8014SOL    HW124941   2.218   2.970   3.388
 8014SOL    HW224942   2.322   2.851   3.347
 8015SOL     OW24943   3.588   6.132   4.910
 8015SOL    HW124944   3.630   6.042   4.900
 8015SOL    HW224945   3.492   6.121   4.936
 8016SOL     OW24946   2.873   3.071   5.300
 8016SOL    HW124947   2.963   3.113   5.312
 8016SOL    HW224948   2.822   3.121   5.229
 8017SOL     OW24949   5.377   6.628   1.676
 8017SOL    HW124950   5.459   6.572   1.667
 8017SOL    HW224951   5.403   6.722   1.695
 8018SOL     OW24952   2.960   2.933   0.732
 8018SOL    HW124953   2.907   2.849   0.746
 8018SOL    HW224954   2.911   2.994   0.669
 8019SOL     OW24955   2.796   3.532   1.056
 8019SOL    HW124956   2.831   3.527   1.149
 8019SOL    HW224957   2.739   3.614   1.046
 8020SOL     OW24958   0.589   0.063   0.454
 8020SOL    HW124959   0.525   0.012   0.512
 8020SOL    HW224960   0.648   7.025   0.405
 8021SOL     OW24961   0.845   2.490   0.599
 8021SOL    HW124962   0.883   2.452   0.683
 8021SOL    HW224963   0.805   2.580   0.618
 8022SOL     OW24964   4.065   0.653   2.695
 8022SOL    HW124965   4.013   0.667   2.779
 8022SOL    HW224966   4.063   0.556   2.670
 8023SOL     OW24967   3.712   4.900   2.122
 8023SOL    HW124968   3.703   4.842   2.203
 8023SOL    HW224969   3.719   4.843   2.040
 8024SOL     OW24970   2.454   0.886   6.015
 8024SOL    HW124971   2.414   0.818   6.076
 8024SOL    HW224972   2.537   0.923   6.057
 8025SOL     OW24973   1.242   6.776   1.175
 8025SOL    HW124974   1.254   6.820   1.086
 8025SOL    HW224975   1.214   6.844   1.243
 8026SOL     OW24976   0.639   6.749   5.812
 8026SOL    HW124977   0.630   6.778   5.717
 8026SOL    HW224978   0.549   6.747   5.855
 8027SOL     OW24979   4.526   6.845   6.440
 8027SOL    HW124980   4.456   6.911   6.415
 8027SOL    HW224981   4.616   6.882   6.416
 8028SOL     OW24982   4.268   5.869   6.412
 8028SOL    HW124983   4.185   5.814   6.418
 8028SOL    HW224984   4.270   5.934   6.488
 8029SOL     OW24985   0.955   6.899   1.595
 8029SOL    HW124986   1.004   6.830   1.543
 8029SOL    HW224987   0.999   6.910   1.685
 8030SOL     OW24988   0.506   3.698   1.095
 8030SOL    HW124989   0.492   3.601   1.077
 8030SOL    HW224990   0.517   3.713   1.194
 8031SOL     OW24991   6.790   0.761   3.510
 8031SOL    HW124992   6.699   0.721   3.518
 8031SOL    HW224993   6.851   0.695   3.465
 8032SOL     OW24994   0.558   3.209   1.260
 8032SOL    HW124995   0.569   3.114   1.231
 8032SOL    HW224996   0.516   3.212   1.350
 8033SOL     OW24997   4.218   5.015   1.160
 8033SOL    HW124998   4.160   5.091   1.187
 8033SOL    HW224999   4.212   5.001   1.061
 8034SOL     OW25000   1.359   1.282   5.435
 8034SOL    HW125001   1.429   1.346   5.468
 8034SOL    HW225002   1.333   1.307   5.342
 8035SOL     OW25003   5.845   0.780   4.813
 8035SOL    HW125004   5.746   0.777   4.825
 8035SOL    HW225005   5.878   0.689   4.786
 8036SOL     OW25006   4.982   4.447   4.109
 8036SOL    HW125007   5.064   4.491   4.143
 8036SOL    HW225008   4.985   4.349   4.130
 8037SOL     OW25009   2.711   1.507   6.610
 8037SOL    HW125010   2.809   1.509   6.628
 8037SOL    HW225011   2.686   1.418   6.573
 8038SOL     OW25012   6.686   5.222   1.860
 8038SOL    HW125013   6.630   5.139   1.858
 8038SOL    HW225014   6.757   5.216   1.790
 8039SOL     OW25015   2.072   2.714   5.071
 8039SOL    HW125016   2.170   2.734   5.080
 8039SOL    HW225017   2.046   2.648   5.142
 8040SOL     OW25018   0.951   6.817   5.803
 8040SOL    HW125019   0.948   6.803   5.704
 8040SOL    HW225020   0.877   6.878   5.831
 8041SOL     OW25021   3.234   1.736   2.767
 8041SOL    HW125022   3.307   1.781   2.819
 8041SOL    HW225023   3.232   1.774   2.674
 8042SOL     OW25024   4.475   4.034   5.937
 8042SOL    HW125025   4.394   4.081   5.904
 8042SOL    HW225026   4.532   4.097   5.990
 8043SOL     OW25027   5.455   5.201   7.019
 8043SOL    HW125028   5.528   5.232   0.052
 8043SOL    HW225029   5.484   5.210   6.924
 8044SOL     OW25030   1.155   3.027   1.422
 8044SOL    HW125031   1.163   3.081   1.506
 8044SOL    HW225032   1.230   3.049   1.361
 8045SOL     OW25033   5.918   3.436   4.835
 8045SOL    HW125034   5.857   3.448   4.913
 8045SOL    HW225035   6.007   3.405   4.867
 8046SOL     OW25036   0.354   4.249   0.633
 8046SOL    HW125037   0.337   4.309   0.555
 8046SOL    HW225038   0.379   4.158   0.600
 8047SOL     OW25039   3.447   6.383   6.671
 8047SOL    HW125040   3.521   6.436   6.711
 8047SOL    HW225041   3.486   6.311   6.613
 8048SOL     OW25042   4.241   2.099   6.431
 8048SOL    HW125043   4.242   2.125   6.528
 8048SOL    HW225044   4.281   2.008   6.420
 8049SOL     OW25045   2.056   1.291   1.052
 8049SOL    HW125046   2.115   1.218   1.018
 8049SOL    HW225047   2.041   1.358   0.980
 8050SOL     OW25048   0.451   5.350   5.826
 8050SOL    HW125049   0.438   5.265   5.775
 8050SOL    HW225050   0.478   5.330   5.920
 8051SOL     OW25051   4.116   6.537   2.967
 8051SOL    HW125052   4.146   6.487   3.048
 8051SOL    HW225053   4.182   6.608   2.944
 8052SOL     OW25054   2.556   1.497   3.014
 8052SOL    HW125055   2.636   1.538   3.058
 8052SOL    HW225056   2.494   1.462   3.084
 8053SOL     OW25057   1.256   1.822   6.612
 8053SOL    HW125058   1.271   1.822   6.513
 8053SOL    HW225059   1.328   1.876   6.656
 8054SOL     OW25060   5.061   3.756   5.062
 8054SOL    HW125061   5.154   3.722   5.073
 8054SOL    HW225062   5.053   3.804   4.974
 8055SOL     OW25063   6.914   0.397   6.539
 8055SOL    HW125064   6.947   0.443   6.456
 8055SOL    HW225065   6.953   0.305   6.543
 8056SOL     OW25066   2.288   2.320   2.914
 8056SOL    HW125067   2.351   2.398   2.910
 8056SOL    HW225068   2.315   2.253   2.845
 8057SOL     OW25069   3.360   2.073   1.907
 8057SOL    HW125070   3.265   2.057   1.882
 8057SOL    HW225071   3.402   2.136   1.841
 8058SOL     OW25072   3.685   6.504   1.606
 8058SOL    HW125073   3.718   6.598   1.608
 8058SOL    HW225074   3.713   6.457   1.690
 8059SOL     OW25075   4.379   3.942   5.626
 8059SOL    HW125076   4.313   3.993   5.680
 8059SOL    HW225077   4.461   3.926   5.681
 8060SOL     OW25078   0.232   1.335   5.362
 8060SOL    HW125079   0.286   1.313   5.281
 8060SOL    HW225080   0.293   1.368   5.434
 8061SOL     OW25081   6.840   0.854   1.286
 8061SOL    HW125082   6.884   0.765   1.281
 8061SOL    HW225083   6.906   0.925   1.259
 8062SOL     OW25084   4.190   4.489   6.344
 8062SOL    HW125085   4.204   4.460   6.439
 8062SOL    HW225086   4.271   4.466   6.290
 8063SOL     OW25087   2.323   4.737   2.939
 8063SOL    HW125088   2.296   4.739   2.843
 8063SOL    HW225089   2.372   4.822   2.962
 8064SOL     OW25090   0.064   2.885   0.452
 8064SOL    HW125091   0.005   2.855   0.376
 8064SOL    HW225092   0.088   2.805   0.508
 8065SOL     OW25093   4.656   0.390   6.460
 8065SOL    HW125094   4.680   0.485   6.481
 8065SOL    HW225095   4.577   0.363   6.514
 8066SOL     OW25096   6.560   0.973   6.027
 8066SOL    HW125097   6.615   0.894   6.001
 8066SOL    HW225098   6.499   0.999   5.951
 8067SOL     OW25099   5.049   0.991   4.315
 8067SOL    HW125100   5.080   1.047   4.238
 8067SOL    HW225101   5.102   1.014   4.396
 8068SOL     OW25102   6.956   4.696   1.304
 8068SOL    HW125103   6.969   4.636   1.225
 8068SOL    HW225104   6.949   4.640   1.387
 8069SOL     OW25105   1.380   2.554   1.902
 8069SOL    HW125106   1.467   2.599   1.924
 8069SOL    HW225107   1.309   2.623   1.888
 8070SOL     OW25108   5.258   4.024   1.630
 8070SOL    HW125109   5.219   3.955   1.691
 8070SOL    HW225110   5.324   4.080   1.681
 8071SOL     OW25111   2.206   0.301   5.997
 8071SOL    HW125112   2.193   0.229   6.065
 8071SOL    HW225113   2.194   0.264   5.905
 8072SOL     OW25114   2.461   2.490   5.752
 8072SOL    HW125115   2.412   2.414   5.794
 8072SOL    HW225116   2.395   2.551   5.707
 8073SOL     OW25117   5.584   6.773   6.448
 8073SOL    HW125118   5.673   6.772   6.400
 8073SOL    HW225119   5.589   6.713   6.528
 8074SOL     OW25120   6.456   0.853   1.103
 8074SOL    HW125121   6.383   0.911   1.140
 8074SOL    HW225122   6.426   0.812   1.017
 8075SOL     OW25123   0.484   0.763   1.036
 8075SOL    HW125124   0.395   0.738   1.075
 8075SOL    HW225125   0.555   0.750   1.105
 8076SOL     OW25126   6.760   5.574   0.394
 8076SOL    HW125127   6.782   5.670   0.373
 8076SOL    HW225128   6.818   5.542   0.469
 8077SOL     OW25129   6.324   3.780   1.224
 8077SOL    HW125130   6.244   3.818   1.272
 8077SOL    HW225131   6.395   3.850   1.218
 8078SOL     OW25132   6.228   1.918   1.654
 8078SOL    HW125133   6.269   1.901   1.564
 8078SOL    HW225134   6.280   1.870   1.724
 8079SOL     OW25135   0.079   0.988   6.751
 8079SOL    HW125136   0.178   0.993   6.740
 8079SOL    HW225137   0.039   1.078   6.735
 8080SOL     OW25138   0.427   3.648   3.840
 8080SOL    HW125139   0.354   3.716   3.848
 8080SOL    HW225140   0.388   3.556   3.847
 8081SOL     OW25141   6.097   0.515   5.508
 8081SOL    HW125142   6.164   0.486   5.576
 8081SOL    HW225143   6.019   0.453   5.510
 8082SOL     OW25144   5.139   2.171   4.798
 8082SOL    HW125145   5.183   2.237   4.860
 8082SOL    HW225146   5.193   2.087   4.796
 8083SOL     OW25147   6.761   2.959   4.241
 8083SOL    HW125148   6.747   2.863   4.266
 8083SOL    HW225149   6.680   2.993   4.193
 8084SOL     OW25150   5.582   1.693   0.034
 8084SOL    HW125151   5.498   1.641   0.048
 8084SOL    HW225152   5.560   1.782   7.020
 8085SOL     OW25153   1.559   6.328   4.662
 8085SOL    HW125154   1.533   6.285   4.575
 8085SOL    HW225155   1.594   6.420   4.645
 8086SOL     OW25156   0.381   2.596   2.270
 8086SOL    HW125157   0.326   2.605   2.353
 8086SOL    HW225158   0.478   2.610   2.293
 8087SOL     OW25159   6.539   0.419   6.217
 8087SOL    HW125160   6.616   0.358   6.235
 8087SOL    HW225161   6.513   0.412   6.120
 8088SOL     OW25162   0.071   6.954   5.194
 8088SOL    HW125163   7.013   6.923   5.152
 8088SOL    HW225164   0.124   7.007   5.127
 8089SOL     OW25165   6.299   1.240   0.193
 8089SOL    HW125166   6.347   1.175   0.251
 8089SOL    HW225167   6.356   1.321   0.179
 8090SOL     OW25168   4.532   2.080   4.705
 8090SOL    HW125169   4.549   2.165   4.756
 8090SOL    HW225170   4.619   2.041   4.675
 8091SOL     OW25171   0.877   3.576   4.894
 8091SOL    HW125172   0.799   3.637   4.908
 8091SOL    HW225173   0.850   3.482   4.913
 8092SOL     OW25174   4.890   6.985   5.488
 8092SOL    HW125175   4.828   6.914   5.454
 8092SOL    HW225176   4.957   6.944   5.549
 8093SOL     OW25177   3.453   0.077   3.401
 8093SOL    HW125178   3.498   0.158   3.440
 8093SOL    HW225179   3.434   0.012   3.475
 8094SOL     OW25180   1.711   4.599   3.949
 8094SOL    HW125181   1.694   4.513   3.901
 8094SOL    HW225182   1.760   4.662   3.888
 8095SOL     OW25183   1.097   5.613   4.418
 8095SOL    HW125184   1.124   5.703   4.384
 8095SOL    HW225185   1.131   5.543   4.356
 8096SOL     OW25186   0.551   4.843   0.948
 8096SOL    HW125187   0.585   4.828   1.041
 8096SOL    HW225188   0.629   4.851   0.885
 8097SOL     OW25189   4.704   6.733   0.579
 8097SOL    HW125190   4.674   6.643   0.549
 8097SOL    HW225191   4.731   6.787   0.499
 8098SOL     OW25192   2.707   6.427   4.646
 8098SOL    HW125193   2.778   6.498   4.654
 8098SOL    HW225194   2.669   6.408   4.736
 8099SOL     OW25195   2.141   3.672   2.674
 8099SOL    HW125196   2.183   3.603   2.731
 8099SOL    HW225197   2.127   3.635   2.582
 8100SOL     OW25198   6.778   6.674   0.490
 8100SOL    HW125199   6.866   6.628   0.489
 8100SOL    HW225200   6.789   6.768   0.458
 8101SOL     OW25201   2.320   4.912   0.256
 8101SOL    HW125202   2.305   5.010   0.244
 8101SOL    HW225203   2.362   4.895   0.345
 8102SOL     OW25204   1.353   4.378   3.877
 8102SOL    HW125205   1.312   4.444   3.939
 8102SOL    HW225206   1.453   4.381   3.886
 8103SOL     OW25207   4.378   0.499   1.518
 8103SOL    HW125208   4.389   0.502   1.618
 8103SOL    HW225209   4.281   0.503   1.495
 8104SOL     OW25210   0.919   6.052   6.975
 8104SOL    HW125211   0.832   6.034   6.929
 8104SOL    HW225212   0.979   5.972   6.965
 8105SOL     OW25213   6.810   6.914   2.612
 8105SOL    HW125214   6.901   6.947   2.636
 8105SOL    HW225215   6.741   6.974   2.652
 8106SOL     OW25216   3.257   6.175   6.665
 8106SOL    HW125217   3.283   6.122   6.584
 8106SOL    HW225218   3.330   6.240   6.687
 8107SOL     OW25219   1.022   6.418   0.443
 8107SOL    HW125220   0.971   6.469   0.374
 8107SOL    HW225221   0.975   6.332   0.464
 8108SOL     OW25222   1.767   1.180   0.989
 8108SOL    HW125223   1.796   1.236   1.066
 8108SOL    HW225224   1.786   1.083   1.008
 8109SOL     OW25225   0.378   3.861   2.254
 8109SOL    HW125226   0.417   3.807   2.329
 8109SOL    HW225227   0.427   3.948   2.247
 8110SOL     OW25228   4.488   4.232   0.008
 8110SOL    HW125229   4.458   4.153   0.061
 8110SOL    HW225230   4.575   4.212   6.991
 8111SOL     OW25231   5.634   2.023   2.402
 8111SOL    HW125232   5.597   2.073   2.481
 8111SOL    HW225233   5.677   1.939   2.433
 8112SOL     OW25234   2.201   4.812   6.610
 8112SOL    HW125235   2.107   4.798   6.640
 8112SOL    HW225236   2.228   4.737   6.548
 8113SOL     OW25237   5.601   5.137   6.532
 8113SOL    HW125238   5.531   5.068   6.511
 8113SOL    HW225239   5.676   5.095   6.581
 8114SOL     OW25240   2.092   3.424   2.885
 8114SOL    HW125241   2.131   3.338   2.919
 8114SOL    HW225242   2.025   3.458   2.951
 8115SOL     OW25243   2.391   1.770   6.092
 8115SOL    HW125244   2.459   1.831   6.052
 8115SOL    HW225245   2.436   1.690   6.131
 8116SOL     OW25246   4.079   3.156   2.379
 8116SOL    HW125247   3.989   3.186   2.346
 8116SOL    HW225248   4.115   3.086   2.318
 8117SOL     OW25249   0.977   0.248   4.059
 8117SOL    HW125250   0.917   0.327   4.052
 8117SOL    HW225251   0.936   0.169   4.012
 8118SOL     OW25252   6.723   2.348   6.470
 8118SOL    HW125253   6.695   2.436   6.431
 8118SOL    HW225254   6.647   2.284   6.466
 8119SOL     OW25255   5.386   4.928   6.513
 8119SOL    HW125256   5.337   4.844   6.492
 8119SOL    HW225257   5.322   4.999   6.541
 8120SOL     OW25258   1.931   6.453   2.196
 8120SOL    HW125259   1.927   6.363   2.242
 8120SOL    HW225260   1.986   6.445   2.113
 8121SOL     OW25261   1.691   2.590   2.858
 8121SOL    HW125262   1.623   2.623   2.792
 8121SOL    HW225263   1.781   2.587   2.814
 8122SOL     OW25264   0.979   4.794   1.458
 8122SOL    HW125265   0.972   4.874   1.518
 8122SOL    HW225266   0.982   4.711   1.513
 8123SOL     OW25267   6.599   1.655   6.153
 8123SOL    HW125268   6.623   1.649   6.250
 8123SOL    HW225269   6.576   1.749   6.130
 8124SOL     OW25270   6.486   6.005   5.340
 8124SOL    HW125271   6.484   6.105   5.337
 8124SOL    HW225272   6.507   5.974   5.432
 8125SOL     OW25273   0.730   6.377   2.190
 8125SOL    HW125274   0.708   6.466   2.231
 8125SOL    HW225275   0.824   6.353   2.214
 8126SOL     OW25276   3.548   5.386   4.411
 8126SOL    HW125277   3.621   5.376   4.479
 8126SOL    HW225278   3.504   5.475   4.422
 8127SOL     OW25279   4.290   1.238   6.036
 8127SOL    HW125280   4.363   1.261   6.101
 8127SOL    HW225281   4.218   1.308   6.040
 8128SOL     OW25282   3.314   3.307   1.322
 8128SOL    HW125283   3.279   3.381   1.265
 8128SOL    HW225284   3.253   3.228   1.314
 8129SOL     OW25285   6.769   2.766   3.510
 8129SOL    HW125286   6.696   2.752   3.443
 8129SOL    HW225287   6.840   2.697   3.497
 8130SOL     OW25288   6.949   6.711   0.158
 8130SOL    HW125289   6.928   6.689   0.253
 8130SOL    HW225290   7.011   6.789   0.154
 8131SOL     OW25291   2.132   2.708   0.821
 8131SOL    HW125292   2.162   2.731   0.728
 8131SOL    HW225293   2.210   2.675   0.874
 8132SOL     OW25294   6.437   1.778   4.417
 8132SOL    HW125295   6.426   1.684   4.386
 8132SOL    HW225296   6.349   1.814   4.447
 8133SOL     OW25297   3.902   5.283   1.589
 8133SOL    HW125298   3.965   5.354   1.558
 8133SOL    HW225299   3.859   5.239   1.510
 8134SOL     OW25300   5.685   1.736   6.693
 8134SOL    HW125301   5.718   1.679   6.768
 8134SOL    HW225302   5.727   1.705   6.607
 8135SOL     OW25303   2.459   6.055   1.830
 8135SOL    HW125304   2.464   5.959   1.804
 8135SOL    HW225305   2.520   6.072   1.907
 8136SOL     OW25306   4.426   4.921   2.499
 8136SOL    HW125307   4.367   5.002   2.489
 8136SOL    HW225308   4.518   4.950   2.524
 8137SOL     OW25309   4.655   0.926   5.730
 8137SOL    HW125310   4.565   0.882   5.729
 8137SOL    HW225311   4.689   0.932   5.824
 8138SOL     OW25312   5.825   0.812   2.355
 8138SOL    HW125313   5.779   0.830   2.268
 8138SOL    HW225314   5.811   0.717   2.382
 8139SOL     OW25315   0.488   1.271   4.514
 8139SOL    HW125316   0.465   1.260   4.417
 8139SOL    HW225317   0.571   1.218   4.534
 8140SOL     OW25318   4.803   2.674   3.206
 8140SOL    HW125319   4.750   2.616   3.143
 8140SOL    HW225320   4.806   2.768   3.170
 8141SOL     OW25321   5.719   3.881   3.745
 8141SOL    HW125322   5.818   3.889   3.731
 8141SOL    HW225323   5.691   3.786   3.732
 8142SOL     OW25324   0.224   6.150   0.449
 8142SOL    HW125325   0.222   6.099   0.535
 8142SOL    HW225326   0.178   6.098   0.378
 8143SOL     OW25327   6.470   2.859   5.884
 8143SOL    HW125328   6.525   2.779   5.910
 8143SOL    HW225329   6.495   2.936   5.943
 8144SOL     OW25330   4.962   6.001   0.211
 8144SOL    HW125331   5.025   6.012   0.134
 8144SOL    HW225332   4.897   6.077   0.212
 8145SOL     OW25333   4.683   6.239   4.298
 8145SOL    HW125334   4.615   6.229   4.370
 8145SOL    HW225335   4.637   6.246   4.209
 8146SOL     OW25336   3.653   1.582   3.510
 8146SOL    HW125337   3.620   1.670   3.477
 8146SOL    HW225338   3.631   1.511   3.443
 8147SOL     OW25339   4.782   1.504   3.112
 8147SOL    HW125340   4.819   1.581   3.164
 8147SOL    HW225341   4.857   1.453   3.071
 8148SOL     OW25342   7.009   3.903   2.979
 8148SOL    HW125343   6.984   3.806   2.980
 8148SOL    HW225344   0.066   3.916   3.032
 8149SOL     OW25345   4.008   5.453   4.150
 8149SOL    HW125346   4.094   5.471   4.101
 8149SOL    HW225347   3.940   5.521   4.122
 8150SOL     OW25348   0.984   6.599   1.255
 8150SOL    HW125349   0.952   6.593   1.160
 8150SOL    HW225350   1.082   6.620   1.256
 8151SOL     OW25351   0.504   1.999   4.667
 8151SOL    HW125352   0.579   2.001   4.600
 8151SOL    HW225353   0.450   1.916   4.654
 8152SOL     OW25354   1.088   0.560   3.641
 8152SOL    HW125355   1.007   0.544   3.697
 8152SOL    HW225356   1.159   0.603   3.697
 8153SOL     OW25357   2.239   6.109   0.489
 8153SOL    HW125358   2.337   6.103   0.504
 8153SOL    HW225359   2.208   6.202   0.510
 8154SOL     OW25360   1.783   6.154   3.529
 8154SOL    HW125361   1.716   6.219   3.565
 8154SOL    HW225362   1.757   6.061   3.555
 8155SOL     OW25363   3.274   3.623   4.862
 8155SOL    HW125364   3.225   3.648   4.945
 8155SOL    HW225365   3.338   3.695   4.837
 8156SOL     OW25366   0.327   6.709   5.084
 8156SOL    HW125367   0.403   6.684   5.024
 8156SOL    HW225368   0.242   6.713   5.031
 8157SOL     OW25369   5.743   2.216   6.623
 8157SOL    HW125370   5.813   2.146   6.632
 8157SOL    HW225371   5.653   2.172   6.614
 8158SOL     OW25372   1.412   5.711   2.516
 8158SOL    HW125373   1.510   5.698   2.501
 8158SOL    HW225374   1.394   5.807   2.538
 8159SOL     OW25375   0.450   5.956   0.279
 8159SOL    HW125376   0.366   5.929   0.328
 8159SOL    HW225377   0.449   5.917   0.187
 8160SOL     OW25378   4.879   1.944   1.659
 8160SOL    HW125379   4.795   1.929   1.711
 8160SOL    HW225380   4.877   2.036   1.619
 8161SOL     OW25381   4.008   3.218   1.494
 8161SOL    HW125382   4.061   3.172   1.566
 8161SOL    HW225383   3.992   3.313   1.522
 8162SOL     OW25384   6.314   1.168   2.363
 8162SOL    HW125385   6.325   1.097   2.293
 8162SOL    HW225386   6.404   1.202   2.391
 8163SOL     OW25387   2.196   2.483   5.371
 8163SOL    HW125388   2.126   2.481   5.300
 8163SOL    HW225389   2.282   2.516   5.331
 8164SOL     OW25390   5.131   3.832   1.768
 8164SOL    HW125391   5.139   3.733   1.755
 8164SOL    HW225392   5.161   3.856   1.860
 8165SOL     OW25393   1.681   3.967   1.800
 8165SOL    HW125394   1.739   3.906   1.856
 8165SOL    HW225395   1.656   3.920   1.716
 8166SOL     OW25396   3.144   6.640   1.433
 8166SOL    HW125397   3.134   6.568   1.364
 8166SOL    HW225398   3.053   6.668   1.464
 8167SOL     OW25399   5.478   2.888   4.790
 8167SOL    HW125400   5.524   2.800   4.800
 8167SOL    HW225401   5.430   2.910   4.875
 8168SOL     OW25402   2.907   1.613   2.732
 8168SOL    HW125403   2.986   1.557   2.755
 8168SOL    HW225404   2.887   1.676   2.808
 8169SOL     OW25405   5.367   4.013   5.231
 8169SOL    HW125406   5.438   3.956   5.188
 8169SOL    HW225407   5.290   4.022   5.168
 8170SOL     OW25408   1.391   5.221   3.858
 8170SOL    HW125409   1.416   5.145   3.798
 8170SOL    HW225410   1.466   5.239   3.922
 8171SOL     OW25411   1.928   0.816   0.033
 8171SOL    HW125412   1.951   0.726   7.022
 8171SOL    HW225413   1.857   0.859   7.005
 8172SOL     OW25414   0.417   6.665   2.318
 8172SOL    HW125415   0.420   6.718   2.234
 8172SOL    HW225416   0.399   6.569   2.296
 8173SOL     OW25417   6.720   2.931   0.455
 8173SOL    HW125418   6.669   3.015   0.440
 8173SOL    HW225419   6.809   2.938   0.409
 8174SOL     OW25420   4.797   6.572   2.465
 8174SOL    HW125421   4.793   6.640   2.392
 8174SOL    HW225422   4.854   6.495   2.436
 8175SOL     OW25423   1.471   2.771   3.624
 8175SOL    HW125424   1.547   2.796   3.564
 8175SOL    HW225425   1.501   2.698   3.686
 8176SOL     OW25426   4.088   5.612   3.673
 8176SOL    HW125427   4.143   5.539   3.631
 8176SOL    HW225428   4.104   5.698   3.625
 8177SOL     OW25429   1.532   6.487   6.512
 8177SOL    HW125430   1.465   6.442   6.571
 8177SOL    HW225431   1.624   6.458   6.539
 8178SOL     OW25432   1.844   6.681   6.492
 8178SOL    HW125433   1.832   6.749   6.419
 8178SOL    HW225434   1.932   6.635   6.481
 8179SOL     OW25435   3.734   0.514   6.731
 8179SOL    HW125436   3.775   0.534   6.642
 8179SOL    HW225437   3.707   0.600   6.775
 8180SOL     OW25438   5.062   4.840   4.678
 8180SOL    HW125439   5.147   4.887   4.657
 8180SOL    HW225440   5.073   4.786   4.761
 8181SOL     OW25441   2.679   1.959   2.109
 8181SOL    HW125442   2.688   1.878   2.051
 8181SOL    HW225443   2.767   2.008   2.112
 8182SOL     OW25444   5.618   2.426   5.410
 8182SOL    HW125445   5.685   2.435   5.484
 8182SOL    HW225446   5.539   2.375   5.443
 8183SOL     OW25447   2.132   3.456   3.267
 8183SOL    HW125448   2.126   3.390   3.342
 8183SOL    HW225449   2.222   3.449   3.224
 8184SOL     OW25450   6.165   6.260   4.324
 8184SOL    HW125451   6.149   6.353   4.357
 8184SOL    HW225452   6.254   6.257   4.277
 8185SOL     OW25453   1.000   1.935   3.579
 8185SOL    HW125454   0.937   1.946   3.656
 8185SOL    HW225455   0.950   1.946   3.493
 8186SOL     OW25456   4.278   3.864   6.991
 8186SOL    HW125457   4.333   3.792   6.949
 8186SOL    HW225458   4.312   3.881   0.056
 8187SOL     OW25459   2.258   1.217   6.224
 8187SOL    HW125460   2.200   1.264   6.291
 8187SOL    HW225461   2.348   1.200   6.263
 8188SOL     OW25462   5.076   3.143   2.567
 8188SOL    HW125463   5.109   3.049   2.559
 8188SOL    HW225464   5.153   3.206   2.565
 8189SOL     OW25465   6.453   5.302   3.194
 8189SOL    HW125466   6.471   5.246   3.113
 8189SOL    HW225467   6.383   5.258   3.250
 8190SOL     OW25468   5.907   3.561   2.798
 8190SOL    HW125469   5.862   3.622   2.864
 8190SOL    HW225470   5.840   3.531   2.730
 8191SOL     OW25471   5.428   4.946   1.664
 8191SOL    HW125472   5.444   4.959   1.762
 8191SOL    HW225473   5.433   4.848   1.643
 8192SOL     OW25474   1.352   2.652   0.976
 8192SOL    HW125475   1.431   2.702   0.938
 8192SOL    HW225476   1.342   2.565   0.927
 8193SOL     OW25477   4.085   6.244   5.681
 8193SOL    HW125478   4.129   6.325   5.644
 8193SOL    HW225479   4.153   6.185   5.725
 8194SOL     OW25480   1.272   1.059   3.007
 8194SOL    HW125481   1.254   1.056   2.908
 8194SOL    HW225482   1.202   1.006   3.055
 8195SOL     OW25483   5.730   1.032   1.704
 8195SOL    HW125484   5.808   1.092   1.724
 8195SOL    HW225485   5.652   1.058   1.761
 8196SOL     OW25486   2.172   0.914   0.808
 8196SOL    HW125487   2.098   0.952   0.753
 8196SOL    HW225488   2.140   0.833   0.856
 8197SOL     OW25489   0.622   0.058   1.109
 8197SOL    HW125490   0.656   6.991   1.101
 8197SOL    HW225491   0.533   0.065   1.063
 8198SOL     OW25492   3.239   1.180   2.857
 8198SOL    HW125493   3.146   1.191   2.893
 8198SOL    HW225494   3.235   1.137   2.767
 8199SOL     OW25495   5.594   4.604   1.530
 8199SOL    HW125496   5.655   4.683   1.539
 8199SOL    HW225497   5.503   4.635   1.503
 8200SOL     OW25498   4.156   4.223   1.417
 8200SOL    HW125499   4.079   4.249   1.475
 8200SOL    HW225500   4.145   4.127   1.388
 8201SOL     OW25501   0.726   0.979   5.082
 8201SOL    HW125502   0.707   0.964   4.985
 8201SOL    HW225503   0.649   0.944   5.136
 8202SOL     OW25504   1.909   3.624   4.107
 8202SOL    HW125505   1.883   3.593   4.016
 8202SOL    HW225506   1.883   3.554   4.174
 8203SOL     OW25507   6.715   4.522   6.320
 8203SOL    HW125508   6.749   4.427   6.324
 8203SOL    HW225509   6.755   4.568   6.241
 8204SOL     OW25510   3.509   0.203   0.651
 8204SOL    HW125511   3.603   0.202   0.684
 8204SOL    HW225512   3.462   0.119   0.679
 8205SOL     OW25513   4.155   6.942   3.050
 8205SOL    HW125514   4.060   6.972   3.040
 8205SOL    HW225515   4.163   6.885   3.132
 8206SOL     OW25516   3.626   2.116   4.743
 8206SOL    HW125517   3.706   2.122   4.683
 8206SOL    HW225518   3.642   2.170   4.825
 8207SOL     OW25519   2.911   5.726   0.150
 8207SOL    HW125520   2.846   5.763   0.084
 8207SOL    HW225521   2.862   5.675   0.221
 8208SOL     OW25522   1.596   5.535   1.273
 8208SOL    HW125523   1.530   5.465   1.298
 8208SOL    HW225524   1.685   5.515   1.315
 8209SOL     OW25525   0.979   5.850   5.187
 8209SOL    HW125526   0.895   5.889   5.225
 8209SOL    HW225527   1.022   5.789   5.254
 8210SOL     OW25528   2.525   0.349   1.162
 8210SOL    HW125529   2.611   0.368   1.210
 8210SOL    HW225530   2.468   0.431   1.161
 8211SOL     OW25531   3.438   4.191   4.086
 8211SOL    HW125532   3.452   4.156   4.179
 8211SOL    HW225533   3.518   4.170   4.030
 8212SOL     OW25534   4.339   4.775   6.693
 8212SOL    HW125535   4.296   4.814   6.775
 8212SOL    HW225536   4.340   4.843   6.620
 8213SOL     OW25537   4.806   4.188   1.981
 8213SOL    HW125538   4.708   4.209   1.982
 8213SOL    HW225539   4.823   4.109   1.922
 8214SOL     OW25540   4.299   5.514   3.508
 8214SOL    HW125541   4.397   5.525   3.491
 8214SOL    HW225542   4.250   5.508   3.421
 8215SOL     OW25543   2.856   6.517   5.698
 8215SOL    HW125544   2.835   6.501   5.795
 8215SOL    HW225545   2.780   6.486   5.642
 8216SOL     OW25546   5.951   5.257   0.761
 8216SOL    HW125547   5.971   5.169   0.803
 8216SOL    HW225548   5.909   5.318   0.829
 8217SOL     OW25549   3.163   6.097   3.436
 8217SOL    HW125550   3.135   6.111   3.531
 8217SOL    HW225551   3.223   6.017   3.431
 8218SOL     OW25552   1.799   6.435   4.262
 8218SOL    HW125553   1.785   6.532   4.240
 8218SOL    HW225554   1.760   6.378   4.190
 8219SOL     OW25555   3.796   3.614   3.834
 8219SOL    HW125556   3.755   3.599   3.924
 8219SOL    HW225557   3.727   3.650   3.772
 8220SOL     OW25558   4.534   4.401   5.778
 8220SOL    HW125559   4.496   4.454   5.854
 8220SOL    HW225560   4.461   4.384   5.711
 8221SOL     OW25561   0.085   4.144   3.858
 8221SOL    HW125562   0.015   4.103   3.800
 8221SOL    HW225563   0.066   4.241   3.869
 8222SOL     OW25564   5.151   1.832   6.086
 8222SOL    HW125565   5.174   1.873   6.174
 8222SOL    HW225566   5.092   1.894   6.035
 8223SOL     OW25567   1.127   6.075   5.722
 8223SOL    HW125568   1.054   6.143   5.721
 8223SOL    HW225569   1.208   6.112   5.677
 8224SOL     OW25570   5.927   0.709   5.918
 8224SOL    HW125571   5.982   0.779   5.964
 8224SOL    HW225572   5.830   0.727   5.934
 8225SOL     OW25573   6.105   2.516   0.380
 8225SOL    HW125574   6.015   2.557   0.370
 8225SOL    HW225575   6.112   2.471   0.470
 8226SOL     OW25576   3.904   0.825   6.932
 8226SOL    HW125577   3.814   0.789   6.957
 8226SOL    HW225578   3.971   0.798   7.001
 8227SOL     OW25579   5.428   3.989   2.256
 8227SOL    HW125580   5.454   4.013   2.349
 8227SOL    HW225581   5.507   3.955   2.206
 8228SOL     OW25582   2.413   1.620   4.153
 8228SOL    HW125583   2.474   1.664   4.086
 8228SOL    HW225584   2.373   1.690   4.212
 8229SOL     OW25585   3.857   4.487   0.498
 8229SOL    HW125586   3.881   4.395   0.469
 8229SOL    HW225587   3.806   4.483   0.584
 8230SOL     OW25588   6.470   0.630   6.366
 8230SOL    HW125589   6.397   0.693   6.339
 8230SOL    HW225590   6.471   0.551   6.304
 8231SOL     OW25591   3.411   1.528   1.991
 8231SOL    HW125592   3.352   1.511   1.913
 8231SOL    HW225593   3.498   1.565   1.959
 8232SOL     OW25594   3.770   6.591   3.578
 8232SOL    HW125595   3.807   6.675   3.617
 8232SOL    HW225596   3.711   6.613   3.501
 8233SOL     OW25597   2.710   0.603   6.233
 8233SOL    HW125598   2.776   0.647   6.172
 8233SOL    HW225599   2.634   0.566   6.179
 8234SOL     OW25600   0.843   2.990   6.916
 8234SOL    HW125601   0.833   3.087   6.894
 8234SOL    HW225602   0.940   2.968   6.927
 8235SOL     OW25603   0.927   6.166   0.302
 8235SOL    HW125604   0.849   6.134   0.356
 8235SOL    HW225605   0.894   6.212   0.220
 8236SOL     OW25606   1.302   6.893   0.900
 8236SOL    HW125607   1.316   6.800   0.866
 8236SOL    HW225608   1.381   6.922   0.953
 8237SOL     OW25609   4.041   4.956   5.412
 8237SOL    HW125610   4.073   4.904   5.492
 8237SOL    HW225611   3.979   5.028   5.442
 8238SOL     OW25612   6.617   5.223   0.111
 8238SOL    HW125613   6.650   5.278   0.187
 8238SOL    HW225614   6.521   5.245   0.093
 8239SOL     OW25615   4.287   2.307   3.826
 8239SOL    HW125616   4.368   2.362   3.804
 8239SOL    HW225617   4.286   2.286   3.923
 8240SOL     OW25618   3.759   3.340   5.148
 8240SOL    HW125619   3.801   3.375   5.232
 8240SOL    HW225620   3.829   3.330   5.078
 8241SOL     OW25621   0.717   3.197   5.621
 8241SOL    HW125622   0.804   3.208   5.669
 8241SOL    HW225623   0.717   3.111   5.570
 8242SOL     OW25624   0.410   2.857   3.510
 8242SOL    HW125625   0.366   2.937   3.551
 8242SOL    HW225626   0.342   2.805   3.458
 8243SOL     OW25627   1.695   5.880   3.675
 8243SOL    HW125628   1.699   5.782   3.694
 8243SOL    HW225629   1.614   5.901   3.620
 8244SOL     OW25630   5.629   0.373   4.548
 8244SOL    HW125631   5.550   0.370   4.486
 8244SOL    HW225632   5.669   0.281   4.555
 8245SOL     OW25633   5.643   4.503   2.391
 8245SOL    HW125634   5.727   4.473   2.436
 8245SOL    HW225635   5.604   4.580   2.441
 8246SOL     OW25636   2.021   4.445   6.883
 8246SOL    HW125637   1.976   4.530   6.856
 8246SOL    HW225638   2.058   4.399   6.802
 8247SOL     OW25639   1.918   4.812   3.386
 8247SOL    HW125640   1.849   4.885   3.392
 8247SOL    HW225641   1.871   4.724   3.382
 8248SOL     OW25642   6.111   6.818   2.631
 8248SOL    HW125643   6.177   6.754   2.672
 8248SOL    HW225644   6.097   6.793   2.535
 8249SOL     OW25645   3.497   0.388   6.112
 8249SOL    HW125646   3.416   0.356   6.161
 8249SOL    HW225647   3.470   0.442   6.033
 8250SOL     OW25648   1.134   1.336   0.267
 8250SOL    HW125649   1.135   1.403   0.342
 8250SOL    HW225650   1.219   1.344   0.214
 8251SOL     OW25651   1.443   1.970   6.741
 8251SOL    HW125652   1.404   2.017   6.820
 8251SOL    HW225653   1.511   2.029   6.697
 8252SOL     OW25654   0.815   1.344   6.616
 8252SOL    HW125655   0.866   1.258   6.621
 8252SOL    HW225656   0.800   1.380   6.708
 8253SOL     OW25657   0.233   4.451   5.651
 8253SOL    HW125658   0.303   4.385   5.623
 8253SOL    HW225659   0.149   4.402   5.676
 8254SOL     OW25660   5.111   4.307   0.146
 8254SOL    HW125661   5.207   4.335   0.145
 8254SOL    HW225662   5.060   4.357   0.076
 8255SOL     OW25663   1.510   6.437   5.571
 8255SOL    HW125664   1.583   6.494   5.609
 8255SOL    HW225665   1.455   6.491   5.507
 8256SOL     OW25666   1.790   5.898   2.697
 8256SOL    HW125667   1.868   5.837   2.709
 8256SOL    HW225668   1.727   5.885   2.774
 8257SOL     OW25669   4.780   4.399   3.678
 8257SOL    HW125670   4.805   4.443   3.764
 8257SOL    HW225671   4.794   4.300   3.685
 8258SOL     OW25672   0.328   3.204   4.685
 8258SOL    HW125673   0.307   3.127   4.745
 8258SOL    HW225674   0.265   3.203   4.607
 8259SOL     OW25675   5.900   3.146   4.339
 8259SOL    HW125676   5.867   3.228   4.291
 8259SOL    HW225677   5.824   3.083   4.353
 8260SOL     OW25678   4.820   1.647   6.693
 8260SOL    HW125679   4.762   1.679   6.617
 8260SOL    HW225680   4.880   1.721   6.723
 8261SOL     OW25681   5.563   2.759   2.793
 8261SOL    HW125682   5.584   2.663   2.780
 8261SOL    HW225683   5.572   2.807   2.705
 8262SOL     OW25684   5.018   4.219   2.235
 8262SOL    HW125685   4.940   4.209   2.174
 8262SOL    HW225686   5.094   4.261   2.185
 8263SOL     OW25687   6.585   1.479   6.782
 8263SOL    HW125688   6.619   1.565   6.820
 8263SOL    HW225689   6.659   1.432   6.734
 8264SOL     OW25690   3.487   1.111   1.694
 8264SOL    HW125691   3.410   1.047   1.695
 8264SOL    HW225692   3.547   1.092   1.771
 8265SOL     OW25693   4.863   5.462   0.219
 8265SOL    HW125694   4.842   5.556   0.191
 8265SOL    HW225695   4.927   5.464   0.296
 8266SOL     OW25696   4.777   2.947   3.096
 8266SOL    HW125697   4.687   2.990   3.091
 8266SOL    HW225698   4.823   2.957   3.008
 8267SOL     OW25699   1.863   3.163   3.207
 8267SOL    HW125700   1.904   3.108   3.135
 8267SOL    HW225701   1.794   3.224   3.168
 8268SOL     OW25702   2.767   5.283   1.663
 8268SOL    HW125703   2.804   5.282   1.570
 8268SOL    HW225704   2.773   5.376   1.700
 8269SOL     OW25705   6.885   1.904   3.894
 8269SOL    HW125706   6.917   1.813   3.921
 8269SOL    HW225707   6.791   1.916   3.923
 8270SOL     OW25708   4.071   4.487   0.291
 8270SOL    HW125709   3.978   4.484   0.327
 8270SOL    HW225710   4.070   4.452   0.197
 8271SOL     OW25711   2.751   6.961   5.382
 8271SOL    HW125712   2.850   6.959   5.364
 8271SOL    HW225713   2.735   6.986   5.477
 8272SOL     OW25714   0.887   0.756   2.188
 8272SOL    HW125715   0.939   0.841   2.192
 8272SOL    HW225716   0.917   0.703   2.108
 8273SOL     OW25717   5.202   0.255   5.863
 8273SOL    HW125718   5.150   0.331   5.823
 8273SOL    HW225719   5.299   0.279   5.864
 8274SOL     OW25720   4.797   6.793   4.427
 8274SOL    HW125721   4.724   6.833   4.482
 8274SOL    HW225722   4.872   6.765   4.487
 8275SOL     OW25723   4.468   0.658   4.487
 8275SOL    HW125724   4.416   0.619   4.563
 8275SOL    HW225725   4.553   0.697   4.523
 8276SOL     OW25726   5.510   2.652   0.753
 8276SOL    HW125727   5.416   2.669   0.782
 8276SOL    HW225728   5.524   2.554   0.742
 8277SOL     OW25729   1.382   6.876   2.100
 8277SOL    HW125730   1.429   6.846   2.017
 8277SOL    HW225731   1.350   6.796   2.151
 8278SOL     OW25732   1.604   0.617   1.342
 8278SOL    HW125733   1.534   0.655   1.281
 8278SOL    HW225734   1.688   0.601   1.290
 8279SOL     OW25735   6.292   5.120   5.825
 8279SOL    HW125736   6.255   5.054   5.890
 8279SOL    HW225737   6.277   5.088   5.732
 8280SOL     OW25738   0.150   4.597   6.631
 8280SOL    HW125739   0.154   4.510   6.681
 8280SOL    HW225740   0.234   4.648   6.646
 8281SOL     OW25741   3.138   4.850   6.994
 8281SOL    HW125742   3.098   4.879   0.053
 8281SOL    HW225743   3.237   4.860   6.998
 8282SOL     OW25744   4.333   3.304   0.797
 8282SOL    HW125745   4.370   3.293   0.704
 8282SOL    HW225746   4.268   3.231   0.816
 8283SOL     OW25747   0.574   1.116   3.627
 8283SOL    HW125748   0.503   1.186   3.628
 8283SOL    HW225749   0.584   1.077   3.719
 8284SOL     OW25750   4.941   2.619   1.223
 8284SOL    HW125751   4.863   2.566   1.258
 8284SOL    HW225752   5.024   2.564   1.228
 8285SOL     OW25753   0.832   4.873   0.030
 8285SOL    HW125754   0.931   4.882   0.026
 8285SOL    HW225755   0.807   4.777   0.043
 8286SOL     OW25756   6.471   2.206   6.437
 8286SOL    HW125757   6.380   2.247   6.427
 8286SOL    HW225758   6.470   2.142   6.514
 8287SOL     OW25759   0.261   1.216   3.241
 8287SOL    HW125760   0.267   1.311   3.211
 8287SOL    HW225761   0.284   1.210   3.338
 8288SOL     OW25762   2.667   6.796   2.627
 8288SOL    HW125763   2.663   6.849   2.712
 8288SOL    HW225764   2.596   6.726   2.627
 8289SOL     OW25765   6.514   6.842   0.206
 8289SOL    HW125766   6.597   6.795   0.179
 8289SOL    HW225767   6.496   6.827   0.303
 8290SOL     OW25768   4.664   2.835   1.728
 8290SOL    HW125769   4.684   2.758   1.789
 8290SOL    HW225770   4.677   2.921   1.778
 8291SOL     OW25771   5.707   5.687   5.522
 8291SOL    HW125772   5.803   5.662   5.534
 8291SOL    HW225773   5.701   5.771   5.468
 8292SOL     OW25774   6.873   4.026   5.640
 8292SOL    HW125775   6.874   4.081   5.557
 8292SOL    HW225776   6.878   3.929   5.616
 8293SOL     OW25777   2.899   5.589   4.344
 8293SOL    HW125778   2.803   5.599   4.318
 8293SOL    HW225779   2.923   5.659   4.412
 8294SOL     OW25780   6.525   3.787   5.944
 8294SOL    HW125781   6.474   3.728   5.882
 8294SOL    HW225782   6.610   3.742   5.971
 8295SOL     OW25783   4.362   4.529   1.337
 8295SOL    HW125784   4.320   4.598   1.277
 8295SOL    HW225785   4.291   4.491   1.397
 8296SOL     OW25786   3.168   0.746   2.059
 8296SOL    HW125787   3.133   0.839   2.053
 8296SOL    HW225788   3.173   0.706   1.968
 8297SOL     OW25789   6.046   4.243   1.847
 8297SOL    HW125790   5.946   4.246   1.839
 8297SOL    HW225791   6.078   4.326   1.891
 8298SOL     OW25792   6.695   6.617   0.774
 8298SOL    HW125793   6.729   6.606   0.681
 8298SOL    HW225794   6.745   6.555   0.835
 8299SOL     OW25795   0.859   1.955   6.722
 8299SOL    HW125796   0.761   1.945   6.708
 8299SOL    HW225797   0.880   1.950   6.819
 8300SOL     OW25798   4.482   6.019   4.437
 8300SOL    HW125799   4.445   6.037   4.346
 8300SOL    HW225800   4.575   5.985   4.429
 8301SOL     OW25801   6.320   5.467   0.386
 8301SOL    HW125802   6.260   5.404   0.336
 8301SOL    HW225803   6.416   5.444   0.366
 8302SOL     OW25804   3.729   6.347   5.926
 8302SOL    HW125805   3.810   6.371   5.979
 8302SOL    HW225806   3.757   6.315   5.835
 8303SOL     OW25807   0.616   4.945   4.029
 8303SOL    HW125808   0.573   4.887   3.960
 8303SOL    HW225809   0.643   4.889   4.107
 8304SOL     OW25810   5.480   2.883   3.719
 8304SOL    HW125811   5.530   2.907   3.635
 8304SOL    HW225812   5.519   2.799   3.758
 8305SOL     OW25813   4.600   5.985   5.488
 8305SOL    HW125814   4.503   6.006   5.475
 8305SOL    HW225815   4.650   6.002   5.403
 8306SOL     OW25816   5.198   1.274   4.189
 8306SOL    HW125817   5.101   1.269   4.166
 8306SOL    HW225818   5.210   1.334   4.268
 8307SOL     OW25819   6.998   4.844   4.291
 8307SOL    HW125820   0.041   4.912   4.267
 8307SOL    HW225821   6.944   4.823   4.210
 8308SOL     OW25822   2.239   5.704   0.540
 8308SOL    HW125823   2.191   5.770   0.483
 8308SOL    HW225824   2.335   5.700   0.513
 8309SOL     OW25825   5.686   5.238   2.618
 8309SOL    HW125826   5.694   5.319   2.676
 8309SOL    HW225827   5.687   5.266   2.522
 8310SOL     OW25828   1.626   5.905   2.957
 8310SOL    HW125829   1.685   5.985   2.965
 8310SOL    HW225830   1.531   5.931   2.974
 8311SOL     OW25831   4.697   6.673   1.943
 8311SOL    HW125832   4.730   6.744   1.881
 8311SOL    HW225833   4.600   6.655   1.925
 8312SOL     OW25834   6.569   0.799   0.637
 8312SOL    HW125835   6.662   0.769   0.658
 8312SOL    HW225836   6.566   0.831   0.542
 8313SOL     OW25837   4.951   2.510   5.841
 8313SOL    HW125838   4.981   2.428   5.792
 8313SOL    HW225839   4.932   2.486   5.936
 8314SOL     OW25840   5.046   6.102   4.711
 8314SOL    HW125841   5.020   6.095   4.615
 8314SOL    HW225842   5.023   6.016   4.758
 8315SOL     OW25843   3.297   1.668   0.706
 8315SOL    HW125844   3.382   1.660   0.758
 8315SOL    HW225845   3.256   1.757   0.724
 8316SOL     OW25846   1.540   1.799   4.622
 8316SOL    HW125847   1.545   1.896   4.601
 8316SOL    HW225848   1.444   1.769   4.623
 8317SOL     OW25849   2.180   1.857   6.483
 8317SOL    HW125850   2.109   1.921   6.511
 8317SOL    HW225851   2.218   1.884   6.395
 8318SOL     OW25852   4.311   6.056   5.552
 8318SOL    HW125853   4.286   5.976   5.498
 8318SOL    HW225854   4.327   6.134   5.491
 8319SOL     OW25855   2.715   5.682   6.197
 8319SOL    HW125856   2.617   5.683   6.177
 8319SOL    HW225857   2.767   5.673   6.112
 8320SOL     OW25858   4.269   4.963   5.632
 8320SOL    HW125859   4.332   5.009   5.694
 8320SOL    HW225860   4.320   4.924   5.555
 8321SOL     OW25861   0.629   0.529   0.915
 8321SOL    HW125862   0.574   0.597   0.966
 8321SOL    HW225863   0.656   0.568   0.827
 8322SOL     OW25864   2.322   0.477   1.551
 8322SOL    HW125865   2.348   0.486   1.647
 8322SOL    HW225866   2.302   0.567   1.513
 8323SOL     OW25867   6.003   5.273   6.819
 8323SOL    HW125868   5.909   5.291   6.846
 8323SOL    HW225869   6.016   5.299   6.723
 8324SOL     OW25870   6.117   6.165   6.103
 8324SOL    HW125871   6.096   6.077   6.062
 8324SOL    HW225872   6.113   6.237   6.033
 8325SOL     OW25873   1.758   6.204   4.892
 8325SOL    HW125874   1.740   6.106   4.900
 8325SOL    HW225875   1.714   6.240   4.810
 8326SOL     OW25876   2.649   1.257   6.551
 8326SOL    HW125877   2.718   1.203   6.600
 8326SOL    HW225878   2.623   1.209   6.467
 8327SOL     OW25879   0.716   5.428   5.482
 8327SOL    HW125880   0.713   5.448   5.384
 8327SOL    HW225881   0.733   5.331   5.496
 8328SOL     OW25882   1.257   0.335   0.258
 8328SOL    HW125883   1.334   0.398   0.266
 8328SOL    HW225884   1.199   0.341   0.339
 8329SOL     OW25885   1.754   2.498   5.479
 8329SOL    HW125886   1.690   2.571   5.456
 8329SOL    HW225887   1.713   2.410   5.456
 8330SOL     OW25888   3.293   6.449   0.272
 8330SOL    HW125889   3.372   6.489   0.227
 8330SOL    HW225890   3.209   6.492   0.237
 8331SOL     OW25891   1.987   2.193   5.940
 8331SOL    HW125892   2.004   2.291   5.944
 8331SOL    HW225893   2.009   2.152   6.029
 8332SOL     OW25894   5.411   4.172   0.874
 8332SOL    HW125895   5.349   4.251   0.869
 8332SOL    HW225896   5.361   4.093   0.908
 8333SOL     OW25897   2.556   4.424   6.534
 8333SOL    HW125898   2.476   4.364   6.538
 8333SOL    HW225899   2.526   4.519   6.537
 8334SOL     OW25900   3.203   2.610   5.323
 8334SOL    HW125901   3.201   2.517   5.286
 8334SOL    HW225902   3.257   2.669   5.264
 8335SOL     OW25903   5.790   3.268   6.351
 8335SOL    HW125904   5.752   3.357   6.325
 8335SOL    HW225905   5.717   3.209   6.385
 8336SOL     OW25906   1.216   4.894   3.838
 8336SOL    HW125907   1.163   4.944   3.907
 8336SOL    HW225908   1.166   4.812   3.811
 8337SOL     OW25909   5.922   0.227   4.049
 8337SOL    HW125910   5.977   0.288   4.105
 8337SOL    HW225911   5.974   0.198   3.969
 8338SOL     OW25912   2.831   5.294   1.407
 8338SOL    HW125913   2.929   5.287   1.427
 8338SOL    HW225914   2.802   5.216   1.352
 8339SOL     OW25915   0.009   0.529   2.033
 8339SOL    HW125916   6.954   0.476   2.056
 8339SOL    HW225917   0.088   0.468   2.026
 8340SOL     OW25918   6.125   2.744   6.351
 8340SOL    HW125919   6.054   2.811   6.373
 8340SOL    HW225920   6.194   2.743   6.424
 8341SOL     OW25921   3.252   6.794   1.229
 8341SOL    HW125922   3.229   6.728   1.301
 8341SOL    HW225923   3.344   6.776   1.195
 8342SOL     OW25924   3.849   1.110   1.161
 8342SOL    HW125925   3.853   1.131   1.063
 8342SOL    HW225926   3.868   1.013   1.175
 8343SOL     OW25927   4.633   6.092   2.981
 8343SOL    HW125928   4.623   5.994   2.963
 8343SOL    HW225929   4.544   6.136   2.972
 8344SOL     OW25930   2.207   4.574   5.717
 8344SOL    HW125931   2.198   4.625   5.631
 8344SOL    HW225932   2.304   4.569   5.743
 8345SOL     OW25933   6.116   0.346   4.203
 8345SOL    HW125934   6.175   0.311   4.275
 8345SOL    HW225935   6.171   0.366   4.121
 8346SOL     OW25936   5.536   4.067   3.615
 8346SOL    HW125937   5.581   4.147   3.576
 8346SOL    HW225938   5.604   4.010   3.661
 8347SOL     OW25939   1.228   1.306   6.502
 8347SOL    HW125940   1.295   1.238   6.531
 8347SOL    HW225941   1.241   1.326   6.404
 8348SOL     OW25942   3.612   5.837   0.934
 8348SOL    HW125943   3.642   5.887   1.016
 8348SOL    HW225944   3.651   5.745   0.935
 8349SOL     OW25945   4.274   5.677   1.476
 8349SOL    HW125946   4.244   5.757   1.527
 8349SOL    HW225947   4.268   5.695   1.378
 8350SOL     OW25948   2.177   0.167   6.742
 8350SOL    HW125949   2.229   0.239   6.696
 8350SOL    HW225950   2.205   0.078   6.706
 8351SOL     OW25951   6.820   3.194   2.918
 8351SOL    HW125952   6.825   3.250   3.001
 8351SOL    HW225953   6.890   3.123   2.922
 8352SOL     OW25954   2.226   6.721   5.823
 8352SOL    HW125955   2.299   6.688   5.883
 8352SOL    HW225956   2.174   6.792   5.870
 8353SOL     OW25957   0.633   5.798   2.436
 8353SOL    HW125958   0.713   5.745   2.409
 8353SOL    HW225959   0.663   5.882   2.481
 8354SOL     OW25960   4.642   2.429   3.339
 8354SOL    HW125961   4.710   2.377   3.286
 8354SOL    HW225962   4.648   2.403   3.435
 8355SOL     OW25963   3.367   4.668   5.925
 8355SOL    HW125964   3.430   4.697   5.997
 8355SOL    HW225965   3.331   4.748   5.878
 8356SOL     OW25966   3.008   2.843   1.709
 8356SOL    HW125967   2.949   2.911   1.752
 8356SOL    HW225968   2.956   2.760   1.690
 8357SOL     OW25969   2.706   6.829   4.802
 8357SOL    HW125970   2.767   6.770   4.855
 8357SOL    HW225971   2.638   6.773   4.754
 8358SOL     OW25972   0.105   0.634   4.350
 8358SOL    HW125973   0.143   0.716   4.307
 8358SOL    HW225974   0.018   0.611   4.307
 8359SOL     OW25975   4.882   2.147   4.976
 8359SOL    HW125976   4.925   2.192   4.897
 8359SOL    HW225977   4.873   2.049   4.957
 8360SOL     OW25978   2.936   0.159   2.341
 8360SOL    HW125979   2.996   0.085   2.371
 8360SOL    HW225980   2.958   0.242   2.391
 8361SOL     OW25981   4.733   1.221   0.319
 8361SOL    HW125982   4.769   1.264   0.236
 8361SOL    HW225983   4.807   1.176   0.369
 8362SOL     OW25984   0.721   4.543   1.731
 8362SOL    HW125985   0.807   4.553   1.780
 8362SOL    HW225986   0.647   4.584   1.784
 8363SOL     OW25987   2.251   2.110   0.964
 8363SOL    HW125988   2.242   2.052   0.883
 8363SOL    HW225989   2.214   2.201   0.944
 8364SOL     OW25990   0.281   1.057   3.474
 8364SOL    HW125991   0.308   1.026   3.565
 8364SOL    HW225992   0.353   1.033   3.409
 8365SOL     OW25993   1.888   2.776   0.914
 8365SOL    HW125994   1.857   2.859   0.868
 8365SOL    HW225995   1.968   2.739   0.867
 8366SOL     OW25996   5.146   6.007   1.915
 8366SOL    HW125997   5.137   5.984   1.818
 8366SOL    HW225998   5.103   5.936   1.970
 8367SOL     OW25999   2.165   4.442   3.612
 8367SOL    HW126000   2.157   4.540   3.627
 8367SOL    HW226001   2.120   4.393   3.687
 8368SOL     OW26002   0.911   3.206   6.470
 8368SOL    HW126003   0.979   3.133   6.469
 8368SOL    HW226004   0.843   3.187   6.541
 8369SOL     OW26005   1.085   0.228   0.467
 8369SOL    HW126006   1.097   0.297   0.538
 8369SOL    HW226007   1.159   0.162   0.471
 8370SOL     OW26008   2.913   2.613   0.468
 8370SOL    HW126009   2.815   2.594   0.460
 8370SOL    HW226010   2.948   2.646   0.381
 8371SOL     OW26011   2.907   4.408   5.641
 8371SOL    HW126012   2.899   4.501   5.676
 8371SOL    HW226013   2.893   4.407   5.542
 8372SOL     OW26014   1.662   6.894   2.815
 8372SOL    HW126015   1.698   6.841   2.892
 8372SOL    HW226016   1.678   6.992   2.832
 8373SOL     OW26017   5.415   0.796   4.325
 8373SOL    HW126018   5.448   0.713   4.369
 8373SOL    HW226019   5.363   0.850   4.391
 8374SOL     OW26020   0.850   1.984   3.344
 8374SOL    HW126021   0.869   1.903   3.288
 8374SOL    HW226022   0.907   2.060   3.313
 8375SOL     OW26023   1.921   2.740   5.796
 8375SOL    HW126024   1.839   2.797   5.793
 8375SOL    HW226025   1.970   2.748   5.709
 8376SOL     OW26026   0.842   1.535   3.901
 8376SOL    HW126027   0.824   1.617   3.955
 8376SOL    HW226028   0.759   1.480   3.895
 8377SOL     OW26029   3.411   4.760   1.217
 8377SOL    HW126030   3.357   4.819   1.277
 8377SOL    HW226031   3.452   4.815   1.144
 8378SOL     OW26032   4.539   5.667   4.888
 8378SOL    HW126033   4.488   5.660   4.974
 8378SOL    HW226034   4.480   5.705   4.817
 8379SOL     OW26035   5.701   2.795   2.053
 8379SOL    HW126036   5.763   2.745   1.993
 8379SOL    HW226037   5.608   2.792   2.015
 8380SOL     OW26038   1.722   5.320   3.168
 8380SOL    HW126039   1.626   5.324   3.141
 8380SOL    HW226040   1.764   5.410   3.156
 8381SOL     OW26041   1.516   2.375   2.645
 8381SOL    HW126042   1.510   2.474   2.653
 8381SOL    HW226043   1.593   2.342   2.701
 8382SOL     OW26044   1.396   0.199   1.702
 8382SOL    HW126045   1.370   0.275   1.761
 8382SOL    HW226046   1.343   0.202   1.617
 8383SOL     OW26047   2.631   0.115   4.881
 8383SOL    HW126048   2.566   0.184   4.852
 8383SOL    HW226049   2.592   0.024   4.868
 8384SOL     OW26050   0.356   3.985   3.529
 8384SOL    HW126051   0.411   3.945   3.603
 8384SOL    HW226052   0.302   4.060   3.565
 8385SOL     OW26053   4.505   2.385   2.280
 8385SOL    HW126054   4.441   2.323   2.325
 8385SOL    HW226055   4.487   2.386   2.181
 8386SOL     OW26056   6.929   5.592   1.599
 8386SOL    HW126057   6.867   5.647   1.655
 8386SOL    HW226058   6.876   5.541   1.531
 8387SOL     OW26059   0.233   1.783   3.330
 8387SOL    HW126060   0.322   1.821   3.355
 8387SOL    HW226061   0.160   1.841   3.366
 8388SOL     OW26062   3.815   5.676   1.993
 8388SOL    HW126063   3.901   5.626   1.982
 8388SOL    HW226064   3.749   5.642   1.926
 8389SOL     OW26065   1.292   2.771   4.351
 8389SOL    HW126066   1.237   2.791   4.432
 8389SOL    HW226067   1.384   2.810   4.364
 8390SOL     OW26068   1.937   0.066   6.421
 8390SOL    HW126069   1.851   0.066   6.371
 8390SOL    HW226070   1.925   0.114   6.508
 8391SOL     OW26071   4.827   6.151   0.644
 8391SOL    HW126072   4.754   6.097   0.686
 8391SOL    HW226073   4.800   6.247   0.644
 8392SOL     OW26074   3.807   5.412   0.284
 8392SOL    HW126075   3.884   5.412   0.221
 8392SOL    HW226076   3.781   5.506   0.305
 8393SOL     OW26077   1.367   6.371   1.841
 8393SOL    HW126078   1.397   6.370   1.936
 8393SOL    HW226079   1.311   6.290   1.822
 8394SOL     OW26080   1.829   1.178   3.507
 8394SOL    HW126081   1.778   1.264   3.502
 8394SOL    HW226082   1.764   1.101   3.500
 8395SOL     OW26083   2.232   5.600   6.340
 8395SOL    HW126084   2.154   5.599   6.403
 8395SOL    HW226085   2.200   5.621   6.248
 8396SOL     OW26086   4.411   2.019   0.802
 8396SOL    HW126087   4.333   2.036   0.741
 8396SOL    HW226088   4.495   2.051   0.758
 8397SOL     OW26089   0.457   4.350   3.450
 8397SOL    HW126090   0.395   4.347   3.371
 8397SOL    HW226091   0.429   4.281   3.517
 8398SOL     OW26092   5.575   1.261   0.031
 8398SOL    HW126093   5.563   1.271   6.959
 8398SOL    HW226094   5.485   1.252   0.074
 8399SOL     OW26095   5.828   6.358   5.321
 8399SOL    HW126096   5.895   6.339   5.249
 8399SOL    HW226097   5.874   6.360   5.409
 8400SOL     OW26098   5.923   6.192   3.557
 8400SOL    HW126099   5.959   6.129   3.625
 8400SOL    HW226100   5.983   6.272   3.551
 8401SOL     OW26101   2.924   3.713   5.209
 8401SOL    HW126102   2.844   3.748   5.257
 8401SOL    HW226103   2.900   3.694   5.114
 8402SOL     OW26104   5.084   1.035   5.278
 8402SOL    HW126105   5.151   1.039   5.203
 8402SOL    HW226106   5.130   1.013   5.363
 8403SOL     OW26107   0.740   2.115   6.278
 8403SOL    HW126108   0.717   2.166   6.195
 8403SOL    HW226109   0.657   2.098   6.330
 8404SOL     OW26110   4.969   4.995   5.470
 8404SOL    HW126111   4.917   5.051   5.535
 8404SOL    HW226112   4.960   4.899   5.494
 8405SOL     OW26113   0.765   2.787   6.150
 8405SOL    HW126114   0.807   2.824   6.232
 8405SOL    HW226115   0.733   2.861   6.092
 8406SOL     OW26116   5.607   3.837   1.249
 8406SOL    HW126117   5.535   3.880   1.304
 8406SOL    HW226118   5.684   3.900   1.241
 8407SOL     OW26119   4.873   3.665   2.410
 8407SOL    HW126120   4.840   3.745   2.459
 8407SOL    HW226121   4.809   3.642   2.336
 8408SOL     OW26122   4.722   4.228   3.911
 8408SOL    HW126123   4.755   4.169   3.837
 8408SOL    HW226124   4.707   4.174   3.994
 8409SOL     OW26125   1.988   2.097   3.643
 8409SOL    HW126126   1.895   2.133   3.657
 8409SOL    HW226127   2.005   2.087   3.545
 8410SOL     OW26128   2.173   5.026   2.465
 8410SOL    HW126129   2.126   5.068   2.543
 8410SOL    HW226130   2.271   5.035   2.478
 8411SOL     OW26131   1.676   3.284   3.032
 8411SOL    HW126132   1.692   3.382   3.046
 8411SOL    HW226133   1.624   3.271   2.948
 8412SOL     OW26134   5.972   2.624   2.419
 8412SOL    HW126135   5.928   2.713   2.434
 8412SOL    HW226136   5.903   2.556   2.396
 8413SOL     OW26137   2.392   5.590   1.490
 8413SOL    HW126138   2.369   5.675   1.537
 8413SOL    HW226139   2.490   5.588   1.469
 8414SOL     OW26140   5.970   0.657   3.998
 8414SOL    HW126141   5.965   0.643   4.097
 8414SOL    HW226142   5.910   0.733   3.973
 8415SOL     OW26143   0.136   5.187   1.005
 8415SOL    HW126144   0.157   5.276   1.044
 8415SOL    HW226145   0.219   5.132   1.001
 8416SOL     OW26146   4.482   4.555   3.229
 8416SOL    HW126147   4.514   4.547   3.323
 8416SOL    HW226148   4.556   4.527   3.167
 8417SOL     OW26149   1.096   5.488   0.337
 8417SOL    HW126150   1.032   5.471   0.412
 8417SOL    HW226151   1.079   5.422   0.263
 8418SOL     OW26152   5.115   5.761   2.704
 8418SOL    HW126153   5.101   5.856   2.733
 8418SOL    HW226154   5.108   5.701   2.784
 8419SOL     OW26155   3.608   1.395   3.330
 8419SOL    HW126156   3.521   1.389   3.282
 8419SOL    HW226157   3.629   1.306   3.372
 8420SOL     OW26158   4.867   1.784   5.287
 8420SOL    HW126159   4.936   1.855   5.300
 8420SOL    HW226160   4.824   1.761   5.374
 8421SOL     OW26161   0.464   0.825   0.770
 8421SOL    HW126162   0.490   0.915   0.733
 8421SOL    HW226163   0.508   0.812   0.859
 8422SOL     OW26164   2.656   0.486   1.863
 8422SOL    HW126165   2.635   0.390   1.841
 8422SOL    HW226166   2.715   0.491   1.943
 8423SOL     OW26167   2.137   4.551   0.894
 8423SOL    HW126168   2.046   4.557   0.853
 8423SOL    HW226169   2.143   4.470   0.952
 8424SOL     OW26170   2.720   2.200   1.888
 8424SOL    HW126171   2.799   2.260   1.880
 8424SOL    HW226172   2.702   2.182   1.985
 8425SOL     OW26173   0.726   4.627   5.964
 8425SOL    HW126174   0.788   4.548   5.961
 8425SOL    HW226175   0.660   4.620   5.889
 8426SOL     OW26176   3.745   3.160   2.462
 8426SOL    HW126177   3.661   3.197   2.503
 8426SOL    HW226178   3.770   3.075   2.508
 8427SOL     OW26179   2.295   1.614   6.881
 8427SOL    HW126180   2.386   1.601   6.841
 8427SOL    HW226181   2.242   1.529   6.870
 8428SOL     OW26182   6.082   3.783   0.698
 8428SOL    HW126183   6.158   3.848   0.688
 8428SOL    HW226184   6.118   3.691   0.709
 8429SOL     OW26185   1.215   6.526   2.963
 8429SOL    HW126186   1.284   6.539   3.033
 8429SOL    HW226187   1.228   6.593   2.889
 8430SOL     OW26188   3.629   6.118   2.904
 8430SOL    HW126189   3.586   6.067   2.979
 8430SOL    HW226190   3.598   6.081   2.816
 8431SOL     OW26191   2.953   3.164   2.485
 8431SOL    HW126192   2.897   3.081   2.477
 8431SOL    HW226193   2.937   3.222   2.405
 8432SOL     OW26194   4.728   6.000   6.982
 8432SOL    HW126195   4.791   5.928   6.956
 8432SOL    HW226196   4.634   5.970   6.966
 8433SOL     OW26197   7.018   1.659   3.921
 8433SOL    HW126198   0.088   1.648   3.900
 8433SOL    HW226199   6.993   1.598   3.995
 8434SOL     OW26200   5.652   6.635   6.706
 8434SOL    HW126201   5.738   6.587   6.691
 8434SOL    HW226202   5.653   6.679   6.795
 8435SOL     OW26203   4.529   2.990   0.649
 8435SOL    HW126204   4.595   3.062   0.669
 8435SOL    HW226205   4.551   2.946   0.562
 8436SOL     OW26206   2.891   4.297   1.687
 8436SOL    HW126207   2.882   4.375   1.748
 8436SOL    HW226208   2.933   4.221   1.737
 8437SOL     OW26209   0.140   2.704   1.010
 8437SOL    HW126210   0.066   2.646   0.975
 8437SOL    HW226211   0.126   2.721   1.108
 8438SOL     OW26212   2.136   5.452   1.515
 8438SOL    HW126213   2.118   5.523   1.583
 8438SOL    HW226214   2.210   5.483   1.454
 8439SOL     OW26215   5.609   0.549   1.708
 8439SOL    HW126216   5.624   0.563   1.806
 8439SOL    HW226217   5.697   0.528   1.664
 8440SOL     OW26218   1.275   3.421   4.311
 8440SOL    HW126219   1.192   3.474   4.292
 8440SOL    HW226220   1.355   3.476   4.286
 8441SOL     OW26221   4.000   5.874   1.353
 8441SOL    HW126222   3.984   5.779   1.324
 8441SOL    HW226223   4.005   5.878   1.453
 8442SOL     OW26224   2.182   2.454   0.585
 8442SOL    HW126225   2.210   2.533   0.641
 8442SOL    HW226226   2.125   2.485   0.509
 8443SOL     OW26227   0.187   2.485   1.363
 8443SOL    HW126228   0.139   2.439   1.438
 8443SOL    HW226229   0.234   2.565   1.399
 8444SOL     OW26230   4.983   2.015   3.282
 8444SOL    HW126231   5.074   1.975   3.291
 8444SOL    HW226232   4.915   1.949   3.313
 8445SOL     OW26233   4.407   5.522   2.239
 8445SOL    HW126234   4.447   5.551   2.153
 8445SOL    HW226235   4.320   5.569   2.253
 8446SOL     OW26236   6.488   3.751   3.182
 8446SOL    HW126237   6.539   3.706   3.256
 8446SOL    HW226238   6.516   3.712   3.094
 8447SOL     OW26239   4.852   4.385   1.332
 8447SOL    HW126240   4.777   4.447   1.311
 8447SOL    HW226241   4.828   4.330   1.412
 8448SOL     OW26242   1.815   4.265   5.594
 8448SOL    HW126243   1.860   4.189   5.547
 8448SOL    HW226244   1.821   4.347   5.536
 8449SOL     OW26245   1.074   0.237   5.136
 8449SOL    HW126246   1.087   0.185   5.051
 8449SOL    HW226247   0.994   0.297   5.126
 8450SOL     OW26248   1.483   5.116   0.684
 8450SOL    HW126249   1.420   5.038   0.684
 8450SOL    HW226250   1.432   5.200   0.703
 8451SOL     OW26251   2.805   4.225   1.201
 8451SOL    HW126252   2.773   4.239   1.107
 8451SOL    HW226253   2.882   4.161   1.201
 8452SOL     OW26254   6.581   5.667   2.303
 8452SOL    HW126255   6.618   5.663   2.211
 8452SOL    HW226256   6.481   5.656   2.299
 8453SOL     OW26257   0.245   4.937   5.262
 8453SOL    HW126258   0.231   4.854   5.209
 8453SOL    HW226259   0.302   4.917   5.342
 8454SOL     OW26260   2.111   0.204   5.193
 8454SOL    HW126261   2.039   0.134   5.199
 8454SOL    HW226262   2.174   0.194   5.269
 8455SOL     OW26263   6.237   2.704   0.674
 8455SOL    HW126264   6.138   2.691   0.662
 8455SOL    HW226265   6.273   2.633   0.734
 8456SOL     OW26266   5.678   4.796   3.529
 8456SOL    HW126267   5.646   4.705   3.504
 8456SOL    HW226268   5.650   4.817   3.622
 8457SOL     OW26269   6.170   6.315   6.333
 8457SOL    HW126270   6.266   6.335   6.316
 8457SOL    HW226271   6.132   6.263   6.256
 8458SOL     OW26272   1.441   1.826   1.110
 8458SOL    HW126273   1.453   1.770   1.191
 8458SOL    HW226274   1.465   1.921   1.131
 8459SOL     OW26275   2.873   5.110   3.323
 8459SOL    HW126276   2.789   5.093   3.375
 8459SOL    HW226277   2.880   5.207   3.303
 8460SOL     OW26278   3.780   1.384   1.263
 8460SOL    HW126279   3.792   1.286   1.276
 8460SOL    HW226280   3.766   1.403   1.165
 8461SOL     OW26281   5.501   4.109   3.246
 8461SOL    HW126282   5.423   4.170   3.229
 8461SOL    HW226283   5.471   4.032   3.303
 8462SOL     OW26284   1.893   4.057   0.973
 8462SOL    HW126285   1.934   3.991   1.036
 8462SOL    HW226286   1.961   4.125   0.946
 8463SOL     OW26287   7.009   6.636   1.566
 8463SOL    HW126288   0.005   6.728   1.597
 8463SOL    HW226289   0.055   6.602   1.507
 8464SOL     OW26290   0.114   3.230   6.716
 8464SOL    HW126291   0.069   3.151   6.759
 8464SOL    HW226292   0.204   3.244   6.759
 8465SOL     OW26293   5.560   4.573   0.663
 8465SOL    HW126294   5.479   4.519   0.687
 8465SOL    HW226295   5.593   4.621   0.744
 8466SOL     OW26296   0.692   1.376   5.006
 8466SOL    HW126297   0.695   1.452   4.941
 8466SOL    HW226298   0.757   1.305   4.979
 8467SOL     OW26299   3.224   1.167   0.599
 8467SOL    HW126300   3.226   1.250   0.656
 8467SOL    HW226301   3.294   1.174   0.528
 8468SOL     OW26302   6.344   4.184   0.881
 8468SOL    HW126303   6.434   4.199   0.842
 8468SOL    HW226304   6.349   4.114   0.953
 8469SOL     OW26305   3.551   2.860   5.199
 8469SOL    HW126306   3.555   2.783   5.263
 8469SOL    HW226307   3.463   2.859   5.151
 8470SOL     OW26308   2.274   5.164   1.256
 8470SOL    HW126309   2.331   5.178   1.337
 8470SOL    HW226310   2.279   5.244   1.197
 8471SOL     OW26311   4.059   1.539   3.955
 8471SOL    HW126312   4.093   1.445   3.961
 8471SOL    HW226313   4.054   1.578   4.047
 8472SOL     OW26314   6.043   1.645   6.639
 8472SOL    HW126315   6.049   1.715   6.711
 8472SOL    HW226316   5.950   1.608   6.637
 8473SOL     OW26317   4.706   4.703   5.920
 8473SOL    HW126318   4.786   4.653   5.886
 8473SOL    HW226319   4.732   4.755   6.002
 8474SOL     OW26320   3.673   3.465   5.686
 8474SOL    HW126321   3.579   3.434   5.672
 8474SOL    HW226322   3.726   3.392   5.728
 8475SOL     OW26323   0.583   2.008   2.715
 8475SOL    HW126324   0.533   1.933   2.759
 8475SOL    HW226325   0.518   2.079   2.687
 8476SOL     OW26326   6.674   0.893   2.414
 8476SOL    HW126327   6.750   0.840   2.451
 8476SOL    HW226328   6.690   0.990   2.433
 8477SOL     OW26329   5.516   7.016   0.944
 8477SOL    HW126330   5.577   0.069   0.939
 8477SOL    HW226331   5.490   6.989   0.851
 8478SOL     OW26332   1.663   6.489   6.820
 8478SOL    HW126333   1.679   6.441   6.734
 8478SOL    HW226334   1.578   6.455   6.861
 8479SOL     OW26335   1.137   2.613   0.020
 8479SOL    HW126336   1.125   2.699   0.070
 8479SOL    HW226337   1.051   2.562   0.020
 8480SOL     OW26338   3.219   4.345   1.665
 8480SOL    HW126339   3.250   4.440   1.658
 8480SOL    HW226340   3.149   4.328   1.595
 8481SOL     OW26341   4.915   3.410   2.491
 8481SOL    HW126342   4.941   3.338   2.426
 8481SOL    HW226343   4.894   3.494   2.440
 8482SOL     OW26344   5.001   0.772   5.393
 8482SOL    HW126345   4.939   0.842   5.428
 8482SOL    HW226346   5.095   0.806   5.394
 8483SOL     OW26347   4.571   5.475   3.485
 8483SOL    HW126348   4.561   5.541   3.411
 8483SOL    HW226349   4.649   5.501   3.542
 8484SOL     OW26350   6.577   6.817   5.146
 8484SOL    HW126351   6.585   6.775   5.237
 8484SOL    HW226352   6.583   6.745   5.076
 8485SOL     OW26353   3.705   0.597   5.619
 8485SOL    HW126354   3.685   0.694   5.625
 8485SOL    HW226355   3.803   0.583   5.603
 8486SOL     OW26356   4.872   2.483   4.484
 8486SOL    HW126357   4.886   2.454   4.579
 8486SOL    HW226358   4.811   2.418   4.439
 8487SOL     OW26359   0.058   2.107   5.752
 8487SOL    HW126360   0.152   2.109   5.787
 8487SOL    HW226361   7.021   2.096   5.828
 8488SOL     OW26362   4.080   5.112   3.150
 8488SOL    HW126363   4.061   5.094   3.054
 8488SOL    HW226364   4.148   5.048   3.184
 8489SOL     OW26365   6.542   1.905   2.190
 8489SOL    HW126366   6.617   1.885   2.127
 8489SOL    HW226367   6.563   1.988   2.242
 8490SOL     OW26368   3.776   6.466   0.569
 8490SOL    HW126369   3.851   6.406   0.545
 8490SOL    HW226370   3.779   6.486   0.667
 8491SOL     OW26371   3.302   6.100   2.767
 8491SOL    HW126372   3.299   6.197   2.789
 8491SOL    HW226373   3.337   6.088   2.674
 8492SOL     OW26374   5.379   6.937   4.143
 8492SOL    HW126375   5.332   6.874   4.206
 8492SOL    HW226376   5.311   6.989   4.092
 8493SOL     OW26377   5.307   0.383   5.580
 8493SOL    HW126378   5.297   0.429   5.668
 8493SOL    HW226379   5.245   0.305   5.575
 8494SOL     OW26380   0.046   3.638   2.375
 8494SOL    HW126381   6.983   3.644   2.419
 8494SOL    HW226382   0.085   3.547   2.390
 8495SOL     OW26383   5.249   5.914   5.300
 8495SOL    HW126384   5.213   5.834   5.349
 8495SOL    HW226385   5.260   5.990   5.363
 8496SOL     OW26386   3.922   2.145   2.738
 8496SOL    HW126387   4.011   2.107   2.711
 8496SOL    HW226388   3.931   2.191   2.826
 8497SOL     OW26389   6.269   0.653   3.185
 8497SOL    HW126390   6.278   0.752   3.200
 8497SOL    HW226391   6.355   0.618   3.148
 8498SOL     OW26392   4.580   6.612   4.411
 8498SOL    HW126393   4.528   6.682   4.362
 8498SOL    HW226394   4.678   6.631   4.402
 8499SOL     OW26395   6.136   6.985   5.301
 8499SOL    HW126396   6.222   7.020   5.262
 8499SOL    HW226397   6.109   0.014   5.379
 8500SOL     OW26398   1.242   0.556   6.366
 8500SOL    HW126399   1.229   0.555   6.466
 8500SOL    HW226400   1.175   0.496   6.323
 8501SOL     OW26401   3.356   0.850   5.238
 8501SOL    HW126402   3.315   0.925   5.290
 8501SOL    HW226403   3.284   0.797   5.193
 8502SOL     OW26404   6.373   2.891   0.134
 8502SOL    HW126405   6.352   2.881   0.231
 8502SOL    HW226406   6.288   2.897   0.082
 8503SOL     OW26407   4.523   1.891   5.521
 8503SOL    HW126408   4.507   1.808   5.468
 8503SOL    HW226409   4.543   1.967   5.459
 8504SOL     OW26410   1.261   0.404   3.303
 8504SOL    HW126411   1.169   0.420   3.339
 8504SOL    HW226412   1.273   0.456   3.218
 8505SOL     OW26413   5.788   2.105   2.748
 8505SOL    HW126414   5.782   2.117   2.847
 8505SOL    HW226415   5.742   2.020   2.721
 8506SOL     OW26416   1.920   0.603   5.025
 8506SOL    HW126417   2.001   0.651   4.993
 8506SOL    HW226418   1.921   0.598   5.125
 8507SOL     OW26419   4.592   4.642   6.349
 8507SOL    HW126420   4.589   4.574   6.421
 8507SOL    HW226421   4.605   4.733   6.389
 8508SOL     OW26422   3.737   0.584   6.127
 8508SOL    HW126423   3.812   0.557   6.188
 8508SOL    HW226424   3.650   0.557   6.167
 8509SOL     OW26425   4.442   2.022   2.329
 8509SOL    HW126426   4.462   1.968   2.411
 8509SOL    HW226427   4.373   2.091   2.350
 8510SOL     OW26428   0.803   2.005   4.702
 8510SOL    HW126429   0.763   1.918   4.672
 8510SOL    HW226430   0.835   1.997   4.796
 8511SOL     OW26431   5.501   2.228   4.232
 8511SOL    HW126432   5.439   2.248   4.308
 8511SOL    HW226433   5.571   2.163   4.262
 8512SOL     OW26434   1.754   6.500   6.065
 8512SOL    HW126435   1.732   6.577   6.126
 8512SOL    HW226436   1.838   6.521   6.015
 8513SOL     OW26437   4.215   5.616   6.638
 8513SOL    HW126438   4.304   5.658   6.620
 8513SOL    HW226439   4.229   5.527   6.681
 8514SOL     OW26440   3.883   5.626   4.623
 8514SOL    HW126441   3.946   5.601   4.696
 8514SOL    HW226442   3.920   5.596   4.535
 8515SOL     OW26443   5.353   3.146   1.250
 8515SOL    HW126444   5.280   3.096   1.296
 8515SOL    HW226445   5.418   3.181   1.317
 8516SOL     OW26446   6.816   2.266   1.494
 8516SOL    HW126447   6.812   2.284   1.592
 8516SOL    HW226448   6.849   2.348   1.447
 8517SOL     OW26449   1.302   3.958   4.441
 8517SOL    HW126450   1.331   4.053   4.431
 8517SOL    HW226451   1.318   3.909   4.355
 8518SOL     OW26452   3.626   5.466   0.679
 8518SOL    HW126453   3.581   5.555   0.684
 8518SOL    HW226454   3.561   5.397   0.647
 8519SOL     OW26455   2.707   5.532   3.668
 8519SOL    HW126456   2.645   5.606   3.691
 8519SOL    HW226457   2.792   5.569   3.630
 8520SOL     OW26458   3.583   5.711   6.451
 8520SOL    HW126459   3.587   5.713   6.351
 8520SOL    HW226460   3.669   5.743   6.489
 8521SOL     OW26461   1.031   0.845   2.648
 8521SOL    HW126462   0.959   0.905   2.615
 8521SOL    HW226463   0.992   0.775   2.707
 8522SOL     OW26464   2.255   6.562   4.279
 8522SOL    HW126465   2.349   6.543   4.251
 8522SOL    HW226466   2.248   6.554   4.378
 8523SOL     OW26467   1.701   6.145   6.761
 8523SOL    HW126468   1.653   6.179   6.842
 8523SOL    HW226469   1.647   6.072   6.718
 8524SOL     OW26470   1.841   1.439   0.170
 8524SOL    HW126471   1.922   1.383   0.187
 8524SOL    HW226472   1.810   1.424   0.076
 8525SOL     OW26473   5.658   4.676   4.424
 8525SOL    HW126474   5.676   4.715   4.514
 8525SOL    HW226475   5.696   4.736   4.354
 8526SOL     OW26476   0.178   3.162   2.077
 8526SOL    HW126477   0.110   3.213   2.130
 8526SOL    HW226478   0.269   3.198   2.096
 8527SOL     OW26479   4.903   0.470   4.791
 8527SOL    HW126480   4.918   0.468   4.889
 8527SOL    HW226481   4.947   0.551   4.751
 8528SOL     OW26482   5.343   0.381   0.162
 8528SOL    HW126483   5.359   0.338   0.073
 8528SOL    HW226484   5.267   0.336   0.207
 8529SOL     OW26485   0.026   0.139   4.675
 8529SOL    HW126486   7.011   0.182   4.755
 8529SOL    HW226487   0.064   0.210   4.615
 8530SOL     OW26488   2.204   4.556   6.157
 8530SOL    HW126489   2.195   4.615   6.076
 8530SOL    HW226490   2.243   4.609   6.232
 8531SOL     OW26491   3.733   5.907   2.581
 8531SOL    HW126492   3.717   5.860   2.667
 8531SOL    HW226493   3.743   5.841   2.507
 8532SOL     OW26494   1.533   4.115   6.851
 8532SOL    HW126495   1.630   4.116   6.878
 8532SOL    HW226496   1.526   4.097   6.753
 8533SOL     OW26497   3.103   0.178   6.020
 8533SOL    HW126498   3.145   0.174   6.110
 8533SOL    HW226499   3.056   0.092   6.000
 8534SOL     OW26500   2.411   2.314   0.601
 8534SOL    HW126501   2.480   2.371   0.646
 8534SOL    HW226502   2.322   2.358   0.606
 8535SOL     OW26503   0.115   2.940   5.991
 8535SOL    HW126504   0.153   2.854   6.024
 8535SOL    HW226505   0.119   3.008   6.064
 8536SOL     OW26506   6.421   0.465   5.962
 8536SOL    HW126507   6.495   0.457   5.895
 8536SOL    HW226508   6.400   0.562   5.976
 8537SOL     OW26509   3.801   6.387   3.271
 8537SOL    HW126510   3.792   6.293   3.303
 8537SOL    HW226511   3.711   6.430   3.270
 8538SOL     OW26512   4.389   1.100   5.054
 8538SOL    HW126513   4.444   1.136   4.979
 8538SOL    HW226514   4.432   1.123   5.141
 8539SOL     OW26515   0.823   3.272   3.354
 8539SOL    HW126516   0.910   3.229   3.335
 8539SOL    HW226517   0.752   3.202   3.365
 8540SOL     OW26518   5.031   6.222   6.188
 8540SOL    HW126519   5.073   6.133   6.207
 8540SOL    HW226520   5.103   6.288   6.164
 8541SOL     OW26521   3.201   5.952   5.523
 8541SOL    HW126522   3.248   5.886   5.464
 8541SOL    HW226523   3.267   5.990   5.588
 8542SOL     OW26524   2.297   4.789   6.288
 8542SOL    HW126525   2.257   4.832   6.369
 8542SOL    HW226526   2.269   4.840   6.206
 8543SOL     OW26527   3.710   1.476   5.548
 8543SOL    HW126528   3.618   1.516   5.549
 8543SOL    HW226529   3.777   1.544   5.579
 8544SOL     OW26530   5.300   3.709   5.663
 8544SOL    HW126531   5.284   3.789   5.605
 8544SOL    HW226532   5.303   3.627   5.607
 8545SOL     OW26533   2.284   0.566   5.937
 8545SOL    HW126534   2.230   0.640   5.977
 8545SOL    HW226535   2.251   0.478   5.973
 8546SOL     OW26536   2.827   1.513   4.339
 8546SOL    HW126537   2.846   1.480   4.431
 8546SOL    HW226538   2.748   1.464   4.301
 8547SOL     OW26539   5.989   5.361   5.409
 8547SOL    HW126540   5.996   5.261   5.410
 8547SOL    HW226541   5.942   5.390   5.325
 8548SOL     OW26542   1.562   4.156   4.517
 8548SOL    HW126543   1.602   4.208   4.592
 8548SOL    HW226544   1.592   4.196   4.430
 8549SOL     OW26545   3.063   0.514   3.520
 8549SOL    HW126546   3.079   0.415   3.514
 8549SOL    HW226547   3.146   0.563   3.492
 8550SOL     OW26548   0.387   3.409   4.994
 8550SOL    HW126549   0.453   3.404   5.069
 8550SOL    HW226550   0.382   3.319   4.949
 8551SOL     OW26551   3.699   1.374   3.787
 8551SOL    HW126552   3.781   1.403   3.738
 8551SOL    HW226553   3.643   1.454   3.808
 8552SOL     OW26554   4.304   1.352   1.900
 8552SOL    HW126555   4.243   1.428   1.923
 8552SOL    HW226556   4.394   1.388   1.873
 8553SOL     OW26557   5.148   3.462   0.201
 8553SOL    HW126558   5.222   3.476   0.266
 8553SOL    HW226559   5.134   3.363   0.188
 8554SOL     OW26560   0.820   1.122   6.883
 8554SOL    HW126561   0.839   1.215   6.917
 8554SOL    HW226562   0.820   1.058   6.959
 8555SOL     OW26563   3.314   1.550   3.450
 8555SOL    HW126564   3.325   1.641   3.410
 8555SOL    HW226565   3.309   1.483   3.376
 8556SOL     OW26566   0.357   4.039   5.131
 8556SOL    HW126567   0.372   3.945   5.101
 8556SOL    HW226568   0.294   4.085   5.069
 8557SOL     OW26569   6.359   0.721   0.887
 8557SOL    HW126570   6.392   0.706   0.794
 8557SOL    HW226571   6.279   0.781   0.885
 8558SOL     OW26572   2.541   6.249   3.318
 8558SOL    HW126573   2.564   6.156   3.348
 8558SOL    HW226574   2.594   6.271   3.235
 8559SOL     OW26575   1.546   3.233   3.312
 8559SOL    HW126576   1.539   3.277   3.223
 8559SOL    HW226577   1.529   3.135   3.303
 8560SOL     OW26578   3.455   4.282   1.560
 8560SOL    HW126579   3.511   4.199   1.555
 8560SOL    HW226580   3.363   4.258   1.593
 8561SOL     OW26581   4.154   1.186   2.255
 8561SOL    HW126582   4.065   1.208   2.294
 8561SOL    HW226583   4.169   1.087   2.258
 8562SOL     OW26584   5.537   2.886   6.247
 8562SOL    HW126585   5.590   2.808   6.211
 8562SOL    HW226586   5.458   2.902   6.188
 8563SOL     OW26587   0.793   4.706   2.798
 8563SOL    HW126588   0.705   4.751   2.785
 8563SOL    HW226589   0.826   4.722   2.891
 8564SOL     OW26590   4.316   6.346   6.750
 8564SOL    HW126591   4.256   6.410   6.797
 8564SOL    HW226592   4.264   6.295   6.681
 8565SOL     OW26593   0.932   4.815   1.175
 8565SOL    HW126594   0.975   4.768   1.252
 8565SOL    HW226595   0.994   4.885   1.140
 8566SOL     OW26596   1.882   0.887   3.220
 8566SOL    HW126597   1.905   0.963   3.282
 8566SOL    HW226598   1.871   0.923   3.127
 8567SOL     OW26599   1.482   3.451   0.895
 8567SOL    HW126600   1.450   3.450   0.990
 8567SOL    HW226601   1.405   3.466   0.834
 8568SOL     OW26602   5.631   6.802   6.111
 8568SOL    HW126603   5.578   6.876   6.071
 8568SOL    HW226604   5.728   6.821   6.100
 8569SOL     OW26605   4.688   1.491   6.225
 8569SOL    HW126606   4.623   1.414   6.220
 8569SOL    HW226607   4.704   1.526   6.133
 8570SOL     OW26608   1.608   2.604   4.257
 8570SOL    HW126609   1.665   2.570   4.331
 8570SOL    HW226610   1.605   2.537   4.183
 8571SOL     OW26611   1.222   0.952   3.963
 8571SOL    HW126612   1.232   1.048   3.937
 8571SOL    HW226613   1.244   0.894   3.885
 8572SOL     OW26614   2.767   3.531   5.881
 8572SOL    HW126615   2.748   3.619   5.924
 8572SOL    HW226616   2.795   3.545   5.786
 8573SOL     OW26617   1.792   6.016   6.388
 8573SOL    HW126618   1.854   5.967   6.326
 8573SOL    HW226619   1.708   5.962   6.400
 8574SOL     OW26620   5.791   2.392   5.648
 8574SOL    HW126621   5.804   2.322   5.718
 8574SOL    HW226622   5.741   2.469   5.687
 8575SOL     OW26623   2.593   6.263   4.448
 8575SOL    HW126624   2.625   6.328   4.516
 8575SOL    HW226625   2.505   6.295   4.411
 8576SOL     OW26626   1.545   3.822   5.169
 8576SOL    HW126627   1.579   3.847   5.078
 8576SOL    HW226628   1.606   3.857   5.239
 8577SOL     OW26629   1.679   1.036   0.676
 8577SOL    HW126630   1.613   1.087   0.731
 8577SOL    HW226631   1.767   1.036   0.722
 8578SOL     OW26632   1.263   0.241   5.576
 8578SOL    HW126633   1.356   0.215   5.550
 8578SOL    HW226634   1.200   0.167   5.551
 8579SOL     OW26635   3.070   6.906   2.146
 8579SOL    HW126636   3.142   6.898   2.077
 8579SOL    HW226637   2.996   6.844   2.123
 8580SOL     OW26638   1.656   0.833   1.881
 8580SOL    HW126639   1.648   0.905   1.949
 8580SOL    HW226640   1.630   0.868   1.791
 8581SOL     OW26641   3.898   3.586   3.498
 8581SOL    HW126642   3.832   3.558   3.567
 8581SOL    HW226643   3.854   3.588   3.408
 8582SOL     OW26644   4.655   5.246   5.489
 8582SOL    HW126645   4.657   5.243   5.589
 8582SOL    HW226646   4.749   5.245   5.454
 8583SOL     OW26647   3.066   0.302   2.771
 8583SOL    HW126648   2.989   0.337   2.825
 8583SOL    HW226649   3.139   0.273   2.832
 8584SOL     OW26650   5.730   2.161   5.474
 8584SOL    HW126651   5.634   2.190   5.467
 8584SOL    HW226652   5.780   2.228   5.529
 8585SOL     OW26653   4.807   2.285   2.995
 8585SOL    HW126654   4.718   2.248   2.970
 8585SOL    HW226655   4.862   2.299   2.913
 8586SOL     OW26656   6.712   6.751   5.413
 8586SOL    HW126657   6.792   6.809   5.399
 8586SOL    HW226658   6.703   6.730   5.511
 8587SOL     OW26659   7.005   0.265   0.844
 8587SOL    HW126660   6.928   0.229   0.896
 8587SOL    HW226661   0.041   0.313   0.906
 8588SOL     OW26662   1.689   1.412   5.847
 8588SOL    HW126663   1.730   1.454   5.766
 8588SOL    HW226664   1.619   1.346   5.818
 8589SOL     OW26665   5.641   3.047   6.682
 8589SOL    HW126666   5.658   3.132   6.733
 8589SOL    HW226667   5.631   3.069   6.585
 8590SOL     OW26668   1.044   0.926   3.177
 8590SOL    HW126669   0.997   1.012   3.197
 8590SOL    HW226670   1.112   0.909   3.248
 8591SOL     OW26671   0.917   3.973   5.654
 8591SOL    HW126672   0.950   3.990   5.747
 8591SOL    HW226673   0.834   4.027   5.638
 8592SOL     OW26674   0.414   2.455   4.909
 8592SOL    HW126675   0.377   2.373   4.866
 8592SOL    HW226676   0.453   2.514   4.839
 8593SOL     OW26677   6.439   1.029   0.325
 8593SOL    HW126678   6.538   1.032   0.344
 8593SOL    HW226679   6.421   0.960   0.255
 8594SOL     OW26680   6.072   3.511   6.753
 8594SOL    HW126681   5.974   3.499   6.770
 8594SOL    HW226682   6.093   3.608   6.748
 8595SOL     OW26683   5.468   6.433   2.583
 8595SOL    HW126684   5.381   6.393   2.553
 8595SOL    HW226685   5.449   6.507   2.648
 8596SOL     OW26686   0.345   2.858   5.579
 8596SOL    HW126687   0.277   2.922   5.614
 8596SOL    HW226688   0.311   2.765   5.588
 8597SOL     OW26689   6.387   2.501   5.726
 8597SOL    HW126690   6.448   2.525   5.802
 8597SOL    HW226691   6.292   2.508   5.756
 8598SOL     OW26692   0.045   0.575   5.848
 8598SOL    HW126693   0.035   0.641   5.774
 8598SOL    HW226694   0.142   0.551   5.859
 8599SOL     OW26695   5.536   4.098   4.967
 8599SOL    HW126696   5.483   4.183   4.963
 8599SOL    HW226697   5.486   4.025   4.922
 8600SOL     OW26698   4.003   2.916   1.842
 8600SOL    HW126699   4.048   2.979   1.906
 8600SOL    HW226700   4.024   2.944   1.748
 8601SOL     OW26701   4.228   5.313   2.213
 8601SOL    HW126702   4.243   5.214   2.213
 8601SOL    HW226703   4.316   5.360   2.215
 8602SOL     OW26704   2.177   6.295   4.771
 8602SOL    HW126705   2.189   6.238   4.852
 8602SOL    HW226706   2.114   6.251   4.707
 8603SOL     OW26707   1.073   1.534   0.086
 8603SOL    HW126708   1.054   1.462   0.154
 8603SOL    HW226709   1.076   1.623   0.132
 8604SOL     OW26710   1.540   5.550   5.907
 8604SOL    HW126711   1.632   5.513   5.922
 8604SOL    HW226712   1.493   5.495   5.838
 8605SOL     OW26713   6.251   4.598   4.465
 8605SOL    HW126714   6.242   4.646   4.377
 8605SOL    HW226715   6.195   4.644   4.534
 8606SOL     OW26716   0.808   0.446   6.733
 8606SOL    HW126717   0.800   0.507   6.654
 8606SOL    HW226718   0.717   0.431   6.772
 8607SOL     OW26719   2.651   2.785   1.316
 8607SOL    HW126720   2.690   2.790   1.224
 8607SOL    HW226721   2.699   2.715   1.368
 8608SOL     OW26722   2.397   5.097   1.693
 8608SOL    HW126723   2.416   5.183   1.740
 8608SOL    HW226724   2.427   5.104   1.597
 8609SOL     OW26725   4.554   2.213   3.960
 8609SOL    HW126726   4.551   2.253   4.052
 8609SOL    HW226727   4.578   2.116   3.967
 8610SOL     OW26728   0.167   5.315   2.572
 8610SOL    HW126729   0.181   5.392   2.634
 8610SOL    HW226730   0.074   5.279   2.584
 8611SOL     OW26731   2.082   1.487   5.562
 8611SOL    HW126732   2.114   1.569   5.514
 8611SOL    HW226733   2.122   1.485   5.654
 8612SOL     OW26734   2.971   3.354   5.709
 8612SOL    HW126735   3.053   3.324   5.661
 8612SOL    HW226736   2.970   3.454   5.715
 8613SOL     OW26737   2.962   3.728   3.326
 8613SOL    HW126738   2.907   3.656   3.368
 8613SOL    HW226739   3.009   3.780   3.398
 8614SOL     OW26740   0.389   3.018   4.111
 8614SOL    HW126741   0.464   3.078   4.137
 8614SOL    HW226742   0.401   2.928   4.154
 8615SOL     OW26743   3.947   0.886   5.036
 8615SOL    HW126744   4.045   0.895   5.053
 8615SOL    HW226745   3.898   0.957   5.086
 8616SOL     OW26746   6.139   4.268   5.380
 8616SOL    HW126747   6.217   4.287   5.321
 8616SOL    HW226748   6.074   4.344   5.374
 8617SOL     OW26749   0.879   0.121   3.478
 8617SOL    HW126750   0.921   0.129   3.387
 8617SOL    HW226751   0.780   0.109   3.468
 8618SOL     OW26752   6.549   4.871   0.523
 8618SOL    HW126753   6.646   4.863   0.545
 8618SOL    HW226754   6.539   4.899   0.428
 8619SOL     OW26755   5.769   5.380   6.506
 8619SOL    HW126756   5.731   5.290   6.528
 8619SOL    HW226757   5.714   5.424   6.435
 8620SOL     OW26758   1.202   6.617   4.040
 8620SOL    HW126759   1.205   6.665   3.952
 8620SOL    HW226760   1.148   6.533   4.030
 8621SOL     OW26761   6.097   3.457   1.361
 8621SOL    HW126762   6.043   3.379   1.329
 8621SOL    HW226763   6.039   3.538   1.364
 8622SOL     OW26764   0.805   5.895   1.759
 8622SOL    HW126765   0.900   5.876   1.785
 8622SOL    HW226766   0.797   5.895   1.660
 8623SOL     OW26767   2.311   1.964   3.073
 8623SOL    HW126768   2.264   2.052   3.078
 8623SOL    HW226769   2.312   1.932   2.979
 8624SOL     OW26770   3.302   3.596   5.624
 8624SOL    HW126771   3.216   3.627   5.584
 8624SOL    HW226772   3.293   3.590   5.723
 8625SOL     OW26773   4.401   3.187   5.859
 8625SOL    HW126774   4.327   3.182   5.793
 8625SOL    HW226775   4.370   3.235   5.941
 8626SOL     OW26776   5.393   1.806   0.970
 8626SOL    HW126777   5.450   1.724   0.981
 8626SOL    HW226778   5.337   1.818   1.052
 8627SOL     OW26779   0.035   6.991   2.629
 8627SOL    HW126780   0.124   0.009   2.640
 8627SOL    HW226781   0.007   6.996   2.533
 8628SOL     OW26782   0.901   6.351   0.754
 8628SOL    HW126783   0.941   6.269   0.713
 8628SOL    HW226784   0.863   6.408   0.681
 8629SOL     OW26785   0.169   0.934   4.528
 8629SOL    HW126786   0.265   0.941   4.553
 8629SOL    HW226787   0.160   0.874   4.448
 8630SOL     OW26788   5.198   2.993   1.465
 8630SOL    HW126789   5.194   2.907   1.416
 8630SOL    HW226790   5.121   3.000   1.528
 8631SOL     OW26791   1.499   5.926   6.730
 8631SOL    HW126792   1.491   5.835   6.773
 8631SOL    HW226793   1.433   5.988   6.772
 8632SOL     OW26794   6.164   5.968   4.039
 8632SOL    HW126795   6.244   5.916   4.008
 8632SOL    HW226796   6.179   6.065   4.022
 8633SOL     OW26797   6.704   3.775   5.365
 8633SOL    HW126798   6.612   3.802   5.393
 8633SOL    HW226799   6.735   3.834   5.291
 8634SOL     OW26800   4.930   5.005   6.489
 8634SOL    HW126801   4.919   4.921   6.541
 8634SOL    HW226802   5.005   5.059   6.528
 8635SOL     OW26803   5.331   1.844   6.438
 8635SOL    HW126804   5.328   1.745   6.431
 8635SOL    HW226805   5.385   1.871   6.517
 8636SOL     OW26806   3.813   6.055   0.550
 8636SOL    HW126807   3.725   6.104   0.547
 8636SOL    HW226808   3.827   6.008   0.463
 8637SOL     OW26809   3.150   2.485   0.607
 8637SOL    HW126810   3.119   2.484   0.702
 8637SOL    HW226811   3.097   2.552   0.556
 8638SOL     OW26812   5.429   2.053   4.558
 8638SOL    HW126813   5.466   1.999   4.483
 8638SOL    HW226814   5.407   2.145   4.526
 8639SOL     OW26815   3.779   4.031   0.332
 8639SOL    HW126816   3.704   4.089   0.364
 8639SOL    HW226817   3.741   3.949   0.288
 8640SOL     OW26818   3.335   2.035   6.388
 8640SOL    HW126819   3.306   2.126   6.360
 8640SOL    HW226820   3.282   2.006   6.468
 8641SOL     OW26821   3.557   4.945   3.227
 8641SOL    HW126822   3.565   4.908   3.135
 8641SOL    HW226823   3.467   4.920   3.265
 8642SOL     OW26824   2.258   6.411   2.997
 8642SOL    HW126825   2.244   6.405   2.898
 8642SOL    HW226826   2.339   6.466   3.016
 8643SOL     OW26827   3.855   6.384   1.320
 8643SOL    HW126828   3.903   6.434   1.393
 8643SOL    HW226829   3.903   6.398   1.234
 8644SOL     OW26830   5.245   2.030   6.279
 8644SOL    HW126831   5.319   2.084   6.239
 8644SOL    HW226832   5.285   1.952   6.327
 8645SOL     OW26833   4.641   5.346   2.596
 8645SOL    HW126834   4.701   5.370   2.672
 8645SOL    HW226835   4.623   5.428   2.540
 8646SOL     OW26836   6.949   2.031   4.178
 8646SOL    HW126837   6.925   2.126   4.200
 8646SOL    HW226838   6.943   2.017   4.080
 8647SOL     OW26839   1.831   4.596   1.708
 8647SOL    HW126840   1.763   4.651   1.757
 8647SOL    HW226841   1.870   4.650   1.633
 8648SOL     OW26842   5.715   5.558   6.296
 8648SOL    HW126843   5.636   5.576   6.238
 8648SOL    HW226844   5.791   5.524   6.241
 8649SOL     OW26845   5.589   2.467   2.256
 8649SOL    HW126846   5.520   2.533   2.284
 8649SOL    HW226847   5.550   2.405   2.188
 8650SOL     OW26848   0.948   0.493   4.846
 8650SOL    HW126849   1.040   0.486   4.884
 8650SOL    HW226850   0.900   0.569   4.889
 8651SOL     OW26851   4.570   1.206   1.628
 8651SOL    HW126852   4.527   1.255   1.553
 8651SOL    HW226853   4.644   1.148   1.593
 8652SOL     OW26854   6.449   3.079   4.912
 8652SOL    HW126855   6.449   3.145   4.836
 8652SOL    HW226856   6.357   3.074   4.951
 8653SOL     OW26857   5.122   0.549   0.589
 8653SOL    HW126858   5.142   0.644   0.565
 8653SOL    HW226859   5.064   0.547   0.670
 8654SOL     OW26860   0.140   4.458   2.764
 8654SOL    HW126861   0.215   4.394   2.743
 8654SOL    HW226862   0.104   4.439   2.855
 8655SOL     OW26863   1.351   6.683   5.041
 8655SOL    HW126864   1.401   6.632   5.111
 8655SOL    HW226865   1.253   6.661   5.049
 8656SOL     OW26866   3.940   6.093   0.970
 8656SOL    HW126867   3.961   6.075   1.066
 8656SOL    HW226868   3.948   6.009   0.917
 8657SOL     OW26869   3.222   1.871   2.515
 8657SOL    HW126870   3.219   1.861   2.416
 8657SOL    HW226871   3.274   1.953   2.539
 8658SOL     OW26872   6.519   4.253   0.641
 8658SOL    HW126873   6.447   4.250   0.572
 8658SOL    HW226874   6.607   4.230   0.599
 8659SOL     OW26875   3.525   0.307   3.538
 8659SOL    HW126876   3.620   0.338   3.535
 8659SOL    HW226877   3.488   0.323   3.630
 8660SOL     OW26878   6.849   4.193   1.496
 8660SOL    HW126879   6.932   4.162   1.448
 8660SOL    HW226880   6.788   4.238   1.432
 8661SOL     OW26881   5.988   3.448   1.828
 8661SOL    HW126882   6.030   3.379   1.769
 8661SOL    HW226883   5.890   3.455   1.808
 8662SOL     OW26884   1.843   2.332   2.502
 8662SOL    HW126885   1.938   2.352   2.526
 8662SOL    HW226886   1.803   2.270   2.570
 8663SOL     OW26887   3.291   4.908   2.660
 8663SOL    HW126888   3.260   4.838   2.596
 8663SOL    HW226889   3.213   4.965   2.688
 8664SOL     OW26890   3.429   5.920   3.963
 8664SOL    HW126891   3.454   5.933   4.060
 8664SOL    HW226892   3.340   5.961   3.946
 8665SOL     OW26893   0.480   3.428   6.609
 8665SOL    HW126894   0.568   3.428   6.658
 8665SOL    HW226895   0.481   3.500   6.539
 8666SOL     OW26896   4.700   6.904   2.779
 8666SOL    HW126897   4.780   6.904   2.719
 8666SOL    HW226898   4.659   6.996   2.781
 8667SOL     OW26899   4.714   2.170   2.243
 8667SOL    HW126900   4.652   2.095   2.266
 8667SOL    HW226901   4.667   2.258   2.256
 8668SOL     OW26902   3.602   2.097   3.346
 8668SOL    HW126903   3.541   2.150   3.287
 8668SOL    HW226904   3.689   2.145   3.354
 8669SOL     OW26905   0.511   5.835   5.746
 8669SOL    HW126906   0.494   5.738   5.727
 8669SOL    HW226907   0.573   5.844   5.823
 8670SOL     OW26908   0.392   5.164   5.263
 8670SOL    HW126909   0.354   5.205   5.180
 8670SOL    HW226910   0.348   5.076   5.280
 8671SOL     OW26911   0.371   3.336   3.853
 8671SOL    HW126912   0.318   3.323   3.937
 8671SOL    HW226913   0.404   3.247   3.820
 8672SOL     OW26914   6.328   1.552   2.315
 8672SOL    HW126915   6.390   1.473   2.309
 8672SOL    HW226916   6.371   1.623   2.371
 8673SOL     OW26917   0.575   1.652   1.727
 8673SOL    HW126918   0.660   1.704   1.714
 8673SOL    HW226919   0.509   1.709   1.776
 8674SOL     OW26920   0.266   3.358   4.355
 8674SOL    HW126921   0.352   3.361   4.406
 8674SOL    HW226922   0.228   3.266   4.360
 8675SOL     OW26923   5.071   2.523   5.118
 8675SOL    HW126924   5.032   2.527   5.209
 8675SOL    HW226925   5.011   2.571   5.054
 8676SOL     OW26926   4.648   2.798   0.497
 8676SOL    HW126927   4.641   2.708   0.453
 8676SOL    HW226928   4.742   2.813   0.528
 8677SOL     OW26929   3.311   0.990   0.156
 8677SOL    HW126930   3.391   0.985   0.095
 8677SOL    HW226931   3.308   0.908   0.213
 8678SOL     OW26932   3.269   1.963   0.183
 8678SOL    HW126933   3.272   2.022   0.264
 8678SOL    HW226934   3.361   1.953   0.145
 8679SOL     OW26935   1.566   2.271   6.870
 8679SOL    HW126936   1.622   2.307   6.795
 8679SOL    HW226937   1.624   2.245   6.946
 8680SOL     OW26938   0.273   0.009   1.345
 8680SOL    HW126939   0.216   6.968   1.298
 8680SOL    HW226940   0.263   7.024   1.444
 8681SOL     OW26941   5.396   5.590   0.969
 8681SOL    HW126942   5.443   5.674   0.942
 8681SOL    HW226943   5.350   5.551   0.889
 8682SOL     OW26944   1.699   1.522   2.330
 8682SOL    HW126945   1.677   1.523   2.427
 8682SOL    HW226946   1.722   1.615   2.301
 8683SOL     OW26947   2.330   4.489   4.278
 8683SOL    HW126948   2.382   4.518   4.358
 8683SOL    HW226949   2.279   4.567   4.242
 8684SOL     OW26950   2.198   4.095   3.748
 8684SOL    HW126951   2.119   4.127   3.800
 8684SOL    HW226952   2.168   4.037   3.673
 8685SOL     OW26953   4.984   3.207   5.616
 8685SOL    HW126954   4.953   3.294   5.578
 8685SOL    HW226955   5.006   3.144   5.542
 8686SOL     OW26956   1.305   4.954   2.577
 8686SOL    HW126957   1.327   5.049   2.600
 8686SOL    HW226958   1.297   4.946   2.478
 8687SOL     OW26959   6.140   4.270   5.653
 8687SOL    HW126960   6.136   4.248   5.556
 8687SOL    HW226961   6.094   4.198   5.705
 8688SOL     OW26962   0.633   3.728   4.928
 8688SOL    HW126963   0.545   3.681   4.920
 8688SOL    HW226964   0.619   3.826   4.916
 8689SOL     OW26965   5.262   3.414   1.198
 8689SOL    HW126966   5.296   3.321   1.217
 8689SOL    HW226967   5.282   3.473   1.276
 8690SOL     OW26968   1.662   2.184   2.056
 8690SOL    HW126969   1.628   2.108   2.110
 8690SOL    HW226970   1.739   2.228   2.104
 8691SOL     OW26971   3.495   0.968   6.976
 8691SOL    HW126972   3.527   0.882   6.937
 8691SOL    HW226973   3.565   1.038   6.962
 8692SOL     OW26974   5.701   2.470   4.443
 8692SOL    HW126975   5.699   2.467   4.343
 8692SOL    HW226976   5.613   2.502   4.477
 8693SOL     OW26977   0.652   6.801   5.538
 8693SOL    HW126978   0.751   6.792   5.541
 8693SOL    HW226979   0.628   6.898   5.527
 8694SOL     OW26980   3.996   3.919   5.321
 8694SOL    HW126981   4.001   3.980   5.242
 8694SOL    HW226982   3.954   3.968   5.398
 8695SOL     OW26983   4.141   4.003   1.123
 8695SOL    HW126984   4.195   3.931   1.079
 8695SOL    HW226985   4.196   4.086   1.130
 8696SOL     OW26986   2.963   5.374   6.568
 8696SOL    HW126987   2.933   5.279   6.559
 8696SOL    HW226988   2.891   5.435   6.536
 8697SOL     OW26989   0.969   3.166   4.958
 8697SOL    HW126990   0.959   3.070   4.983
 8697SOL    HW226991   1.050   3.204   5.003
 8698SOL     OW26992   5.916   4.270   6.739
 8698SOL    HW126993   5.860   4.347   6.769
 8698SOL    HW226994   5.958   4.226   6.818
 8699SOL     OW26995   2.416   2.163   1.246
 8699SOL    HW126996   2.439   2.220   1.167
 8699SOL    HW226997   2.379   2.075   1.215
 8700SOL     OW26998   0.230   2.090   4.157
 8700SOL    HW126999   0.276   2.177   4.173
 8700SOL    HW227000   0.131   2.103   4.165
 8701SOL     OW27001   2.548   3.257   6.778
 8701SOL    HW127002   2.490   3.201   6.837
 8701SOL    HW227003   2.510   3.257   6.685
 8702SOL     OW27004   5.282   3.966   1.003
 8702SOL    HW127005   5.322   3.964   1.095
 8702SOL    HW227006   5.251   3.874   0.979
 8703SOL     OW27007   2.161   4.867   1.589
 8703SOL    HW127008   2.154   4.853   1.688
 8703SOL    HW227009   2.149   4.964   1.568
 8704SOL     OW27010   6.341   0.889   3.478
 8704SOL    HW127011   6.319   0.987   3.486
 8704SOL    HW227012   6.368   0.869   3.384
 8705SOL     OW27013   3.772   2.009   0.116
 8705SOL    HW127014   3.691   1.962   0.081
 8705SOL    HW227015   3.790   2.091   0.060
 8706SOL     OW27016   4.786   2.951   5.096
 8706SOL    HW127017   4.734   2.899   5.028
 8706SOL    HW227018   4.876   2.910   5.108
 8707SOL     OW27019   1.299   1.202   4.400
 8707SOL    HW127020   1.398   1.199   4.415
 8707SOL    HW227021   1.279   1.265   4.325
 8708SOL     OW27022   5.521   2.367   0.805
 8708SOL    HW127023   5.467   2.401   0.882
 8708SOL    HW227024   5.599   2.314   0.839
 8709SOL     OW27025   6.433   6.215   4.185
 8709SOL    HW127026   6.514   6.206   4.243
 8709SOL    HW227027   6.460   6.221   4.089
 8710SOL     OW27028   2.177   3.017   3.564
 8710SOL    HW127029   2.183   2.960   3.645
 8710SOL    HW227030   2.083   3.014   3.528
 8711SOL     OW27031   0.890   2.043   2.343
 8711SOL    HW127032   0.852   2.087   2.424
 8711SOL    HW227033   0.972   1.992   2.368
 8712SOL     OW27034   1.060   3.653   3.966
 8712SOL    HW127035   1.034   3.675   3.872
 8712SOL    HW227036   1.041   3.557   3.984
 8713SOL     OW27037   0.161   4.980   3.721
 8713SOL    HW127038   0.116   5.048   3.662
 8713SOL    HW227039   0.184   5.023   3.809
 8714SOL     OW27040   0.807   4.725   6.231
 8714SOL    HW127041   0.749   4.692   6.157
 8714SOL    HW227042   0.750   4.772   6.299
 8715SOL     OW27043   2.009   4.783   1.252
 8715SOL    HW127044   2.073   4.771   1.176
 8715SOL    HW227045   2.019   4.706   1.315
 8716SOL     OW27046   5.398   0.129   2.664
 8716SOL    HW127047   5.339   0.201   2.627
 8716SOL    HW227048   5.492   0.143   2.631
 8717SOL     OW27049   3.991   2.403   6.479
 8717SOL    HW127050   3.894   2.389   6.497
 8717SOL    HW227051   4.036   2.434   6.563
 8718SOL     OW27052   3.246   5.236   5.716
 8718SOL    HW127053   3.174   5.305   5.729
 8718SOL    HW227054   3.288   5.248   5.627
 8719SOL     OW27055   3.009   2.200   4.442
 8719SOL    HW127056   2.917   2.223   4.412
 8719SOL    HW227057   3.026   2.240   4.532
 8720SOL     OW27058   0.140   6.465   4.974
 8720SOL    HW127059   0.229   6.435   4.940
 8720SOL    HW227060   0.095   6.521   4.905
 8721SOL     OW27061   0.889   0.764   1.413
 8721SOL    HW127062   0.800   0.787   1.375
 8721SOL    HW227063   0.912   0.669   1.393
 8722SOL     OW27064   4.070   1.311   0.400
 8722SOL    HW127065   4.085   1.229   0.345
 8722SOL    HW227066   3.972   1.330   0.407
 8723SOL     OW27067   3.602   6.940   2.666
 8723SOL    HW127068   3.562   6.937   2.757
 8723SOL    HW227069   3.618   6.846   2.634
 8724SOL     OW27070   4.539   0.611   5.480
 8724SOL    HW127071   4.603   0.684   5.504
 8724SOL    HW227072   4.589   0.528   5.457
 8725SOL     OW27073   6.575   0.723   2.610
 8725SOL    HW127074   6.640   0.748   2.682
 8725SOL    HW227075   6.586   0.785   2.533
 8726SOL     OW27076   0.113   1.113   0.618
 8726SOL    HW127077   0.125   1.050   0.695
 8726SOL    HW227078   0.054   1.070   0.549
 8727SOL     OW27079   5.094   5.544   6.391
 8727SOL    HW127080   5.022   5.613   6.398
 8727SOL    HW227081   5.059   5.465   6.340
 8728SOL     OW27082   5.729   6.833   4.125
 8728SOL    HW127083   5.654   6.805   4.066
 8728SOL    HW227084   5.734   6.933   4.128
 8729SOL     OW27085   5.894   6.814   6.051
 8729SOL    HW127086   5.949   6.841   5.972
 8729SOL    HW227087   5.938   6.737   6.098
 8730SOL     OW27088   4.259   4.566   1.699
 8730SOL    HW127089   4.304   4.482   1.669
 8730SOL    HW227090   4.161   4.550   1.707
 8731SOL     OW27091   0.017   2.222   3.764
 8731SOL    HW127092   0.094   2.286   3.765
 8731SOL    HW227093   6.978   2.248   3.835
 8732SOL     OW27094   5.121   5.827   5.541
 8732SOL    HW127095   5.086   5.910   5.583
 8732SOL    HW227096   5.214   5.810   5.575
 8733SOL     OW27097   5.565   4.786   2.514
 8733SOL    HW127098   5.511   4.781   2.430
 8733SOL    HW227099   5.547   4.874   2.559
 8734SOL     OW27100   0.767   5.888   1.494
 8734SOL    HW127101   0.743   5.968   1.440
 8734SOL    HW227102   0.834   5.833   1.444
 8735SOL     OW27103   1.382   2.420   6.716
 8735SOL    HW127104   1.423   2.359   6.784
 8735SOL    HW227105   1.351   2.504   6.760
 8736SOL     OW27106   1.097   6.111   4.076
 8736SOL    HW127107   1.060   6.019   4.088
 8736SOL    HW227108   1.047   6.174   4.136
 8737SOL     OW27109   0.546   5.354   0.185
 8737SOL    HW127110   0.498   5.440   0.205
 8737SOL    HW227111   0.627   5.346   0.243
 8738SOL     OW27112   2.083   2.437   2.615
 8738SOL    HW127113   2.170   2.479   2.588
 8738SOL    HW227114   2.099   2.344   2.647
 8739SOL     OW27115   4.645   4.718   3.601
 8739SOL    HW127116   4.741   4.696   3.622
 8739SOL    HW227117   4.641   4.805   3.552
 8740SOL     OW27118   2.133   0.849   3.530
 8740SOL    HW127119   2.227   0.827   3.559
 8740SOL    HW227120   2.097   0.774   3.476
 8741SOL     OW27121   2.373   2.143   2.695
 8741SOL    HW127122   2.386   2.191   2.608
 8741SOL    HW227123   2.450   2.081   2.711
 8742SOL     OW27124   1.396   3.486   1.162
 8742SOL    HW127125   1.474   3.548   1.152
 8742SOL    HW227126   1.405   3.434   1.247
 8743SOL     OW27127   1.533   2.978   6.905
 8743SOL    HW127128   1.496   2.885   6.907
 8743SOL    HW227129   1.629   2.976   6.931
 8744SOL     OW27130   2.330   4.041   6.063
 8744SOL    HW127131   2.289   3.950   6.061
 8744SOL    HW227132   2.396   4.047   6.138
 8745SOL     OW27133   5.851   1.422   6.725
 8745SOL    HW127134   5.924   1.423   6.795
 8745SOL    HW227135   5.781   1.356   6.752
 8746SOL     OW27136   4.655   4.757   4.563
 8746SOL    HW127137   4.631   4.816   4.640
 8746SOL    HW227138   4.590   4.680   4.559
 8747SOL     OW27139   0.330   6.815   1.817
 8747SOL    HW127140   0.396   6.888   1.798
 8747SOL    HW227141   0.331   6.749   1.742
 8748SOL     OW27142   5.936   1.295   4.725
 8748SOL    HW127143   6.030   1.320   4.703
 8748SOL    HW227144   5.930   1.196   4.740
 8749SOL     OW27145   2.497   1.291   3.921
 8749SOL    HW127146   2.455   1.306   3.832
 8749SOL    HW227147   2.577   1.350   3.932
 8750SOL     OW27148   3.857   3.294   2.056
 8750SOL    HW127149   3.880   3.354   1.979
 8750SOL    HW227150   3.885   3.338   2.142
 8751SOL     OW27151   1.913   6.729   6.752
 8751SOL    HW127152   1.829   6.771   6.786
 8751SOL    HW227153   1.898   6.697   6.658
 8752SOL     OW27154   1.186   3.193   6.282
 8752SOL    HW127155   1.145   3.283   6.265
 8752SOL    HW227156   1.275   3.204   6.325
 8753SOL     OW27157   1.611   1.625   0.956
 8753SOL    HW127158   1.582   1.596   0.865
 8753SOL    HW227159   1.550   1.697   0.989
 8754SOL     OW27160   1.347   6.172   6.341
 8754SOL    HW127161   1.342   6.160   6.242
 8754SOL    HW227162   1.443   6.180   6.369
 8755SOL     OW27163   0.165   1.885   1.883
 8755SOL    HW127164   0.173   1.969   1.937
 8755SOL    HW227165   0.074   1.845   1.897
 8756SOL     OW27166   1.842   1.752   2.208
 8756SOL    HW127167   1.932   1.765   2.166
 8756SOL    HW227168   1.819   1.833   2.262
 8757SOL     OW27169   5.340   5.880   4.845
 8757SOL    HW127170   5.264   5.869   4.909
 8757SOL    HW227171   5.344   5.975   4.813
 8758SOL     OW27172   3.558   4.685   6.478
 8758SOL    HW127173   3.523   4.734   6.398
 8758SOL    HW227174   3.519   4.724   6.561
 8759SOL     OW27175   6.697   1.410   1.418
 8759SOL    HW127176   6.775   1.418   1.480
 8759SOL    HW227177   6.652   1.322   1.431
 8760SOL     OW27178   1.436   2.961   4.525
 8760SOL    HW127179   1.477   2.935   4.612
 8760SOL    HW227180   1.476   3.048   4.494
 8761SOL     OW27181   5.384   2.909   3.305
 8761SOL    HW127182   5.405   2.814   3.328
 8761SOL    HW227183   5.406   2.926   3.208
 8762SOL     OW27184   4.096   5.988   2.507
 8762SOL    HW127185   4.035   5.921   2.550
 8762SOL    HW227186   4.063   6.081   2.526
 8763SOL     OW27187   6.952   1.848   5.447
 8763SOL    HW127188   6.885   1.820   5.378
 8763SOL    HW227189   0.005   1.788   5.442
 8764SOL     OW27190   2.604   5.204   5.990
 8764SOL    HW127191   2.559   5.293   5.986
 8764SOL    HW227192   2.668   5.202   6.066
 8765SOL     OW27193   4.280   6.977   3.575
 8765SOL    HW127194   4.328   6.968   3.662
 8765SOL    HW227195   4.255   0.046   3.560
 8766SOL     OW27196   6.075   0.008   4.774
 8766SOL    HW127197   6.085   6.980   4.857
 8766SOL    HW227198   6.165   0.039   4.745
 8767SOL     OW27199   1.884   1.296   4.661
 8767SOL    HW127200   1.868   1.329   4.754
 8767SOL    HW227201   1.854   1.365   4.595
 8768SOL     OW27202   7.005   2.205   1.095
 8768SOL    HW127203   6.996   2.303   1.111
 8768SOL    HW227204   6.925   2.158   1.132
 8769SOL     OW27205   6.860   6.896   6.764
 8769SOL    HW127206   6.844   6.989   6.731
 8769SOL    HW227207   6.958   6.883   6.779
 8770SOL     OW27208   4.571   1.799   0.624
 8770SOL    HW127209   4.515   1.764   0.549
 8770SOL    HW227210   4.520   1.868   0.675
 8771SOL     OW27211   1.078   2.754   6.708
 8771SOL    HW127212   0.981   2.747   6.729
 8771SOL    HW227213   1.101   2.848   6.682
 8772SOL     OW27214   0.596   6.478   3.586
 8772SOL    HW127215   0.501   6.474   3.618
 8772SOL    HW227216   0.600   6.526   3.499
 8773SOL     OW27217   6.573   1.665   4.104
 8773SOL    HW127218   6.589   1.647   4.007
 8773SOL    HW227219   6.512   1.743   4.114
 8774SOL     OW27220   1.333   2.438   0.100
 8774SOL    HW127221   1.315   2.362   0.036
 8774SOL    HW227222   1.256   2.502   0.098
 8775SOL     OW27223   4.885   1.974   2.266
 8775SOL    HW127224   4.817   2.046   2.278
 8775SOL    HW227225   4.851   1.908   2.199
 8776SOL     OW27226   5.296   3.583   1.425
 8776SOL    HW127227   5.220   3.567   1.489
 8776SOL    HW227228   5.379   3.605   1.476
 8777SOL     OW27229   6.450   2.240   3.774
 8777SOL    HW127230   6.375   2.238   3.840
 8777SOL    HW227231   6.414   2.229   3.682
 8778SOL     OW27232   1.752   4.585   6.400
 8778SOL    HW127233   1.831   4.529   6.376
 8778SOL    HW227234   1.713   4.552   6.486
 8779SOL     OW27235   3.715   6.702   2.625
 8779SOL    HW127236   3.731   6.644   2.705
 8779SOL    HW227237   3.789   6.688   2.559
 8780SOL     OW27238   1.048   3.513   4.650
 8780SOL    HW127239   1.003   3.524   4.739
 8780SOL    HW227240   1.145   3.533   4.659
 8781SOL     OW27241   4.139   1.581   1.898
 8781SOL    HW127242   4.091   1.603   1.983
 8781SOL    HW227243   4.178   1.664   1.859
 8782SOL     OW27244   6.385   2.539   0.121
 8782SOL    HW127245   6.320   2.488   0.178
 8782SOL    HW227246   6.408   2.486   0.040
 8783SOL     OW27247   3.803   3.994   6.123
 8783SOL    HW127248   3.754   3.990   6.210
 8783SOL    HW227249   3.754   4.053   6.059
 8784SOL     OW27250   4.402   1.122   5.654
 8784SOL    HW127251   4.302   1.128   5.654
 8784SOL    HW227252   4.436   1.146   5.563
 8785SOL     OW27253   6.870   6.059   6.484
 8785SOL    HW127254   6.867   5.959   6.481
 8785SOL    HW227255   6.824   6.096   6.402
 8786SOL     OW27256   5.699   2.433   3.050
 8786SOL    HW127257   5.742   2.343   3.038
 8786SOL    HW227258   5.600   2.422   3.058
 8787SOL     OW27259   3.502   5.081   2.727
 8787SOL    HW127260   3.450   4.997   2.708
 8787SOL    HW227261   3.442   5.148   2.770
 8788SOL     OW27262   6.966   6.844   3.537
 8788SOL    HW127263   6.922   6.825   3.624
 8788SOL    HW227264   6.926   6.927   3.497
 8789SOL     OW27265   1.973   3.079   0.007
 8789SOL    HW127266   2.062   3.034   0.004
 8789SOL    HW227267   1.907   3.029   6.977
 8790SOL     OW27268   4.861   3.159   5.282
 8790SOL    HW127269   4.940   3.122   5.330
 8790SOL    HW227270   4.836   3.098   5.206
 8791SOL     OW27271   3.988   6.565   5.283
 8791SOL    HW127272   4.046   6.492   5.319
 8791SOL    HW227273   4.022   6.594   5.194
 8792SOL     OW27274   5.554   4.710   0.915
 8792SOL    HW127275   5.610   4.788   0.887
 8792SOL    HW227276   5.592   4.670   0.998
 8793SOL     OW27277   6.620   0.451   5.775
 8793SOL    HW127278   6.683   0.475   5.849
 8793SOL    HW227279   6.672   0.436   5.691
 8794SOL     OW27280   0.111   2.873   3.640
 8794SOL    HW127281   0.118   2.883   3.540
 8794SOL    HW227282   0.027   2.916   3.672
 8795SOL     OW27283   1.384   0.795   6.816
 8795SOL    HW127284   1.396   0.746   6.902
 8795SOL    HW227285   1.305   0.855   6.822
 8796SOL     OW27286   5.743   5.443   4.429
 8796SOL    HW127287   5.707   5.350   4.429
 8796SOL    HW227288   5.710   5.491   4.348
 8797SOL     OW27289   5.654   6.022   5.073
 8797SOL    HW127290   5.707   6.043   4.991
 8797SOL    HW227291   5.562   6.061   5.064
 8798SOL     OW27292   1.749   5.495   7.004
 8798SOL    HW127293   1.678   5.499   0.047
 8798SOL    HW227294   1.839   5.492   0.020
 8799SOL     OW27295   1.566   6.442   2.112
 8799SOL    HW127296   1.592   6.348   2.092
 8799SOL    HW227297   1.646   6.502   2.102
 8800SOL     OW27298   6.615   6.232   4.401
 8800SOL    HW127299   6.667   6.187   4.473
 8800SOL    HW227300   6.643   6.327   4.394
 8801SOL     OW27301   4.954   3.197   6.053
 8801SOL    HW127302   4.978   3.144   5.971
 8801SOL    HW227303   4.869   3.162   6.091
 8802SOL     OW27304   1.083   6.838   0.221
 8802SOL    HW127305   1.148   6.823   0.296
 8802SOL    HW227306   1.099   6.928   0.181
 8803SOL     OW27307   4.806   4.634   5.268
 8803SOL    HW127308   4.769   4.695   5.198
 8803SOL    HW227309   4.891   4.593   5.234
 8804SOL     OW27310   2.458   6.407   1.561
 8804SOL    HW127311   2.385   6.468   1.527
 8804SOL    HW227312   2.443   6.389   1.658
 8805SOL     OW27313   4.497   5.043   1.129
 8805SOL    HW127314   4.409   5.031   1.173
 8805SOL    HW227315   4.555   4.964   1.147
 8806SOL     OW27316   1.585   1.401   1.983
 8806SOL    HW127317   1.661   1.405   1.919
 8806SOL    HW227318   1.552   1.494   2.001
 8807SOL     OW27319   5.807   2.203   1.714
 8807SOL    HW127320   5.827   2.254   1.798
 8807SOL    HW227321   5.863   2.121   1.711
 8808SOL     OW27322   1.795   1.354   0.765
 8808SOL    HW127323   1.861   1.305   0.708
 8808SOL    HW227324   1.778   1.302   0.849
 8809SOL     OW27325   0.533   3.145   3.037
 8809SOL    HW127326   0.625   3.169   3.069
 8809SOL    HW227327   0.537   3.057   2.989
 8810SOL     OW27328   6.205   2.338   3.936
 8810SOL    HW127329   6.194   2.369   3.841
 8810SOL    HW227330   6.137   2.384   3.993
 8811SOL     OW27331   3.990   5.440   2.956
 8811SOL    HW127332   4.077   5.393   2.971
 8811SOL    HW227333   3.915   5.374   2.961
 8812SOL     OW27334   5.626   0.650   0.311
 8812SOL    HW127335   5.661   0.566   0.353
 8812SOL    HW227336   5.530   0.662   0.336
 8813SOL     OW27337   1.187   2.809   1.644
 8813SOL    HW127338   1.173   2.848   1.553
 8813SOL    HW227339   1.282   2.780   1.654
 8814SOL     OW27340   6.148   6.484   5.173
 8814SOL    HW127341   6.110   6.553   5.234
 8814SOL    HW227342   6.112   6.497   5.081
 8815SOL     OW27343   4.612   0.177   1.136
 8815SOL    HW127344   4.568   0.222   1.214
 8815SOL    HW227345   4.569   0.209   1.051
 8816SOL     OW27346   0.456   0.906   2.761
 8816SOL    HW127347   0.422   0.846   2.834
 8816SOL    HW227348   0.450   0.858   2.673
 8817SOL     OW27349   0.940   2.300   4.208
 8817SOL    HW127350   0.966   2.357   4.287
 8817SOL    HW227351   0.884   2.354   4.145
 8818SOL     OW27352   1.299   5.696   6.453
 8818SOL    HW127353   1.280   5.606   6.491
 8818SOL    HW227354   1.237   5.763   6.493
 8819SOL     OW27355   5.263   6.353   6.106
 8819SOL    HW127356   5.316   6.437   6.104
 8819SOL    HW227357   5.325   6.274   6.106
 8820SOL     OW27358   3.475   6.458   5.959
 8820SOL    HW127359   3.480   6.473   6.057
 8820SOL    HW227360   3.563   6.420   5.927
 8821SOL     OW27361   1.668   5.427   5.386
 8821SOL    HW127362   1.723   5.510   5.395
 8821SOL    HW227363   1.626   5.424   5.296
 8822SOL     OW27364   6.725   0.599   4.891
 8822SOL    HW127365   6.636   0.630   4.923
 8822SOL    HW227366   6.791   0.604   4.966
 8823SOL     OW27367   4.152   2.153   3.315
 8823SOL    HW127368   4.211   2.073   3.302
 8823SOL    HW227369   4.205   2.228   3.354
 8824SOL     OW27370   1.950   0.325   4.089
 8824SOL    HW127371   1.866   0.288   4.129
 8824SOL    HW227372   1.938   0.338   3.991
 8825SOL     OW27373   1.346   6.673   0.740
 8825SOL    HW127374   1.395   6.591   0.768
 8825SOL    HW227375   1.257   6.648   0.702
 8826SOL     OW27376   0.319   4.087   0.179
 8826SOL    HW127377   0.345   3.992   0.195
 8826SOL    HW227378   0.390   4.133   0.126
 8827SOL     OW27379   5.131   5.974   4.180
 8827SOL    HW127380   5.041   5.991   4.139
 8827SOL    HW227381   5.142   5.876   4.194
 8828SOL     OW27382   5.304   2.407   5.677
 8828SOL    HW127383   5.209   2.377   5.685
 8828SOL    HW227384   5.355   2.340   5.624
 8829SOL     OW27385   6.314   0.754   2.832
 8829SOL    HW127386   6.374   0.757   2.752
 8829SOL    HW227387   6.320   0.663   2.874
 8830SOL     OW27388   2.591   0.771   2.511
 8830SOL    HW127389   2.623   0.866   2.519
 8830SOL    HW227390   2.522   0.754   2.583
 8831SOL     OW27391   1.167   2.469   2.724
 8831SOL    HW127392   1.164   2.559   2.766
 8831SOL    HW227393   1.228   2.471   2.645
 8832SOL     OW27394   5.975   0.271   4.689
 8832SOL    HW127395   6.067   0.242   4.716
 8832SOL    HW227396   5.937   0.205   4.624
 8833SOL     OW27397   4.708   3.167   1.025
 8833SOL    HW127398   4.804   3.191   1.009
 8833SOL    HW227399   4.661   3.244   1.066
 8834SOL     OW27400   6.364   4.735   5.815
 8834SOL    HW127401   6.444   4.777   5.860
 8834SOL    HW227402   6.387   4.642   5.787
 8835SOL     OW27403   6.778   1.038   5.434
 8835SOL    HW127404   6.853   1.104   5.434
 8835SOL    HW227405   6.698   1.078   5.479
 8836SOL     OW27406   4.379   1.844   1.030
 8836SOL    HW127407   4.406   1.894   0.948
 8836SOL    HW227408   4.292   1.796   1.013
 8837SOL     OW27409   5.657   4.836   0.059
 8837SOL    HW127410   5.593   4.869   7.017
 8837SOL    HW227411   5.609   4.816   0.144
 8838SOL     OW27412   1.608   3.378   2.233
 8838SOL    HW127413   1.635   3.293   2.278
 8838SOL    HW227414   1.588   3.448   2.301
 8839SOL     OW27415   4.660   4.546   1.275
 8839SOL    HW127416   4.664   4.521   1.178
 8839SOL    HW227417   4.566   4.538   1.307
 8840SOL     OW27418   0.264   0.303   1.396
 8840SOL    HW127419   0.360   0.311   1.369
 8840SOL    HW227420   0.239   0.206   1.404
 8841SOL     OW27421   4.714   2.230   0.243
 8841SOL    HW127422   4.624   2.248   0.204
 8841SOL    HW227423   4.710   2.239   0.342
 8842SOL     OW27424   3.307   2.923   3.776
 8842SOL    HW127425   3.326   2.832   3.813
 8842SOL    HW227426   3.389   2.957   3.729
 8843SOL     OW27427   2.710   6.405   4.957
 8843SOL    HW127428   2.670   6.313   4.959
 8843SOL    HW227429   2.806   6.398   4.929
 8844SOL     OW27430   4.123   2.793   5.329
 8844SOL    HW127431   4.140   2.733   5.250
 8844SOL    HW227432   4.024   2.808   5.338
 8845SOL     OW27433   0.562   3.969   2.536
 8845SOL    HW127434   0.540   4.040   2.468
 8845SOL    HW227435   0.486   3.959   2.600
 8846SOL     OW27436   6.249   5.506   4.934
 8846SOL    HW127437   6.276   5.580   4.872
 8846SOL    HW227438   6.167   5.533   4.984
 8847SOL     OW27439   0.817   2.439   3.980
 8847SOL    HW127440   0.912   2.460   3.957
 8847SOL    HW227441   0.757   2.501   3.931
 8848SOL     OW27442   5.692   2.700   1.131
 8848SOL    HW127443   5.699   2.764   1.055
 8848SOL    HW227444   5.760   2.724   1.201
 8849SOL     OW27445   3.587   5.004   4.474
 8849SOL    HW127446   3.605   5.048   4.562
 8849SOL    HW227447   3.603   4.906   4.482
 8850SOL     OW27448   3.999   2.198   0.870
 8850SOL    HW127449   3.995   2.110   0.916
 8850SOL    HW227450   4.036   2.267   0.933
 8851SOL     OW27451   6.863   5.728   3.071
 8851SOL    HW127452   6.959   5.747   3.052
 8851SOL    HW227453   6.856   5.654   3.139
 8852SOL     OW27454   5.794   3.898   4.715
 8852SOL    HW127455   5.743   3.875   4.632
 8852SOL    HW227456   5.813   3.996   4.716
 8853SOL     OW27457   4.757   1.939   4.608
 8853SOL    HW127458   4.718   1.929   4.517
 8853SOL    HW227459   4.846   1.986   4.601
 8854SOL     OW27460   3.048   0.395   6.461
 8854SOL    HW127461   2.993   0.448   6.525
 8854SOL    HW227462   3.076   0.454   6.385
 8855SOL     OW27463   6.296   4.981   6.263
 8855SOL    HW127464   6.385   4.940   6.283
 8855SOL    HW227465   6.229   4.949   6.330
 8856SOL     OW27466   5.257   1.904   5.404
 8856SOL    HW127467   5.352   1.909   5.433
 8856SOL    HW227468   5.200   1.874   5.480
 8857SOL     OW27469   1.815   2.973   4.436
 8857SOL    HW127470   1.866   3.058   4.451
 8857SOL    HW227471   1.723   2.995   4.405
 8858SOL     OW27472   0.487   3.306   5.512
 8858SOL    HW127473   0.461   3.381   5.573
 8858SOL    HW227474   0.561   3.253   5.554
 8859SOL     OW27475   2.577   6.204   5.173
 8859SOL    HW127476   2.635   6.241   5.246
 8859SOL    HW227477   2.633   6.147   5.112
 8860SOL     OW27478   1.989   1.307   1.884
 8860SOL    HW127479   2.077   1.350   1.901
 8860SOL    HW227480   1.970   1.239   1.955
 8861SOL     OW27481   1.921   1.720   0.163
 8861SOL    HW127482   1.900   1.624   0.146
 8861SOL    HW227483   2.013   1.741   0.129
 8862SOL     OW27484   6.722   2.685   4.364
 8862SOL    HW127485   6.750   2.589   4.367
 8862SOL    HW227486   6.751   2.730   4.448
 8863SOL     OW27487   1.872   5.620   5.012
 8863SOL    HW127488   1.779   5.630   5.047
 8863SOL    HW227489   1.899   5.705   4.967
 8864SOL     OW27490   1.947   4.552   5.582
 8864SOL    HW127491   1.917   4.624   5.645
 8864SOL    HW227492   2.046   4.541   5.588
 8865SOL     OW27493   2.754   2.008   5.663
 8865SOL    HW127494   2.665   2.046   5.686
 8865SOL    HW227495   2.805   2.074   5.608
 8866SOL     OW27496   4.898   0.113   5.810
 8866SOL    HW127497   4.961   0.036   5.800
 8866SOL    HW227498   4.929   0.189   5.753
 8867SOL     OW27499   5.649   0.568   3.372
 8867SOL    HW127500   5.711   0.539   3.298
 8867SOL    HW227501   5.691   0.645   3.421
 8868SOL     OW27502   5.640   2.741   0.179
 8868SOL    HW127503   5.659   2.836   0.153
 8868SOL    HW227504   5.587   2.739   0.263
 8869SOL     OW27505   3.015   1.806   2.925
 8869SOL    HW127506   3.030   1.770   3.017
 8869SOL    HW227507   3.099   1.797   2.872
 8870SOL     OW27508   4.038   6.886   1.790
 8870SOL    HW127509   4.095   6.821   1.841
 8870SOL    HW227510   4.097   6.951   1.742
 8871SOL     OW27511   1.462   2.304   4.311
 8871SOL    HW127512   1.423   2.351   4.391
 8871SOL    HW227513   1.560   2.292   4.325
 8872SOL     OW27514   1.111   1.836   2.445
 8872SOL    HW127515   1.142   1.832   2.539
 8872SOL    HW227516   1.156   1.911   2.397
 8873SOL     OW27517   6.939   5.271   5.069
 8873SOL    HW127518   0.004   5.298   5.098
 8873SOL    HW227519   6.922   5.175   5.093
 8874SOL     OW27520   1.424   1.219   6.131
 8874SOL    HW127521   1.436   1.307   6.086
 8874SOL    HW227522   1.386   1.153   6.066
 8875SOL     OW27523   1.387   1.400   4.225
 8875SOL    HW127524   1.475   1.363   4.199
 8875SOL    HW227525   1.397   1.496   4.251
 8876SOL     OW27526   2.476   1.195   4.841
 8876SOL    HW127527   2.501   1.267   4.906
 8876SOL    HW227528   2.475   1.106   4.887
 8877SOL     OW27529   3.187   6.529   4.568
 8877SOL    HW127530   3.134   6.445   4.576
 8877SOL    HW227531   3.157   6.581   4.488
 8878SOL     OW27532   5.792   4.660   5.495
 8878SOL    HW127533   5.698   4.655   5.463
 8878SOL    HW227534   5.815   4.574   5.541
 8879SOL     OW27535   5.801   5.743   4.828
 8879SOL    HW127536   5.884   5.696   4.859
 8879SOL    HW227537   5.731   5.736   4.898
 8880SOL     OW27538   1.084   6.629   5.004
 8880SOL    HW127539   1.050   6.566   4.934
 8880SOL    HW227540   1.070   6.723   4.973
 8881SOL     OW27541   6.680   2.145   2.583
 8881SOL    HW127542   6.612   2.152   2.509
 8881SOL    HW227543   6.766   2.112   2.545
 8882SOL     OW27544   5.376   2.141   0.276
 8882SOL    HW127545   5.414   2.051   0.296
 8882SOL    HW227546   5.451   2.206   0.262
 8883SOL     OW27547   5.869   1.648   5.382
 8883SOL    HW127548   5.783   1.596   5.384
 8883SOL    HW227549   5.874   1.699   5.296
 8884SOL     OW27550   0.156   1.419   6.337
 8884SOL    HW127551   0.101   1.463   6.408
 8884SOL    HW227552   0.188   1.330   6.369
 8885SOL     OW27553   6.060   3.968   0.929
 8885SOL    HW127554   5.990   3.915   0.882
 8885SOL    HW227555   6.148   3.920   0.922
 8886SOL     OW27556   3.300   5.928   5.888
 8886SOL    HW127557   3.275   5.839   5.850
 8886SOL    HW227558   3.347   5.982   5.819
 8887SOL     OW27559   1.233   1.159   1.121
 8887SOL    HW127560   1.271   1.235   1.174
 8887SOL    HW227561   1.185   1.096   1.183
 8888SOL     OW27562   2.696   2.382   3.035
 8888SOL    HW127563   2.659   2.289   3.031
 8888SOL    HW227564   2.677   2.421   3.126
 8889SOL     OW27565   3.422   1.427   4.706
 8889SOL    HW127566   3.456   1.358   4.771
 8889SOL    HW227567   3.489   1.500   4.698
 8890SOL     OW27568   6.777   4.912   4.017
 8890SOL    HW127569   6.699   4.973   4.029
 8890SOL    HW227570   6.750   4.834   3.962
 8891SOL     OW27571   3.608   1.636   6.219
 8891SOL    HW127572   3.649   1.711   6.271
 8891SOL    HW227573   3.649   1.550   6.247
 8892SOL     OW27574   1.144   6.785   3.207
 8892SOL    HW127575   1.148   6.716   3.135
 8892SOL    HW227576   1.174   6.873   3.170
 8893SOL     OW27577   0.368   1.031   0.411
 8893SOL    HW127578   0.288   0.975   0.388
 8893SOL    HW227579   0.450   0.987   0.376
 8894SOL     OW27580   4.658   1.972   5.832
 8894SOL    HW127581   4.599   2.003   5.907
 8894SOL    HW227582   4.601   1.943   5.755
 8895SOL     OW27583   1.195   0.923   3.433
 8895SOL    HW127584   1.134   0.855   3.471
 8895SOL    HW227585   1.190   1.007   3.487
 8896SOL     OW27586   1.531   4.303   5.143
 8896SOL    HW127587   1.525   4.341   5.235
 8896SOL    HW227588   1.562   4.208   5.148
 8897SOL     OW27589   1.142   2.250   1.934
 8897SOL    HW127590   1.227   2.203   1.909
 8897SOL    HW227591   1.163   2.332   1.987
 8898SOL     OW27592   6.595   2.716   5.503
 8898SOL    HW127593   6.533   2.652   5.457
 8898SOL    HW227594   6.546   2.800   5.525
 8899SOL     OW27595   3.455   5.783   2.411
 8899SOL    HW127596   3.450   5.801   2.312
 8899SOL    HW227597   3.542   5.739   2.433
 8900SOL     OW27598   6.578   1.769   3.358
 8900SOL    HW127599   6.592   1.847   3.419
 8900SOL    HW227600   6.537   1.694   3.410
 8901SOL     OW27601   2.210   0.147   2.022
 8901SOL    HW127602   2.213   0.196   2.110
 8901SOL    HW227603   2.222   0.213   1.947
 8902SOL     OW27604   3.722   6.721   5.927
 8902SOL    HW127605   3.761   6.669   6.002
 8902SOL    HW227606   3.733   6.671   5.841
 8903SOL     OW27607   6.823   1.078   2.809
 8903SOL    HW127608   6.820   0.994   2.863
 8903SOL    HW227609   6.773   1.150   2.857
 8904SOL     OW27610   1.422   3.601   4.071
 8904SOL    HW127611   1.489   3.559   4.131
 8904SOL    HW227612   1.433   3.564   3.978
 8905SOL     OW27613   1.875   4.309   5.004
 8905SOL    HW127614   1.965   4.333   5.042
 8905SOL    HW227615   1.807   4.376   5.033
 8906SOL     OW27616   2.370   5.350   4.586
 8906SOL    HW127617   2.380   5.398   4.673
 8906SOL    HW227618   2.331   5.412   4.518
 8907SOL     OW27619   3.563   2.602   6.338
 8907SOL    HW127620   3.590   2.619   6.433
 8907SOL    HW227621   3.535   2.507   6.327
 8908SOL     OW27622   0.466   3.369   2.893
 8908SOL    HW127623   0.535   3.439   2.910
 8908SOL    HW227624   0.504   3.279   2.912
 8909SOL     OW27625   3.455   6.697   5.582
 8909SOL    HW127626   3.511   6.774   5.610
 8909SOL    HW227627   3.511   6.615   5.575
 8910SOL     OW27628   4.387   2.614   6.996
 8910SOL    HW127629   4.395   2.649   6.903
 8910SOL    HW227630   4.382   2.691   0.033
 8911SOL     OW27631   4.997   2.664   4.251
 8911SOL    HW127632   4.932   2.668   4.175
 8911SOL    HW227633   4.950   2.637   4.335
 8912SOL     OW27634   4.094   1.039   0.254
 8912SOL    HW127635   4.126   1.015   0.162
 8912SOL    HW227636   4.011   0.987   0.275
 8913SOL     OW27637   4.084   4.289   0.802
 8913SOL    HW127638   4.139   4.221   0.752
 8913SOL    HW227639   4.069   4.369   0.744
 8914SOL     OW27640   4.731   2.868   3.890
 8914SOL    HW127641   4.698   2.953   3.849
 8914SOL    HW227642   4.821   2.884   3.932
 8915SOL     OW27643   0.837   5.612   1.968
 8915SOL    HW127644   0.757   5.552   1.965
 8915SOL    HW227645   0.808   5.704   1.995
 8916SOL     OW27646   5.675   3.653   1.930
 8916SOL    HW127647   5.715   3.565   1.902
 8916SOL    HW227648   5.625   3.641   2.015
 8917SOL     OW27649   5.670   4.243   5.809
 8917SOL    HW127650   5.671   4.207   5.903
 8917SOL    HW227651   5.584   4.291   5.793
 8918SOL     OW27652   4.785   4.247   5.854
 8918SOL    HW127653   4.696   4.260   5.898
 8918SOL    HW227654   4.857   4.266   5.920
 8919SOL     OW27655   1.949   3.365   1.366
 8919SOL    HW127656   1.925   3.285   1.311
 8919SOL    HW227657   1.877   3.433   1.359
 8920SOL     OW27658   6.245   5.707   6.153
 8920SOL    HW127659   6.207   5.623   6.191
 8920SOL    HW227660   6.344   5.697   6.141
 8921SOL     OW27661   0.994   5.793   3.554
 8921SOL    HW127662   1.080   5.744   3.541
 8921SOL    HW227663   0.997   5.880   3.503
 8922SOL     OW27664   0.792   2.767   6.753
 8922SOL    HW127665   0.695   2.752   6.734
 8922SOL    HW227666   0.801   2.837   6.825
 8923SOL     OW27667   2.022   4.908   4.269
 8923SOL    HW127668   1.961   4.848   4.321
 8923SOL    HW227669   1.973   4.948   4.192
 8924SOL     OW27670   2.350   6.820   4.467
 8924SOL    HW127671   2.282   6.755   4.433
 8924SOL    HW227672   2.429   6.770   4.503
 8925SOL     OW27673   4.340   5.379   0.689
 8925SOL    HW127674   4.353   5.383   0.788
 8925SOL    HW227675   4.270   5.446   0.663
 8926SOL     OW27676   5.799   0.157   6.684
 8926SOL    HW127677   5.737   0.193   6.754
 8926SOL    HW227678   5.890   0.144   6.723
 8927SOL     OW27679   2.707   2.154   4.894
 8927SOL    HW127680   2.616   2.115   4.880
 8927SOL    HW227681   2.730   2.215   4.819
 8928SOL     OW27682   1.210   0.410   5.321
 8928SOL    HW127683   1.302   0.409   5.282
 8928SOL    HW227684   1.154   0.339   5.278
 8929SOL     OW27685   4.886   4.443   3.275
 8929SOL    HW127686   4.796   4.399   3.269
 8929SOL    HW227687   4.938   4.422   3.192
 8930SOL     OW27688   0.396   5.417   5.449
 8930SOL    HW127689   0.359   5.418   5.356
 8930SOL    HW227690   0.420   5.324   5.475
 8931SOL     OW27691   4.706   0.804   2.146
 8931SOL    HW127692   4.678   0.803   2.050
 8931SOL    HW227693   4.632   0.843   2.201
 8932SOL     OW27694   4.612   0.862   0.550
 8932SOL    HW127695   4.559   0.783   0.580
 8932SOL    HW227696   4.571   0.900   0.467
 8933SOL     OW27697   1.899   7.022   5.537
 8933SOL    HW127698   1.990   6.999   5.502
 8933SOL    HW227699   1.905   0.076   5.595
 8934SOL     OW27700   3.314   6.642   4.102
 8934SOL    HW127701   3.391   6.690   4.144
 8934SOL    HW227702   3.349   6.569   4.043
 8935SOL     OW27703   5.526   2.179   2.607
 8935SOL    HW127704   5.506   2.272   2.576
 8935SOL    HW227705   5.534   2.177   2.707
 8936SOL     OW27706   1.186   3.828   1.831
 8936SOL    HW127707   1.248   3.809   1.907
 8936SOL    HW227708   1.145   3.742   1.799
 8937SOL     OW27709   3.097   6.530   5.104
 8937SOL    HW127710   2.999   6.531   5.126
 8937SOL    HW227711   3.140   6.610   5.145
 8938SOL     OW27712   5.364   6.895   1.803
 8938SOL    HW127713   5.405   6.986   1.812
 8938SOL    HW227714   5.266   6.904   1.786
 8939SOL     OW27715   6.472   3.196   4.673
 8939SOL    HW127716   6.381   3.234   4.657
 8939SOL    HW227717   6.519   3.181   4.586
 8940SOL     OW27718   6.076   3.609   2.593
 8940SOL    HW127719   6.030   3.632   2.508
 8940SOL    HW227720   6.008   3.599   2.666
 8941SOL     OW27721   5.762   2.314   3.444
 8941SOL    HW127722   5.723   2.223   3.431
 8941SOL    HW227723   5.690   2.382   3.439
 8942SOL     OW27724   4.749   5.928   4.470
 8942SOL    HW127725   4.830   5.965   4.423
 8942SOL    HW227726   4.774   5.844   4.518
 8943SOL     OW27727   4.012   3.806   0.362
 8943SOL    HW127728   4.017   3.750   0.444
 8943SOL    HW227729   3.937   3.871   0.371
 8944SOL     OW27730   4.651   5.679   5.436
 8944SOL    HW127731   4.632   5.766   5.483
 8944SOL    HW227732   4.597   5.674   5.352
 8945SOL     OW27733   6.805   4.869   2.375
 8945SOL    HW127734   6.869   4.921   2.318
 8945SOL    HW227735   6.737   4.825   2.317
 8946SOL     OW27736   3.610   1.922   3.831
 8946SOL    HW127737   3.665   1.842   3.807
 8946SOL    HW227738   3.599   1.981   3.751
 8947SOL     OW27739   2.731   5.511   0.629
 8947SOL    HW127740   2.775   5.601   0.622
 8947SOL    HW227741   2.711   5.491   0.725
 8948SOL     OW27742   5.552   0.449   2.535
 8948SOL    HW127743   5.591   0.540   2.549
 8948SOL    HW227744   5.541   0.432   2.437
 8949SOL     OW27745   4.126   6.380   0.730
 8949SOL    HW127746   4.080   6.346   0.649
 8949SOL    HW227747   4.149   6.303   0.791
 8950SOL     OW27748   3.634   3.704   3.621
 8950SOL    HW127749   3.616   3.801   3.604
 8950SOL    HW227750   3.610   3.651   3.540
 8951SOL     OW27751   0.892   0.846   4.027
 8951SOL    HW127752   0.913   0.867   3.931
 8951SOL    HW227753   0.976   0.844   4.080
 8952SOL     OW27754   1.431   3.561   4.972
 8952SOL    HW127755   1.511   3.619   4.955
 8952SOL    HW227756   1.460   3.476   5.016
 8953SOL     OW27757   0.744   5.770   0.989
 8953SOL    HW127758   0.808   5.704   1.029
 8953SOL    HW227759   0.756   5.858   1.034
 8954SOL     OW27760   2.625   4.594   5.463
 8954SOL    HW127761   2.631   4.689   5.494
 8954SOL    HW227762   2.546   4.584   5.403
 8955SOL     OW27763   5.905   3.305   5.646
 8955SOL    HW127764   5.949   3.236   5.704
 8955SOL    HW227765   5.933   3.290   5.551
 8956SOL     OW27766   0.851   6.390   1.453
 8956SOL    HW127767   0.773   6.352   1.402
 8956SOL    HW227768   0.898   6.458   1.397
 8957SOL     OW27769   0.543   0.080   3.514
 8957SOL    HW127770   0.525   0.079   3.416
 8957SOL    HW227771   0.462   0.047   3.563
 8958SOL     OW27772   6.799   3.203   4.944
 8958SOL    HW127773   6.795   3.260   5.026
 8958SOL    HW227774   6.856   3.248   4.875
 8959SOL     OW27775   4.929   1.316   3.771
 8959SOL    HW127776   4.890   1.351   3.856
 8959SOL    HW227777   4.994   1.243   3.791
 8960SOL     OW27778   4.443   6.102   2.228
 8960SOL    HW127779   4.440   6.025   2.292
 8960SOL    HW227780   4.350   6.132   2.207
 8961SOL     OW27781   2.398   1.825   5.554
 8961SOL    HW127782   2.354   1.784   5.635
 8961SOL    HW227783   2.435   1.915   5.577
 8962SOL     OW27784   6.863   6.028   1.331
 8962SOL    HW127785   6.850   5.990   1.423
 8962SOL    HW227786   6.789   5.998   1.272
 8963SOL     OW27787   2.422   4.945   6.059
 8963SOL    HW127788   2.450   5.019   6.120
 8963SOL    HW227789   2.502   4.895   6.027
 8964SOL     OW27790   1.190   3.044   4.153
 8964SOL    HW127791   1.241   2.971   4.199
 8964SOL    HW227792   1.159   3.110   4.221
 8965SOL     OW27793   2.978   5.904   6.657
 8965SOL    HW127794   3.063   5.864   6.691
 8965SOL    HW227795   2.985   5.918   6.558
 8966SOL     OW27796   5.032   0.185   5.546
 8966SOL    HW127797   4.953   0.134   5.513
 8966SOL    HW227798   5.055   0.257   5.480
 8967SOL     OW27799   2.421   0.418   3.009
 8967SOL    HW127800   2.353   0.492   3.008
 8967SOL    HW227801   2.513   0.458   3.006
 8968SOL     OW27802   2.883   5.815   2.022
 8968SOL    HW127803   2.949   5.743   2.005
 8968SOL    HW227804   2.806   5.778   2.075
 8969SOL     OW27805   0.251   1.195   2.229
 8969SOL    HW127806   0.233   1.232   2.138
 8969SOL    HW227807   0.173   1.141   2.260
 8970SOL     OW27808   2.319   1.872   4.258
 8970SOL    HW127809   2.404   1.922   4.273
 8970SOL    HW227810   2.241   1.933   4.272
 8971SOL     OW27811   3.466   5.120   1.445
 8971SOL    HW127812   3.560   5.153   1.448
 8971SOL    HW227813   3.422   5.137   1.533
 8972SOL     OW27814   6.033   3.838   5.968
 8972SOL    HW127815   6.089   3.803   6.043
 8972SOL    HW227816   6.088   3.845   5.885
 8973SOL     OW27817   2.433   1.679   3.393
 8973SOL    HW127818   2.518   1.709   3.349
 8973SOL    HW227819   2.422   1.581   3.380
 8974SOL     OW27820   1.451   4.936   5.099
 8974SOL    HW127821   1.498   4.929   5.011
 8974SOL    HW227822   1.461   4.849   5.149
 8975SOL     OW27823   0.613   3.966   6.374
 8975SOL    HW127824   0.644   3.907   6.448
 8975SOL    HW227825   0.579   3.909   6.299
 8976SOL     OW27826   5.777   0.326   1.358
 8976SOL    HW127827   5.702   0.279   1.405
 8976SOL    HW227828   5.857   0.328   1.418
 8977SOL     OW27829   0.632   5.116   5.820
 8977SOL    HW127830   0.701   5.174   5.777
 8977SOL    HW227831   0.575   5.073   5.750
 8978SOL     OW27832   6.732   5.068   5.245
 8978SOL    HW127833   6.744   4.984   5.298
 8978SOL    HW227834   6.635   5.093   5.245
 8979SOL     OW27835   1.818   4.150   3.647
 8979SOL    HW127836   1.873   4.122   3.568
 8979SOL    HW227837   1.878   4.164   3.726
 8980SOL     OW27838   5.373   0.629   0.412
 8980SOL    HW127839   5.376   0.529   0.419
 8980SOL    HW227840   5.386   0.669   0.502
 8981SOL     OW27841   4.200   2.136   6.741
 8981SOL    HW127842   4.237   2.226   6.763
 8981SOL    HW227843   4.189   2.083   6.824
 8982SOL     OW27844   0.591   0.564   2.800
 8982SOL    HW127845   0.603   0.465   2.793
 8982SOL    HW227846   0.505   0.583   2.848
 8983SOL     OW27847   1.602   6.398   2.553
 8983SOL    HW127848   1.598   6.299   2.569
 8983SOL    HW227849   1.641   6.443   2.633
 8984SOL     OW27850   6.011   0.570   3.728
 8984SOL    HW127851   5.973   0.574   3.821
 8984SOL    HW227852   6.027   0.662   3.694
 8985SOL     OW27853   4.803   0.485   1.545
 8985SOL    HW127854   4.885   0.469   1.601
 8985SOL    HW227855   4.830   0.531   1.460
 8986SOL     OW27856   1.094   6.826   6.460
 8986SOL    HW127857   1.077   6.823   6.559
 8986SOL    HW227858   1.182   6.872   6.444
 8987SOL     OW27859   2.684   6.575   2.267
 8987SOL    HW127860   2.585   6.565   2.266
 8987SOL    HW227861   2.708   6.668   2.296
 8988SOL     OW27862   2.102   6.816   0.699
 8988SOL    HW127863   2.139   6.895   0.650
 8988SOL    HW227864   2.176   6.752   0.720
 8989SOL     OW27865   6.559   1.341   2.357
 8989SOL    HW127866   6.564   1.339   2.457
 8989SOL    HW227867   6.651   1.351   2.319
 8990SOL     OW27868   3.869   1.273   2.995
 8990SOL    HW127869   3.960   1.232   2.983
 8990SOL    HW227870   3.814   1.214   3.053
 8991SOL     OW27871   1.555   2.118   0.798
 8991SOL    HW127872   1.477   2.056   0.800
 8991SOL    HW227873   1.524   2.209   0.770
 8992SOL     OW27874   1.062   5.520   5.138
 8992SOL    HW127875   1.020   5.580   5.070
 8992SOL    HW227876   1.131   5.462   5.094
 8993SOL     OW27877   5.774   4.138   3.949
 8993SOL    HW127878   5.845   4.179   3.893
 8993SOL    HW227879   5.736   4.058   3.902
 8994SOL     OW27880   1.622   6.181   2.025
 8994SOL    HW127881   1.565   6.136   1.956
 8994SOL    HW227882   1.683   6.114   2.067
 8995SOL     OW27883   1.980   4.219   3.853
 8995SOL    HW127884   1.958   4.159   3.930
 8995SOL    HW227885   2.045   4.289   3.882
 8996SOL     OW27886   2.673   3.260   1.034
 8996SOL    HW127887   2.720   3.347   1.022
 8996SOL    HW227888   2.610   3.266   1.112
 8997SOL     OW27889   4.456   1.656   4.513
 8997SOL    HW127890   4.479   1.708   4.595
 8997SOL    HW227891   4.361   1.624   4.519
 8998SOL     OW27892   0.881   1.416   6.953
 8998SOL    HW127893   0.962   1.468   6.978
 8998SOL    HW227894   0.822   1.405   0.007
 8999SOL     OW27895   5.652   2.829   5.626
 8999SOL    HW127896   5.561   2.870   5.636
 8999SOL    HW227897   5.716   2.899   5.594
 9000SOL     OW27898   5.016   4.977   1.293
 9000SOL    HW127899   5.006   4.999   1.196
 9000SOL    HW227900   4.952   5.033   1.347
 9001SOL     OW27901   0.528   3.222   4.285
 9001SOL    HW127902   0.582   3.291   4.237
 9001SOL    HW227903   0.576   3.193   4.367
 9002SOL     OW27904   4.830   2.853   5.516
 9002SOL    HW127905   4.809   2.819   5.607
 9002SOL    HW227906   4.792   2.945   5.505
 9003SOL     OW27907   0.295   3.544   6.813
 9003SOL    HW127908   0.240   3.617   6.773
 9003SOL    HW227909   0.349   3.499   6.741
 9004SOL     OW27910   4.564   5.629   0.327
 9004SOL    HW127911   4.601   5.586   0.410
 9004SOL    HW227912   4.622   5.605   0.249
 9005SOL     OW27913   4.879   3.795   3.770
 9005SOL    HW127914   4.851   3.700   3.776
 9005SOL    HW227915   4.979   3.800   3.767
 9006SOL     OW27916   3.115   6.508   2.053
 9006SOL    HW127917   3.161   6.462   2.129
 9006SOL    HW227918   3.049   6.574   2.089
 9007SOL     OW27919   2.155   6.223   5.905
 9007SOL    HW127920   2.114   6.132   5.920
 9007SOL    HW227921   2.085   6.285   5.869
 9008SOL     OW27922   7.018   4.528   2.126
 9008SOL    HW127923   6.990   4.441   2.166
 9008SOL    HW227924   0.055   4.575   2.188
 9009SOL     OW27925   4.024   6.477   0.089
 9009SOL    HW127926   3.935   6.433   0.079
 9009SOL    HW227927   4.033   6.516   0.180
 9010SOL     OW27928   6.907   5.861   4.600
 9010SOL    HW127929   6.975   5.853   4.527
 9010SOL    HW227930   6.904   5.776   4.652
 9011SOL     OW27931   4.469   2.391   1.994
 9011SOL    HW127932   4.391   2.447   1.965
 9011SOL    HW227933   4.550   2.418   1.943
 9012SOL     OW27934   4.386   5.100   2.987
 9012SOL    HW127935   4.356   5.022   3.043
 9012SOL    HW227936   4.364   5.082   2.891
 9013SOL     OW27937   3.673   6.019   2.061
 9013SOL    HW127938   3.598   6.083   2.079
 9013SOL    HW227939   3.703   6.029   1.966
 9014SOL     OW27940   2.490   1.251   1.922
 9014SOL    HW127941   2.406   1.218   1.963
 9014SOL    HW227942   2.567   1.230   1.983
 9015SOL     OW27943   6.218   2.288   4.657
 9015SOL    HW127944   6.136   2.276   4.601
 9015SOL    HW227945   6.264   2.373   4.630
 9016SOL     OW27946   6.936   5.327   6.493
 9016SOL    HW127947   6.884   5.412   6.491
 9016SOL    HW227948   6.938   5.291   6.586
 9017SOL     OW27949   5.990   3.162   2.518
 9017SOL    HW127950   6.012   3.252   2.554
 9017SOL    HW227951   6.056   3.136   2.448
 9018SOL     OW27952   5.021   1.111   6.910
 9018SOL    HW127953   4.949   1.089   6.844
 9018SOL    HW227954   5.090   1.039   6.908
 9019SOL     OW27955   1.954   5.400   0.281
 9019SOL    HW127956   1.919   5.386   0.374
 9019SOL    HW227957   1.999   5.489   0.276
 9020SOL     OW27958   0.769   5.117   4.472
 9020SOL    HW127959   0.868   5.124   4.487
 9020SOL    HW227960   0.723   5.194   4.515
 9021SOL     OW27961   6.244   5.370   5.483
 9021SOL    HW127962   6.153   5.340   5.454
 9021SOL    HW227963   6.263   5.460   5.445
 9022SOL     OW27964   1.332   7.005   6.156
 9022SOL    HW127965   1.241   6.975   6.127
 9022SOL    HW227966   1.401   6.973   6.092
 9023SOL     OW27967   3.659   3.754   4.260
 9023SOL    HW127968   3.583   3.788   4.315
 9023SOL    HW227969   3.694   3.828   4.203
 9024SOL     OW27970   0.941   0.209   0.237
 9024SOL    HW127971   0.997   0.215   0.320
 9024SOL    HW227972   0.947   0.295   0.186
 9025SOL     OW27973   0.461   2.918   0.280
 9025SOL    HW127974   0.388   2.954   0.337
 9025SOL    HW227975   0.535   2.985   0.274
 9026SOL     OW27976   2.927   3.875   6.131
 9026SOL    HW127977   2.987   3.946   6.094
 9026SOL    HW227978   2.976   3.821   6.200
 9027SOL     OW27979   1.800   3.278   2.437
 9027SOL    HW127980   1.842   3.330   2.512
 9027SOL    HW227981   1.857   3.287   2.355
 9028SOL     OW27982   1.738   4.541   4.767
 9028SOL    HW127983   1.794   4.622   4.749
 9028SOL    HW227984   1.725   4.532   4.866
 9029SOL     OW27985   5.449   5.434   2.824
 9029SOL    HW127986   5.530   5.421   2.881
 9029SOL    HW227987   5.475   5.438   2.728
 9030SOL     OW27988   5.012   2.411   2.845
 9030SOL    HW127989   4.993   2.486   2.909
 9030SOL    HW227990   4.957   2.424   2.763
 9031SOL     OW27991   2.484   0.814   2.150
 9031SOL    HW127992   2.483   0.898   2.205
 9031SOL    HW227993   2.576   0.800   2.113
 9032SOL     OW27994   0.364   3.921   2.691
 9032SOL    HW127995   0.295   3.960   2.752
 9032SOL    HW227996   0.329   3.838   2.649
 9033SOL     OW27997   1.291   3.838   2.389
 9033SOL    HW127998   1.274   3.741   2.371
 9033SOL    HW227999   1.356   3.846   2.465
 9034SOL     OW28000   1.365   6.702   0.137
 9034SOL    HW128001   1.436   6.635   0.155
 9034SOL    HW228002   1.289   6.689   0.200
 9035SOL     OW28003   6.380   1.100   4.213
 9035SOL    HW128004   6.398   1.018   4.159
 9035SOL    HW228005   6.336   1.074   4.299
 9036SOL     OW28006   0.253   1.437   4.779
 9036SOL    HW128007   0.340   1.479   4.754
 9036SOL    HW228008   0.202   1.414   4.696
 9037SOL     OW28009   2.526   4.548   5.759
 9037SOL    HW128010   2.534   4.528   5.661
 9037SOL    HW228011   2.517   4.462   5.810
 9038SOL     OW28012   4.063   5.537   5.645
 9038SOL    HW128013   4.091   5.452   5.689
 9038SOL    HW228014   3.995   5.518   5.574
 9039SOL     OW28015   2.707   4.912   0.191
 9039SOL    HW128016   2.655   4.884   0.111
 9039SOL    HW228017   2.668   4.996   0.228
 9040SOL     OW28018   3.079   1.109   2.427
 9040SOL    HW128019   3.120   1.127   2.337
 9040SOL    HW228020   3.148   1.071   2.488
 9041SOL     OW28021   2.007   2.421   5.578
 9041SOL    HW128022   2.075   2.460   5.517
 9041SOL    HW228023   1.915   2.442   5.543
 9042SOL     OW28024   1.903   5.315   2.202
 9042SOL    HW128025   1.873   5.295   2.109
 9042SOL    HW228026   1.996   5.352   2.199
 9043SOL     OW28027   0.434   1.649   0.333
 9043SOL    HW128028   0.339   1.627   0.313
 9043SOL    HW228029   0.461   1.732   0.284
 9044SOL     OW28030   0.626   4.314   0.484
 9044SOL    HW128031   0.575   4.235   0.515
 9044SOL    HW228032   0.563   4.384   0.450
 9045SOL     OW28033   2.210   4.717   4.749
 9045SOL    HW128034   2.251   4.639   4.701
 9045SOL    HW228035   2.201   4.794   4.686
 9046SOL     OW28036   3.394   4.084   5.841
 9046SOL    HW128037   3.315   4.136   5.809
 9046SOL    HW228038   3.376   4.052   5.935
 9047SOL     OW28039   0.923   4.057   4.216
 9047SOL    HW128040   0.966   4.083   4.302
 9047SOL    HW228041   0.988   4.006   4.159
 9048SOL     OW28042   1.553   2.702   5.439
 9048SOL    HW128043   1.477   2.759   5.469
 9048SOL    HW228044   1.535   2.668   5.346
 9049SOL     OW28045   4.776   6.416   5.809
 9049SOL    HW128046   4.728   6.346   5.756
 9049SOL    HW228047   4.874   6.411   5.788
 9050SOL     OW28048   0.037   3.997   6.370
 9050SOL    HW128049   0.083   3.967   6.287
 9050SOL    HW228050   7.018   3.920   6.413
 9051SOL     OW28051   6.891   6.450   6.637
 9051SOL    HW128052   6.889   6.454   6.537
 9051SOL    HW228053   6.901   6.354   6.666
 9052SOL     OW28054   2.568   4.970   4.682
 9052SOL    HW128055   2.661   4.986   4.651
 9052SOL    HW228056   2.566   4.891   4.743
 9053SOL     OW28057   1.458   0.806   2.721
 9053SOL    HW128058   1.393   0.731   2.733
 9053SOL    HW228059   1.549   0.775   2.748
 9054SOL     OW28060   1.799   0.271   1.719
 9054SOL    HW128061   1.763   0.344   1.777
 9054SOL    HW228062   1.736   0.254   1.644
 9055SOL     OW28063   1.606   2.251   5.461
 9055SOL    HW128064   1.668   2.189   5.413
 9055SOL    HW228065   1.543   2.292   5.396
 9056SOL     OW28066   5.425   2.116   1.698
 9056SOL    HW128067   5.438   2.207   1.658
 9056SOL    HW228068   5.378   2.125   1.785
 9057SOL     OW28069   3.516   6.812   6.263
 9057SOL    HW128070   3.563   6.727   6.286
 9057SOL    HW228071   3.567   6.890   6.298
 9058SOL     OW28072   2.198   2.871   3.782
 9058SOL    HW128073   2.187   2.777   3.814
 9058SOL    HW228074   2.181   2.934   3.857
 9059SOL     OW28075   0.028   0.800   2.344
 9059SOL    HW128076   7.007   0.848   2.270
 9059SOL    HW228077   0.016   0.851   2.429
 9060SOL     OW28078   0.302   4.985   0.052
 9060SOL    HW128079   0.275   4.959   6.986
 9060SOL    HW228080   0.385   4.935   0.078
 9061SOL     OW28081   4.487   4.466   2.752
 9061SOL    HW128082   4.434   4.530   2.697
 9061SOL    HW228083   4.450   4.463   2.845
 9062SOL     OW28084   0.299   5.889   2.864
 9062SOL    HW128085   0.264   5.866   2.773
 9062SOL    HW228086   0.223   5.893   2.928
 9063SOL     OW28087   5.820   6.632   0.834
 9063SOL    HW128088   5.861   6.689   0.763
 9063SOL    HW228089   5.774   6.692   0.901
 9064SOL     OW28090   1.432   5.686   3.155
 9064SOL    HW128091   1.366   5.761   3.146
 9064SOL    HW228092   1.510   5.703   3.095
 9065SOL     OW28093   3.100   4.422   6.928
 9065SOL    HW128094   3.155   4.433   6.845
 9065SOL    HW228095   3.052   4.507   6.948
 9066SOL     OW28096   5.091   4.771   3.953
 9066SOL    HW128097   5.184   4.746   3.980
 9066SOL    HW228098   5.094   4.822   3.866
 9067SOL     OW28099   2.080   6.847   3.893
 9067SOL    HW128100   2.080   6.748   3.879
 9067SOL    HW228101   2.126   6.869   3.979
 9068SOL     OW28102   5.021   0.444   5.764
 9068SOL    HW128103   5.038   0.543   5.762
 9068SOL    HW228104   4.923   0.427   5.756
 9069SOL     OW28105   4.554   2.044   1.794
 9069SOL    HW128106   4.485   2.028   1.864
 9069SOL    HW228107   4.633   2.092   1.834
 9070SOL     OW28108   1.500   1.039   6.559
 9070SOL    HW128109   1.452   1.033   6.646
 9070SOL    HW228110   1.460   0.974   6.494
 9071SOL     OW28111   5.143   2.932   6.735
 9071SOL    HW128112   5.148   2.843   6.780
 9071SOL    HW228113   5.199   2.932   6.653
 9072SOL     OW28114   6.691   1.009   2.005
 9072SOL    HW128115   6.595   0.982   2.010
 9072SOL    HW228116   6.703   1.078   1.933
 9073SOL     OW28117   4.786   2.721   5.766
 9073SOL    HW128118   4.765   2.777   5.846
 9073SOL    HW228119   4.851   2.649   5.792
 9074SOL     OW28120   2.042   1.069   3.394
 9074SOL    HW128121   2.057   0.985   3.447
 9074SOL    HW228122   1.964   1.118   3.431
 9075SOL     OW28123   5.196   5.454   0.840
 9075SOL    HW128124   5.137   5.533   0.823
 9075SOL    HW228125   5.146   5.370   0.820
 9076SOL     OW28126   1.272   6.261   2.277
 9076SOL    HW128127   1.310   6.352   2.258
 9076SOL    HW228128   1.336   6.210   2.335
 9077SOL     OW28129   6.769   1.382   6.387
 9077SOL    HW128130   6.811   1.331   6.312
 9077SOL    HW228131   6.673   1.400   6.365
 9078SOL     OW28132   5.142   6.833   6.472
 9078SOL    HW128133   5.061   6.812   6.527
 9078SOL    HW228134   5.177   6.749   6.431
 9079SOL     OW28135   1.801   1.656   6.452
 9079SOL    HW128136   1.890   1.623   6.423
 9079SOL    HW228137   1.730   1.596   6.415
 9080SOL     OW28138   6.404   4.484   0.937
 9080SOL    HW128139   6.458   4.500   0.854
 9080SOL    HW228140   6.355   4.398   0.928
 9081SOL     OW28141   4.842   1.278   0.080
 9081SOL    HW128142   4.860   1.364   0.032
 9081SOL    HW228143   4.803   1.212   0.016
 9082SOL     OW28144   3.212   4.693   6.678
 9082SOL    HW128145   3.187   4.723   6.770
 9082SOL    HW228146   3.306   4.721   6.657
 9083SOL     OW28147   4.134   0.514   0.736
 9083SOL    HW128148   4.125   0.567   0.821
 9083SOL    HW228149   4.051   0.524   0.682
 9084SOL     OW28150   6.789   4.812   4.467
 9084SOL    HW128151   6.874   4.808   4.413
 9084SOL    HW228152   6.773   4.907   4.495
 9085SOL     OW28153   3.161   4.608   1.140
 9085SOL    HW128154   3.076   4.661   1.142
 9085SOL    HW228155   3.232   4.656   1.190
 9086SOL     OW28156   6.512   2.138   0.636
 9086SOL    HW128157   6.435   2.098   0.686
 9086SOL    HW228158   6.477   2.193   0.560
 9087SOL     OW28159   4.994   1.300   1.066
 9087SOL    HW128160   5.065   1.233   1.047
 9087SOL    HW228161   5.010   1.383   1.011
 9088SOL     OW28162   5.202   6.545   6.497
 9088SOL    HW128163   5.194   6.569   6.594
 9088SOL    HW228164   5.176   6.449   6.485
 9089SOL     OW28165   5.263   5.662   3.119
 9089SOL    HW128166   5.249   5.633   3.024
 9089SOL    HW228167   5.183   5.714   3.150
 9090SOL     OW28168   5.972   5.574   5.011
 9090SOL    HW128169   5.997   5.649   5.072
 9090SOL    HW228170   5.909   5.512   5.059
 9091SOL     OW28171   2.428   2.365   1.761
 9091SOL    HW128172   2.336   2.345   1.794
 9091SOL    HW228173   2.486   2.285   1.772
 9092SOL     OW28174   2.982   2.066   5.122
 9092SOL    HW128175   3.029   2.144   5.081
 9092SOL    HW228176   2.938   2.012   5.051
 9093SOL     OW28177   2.164   3.399   0.505
 9093SOL    HW128178   2.162   3.463   0.581
 9093SOL    HW228179   2.099   3.428   0.435
 9094SOL     OW28180   6.646   2.318   0.196
 9094SOL    HW128181   6.610   2.309   0.103
 9094SOL    HW228182   6.663   2.414   0.216
 9095SOL     OW28183   2.215   2.734   0.343
 9095SOL    HW128184   2.261   2.721   0.431
 9095SOL    HW228185   2.157   2.815   0.347
 9096SOL     OW28186   6.890   4.265   2.455
 9096SOL    HW128187   6.909   4.214   2.371
 9096SOL    HW228188   6.958   4.337   2.467
 9097SOL     OW28189   6.988   5.781   5.894
 9097SOL    HW128190   0.040   5.722   5.912
 9097SOL    HW228191   6.904   5.727   5.900
 9098SOL     OW28192   4.130   3.287   5.238
 9098SOL    HW128193   4.077   3.330   5.164
 9098SOL    HW228194   4.096   3.194   5.252
 9099SOL     OW28195   2.334   2.626   6.597
 9099SOL    HW128196   2.430   2.625   6.571
 9099SOL    HW228197   2.277   2.646   6.517
 9100SOL     OW28198   1.397   3.011   0.503
 9100SOL    HW128199   1.366   2.917   0.520
 9100SOL    HW228200   1.339   3.053   0.433
 9101SOL     OW28201   2.260   2.541   6.914
 9101SOL    HW128202   2.280   2.520   7.010
 9101SOL    HW228203   2.337   2.512   6.857
 9102SOL     OW28204   4.576   6.388   2.555
 9102SOL    HW128205   4.588   6.385   2.456
 9102SOL    HW228206   4.638   6.457   2.594
 9103SOL     OW28207   1.123   4.282   5.998
 9103SOL    HW128208   1.156   4.336   5.921
 9103SOL    HW228209   1.194   4.218   6.027
 9104SOL     OW28210   4.572   0.100   2.885
 9104SOL    HW128211   4.478   0.091   2.918
 9104SOL    HW228212   4.635   0.075   2.958
 9105SOL     OW28213   3.282   2.315   5.849
 9105SOL    HW128214   3.312   2.407   5.870
 9105SOL    HW228215   3.264   2.307   5.751
 9106SOL     OW28216   6.319   5.441   1.883
 9106SOL    HW128217   6.225   5.434   1.917
 9106SOL    HW228218   6.349   5.352   1.849
 9107SOL     OW28219   5.072   6.006   6.531
 9107SOL    HW128220   5.084   5.973   6.437
 9107SOL    HW228221   5.127   6.089   6.544
 9108SOL     OW28222   3.359   5.589   0.295
 9108SOL    HW128223   3.364   5.688   0.279
 9108SOL    HW228224   3.403   5.540   0.220
 9109SOL     OW28225   3.531   1.584   3.754
 9109SOL    HW128226   3.461   1.654   3.770
 9109SOL    HW228227   3.554   1.581   3.657
 9110SOL     OW28228   0.587   3.650   3.523
 9110SOL    HW128229   0.607   3.555   3.548
 9110SOL    HW228230   0.589   3.707   3.605
 9111SOL     OW28231   3.786   4.121   1.390
 9111SOL    HW128232   3.830   4.067   1.318
 9111SOL    HW228233   3.733   4.061   1.449
 9112SOL     OW28234   1.063   6.127   2.441
 9112SOL    HW128235   1.133   6.131   2.369
 9112SOL    HW228236   0.972   6.120   2.399
 9113SOL     OW28237   2.826   5.630   6.803
 9113SOL    HW128238   2.767   5.559   6.768
 9113SOL    HW228239   2.815   5.713   6.749
 9114SOL     OW28240   2.575   3.510   1.715
 9114SOL    HW128241   2.581   3.607   1.691
 9114SOL    HW228242   2.495   3.495   1.774
 9115SOL     OW28243   1.597   3.750   4.745
 9115SOL    HW128244   1.514   3.740   4.690
 9115SOL    HW228245   1.602   3.844   4.779
 9116SOL     OW28246   2.696   2.154   5.901
 9116SOL    HW128247   2.747   2.220   5.845
 9116SOL    HW228248   2.757   2.117   5.972
 9117SOL     OW28249   0.926   2.782   0.338
 9117SOL    HW128250   0.918   2.683   0.324
 9117SOL    HW228251   1.018   2.812   0.314
 9118SOL     OW28252   0.477   6.742   2.025
 9118SOL    HW128253   0.496   6.646   2.001
 9118SOL    HW228254   0.426   6.785   1.951
 9119SOL     OW28255   6.216   0.055   1.035
 9119SOL    HW128256   6.193   0.151   1.049
 9119SOL    HW228257   6.132   0.002   1.024
 9120SOL     OW28258   6.266   0.321   6.982
 9120SOL    HW128259   6.264   0.413   7.021
 9120SOL    HW228260   6.340   0.314   6.916
 9121SOL     OW28261   1.392   1.510   6.714
 9121SOL    HW128262   1.294   1.527   6.701
 9121SOL    HW228263   1.443   1.554   6.640
 9122SOL     OW28264   0.589   2.926   1.285
 9122SOL    HW128265   0.631   2.920   1.376
 9122SOL    HW228266   0.658   2.908   1.215
 9123SOL     OW28267   1.552   6.754   6.477
 9123SOL    HW128268   1.631   6.780   6.533
 9123SOL    HW228269   1.536   6.655   6.487
 9124SOL     OW28270   0.437   4.247   5.307
 9124SOL    HW128271   0.425   4.182   5.232
 9124SOL    HW228272   0.355   4.303   5.315
 9125SOL     OW28273   4.837   5.905   1.078
 9125SOL    HW128274   4.841   5.805   1.084
 9125SOL    HW228275   4.788   5.941   1.156
 9126SOL     OW28276   5.511   0.353   3.620
 9126SOL    HW128277   5.550   0.444   3.635
 9126SOL    HW228278   5.443   0.358   3.547
 9127SOL     OW28279   5.939   5.564   6.071
 9127SOL    HW128280   6.018   5.503   6.065
 9127SOL    HW228281   5.961   5.652   6.027
 9128SOL     OW28282   4.636   2.593   5.552
 9128SOL    HW128283   4.581   2.663   5.507
 9128SOL    HW228284   4.706   2.636   5.609
 9129SOL     OW28285   3.180   1.355   0.189
 9129SOL    HW128286   3.177   1.451   0.218
 9129SOL    HW228287   3.177   1.350   0.090
 9130SOL     OW28288   5.761   5.838   0.846
 9130SOL    HW128289   5.774   5.750   0.801
 9130SOL    HW228290   5.841   5.896   0.831
 9131SOL     OW28291   1.484   4.778   3.794
 9131SOL    HW128292   1.432   4.699   3.762
 9131SOL    HW228293   1.422   4.845   3.835
 9132SOL     OW28294   1.577   2.858   4.134
 9132SOL    HW128295   1.563   2.770   4.179
 9132SOL    HW228296   1.488   2.898   4.111
 9133SOL     OW28297   1.409   5.040   1.121
 9133SOL    HW128298   1.436   5.009   1.212
 9133SOL    HW228299   1.461   4.991   1.052
 9134SOL     OW28300   2.530   5.116   6.283
 9134SOL    HW128301   2.533   5.107   6.383
 9134SOL    HW228302   2.612   5.163   6.252
 9135SOL     OW28303   1.102   6.639   3.772
 9135SOL    HW128304   1.043   6.693   3.713
 9135SOL    HW228305   1.198   6.655   3.748
 9136SOL     OW28306   3.365   5.158   4.922
 9136SOL    HW128307   3.314   5.164   5.008
 9136SOL    HW228308   3.373   5.062   4.895
 9137SOL     OW28309   4.190   0.612   2.368
 9137SOL    HW128310   4.118   0.547   2.345
 9137SOL    HW228311   4.198   0.618   2.468
 9138SOL     OW28312   3.332   4.197   0.945
 9138SOL    HW128313   3.250   4.251   0.966
 9138SOL    HW228314   3.334   4.176   0.847
 9139SOL     OW28315   3.499   0.714   5.836
 9139SOL    HW128316   3.500   0.676   5.744
 9139SOL    HW228317   3.416   0.684   5.884
 9140SOL     OW28318   6.193   2.961   3.170
 9140SOL    HW128319   6.266   2.899   3.141
 9140SOL    HW228320   6.152   3.006   3.090
 9141SOL     OW28321   5.442   0.732   6.018
 9141SOL    HW128322   5.518   0.797   6.015
 9141SOL    HW228323   5.414   0.718   6.113
 9142SOL     OW28324   1.493   4.144   6.595
 9142SOL    HW128325   1.421   4.205   6.560
 9142SOL    HW228326   1.486   4.055   6.550
 9143SOL     OW28327   5.726   4.350   0.657
 9143SOL    HW128328   5.661   4.425   0.662
 9143SOL    HW228329   5.677   4.263   0.649
 9144SOL     OW28330   1.121   5.415   4.645
 9144SOL    HW128331   1.144   5.478   4.571
 9144SOL    HW228332   1.200   5.358   4.667
 9145SOL     OW28333   0.793   3.581   6.335
 9145SOL    HW128334   0.765   3.491   6.301
 9145SOL    HW228335   0.771   3.651   6.267
 9146SOL     OW28336   0.448   1.493   1.048
 9146SOL    HW128337   0.520   1.552   1.012
 9146SOL    HW228338   0.480   1.398   1.049
 9147SOL     OW28339   4.375   5.520   6.265
 9147SOL    HW128340   4.308   5.510   6.191
 9147SOL    HW228341   4.403   5.616   6.272
 9148SOL     OW28342   3.584   4.840   2.976
 9148SOL    HW128343   3.628   4.854   2.887
 9148SOL    HW228344   3.485   4.844   2.965
 9149SOL     OW28345   6.469   3.209   5.196
 9149SOL    HW128346   6.477   3.225   5.098
 9149SOL    HW228347   6.554   3.170   5.231
 9150SOL     OW28348   4.250   1.378   2.596
 9150SOL    HW128349   4.241   1.461   2.540
 9150SOL    HW228350   4.274   1.403   2.690
 9151SOL     OW28351   6.882   2.942   2.134
 9151SOL    HW128352   6.813   3.008   2.163
 9151SOL    HW228353   6.919   2.969   2.045
 9152SOL     OW28354   2.386   4.862   3.271
 9152SOL    HW128355   2.435   4.777   3.249
 9152SOL    HW228356   2.448   4.926   3.316
 9153SOL     OW28357   2.172   2.861   7.000
 9153SOL    HW128358   2.140   2.806   6.924
 9153SOL    HW228359   2.179   2.805   0.056
 9154SOL     OW28360   0.978   5.375   0.810
 9154SOL    HW128361   0.946   5.334   0.896
 9154SOL    HW228362   1.055   5.436   0.829
 9155SOL     OW28363   1.715   4.723   0.078
 9155SOL    HW128364   1.761   4.667   0.147
 9155SOL    HW228365   1.617   4.729   0.100
 9156SOL     OW28366   4.856   2.766   1.555
 9156SOL    HW128367   4.804   2.806   1.630
 9156SOL    HW228368   4.794   2.736   1.483
 9157SOL     OW28369   5.324   3.459   5.538
 9157SOL    HW128370   5.290   3.483   5.447
 9157SOL    HW228371   5.331   3.359   5.546
 9158SOL     OW28372   0.836   3.829   3.635
 9158SOL    HW128373   0.820   3.877   3.722
 9158SOL    HW228374   0.798   3.883   3.560
 9159SOL     OW28375   6.850   4.749   2.010
 9159SOL    HW128376   6.861   4.784   1.917
 9159SOL    HW228377   6.925   4.688   2.032
 9160SOL     OW28378   0.524   0.337   1.302
 9160SOL    HW128379   0.558   0.402   1.369
 9160SOL    HW228380   0.589   0.262   1.292
 9161SOL     OW28381   4.927   4.405   2.444
 9161SOL    HW128382   4.827   4.402   2.432
 9161SOL    HW228383   4.970   4.350   2.374
 9162SOL     OW28384   5.195   2.518   3.130
 9162SOL    HW128385   5.115   2.494   3.184
 9162SOL    HW228386   5.172   2.593   3.068
 9163SOL     OW28387   3.610   0.871   5.132
 9163SOL    HW128388   3.525   0.874   5.185
 9163SOL    HW228389   3.588   0.858   5.036
 9164SOL     OW28390   2.988   0.342   0.954
 9164SOL    HW128391   2.953   0.402   1.025
 9164SOL    HW228392   2.944   0.252   0.962
 9165SOL     OW28393   4.842   5.841   0.488
 9165SOL    HW128394   4.931   5.855   0.445
 9165SOL    HW228395   4.845   5.874   0.583
 9166SOL     OW28396   3.341   5.774   1.219
 9166SOL    HW128397   3.315   5.855   1.273
 9166SOL    HW228398   3.426   5.737   1.255
 9167SOL     OW28399   0.406   3.618   4.811
 9167SOL    HW128400   0.402   3.551   4.737
 9167SOL    HW228401   0.379   3.576   4.897
 9168SOL     OW28402   3.347   0.584   0.405
 9168SOL    HW128403   3.435   0.631   0.400
 9168SOL    HW228404   3.355   0.503   0.463
 9169SOL     OW28405   0.217   6.777   3.618
 9169SOL    HW128406   0.265   6.859   3.648
 9169SOL    HW228407   0.127   6.801   3.583
 9170SOL     OW28408   6.458   6.211   0.179
 9170SOL    HW128409   6.452   6.117   0.214
 9170SOL    HW228410   6.369   6.256   0.190
 9171SOL     OW28411   3.742   5.668   5.276
 9171SOL    HW128412   3.728   5.670   5.177
 9171SOL    HW228413   3.679   5.731   5.320
 9172SOL     OW28414   2.544   2.450   4.018
 9172SOL    HW128415   2.605   2.430   3.941
 9172SOL    HW228416   2.575   2.398   4.098
 9173SOL     OW28417   0.346   5.176   5.592
 9173SOL    HW128418   0.310   5.140   5.678
 9173SOL    HW228419   0.274   5.228   5.545
 9174SOL     OW28420   0.431   5.675   6.502
 9174SOL    HW128421   0.419   5.593   6.559
 9174SOL    HW228422   0.509   5.727   6.535
 9175SOL     OW28423   2.403   6.096   5.599
 9175SOL    HW128424   2.313   6.102   5.557
 9175SOL    HW228425   2.395   6.057   5.690
 9176SOL     OW28426   1.627   2.015   5.910
 9176SOL    HW128427   1.669   1.936   5.866
 9176SOL    HW228428   1.604   2.084   5.841
 9177SOL     OW28429   1.202   4.831   3.165
 9177SOL    HW128430   1.215   4.877   3.253
 9177SOL    HW228431   1.243   4.886   3.092
 9178SOL     OW28432   2.157   4.148   0.412
 9178SOL    HW128433   2.207   4.132   0.498
 9178SOL    HW228434   2.210   4.110   0.336
 9179SOL     OW28435   2.737   5.068   5.132
 9179SOL    HW128436   2.812   5.114   5.084
 9179SOL    HW228437   2.750   4.969   5.128
 9180SOL     OW28438   5.548   1.907   2.759
 9180SOL    HW128439   5.601   1.897   2.843
 9180SOL    HW228440   5.496   1.993   2.762
 9181SOL     OW28441   3.896   1.246   2.354
 9181SOL    HW128442   3.887   1.320   2.287
 9181SOL    HW228443   3.807   1.226   2.394
 9182SOL     OW28444   2.440   6.619   1.852
 9182SOL    HW128445   2.452   6.520   1.848
 9182SOL    HW228446   2.529   6.664   1.860
 9183SOL     OW28447   5.217   5.282   6.099
 9183SOL    HW128448   5.305   5.330   6.096
 9183SOL    HW228449   5.216   5.211   6.030
 9184SOL     OW28450   5.175   6.525   6.772
 9184SOL    HW128451   5.115   6.594   6.814
 9184SOL    HW228452   5.121   6.445   6.747
 9185SOL     OW28453   4.849   1.686   4.564
 9185SOL    HW128454   4.835   1.713   4.659
 9185SOL    HW228455   4.778   1.727   4.507
 9186SOL     OW28456   5.252   0.540   6.313
 9186SOL    HW128457   5.209   0.456   6.279
 9186SOL    HW228458   5.214   0.618   6.264
 9187SOL     OW28459   2.473   6.478   2.779
 9187SOL    HW128460   2.519   6.516   2.859
 9187SOL    HW228461   2.522   6.397   2.747
 9188SOL     OW28462   2.553   5.613   0.985
 9188SOL    HW128463   2.590   5.562   1.063
 9188SOL    HW228464   2.519   5.548   0.917
 9189SOL     OW28465   5.204   5.484   2.230
 9189SOL    HW128466   5.152   5.499   2.314
 9189SOL    HW228467   5.180   5.395   2.192
 9190SOL     OW28468   1.236   5.684   0.222
 9190SOL    HW128469   1.190   5.710   0.137
 9190SOL    HW228470   1.178   5.621   0.273
 9191SOL     OW28471   0.143   1.021   5.657
 9191SOL    HW128472   0.084   1.090   5.699
 9191SOL    HW228473   0.193   1.062   5.581
 9192SOL     OW28474   1.120   3.744   5.250
 9192SOL    HW128475   1.046   3.760   5.185
 9192SOL    HW228476   1.084   3.745   5.343
 9193SOL     OW28477   2.925   3.827   0.481
 9193SOL    HW128478   2.851   3.813   0.415
 9193SOL    HW228479   2.944   3.740   0.528
 9194SOL     OW28480   3.039   1.132   4.174
 9194SOL    HW128481   3.022   1.038   4.203
 9194SOL    HW228482   3.133   1.158   4.198
 9195SOL     OW28483   1.673   1.080   4.270
 9195SOL    HW128484   1.637   1.112   4.183
 9195SOL    HW228485   1.765   1.046   4.257
 9196SOL     OW28486   5.241   1.385   5.949
 9196SOL    HW128487   5.232   1.425   5.858
 9196SOL    HW228488   5.270   1.456   6.014
 9197SOL     OW28489   2.310   3.728   0.445
 9197SOL    HW128490   2.217   3.712   0.412
 9197SOL    HW228491   2.329   3.826   0.447
 9198SOL     OW28492   0.963   4.528   4.384
 9198SOL    HW128493   1.029   4.457   4.356
 9198SOL    HW228494   0.875   4.485   4.403
 9199SOL     OW28495   5.977   4.316   5.144
 9199SOL    HW128496   5.880   4.335   5.130
 9199SOL    HW228497   6.029   4.401   5.135
 9200SOL     OW28498   2.885   0.126   0.311
 9200SOL    HW128499   2.849   0.180   0.236
 9200SOL    HW228500   2.982   0.107   0.296
 9201SOL     OW28501   2.091   4.222   0.877
 9201SOL    HW128502   2.145   4.143   0.848
 9201SOL    HW228503   2.028   4.248   0.803
 9202SOL     OW28504   2.493   1.004   3.709
 9202SOL    HW128505   2.569   1.023   3.772
 9202SOL    HW228506   2.442   1.088   3.693
 9203SOL     OW28507   6.428   6.552   0.815
 9203SOL    HW128508   6.521   6.563   0.778
 9203SOL    HW228509   6.363   6.546   0.739
 9204SOL     OW28510   6.250   0.709   5.192
 9204SOL    HW128511   6.293   0.764   5.264
 9204SOL    HW228512   6.247   0.613   5.221
 9205SOL     OW28513   6.976   5.282   2.047
 9205SOL    HW128514   0.027   5.335   2.079
 9205SOL    HW228515   6.979   5.274   1.947
 9206SOL     OW28516   3.658   6.813   6.860
 9206SOL    HW128517   3.678   6.801   6.957
 9206SOL    HW228518   3.588   6.884   6.849
 9207SOL     OW28519   5.955   5.798   5.927
 9207SOL    HW128520   5.924   5.873   5.986
 9207SOL    HW228521   6.011   5.835   5.853
 9208SOL     OW28522   1.120   4.058   2.483
 9208SOL    HW128523   1.033   4.023   2.517
 9208SOL    HW228524   1.166   3.987   2.429
 9209SOL     OW28525   2.132   6.608   6.767
 9209SOL    HW128526   2.134   6.508   6.760
 9209SOL    HW228527   2.037   6.639   6.773
 9210SOL     OW28528   6.302   0.448   3.993
 9210SOL    HW128529   6.281   0.529   3.938
 9210SOL    HW228530   6.383   0.403   3.955
 9211SOL     OW28531   0.437   1.744   2.774
 9211SOL    HW128532   0.410   1.734   2.679
 9211SOL    HW228533   0.360   1.721   2.834
 9212SOL     OW28534   3.572   5.256   4.155
 9212SOL    HW128535   3.532   5.164   4.161
 9212SOL    HW228536   3.559   5.303   4.242
 9213SOL     OW28537   6.076   3.807   6.743
 9213SOL    HW128538   5.977   3.807   6.757
 9213SOL    HW228539   6.118   3.877   6.801
 9214SOL     OW28540   0.426   5.210   0.394
 9214SOL    HW128541   0.440   5.113   0.413
 9214SOL    HW228542   0.462   5.231   0.303
 9215SOL     OW28543   1.500   1.350   0.670
 9215SOL    HW128544   1.517   1.446   0.693
 9215SOL    HW228545   1.519   1.293   0.750
 9216SOL     OW28546   2.186   0.463   3.684
 9216SOL    HW128547   2.154   0.540   3.628
 9216SOL    HW228548   2.269   0.424   3.642
 9217SOL     OW28549   0.422   2.338   0.652
 9217SOL    HW128550   0.340   2.295   0.616
 9217SOL    HW228551   0.476   2.376   0.577
 9218SOL     OW28552   1.928   1.014   0.600
 9218SOL    HW128553   1.846   1.013   0.543
 9218SOL    HW228554   1.959   1.108   0.613
 9219SOL     OW28555   5.980   1.894   0.457
 9219SOL    HW128556   5.964   1.838   0.375
 9219SOL    HW228557   6.075   1.884   0.485
 9220SOL     OW28558   3.382   6.436   0.729
 9220SOL    HW128559   3.374   6.340   0.756
 9220SOL    HW228560   3.450   6.445   0.656
 9221SOL     OW28561   2.635   4.775   4.878
 9221SOL    HW128562   2.709   4.728   4.926
 9221SOL    HW228563   2.548   4.752   4.921
 9222SOL     OW28564   2.955   2.159   6.674
 9222SOL    HW128565   2.868   2.170   6.625
 9222SOL    HW228566   2.950   2.209   6.761
 9223SOL     OW28567   2.844   3.315   5.102
 9223SOL    HW128568   2.765   3.363   5.141
 9223SOL    HW228569   2.879   3.366   5.023
 9224SOL     OW28570   2.219   4.636   5.400
 9224SOL    HW128571   2.146   4.655   5.334
 9224SOL    HW228572   2.283   4.570   5.361
 9225SOL     OW28573   1.613   6.256   6.991
 9225SOL    HW128574   1.595   6.193   0.039
 9225SOL    HW228575   1.711   6.280   6.991
 9226SOL     OW28576   4.499   6.578   1.042
 9226SOL    HW128577   4.537   6.670   1.031
 9226SOL    HW228578   4.425   6.565   0.975
 9227SOL     OW28579   1.165   6.547   1.726
 9227SOL    HW128580   1.247   6.511   1.771
 9227SOL    HW228581   1.084   6.508   1.770
 9228SOL     OW28582   0.636   6.675   6.953
 9228SOL    HW128583   0.644   6.575   6.950
 9228SOL    HW228584   0.708   6.712   7.012
 9229SOL     OW28585   0.900   5.670   5.479
 9229SOL    HW128586   0.856   5.754   5.512
 9229SOL    HW228587   0.839   5.592   5.492
 9230SOL     OW28588   4.668   1.716   3.649
 9230SOL    HW128589   4.637   1.625   3.624
 9230SOL    HW228590   4.624   1.784   3.589
 9231SOL     OW28591   2.072   3.587   3.588
 9231SOL    HW128592   2.104   3.634   3.506
 9231SOL    HW228593   2.123   3.502   3.599
 9232SOL     OW28594   4.274   5.179   1.474
 9232SOL    HW128595   4.341   5.157   1.545
 9232SOL    HW228596   4.293   5.124   1.392
 9233SOL     OW28597   5.744   4.511   0.408
 9233SOL    HW128598   5.808   4.588   0.411
 9233SOL    HW228599   5.710   4.492   0.500
 9234SOL     OW28600   1.285   6.394   3.797
 9234SOL    HW128601   1.210   6.457   3.783
 9234SOL    HW228602   1.249   6.305   3.825
 9235SOL     OW28603   1.012   2.665   3.297
 9235SOL    HW128604   0.929   2.714   3.320
 9235SOL    HW228605   1.057   2.632   3.380
 9236SOL     OW28606   3.647   2.560   5.637
 9236SOL    HW128607   3.589   2.597   5.565
 9236SOL    HW228608   3.591   2.539   5.717
 9237SOL     OW28609   1.726   3.616   3.204
 9237SOL    HW128610   1.653   3.682   3.188
 9237SOL    HW228611   1.760   3.625   3.298
 9238SOL     OW28612   4.312   3.486   6.628
 9238SOL    HW128613   4.286   3.425   6.703
 9238SOL    HW228614   4.411   3.494   6.624
 9239SOL     OW28615   1.984   3.103   6.118
 9239SOL    HW128616   1.924   3.132   6.192
 9239SOL    HW228617   1.969   3.006   6.099
 9240SOL     OW28618   4.789   0.872   2.443
 9240SOL    HW128619   4.832   0.824   2.519
 9240SOL    HW228620   4.859   0.899   2.377
 9241SOL     OW28621   0.604   5.562   6.167
 9241SOL    HW128622   0.505   5.552   6.170
 9241SOL    HW228623   0.633   5.578   6.072
 9242SOL     OW28624   5.612   6.431   1.687
 9242SOL    HW128625   5.602   6.340   1.646
 9242SOL    HW228626   5.709   6.452   1.699
 9243SOL     OW28627   5.528   0.013   4.352
 9243SOL    HW128628   5.477   7.007   4.272
 9243SOL    HW228629   5.609   0.063   4.322
 9244SOL     OW28630   3.891   5.634   0.555
 9244SOL    HW128631   3.809   5.584   0.583
 9244SOL    HW228632   3.892   5.724   0.598
 9245SOL     OW28633   0.155   6.756   2.040
 9245SOL    HW128634   0.069   6.802   2.018
 9245SOL    HW228635   0.222   6.773   1.967
 9246SOL     OW28636   6.858   5.166   4.056
 9246SOL    HW128637   6.841   5.068   4.053
 9246SOL    HW228638   6.918   5.187   4.134
 9247SOL     OW28639   1.345   0.138   3.360
 9247SOL    HW128640   1.434   0.139   3.406
 9247SOL    HW228641   1.329   0.226   3.315
 9248SOL     OW28642   4.034   1.739   6.130
 9248SOL    HW128643   4.062   1.670   6.063
 9248SOL    HW228644   3.943   1.772   6.107
 9249SOL     OW28645   4.116   6.772   3.485
 9249SOL    HW128646   4.194   6.827   3.516
 9249SOL    HW228647   4.054   6.757   3.562
 9250SOL     OW28648   5.032   3.969   3.042
 9250SOL    HW128649   5.028   4.021   3.127
 9250SOL    HW228650   5.003   4.026   2.965
 9251SOL     OW28651   3.822   1.853   2.312
 9251SOL    HW128652   3.874   1.833   2.395
 9251SOL    HW228653   3.760   1.777   2.293
 9252SOL     OW28654   1.406   6.775   4.452
 9252SOL    HW128655   1.505   6.786   4.460
 9252SOL    HW228656   1.361   6.862   4.470
 9253SOL     OW28657   1.347   6.965   6.439
 9253SOL    HW128658   1.323   6.965   6.342
 9253SOL    HW228659   1.432   6.915   6.453
 9254SOL     OW28660   5.347   2.333   1.037
 9254SOL    HW128661   5.270   2.288   0.992
 9254SOL    HW228662   5.370   2.284   1.121
 9255SOL     OW28663   6.918   5.486   0.598
 9255SOL    HW128664   7.003   5.529   0.566
 9255SOL    HW228665   6.919   5.482   0.698
 9256SOL     OW28666   3.743   5.394   2.796
 9256SOL    HW128667   3.673   5.446   2.747
 9256SOL    HW228668   3.803   5.349   2.730
 9257SOL     OW28669   0.492   3.387   1.002
 9257SOL    HW128670   0.428   3.311   1.002
 9257SOL    HW228671   0.473   3.447   0.924
 9258SOL     OW28672   3.106   3.168   4.162
 9258SOL    HW128673   3.078   3.173   4.066
 9258SOL    HW228674   3.061   3.240   4.214
 9259SOL     OW28675   1.721   2.497   0.407
 9259SOL    HW128676   1.757   2.548   0.329
 9259SOL    HW228677   1.636   2.451   0.381
 9260SOL     OW28678   6.424   3.828   6.711
 9260SOL    HW128679   6.520   3.846   6.690
 9260SOL    HW228680   6.374   3.808   6.627
 9261SOL     OW28681   3.111   6.705   5.992
 9261SOL    HW128682   3.175   6.666   5.925
 9261SOL    HW228683   3.156   6.711   6.081
 9262SOL     OW28684   5.550   0.648   6.279
 9262SOL    HW128685   5.579   0.585   6.206
 9262SOL    HW228686   5.463   0.617   6.316
 9263SOL     OW28687   5.904   4.041   2.128
 9263SOL    HW128688   6.000   4.066   2.141
 9263SOL    HW228689   5.847   4.124   2.133
 9264SOL     OW28690   5.639   2.573   6.967
 9264SOL    HW128691   5.633   2.479   6.999
 9264SOL    HW228692   5.641   2.636   0.018
 9265SOL     OW28693   1.525   2.041   5.633
 9265SOL    HW128694   1.542   2.133   5.597
 9265SOL    HW228695   1.542   1.973   5.562
 9266SOL     OW28696   2.524   6.141   2.210
 9266SOL    HW128697   2.595   6.191   2.160
 9266SOL    HW228698   2.460   6.207   2.251
 9267SOL     OW28699   2.807   5.009   5.807
 9267SOL    HW128700   2.864   4.983   5.884
 9267SOL    HW228701   2.710   5.006   5.834
 9268SOL     OW28702   1.302   1.598   2.987
 9268SOL    HW128703   1.206   1.626   2.982
 9268SOL    HW228704   1.322   1.564   3.078
 9269SOL     OW28705   4.394   1.620   5.210
 9269SOL    HW128706   4.482   1.598   5.168
 9269SOL    HW228707   4.409   1.658   5.301
 9270SOL     OW28708   1.443   0.657   5.621
 9270SOL    HW128709   1.518   0.599   5.587
 9270SOL    HW228710   1.366   0.651   5.558
 9271SOL     OW28711   0.596   4.994   6.204
 9271SOL    HW128712   0.597   4.953   6.113
 9271SOL    HW228713   0.660   5.071   6.207
 9272SOL     OW28714   2.344   5.418   6.799
 9272SOL    HW128715   2.326   5.478   6.721
 9272SOL    HW228716   2.277   5.437   6.871
 9273SOL     OW28717   4.227   5.827   5.994
 9273SOL    HW128718   4.234   5.791   5.901
 9273SOL    HW228719   4.132   5.824   6.024
 9274SOL     OW28720   5.462   2.393   1.815
 9274SOL    HW128721   5.556   2.393   1.782
 9274SOL    HW228722   5.440   2.483   1.852
 9275SOL     OW28723   0.391   0.245   6.117
 9275SOL    HW128724   0.443   0.259   6.201
 9275SOL    HW228725   0.370   0.334   6.077
 9276SOL     OW28726   4.446   6.887   3.798
 9276SOL    HW128727   4.468   6.833   3.716
 9276SOL    HW228728   4.401   6.828   3.865
 9277SOL     OW28729   4.102   2.560   0.117
 9277SOL    HW128730   4.108   2.566   0.217
 9277SOL    HW228731   4.153   2.635   0.076
 9278SOL     OW28732   1.378   2.336   1.239
 9278SOL    HW128733   1.317   2.370   1.310
 9278SOL    HW228734   1.472   2.361   1.260
 9279SOL     OW28735   1.860   6.254   0.603
 9279SOL    HW128736   1.822   6.321   0.667
 9279SOL    HW228737   1.851   6.290   0.509
 9280SOL     OW28738   1.344   0.521   2.773
 9280SOL    HW128739   1.437   0.510   2.809
 9280SOL    HW228740   1.345   0.508   2.674
 9281SOL     OW28741   2.399   2.256   0.304
 9281SOL    HW128742   2.423   2.268   0.400
 9281SOL    HW228743   2.353   2.338   0.270
 9282SOL     OW28744   4.318   1.337   6.437
 9282SOL    HW128745   4.253   1.407   6.407
 9282SOL    HW228746   4.268   1.256   6.468
 9283SOL     OW28747   5.216   2.738   2.727
 9283SOL    HW128748   5.311   2.765   2.739
 9283SOL    HW228749   5.179   2.781   2.645
 9284SOL     OW28750   3.678   3.817   2.015
 9284SOL    HW128751   3.691   3.719   1.999
 9284SOL    HW228752   3.581   3.836   2.030
 9285SOL     OW28753   6.802   2.895   6.269
 9285SOL    HW128754   6.864   2.824   6.234
 9285SOL    HW228755   6.832   2.922   6.360
 9286SOL     OW28756   5.570   5.413   4.666
 9286SOL    HW128757   5.501   5.455   4.606
 9286SOL    HW228758   5.661   5.426   4.627
 9287SOL     OW28759   2.738   6.812   2.362
 9287SOL    HW128760   2.714   6.841   2.454
 9287SOL    HW228761   2.786   6.887   2.315
 9288SOL     OW28762   4.743   2.210   6.005
 9288SOL    HW128763   4.659   2.263   6.000
 9288SOL    HW228764   4.745   2.160   6.092
 9289SOL     OW28765   5.783   4.474   2.702
 9289SOL    HW128766   5.745   4.399   2.756
 9289SOL    HW228767   5.712   4.543   2.685
 9290SOL     OW28768   4.668   1.975   4.095
 9290SOL    HW128769   4.601   1.906   4.067
 9290SOL    HW228770   4.758   1.951   4.059
 9291SOL     OW28771   0.894   1.973   4.954
 9291SOL    HW128772   0.837   1.895   4.979
 9291SOL    HW228773   0.903   2.034   5.032
 9292SOL     OW28774   0.087   4.133   0.297
 9292SOL    HW128775   0.092   4.146   0.396
 9292SOL    HW228776   0.177   4.109   0.261
 9293SOL     OW28777   6.180   3.842   5.742
 9293SOL    HW128778   6.237   3.762   5.723
 9293SOL    HW228779   6.131   3.869   5.659
 9294SOL     OW28780   5.479   6.154   6.074
 9294SOL    HW128781   5.559   6.206   6.045
 9294SOL    HW228782   5.495   6.118   6.166
 9295SOL     OW28783   5.008   2.517   3.341
 9295SOL    HW128784   4.945   2.590   3.312
 9295SOL    HW228785   4.970   2.428   3.316
 9296SOL     OW28786   6.911   0.089   4.980
 9296SOL    HW128787   6.906   0.185   5.006
 9296SOL    HW228788   6.864   0.033   5.049
 9297SOL     OW28789   0.990   0.802   1.679
 9297SOL    HW128790   1.030   0.894   1.681
 9297SOL    HW228791   0.939   0.790   1.594
 9298SOL     OW28792   0.655   6.174   4.842
 9298SOL    HW128793   0.666   6.269   4.812
 9298SOL    HW228794   0.561   6.159   4.873
 9299SOL     OW28795   1.693   3.099   4.121
 9299SOL    HW128796   1.623   3.169   4.134
 9299SOL    HW228797   1.651   3.008   4.127
 9300SOL     OW28798   5.641   4.488   3.516
 9300SOL    HW128799   5.603   4.448   3.599
 9300SOL    HW228800   5.573   4.483   3.442
 9301SOL     OW28801   6.442   4.383   1.457
 9301SOL    HW128802   6.399   4.305   1.504
 9301SOL    HW228803   6.372   4.451   1.436
 9302SOL     OW28804   1.529   2.120   2.332
 9302SOL    HW128805   1.466   2.050   2.297
 9302SOL    HW228806   1.476   2.199   2.363
 9303SOL     OW28807   4.781   3.989   0.615
 9303SOL    HW128808   4.745   4.082   0.624
 9303SOL    HW228809   4.810   3.956   0.705
 9304SOL     OW28810   4.372   3.630   0.631
 9304SOL    HW128811   4.432   3.642   0.710
 9304SOL    HW228812   4.400   3.550   0.579
 9305SOL     OW28813   4.888   3.847   2.054
 9305SOL    HW128814   4.843   3.899   1.982
 9305SOL    HW228815   4.964   3.901   2.091
 9306SOL     OW28816   6.497   5.938   4.175
 9306SOL    HW128817   6.451   5.905   4.092
 9306SOL    HW228818   6.429   5.969   4.241
 9307SOL     OW28819   2.448   0.756   5.780
 9307SOL    HW128820   2.502   0.674   5.762
 9307SOL    HW228821   2.466   0.788   5.873
 9308SOL     OW28822   6.780   2.311   0.705
 9308SOL    HW128823   6.852   2.373   0.737
 9308SOL    HW228824   6.698   2.365   0.683
 9309SOL     OW28825   5.013   2.578   6.285
 9309SOL    HW128826   5.102   2.586   6.241
 9309SOL    HW228827   4.977   2.669   6.305
 9310SOL     OW28828   4.033   0.018   1.495
 9310SOL    HW128829   4.112   0.041   1.552
 9310SOL    HW228830   3.961   0.087   1.509
 9311SOL     OW28831   6.974   3.758   1.387
 9311SOL    HW128832   7.014   3.835   1.437
 9311SOL    HW228833   6.922   3.701   1.450
 9312SOL     OW28834   1.945   4.165   4.773
 9312SOL    HW128835   1.993   4.080   4.792
 9312SOL    HW228836   1.950   4.225   4.853
 9313SOL     OW28837   6.095   6.760   2.318
 9313SOL    HW128838   6.055   6.842   2.277
 9313SOL    HW228839   6.049   6.679   2.280
 9314SOL     OW28840   6.587   4.066   0.242
 9314SOL    HW128841   6.635   4.064   0.330
 9314SOL    HW228842   6.493   4.033   0.255
 9315SOL     OW28843   0.487   6.410   6.689
 9315SOL    HW128844   0.528   6.498   6.666
 9315SOL    HW228845   0.425   6.382   6.616
 9316SOL     OW28846   3.243   5.459   4.524
 9316SOL    HW128847   3.333   5.485   4.489
 9316SOL    HW228848   3.252   5.378   4.581
 9317SOL     OW28849   4.254   4.010   5.369
 9317SOL    HW128850   4.294   3.969   5.450
 9317SOL    HW228851   4.162   3.973   5.354
 9318SOL     OW28852   6.911   6.654   5.843
 9318SOL    HW128853   6.907   6.675   5.941
 9318SOL    HW228854   6.897   6.556   5.830
 9319SOL     OW28855   6.127   3.572   4.502
 9319SOL    HW128856   6.144   3.546   4.407
 9319SOL    HW228857   6.035   3.610   4.511
 9320SOL     OW28858   4.318   2.912   6.066
 9320SOL    HW128859   4.292   2.819   6.041
 9320SOL    HW228860   4.333   2.966   5.983
 9321SOL     OW28861   5.944   6.133   4.187
 9321SOL    HW128862   5.999   6.067   4.136
 9321SOL    HW228863   6.001   6.211   4.213
 9322SOL     OW28864   0.993   6.112   0.660
 9322SOL    HW128865   1.062   6.103   0.589
 9322SOL    HW228866   1.017   6.055   0.738
 9323SOL     OW28867   0.580   1.173   6.622
 9323SOL    HW128868   0.612   1.108   6.553
 9323SOL    HW228869   0.636   1.256   6.618
 9324SOL     OW28870   1.856   5.186   6.794
 9324SOL    HW128871   1.771   5.217   6.838
 9324SOL    HW228872   1.922   5.161   6.864
 9325SOL     OW28873   6.809   2.652   0.622
 9325SOL    HW128874   6.852   2.572   0.580
 9325SOL    HW228875   6.762   2.706   0.552
 9326SOL     OW28876   2.701   5.748   1.549
 9326SOL    HW128877   2.684   5.796   1.463
 9326SOL    HW228878   2.780   5.788   1.595
 9327SOL     OW28879   2.625   1.565   3.652
 9327SOL    HW128880   2.689   1.505   3.604
 9327SOL    HW228881   2.629   1.657   3.612
 9328SOL     OW28882   2.513   0.570   2.266
 9328SOL    HW128883   2.496   0.578   2.364
 9328SOL    HW228884   2.501   0.660   2.223
 9329SOL     OW28885   0.854   4.030   2.059
 9329SOL    HW128886   0.791   3.963   2.099
 9329SOL    HW228887   0.918   4.061   2.128
 9330SOL     OW28888   5.490   6.455   6.531
 9330SOL    HW128889   5.531   6.522   6.593
 9330SOL    HW228890   5.395   6.480   6.512
 9331SOL     OW28891   0.574   1.869   0.229
 9331SOL    HW128892   0.610   1.907   0.144
 9331SOL    HW228893   0.497   1.924   0.260
 9332SOL     OW28894   3.777   3.737   5.465
 9332SOL    HW128895   3.748   3.728   5.560
 9332SOL    HW228896   3.859   3.682   5.450
 9333SOL     OW28897   4.977   5.713   0.836
 9333SOL    HW128898   4.877   5.703   0.838
 9333SOL    HW228899   5.004   5.792   0.890
 9334SOL     OW28900   2.827   6.970   4.597
 9334SOL    HW128901   2.772   6.912   4.658
 9334SOL    HW228902   2.770   0.018   4.563
 9335SOL     OW28903   0.775   1.702   2.003
 9335SOL    HW128904   0.776   1.779   2.067
 9335SOL    HW228905   0.779   1.616   2.054
 9336SOL     OW28906   3.387   0.347   5.294
 9336SOL    HW128907   3.464   0.334   5.357
 9336SOL    HW228908   3.303   0.314   5.337
 9337SOL     OW28909   4.553   0.234   2.626
 9337SOL    HW128910   4.542   0.142   2.589
 9337SOL    HW228911   4.561   0.229   2.726
 9338SOL     OW28912   3.404   6.709   2.134
 9338SOL    HW128913   3.394   6.621   2.088
 9338SOL    HW228914   3.365   6.704   2.226
 9339SOL     OW28915   3.894   5.608   1.322
 9339SOL    HW128916   3.861   5.514   1.314
 9339SOL    HW228917   3.871   5.644   1.412
 9340SOL     OW28918   6.537   3.231   0.953
 9340SOL    HW128919   6.439   3.218   0.967
 9340SOL    HW228920   6.560   3.328   0.966
 9341SOL     OW28921   0.820   4.350   5.711
 9341SOL    HW128922   0.735   4.399   5.729
 9341SOL    HW228923   0.854   4.309   5.796
 9342SOL     OW28924   1.535   0.448   6.809
 9342SOL    HW128925   1.512   0.530   6.862
 9342SOL    HW228926   1.520   0.467   6.712
 9343SOL     OW28927   5.464   6.524   3.874
 9343SOL    HW128928   5.404   6.603   3.870
 9343SOL    HW228929   5.464   6.486   3.966
 9344SOL     OW28930   5.074   6.512   0.693
 9344SOL    HW128931   5.109   6.497   0.601
 9344SOL    HW228932   5.119   6.590   0.735
 9345SOL     OW28933   0.363   2.888   0.722
 9345SOL    HW128934   0.335   2.909   0.629
 9345SOL    HW228935   0.420   2.805   0.721
 9346SOL     OW28936   6.130   0.766   0.493
 9346SOL    HW128937   6.216   0.723   0.464
 9346SOL    HW228938   6.073   0.783   0.413
 9347SOL     OW28939   2.006   6.733   2.228
 9347SOL    HW128940   2.080   6.687   2.180
 9347SOL    HW228941   1.930   6.670   2.241
 9348SOL     OW28942   2.953   4.986   0.563
 9348SOL    HW128943   2.952   4.893   0.599
 9348SOL    HW228944   2.859   5.021   0.560
 9349SOL     OW28945   1.470   6.149   2.447
 9349SOL    HW128946   1.521   6.146   2.533
 9349SOL    HW228947   1.495   6.070   2.391
 9350SOL     OW28948   0.366   3.173   5.961
 9350SOL    HW128949   0.306   3.201   5.887
 9350SOL    HW228950   0.438   3.113   5.925
 9351SOL     OW28951   3.079   0.331   6.814
 9351SOL    HW128952   3.037   0.303   6.728
 9351SOL    HW228953   3.101   0.428   6.811
 9352SOL     OW28954   2.975   4.897   6.013
 9352SOL    HW128955   2.992   4.927   6.107
 9352SOL    HW228956   3.017   4.808   5.998
 9353SOL     OW28957   6.072   0.762   0.785
 9353SOL    HW128958   6.101   0.762   0.689
 9353SOL    HW228959   6.021   0.846   0.804
 9354SOL     OW28960   0.958   1.143   6.270
 9354SOL    HW128961   0.989   1.083   6.344
 9354SOL    HW228962   0.962   1.093   6.183
 9355SOL     OW28963   0.905   1.503   5.147
 9355SOL    HW128964   0.941   1.559   5.072
 9355SOL    HW228965   0.813   1.473   5.124
 9356SOL     OW28966   4.174   6.985   3.981
 9356SOL    HW128967   4.074   6.979   3.977
 9356SOL    HW228968   4.213   6.893   3.982
 9357SOL     OW28969   1.551   2.137   0.179
 9357SOL    HW128970   1.553   2.166   0.274
 9357SOL    HW228971   1.645   2.130   0.145
 9358SOL     OW28972   1.052   1.958   1.118
 9358SOL    HW128973   0.954   1.939   1.122
 9358SOL    HW228974   1.068   2.055   1.136
 9359SOL     OW28975   0.870   0.424   5.157
 9359SOL    HW128976   0.874   0.480   5.074
 9359SOL    HW228977   0.783   0.375   5.160
 9360SOL     OW28978   0.387   0.500   6.002
 9360SOL    HW128979   0.394   0.525   5.906
 9360SOL    HW228980   0.393   0.582   6.059
 9361SOL     OW28981   2.295   5.505   4.359
 9361SOL    HW128982   2.377   5.546   4.321
 9361SOL    HW228983   2.253   5.444   4.292
 9362SOL     OW28984   1.631   0.715   2.363
 9362SOL    HW128985   1.631   0.714   2.263
 9362SOL    HW228986   1.717   0.677   2.396
 9363SOL     OW28987   1.807   3.122   2.195
 9363SOL    HW128988   1.888   3.064   2.210
 9363SOL    HW228989   1.827   3.187   2.121
 9364SOL     OW28990   0.178   2.385   7.018
 9364SOL    HW128991   0.079   2.401   7.023
 9364SOL    HW228992   0.224   2.468   6.986
 9365SOL     OW28993   2.403   0.857   5.216
 9365SOL    HW128994   2.466   0.825   5.288
 9365SOL    HW228995   2.341   0.925   5.255
 9366SOL     OW28996   3.582   0.158   2.294
 9366SOL    HW128997   3.639   0.077   2.295
 9366SOL    HW228998   3.519   0.156   2.371
 9367SOL     OW28999   6.963   0.607   1.244
 9367SOL    HW129000   6.946   0.513   1.275
 9367SOL    HW229001   0.030   0.613   1.209
 9368SOL     OW29002   2.205   0.278   3.132
 9368SOL    HW129003   2.294   0.309   3.097
 9368SOL    HW229004   2.135   0.346   3.111
 9369SOL     OW29005   3.884   5.191   0.932
 9369SOL    HW129006   3.969   5.230   0.969
 9369SOL    HW229007   3.846   5.126   0.997
 9370SOL     OW29008   4.409   2.341   4.950
 9370SOL    HW129009   4.326   2.390   4.977
 9370SOL    HW229010   4.429   2.358   4.853
 9371SOL     OW29011   3.935   4.861   0.897
 9371SOL    HW129012   3.896   4.823   0.813
 9371SOL    HW229013   3.866   4.915   0.944
 9372SOL     OW29014   4.378   6.815   1.289
 9372SOL    HW129015   4.410   6.884   1.224
 9372SOL    HW229016   4.431   6.731   1.278
 9373SOL     OW29017   0.430   2.588   1.710
 9373SOL    HW129018   0.397   2.501   1.745
 9373SOL    HW229019   0.364   2.624   1.643
 9374SOL     OW29020   6.991   5.154   6.249
 9374SOL    HW129021   0.046   5.098   6.265
 9374SOL    HW229022   6.979   5.216   6.327
 9375SOL     OW29023   1.387   1.195   6.973
 9375SOL    HW129024   1.407   1.231   0.037
 9375SOL    HW229025   1.394   1.269   6.906
 9376SOL     OW29026   3.138   3.354   0.492
 9376SOL    HW129027   3.051   3.394   0.522
 9376SOL    HW229028   3.189   3.321   0.571
 9377SOL     OW29029   1.011   0.415   3.448
 9377SOL    HW129030   1.041   0.471   3.526
 9377SOL    HW229031   0.944   0.348   3.480
 9378SOL     OW29032   3.839   1.553   5.003
 9378SOL    HW129033   3.741   1.560   4.985
 9378SOL    HW229034   3.857   1.475   5.063
 9379SOL     OW29035   4.068   0.427   4.707
 9379SOL    HW129036   4.078   0.495   4.779
 9379SOL    HW229037   3.997   0.362   4.732
 9380SOL     OW29038   4.839   5.634   1.143
 9380SOL    HW129039   4.888   5.579   1.075
 9380SOL    HW229040   4.745   5.600   1.153
 9381SOL     OW29041   5.575   1.124   4.804
 9381SOL    HW129042   5.656   1.124   4.864
 9381SOL    HW229043   5.521   1.206   4.822
 9382SOL     OW29044   3.594   5.308   6.125
 9382SOL    HW129045   3.614   5.210   6.133
 9382SOL    HW229046   3.495   5.322   6.129
 9383SOL     OW29047   6.095   3.790   1.604
 9383SOL    HW129048   6.131   3.726   1.673
 9383SOL    HW229049   6.105   3.883   1.637
 9384SOL     OW29050   3.747   0.071   0.869
 9384SOL    HW129051   3.725   7.020   0.810
 9384SOL    HW229052   3.846   0.080   0.876
 9385SOL     OW29053   4.027   2.146   3.860
 9385SOL    HW129054   4.062   2.239   3.845
 9385SOL    HW229055   3.970   2.145   3.942
 9386SOL     OW29056   5.700   6.829   1.024
 9386SOL    HW129057   5.720   6.808   1.119
 9386SOL    HW229058   5.614   6.881   1.019
 9387SOL     OW29059   2.398   1.844   6.638
 9387SOL    HW129060   2.400   1.937   6.676
 9387SOL    HW229061   2.325   1.837   6.570
 9388SOL     OW29062   2.407   7.017   4.664
 9388SOL    HW129063   2.491   0.019   4.619
 9388SOL    HW229064   2.392   6.919   4.646
 9389SOL     OW29065   2.202   4.136   2.265
 9389SOL    HW129066   2.230   4.040   2.276
 9389SOL    HW229067   2.222   4.186   2.350
 9390SOL     OW29068   5.718   4.729   3.992
 9390SOL    HW129069   5.707   4.785   4.074
 9390SOL    HW229070   5.781   4.774   3.929
 9391SOL     OW29071   1.273   4.365   4.458
 9391SOL    HW129072   1.360   4.387   4.414
 9391SOL    HW229073   1.289   4.351   4.556
 9392SOL     OW29074   4.097   4.760   2.363
 9392SOL    HW129075   4.155   4.727   2.289
 9392SOL    HW229076   4.130   4.723   2.450
 9393SOL     OW29077   2.042   5.129   7.008
 9393SOL    HW129078   2.107   5.131   6.932
 9393SOL    HW229079   2.058   5.049   0.038
 9394SOL     OW29080   4.455   0.358   6.901
 9394SOL    HW129081   4.483   0.409   6.983
 9394SOL    HW229082   4.450   0.420   6.823
 9395SOL     OW29083   1.071   1.557   1.432
 9395SOL    HW129084   1.096   1.653   1.416
 9395SOL    HW229085   0.985   1.554   1.484
 9396SOL     OW29086   1.066   0.681   6.057
 9396SOL    HW129087   1.132   0.662   5.984
 9396SOL    HW229088   1.029   0.773   6.046
 9397SOL     OW29089   3.154   1.385   4.713
 9397SOL    HW129090   3.252   1.392   4.728
 9397SOL    HW229091   3.105   1.401   4.798
 9398SOL     OW29092   7.010   2.038   6.523
 9398SOL    HW129093   7.002   2.127   6.479
 9398SOL    HW229094   0.076   2.024   6.555
 9399SOL     OW29095   1.268   2.168   4.577
 9399SOL    HW129096   1.272   2.266   4.596
 9399SOL    HW229097   1.230   2.120   4.657
 9400SOL     OW29098   5.860   1.412   1.407
 9400SOL    HW129099   5.906   1.414   1.496
 9400SOL    HW229100   5.864   1.319   1.370
 9401SOL     OW29101   0.251   2.181   3.540
 9401SOL    HW129102   0.180   2.152   3.476
 9401SOL    HW229103   0.210   2.206   3.627
 9402SOL     OW29104   3.398   6.328   5.587
 9402SOL    HW129105   3.466   6.397   5.611
 9402SOL    HW229106   3.344   6.360   5.510
 9403SOL     OW29107   5.280   2.032   1.481
 9403SOL    HW129108   5.308   1.937   1.474
 9403SOL    HW229109   5.340   2.080   1.545
 9404SOL     OW29110   2.325   2.708   0.592
 9404SOL    HW129111   2.304   2.806   0.582
 9404SOL    HW229112   2.381   2.694   0.673
 9405SOL     OW29113   6.271   5.856   5.208
 9405SOL    HW129114   6.332   5.917   5.259
 9405SOL    HW229115   6.299   5.853   5.113
 9406SOL     OW29116   1.504   1.173   0.900
 9406SOL    HW129117   1.419   1.195   0.947
 9406SOL    HW229118   1.581   1.185   0.963
 9407SOL     OW29119   1.504   4.527   4.640
 9407SOL    HW129120   1.429   4.513   4.705
 9407SOL    HW229121   1.591   4.522   4.687
 9408SOL     OW29122   5.437   4.577   4.156
 9408SOL    HW129123   5.467   4.532   4.240
 9408SOL    HW229124   5.438   4.511   4.081
 9409SOL     OW29125   5.593   5.702   1.468
 9409SOL    HW129126   5.681   5.665   1.497
 9409SOL    HW229127   5.602   5.739   1.376
 9410SOL     OW29128   4.629   0.014   0.538
 9410SOL    HW129129   4.658   0.100   0.580
 9410SOL    HW229130   4.680   6.965   0.579
 9411SOL     OW29131   3.431   3.903   4.170
 9411SOL    HW129132   3.339   3.923   4.137
 9411SOL    HW229133   3.442   3.937   4.263
 9412SOL     OW29134   4.230   0.030   1.702
 9412SOL    HW129135   4.208   0.127   1.705
 9412SOL    HW229136   4.316   0.014   1.751
 9413SOL     OW29137   3.968   4.883   3.462
 9413SOL    HW129138   4.036   4.814   3.485
 9413SOL    HW229139   3.919   4.857   3.379
 9414SOL     OW29140   1.717   1.276   2.193
 9414SOL    HW129141   1.724   1.332   2.276
 9414SOL    HW229142   1.661   1.323   2.125
 9415SOL     OW29143   4.933   0.315   1.329
 9415SOL    HW129144   4.937   0.230   1.277
 9415SOL    HW229145   4.862   0.308   1.399
 9416SOL     OW29146   6.267   4.906   5.629
 9416SOL    HW129147   6.311   4.858   5.705
 9416SOL    HW229148   6.179   4.863   5.609
 9417SOL     OW29149   3.809   6.284   2.722
 9417SOL    HW129150   3.732   6.348   2.721
 9417SOL    HW229151   3.794   6.215   2.793
 9418SOL     OW29152   2.975   2.233   4.782
 9418SOL    HW129153   3.033   2.274   4.853
 9418SOL    HW229154   2.975   2.133   4.793
 9419SOL     OW29155   2.300   2.460   6.145
 9419SOL    HW129156   2.367   2.400   6.100
 9419SOL    HW229157   2.329   2.555   6.136
 9420SOL     OW29158   5.650   3.252   5.725
 9420SOL    HW129159   5.735   3.298   5.701
 9420SOL    HW229160   5.592   3.315   5.778
 9421SOL     OW29161   3.773   6.769   0.061
 9421SOL    HW129162   3.864   6.761   0.020
 9421SOL    HW229163   3.767   6.707   0.140
 9422SOL     OW29164   1.999   6.609   5.974
 9422SOL    HW129165   2.029   6.597   5.879
 9422SOL    HW229166   2.001   6.706   5.997
 9423SOL     OW29167   4.452   4.797   0.908
 9423SOL    HW129168   4.529   4.828   0.852
 9423SOL    HW229169   4.378   4.864   0.904
 9424SOL     OW29170   6.146   0.124   3.833
 9424SOL    HW129171   6.239   0.149   3.806
 9424SOL    HW229172   6.149   0.056   3.906
 9425SOL     OW29173   6.906   5.258   1.019
 9425SOL    HW129174   7.000   5.224   1.024
 9425SOL    HW229175   6.859   5.239   1.105
 9426SOL     OW29176   4.416   2.028   5.990
 9426SOL    HW129177   4.371   2.068   5.910
 9426SOL    HW229178   4.348   2.001   6.057
 9427SOL     OW29179   3.832   5.354   2.269
 9427SOL    HW129180   3.853   5.282   2.335
 9427SOL    HW229181   3.741   5.392   2.288
 9428SOL     OW29182   0.662   6.152   5.162
 9428SOL    HW129183   0.699   6.066   5.198
 9428SOL    HW229184   0.692   6.166   5.068
 9429SOL     OW29185   3.079   2.110   3.849
 9429SOL    HW129186   3.073   2.175   3.925
 9429SOL    HW229187   3.155   2.047   3.864
 9430SOL     OW29188   1.108   0.051   4.212
 9430SOL    HW129189   1.185   0.004   4.169
 9430SOL    HW229190   1.080   0.129   4.155
 9431SOL     OW29191   1.398   5.239   4.625
 9431SOL    HW129192   1.378   5.291   4.542
 9431SOL    HW229193   1.397   5.141   4.604
 9432SOL     OW29194   6.622   1.292   3.314
 9432SOL    HW129195   6.605   1.374   3.260
 9432SOL    HW229196   6.713   1.256   3.293
 9433SOL     OW29197   4.272   5.178   1.956
 9433SOL    HW129198   4.188   5.223   1.987
 9433SOL    HW229199   4.258   5.079   1.951
 9434SOL     OW29200   4.391   5.594   5.193
 9434SOL    HW129201   4.331   5.578   5.272
 9434SOL    HW229202   4.462   5.524   5.191
 9435SOL     OW29203   6.494   4.235   6.695
 9435SOL    HW129204   6.460   4.325   6.669
 9435SOL    HW229205   6.417   4.174   6.711
 9436SOL     OW29206   2.914   1.616   2.276
 9436SOL    HW129207   2.985   1.662   2.223
 9436SOL    HW229208   2.899   1.665   2.362
 9437SOL     OW29209   5.083   1.627   4.233
 9437SOL    HW129210   4.987   1.598   4.225
 9437SOL    HW229211   5.103   1.647   4.329
 9438SOL     OW29212   5.093   0.223   2.787
 9438SOL    HW129213   5.152   0.274   2.725
 9438SOL    HW229214   5.133   0.221   2.878
 9439SOL     OW29215   2.241   4.752   1.040
 9439SOL    HW129216   2.205   4.689   0.971
 9439SOL    HW229217   2.341   4.753   1.034
 9440SOL     OW29218   2.096   5.514   5.407
 9440SOL    HW129219   2.161   5.591   5.404
 9440SOL    HW229220   2.004   5.548   5.390
 9441SOL     OW29221   6.813   6.293   3.951
 9441SOL    HW129222   6.817   6.205   4.000
 9441SOL    HW229223   6.744   6.351   3.994
 9442SOL     OW29224   6.398   2.802   1.201
 9442SOL    HW129225   6.318   2.816   1.258
 9442SOL    HW229226   6.460   2.737   1.246
 9443SOL     OW29227   2.029   4.557   1.416
 9443SOL    HW129228   2.084   4.478   1.388
 9443SOL    HW229229   1.934   4.529   1.426
 9444SOL     OW29230   1.931   5.855   6.165
 9444SOL    HW129231   1.931   5.764   6.207
 9444SOL    HW229232   1.871   5.855   6.085
 9445SOL     OW29233   0.627   0.826   4.240
 9445SOL    HW129234   0.682   0.753   4.280
 9445SOL    HW229235   0.683   0.908   4.229
 9446SOL     OW29236   5.688   5.506   4.159
 9446SOL    HW129237   5.726   5.531   4.069
 9446SOL    HW229238   5.601   5.459   4.147
 9447SOL     OW29239   5.533   5.737   2.257
 9447SOL    HW129240   5.444   5.730   2.213
 9447SOL    HW229241   5.530   5.694   2.347
 9448SOL     OW29242   4.717   2.453   6.241
 9448SOL    HW129243   4.815   2.444   6.229
 9448SOL    HW229244   4.686   2.391   6.313
 9449SOL     OW29245   4.776   6.556   2.747
 9449SOL    HW129246   4.825   6.604   2.820
 9449SOL    HW229247   4.758   6.620   2.672
 9450SOL     OW29248   1.057   0.257   2.124
 9450SOL    HW129249   0.995   0.299   2.057
 9450SOL    HW229250   1.030   0.161   2.137
 9451SOL     OW29251   4.112   5.070   0.456
 9451SOL    HW129252   4.167   5.081   0.373
 9451SOL    HW229253   4.052   4.991   0.446
 9452SOL     OW29254   6.705   3.251   6.478
 9452SOL    HW129255   6.750   3.162   6.464
 9452SOL    HW229256   6.606   3.238   6.475
 9453SOL     OW29257   7.002   4.914   2.546
 9453SOL    HW129258   6.925   4.913   2.482
 9453SOL    HW229259   6.984   4.979   2.619
 9454SOL     OW29260   5.310   5.319   0.637
 9454SOL    HW129261   5.302   5.395   0.701
 9454SOL    HW229262   5.328   5.235   0.688
 9455SOL     OW29263   4.683   0.467   1.796
 9455SOL    HW129264   4.732   0.467   1.709
 9455SOL    HW229265   4.585   0.470   1.779
 9456SOL     OW29266   6.952   2.715   2.562
 9456SOL    HW129267   6.861   2.714   2.521
 9456SOL    HW229268   6.946   2.754   2.654
 9457SOL     OW29269   6.538   6.582   4.542
 9457SOL    HW129270   6.568   6.537   4.458
 9457SOL    HW229271   6.460   6.532   4.581
 9458SOL     OW29272   0.133   4.365   0.159
 9458SOL    HW129273   0.120   4.266   0.165
 9458SOL    HW229274   0.053   4.411   0.196
 9459SOL     OW29275   5.240   4.815   4.908
 9459SOL    HW129276   5.285   4.862   4.832
 9459SOL    HW229277   5.261   4.863   4.994
 9460SOL     OW29278   1.919   2.812   2.955
 9460SOL    HW129279   1.919   2.904   2.917
 9460SOL    HW229280   1.939   2.746   2.883
 9461SOL     OW29281   2.017   1.621   1.527
 9461SOL    HW129282   1.998   1.607   1.430
 9461SOL    HW229283   1.931   1.638   1.575
 9462SOL     OW29284   7.018   1.211   5.444
 9462SOL    HW129285   0.067   1.273   5.425
 9462SOL    HW229286   6.946   1.260   5.493
 9463SOL     OW29287   6.614   5.236   0.547
 9463SOL    HW129288   6.603   5.302   0.621
 9463SOL    HW229289   6.546   5.163   0.556
 9464SOL     OW29290   1.705   0.291   2.258
 9464SOL    HW129291   1.722   0.352   2.335
 9464SOL    HW229292   1.693   0.345   2.175
 9465SOL     OW29293   0.248   5.720   0.661
 9465SOL    HW129294   0.205   5.668   0.586
 9465SOL    HW229295   0.297   5.657   0.721
 9466SOL     OW29296   4.243   4.175   5.848
 9466SOL    HW129297   4.158   4.123   5.840
 9466SOL    HW229298   4.222   4.273   5.842
 9467SOL     OW29299   1.268   3.974   1.290
 9467SOL    HW129300   1.285   3.949   1.385
 9467SOL    HW229301   1.189   3.923   1.256
 9468SOL     OW29302   6.465   1.576   1.379
 9468SOL    HW129303   6.556   1.537   1.388
 9468SOL    HW229304   6.438   1.619   1.465
 9469SOL     OW29305   6.118   6.672   1.943
 9469SOL    HW129306   6.155   6.755   1.984
 9469SOL    HW229307   6.020   6.667   1.961
 9470SOL     OW29308   3.743   3.124   1.430
 9470SOL    HW129309   3.831   3.138   1.474
 9470SOL    HW229310   3.715   3.028   1.439
 9471SOL     OW29311   6.296   3.601   4.165
 9471SOL    HW129312   6.340   3.515   4.194
 9471SOL    HW229313   6.198   3.586   4.156
 9472SOL     OW29314   2.387   3.622   6.593
 9472SOL    HW129315   2.406   3.681   6.515
 9472SOL    HW229316   2.464   3.626   6.657
 9473SOL     OW29317   3.077   3.142   1.242
 9473SOL    HW129318   3.114   3.060   1.199
 9473SOL    HW229319   2.988   3.122   1.282
 9474SOL     OW29320   6.003   4.365   0.541
 9474SOL    HW129321   5.904   4.381   0.548
 9474SOL    HW229322   6.039   4.340   0.631
 9475SOL     OW29323   6.093   3.412   0.039
 9475SOL    HW129324   6.056   3.360   6.989
 9475SOL    HW229325   6.179   3.454   0.012
 9476SOL     OW29326   3.500   3.910   0.814
 9476SOL    HW129327   3.478   3.814   0.800
 9476SOL    HW229328   3.555   3.920   0.898
 9477SOL     OW29329   1.580   5.294   0.474
 9477SOL    HW129330   1.559   5.222   0.540
 9477SOL    HW229331   1.506   5.361   0.473
 9478SOL     OW29332   7.003   3.275   5.566
 9478SOL    HW129333   6.969   3.187   5.534
 9478SOL    HW229334   6.927   3.334   5.593
 9479SOL     OW29335   4.444   0.996   1.933
 9479SOL    HW129336   4.449   0.969   2.029
 9479SOL    HW229337   4.443   1.096   1.926
 9480SOL     OW29338   5.626   0.394   0.468
 9480SOL    HW129339   5.716   0.365   0.501
 9480SOL    HW229340   5.575   0.436   0.544
 9481SOL     OW29341   4.660   0.078   4.051
 9481SOL    HW129342   4.734   0.074   4.119
 9481SOL    HW229343   4.614   0.167   4.057
 9482SOL     OW29344   6.161   4.557   5.547
 9482SOL    HW129345   6.232   4.561   5.617
 9482SOL    HW229346   6.095   4.486   5.570
 9483SOL     OW29347   6.159   5.035   6.898
 9483SOL    HW129348   6.186   4.995   6.810
 9483SOL    HW229349   6.113   5.123   6.883
 9484SOL     OW29350   1.780   6.050   4.283
 9484SOL    HW129351   1.755   6.113   4.209
 9484SOL    HW229352   1.880   6.038   4.284
 9485SOL     OW29353   0.420   1.271   4.930
 9485SOL    HW129354   0.514   1.297   4.946
 9485SOL    HW229355   0.375   1.339   4.872
 9486SOL     OW29356   6.858   5.664   6.687
 9486SOL    HW129357   6.953   5.645   6.711
 9486SOL    HW229358   6.797   5.608   6.742
 9487SOL     OW29359   2.885   3.543   3.510
 9487SOL    HW129360   2.896   3.444   3.503
 9487SOL    HW229361   2.954   3.581   3.571
 9488SOL     OW29362   0.913   1.248   2.271
 9488SOL    HW129363   0.948   1.154   2.267
 9488SOL    HW229364   0.973   1.304   2.327
 9489SOL     OW29365   6.797   4.206   6.523
 9489SOL    HW129366   6.798   4.230   6.426
 9489SOL    HW229367   6.758   4.114   6.534
 9490SOL     OW29368   5.543   3.571   4.966
 9490SOL    HW129369   5.618   3.519   5.007
 9490SOL    HW229370   5.577   3.661   4.938
 9491SOL     OW29371   5.328   0.151   2.326
 9491SOL    HW129372   5.281   0.181   2.242
 9491SOL    HW229373   5.265   0.095   2.380
 9492SOL     OW29374   4.677   2.640   4.033
 9492SOL    HW129375   4.704   2.558   3.983
 9492SOL    HW229376   4.694   2.721   3.977
 9493SOL     OW29377   2.637   6.024   2.455
 9493SOL    HW129378   2.593   5.935   2.470
 9493SOL    HW229379   2.605   6.063   2.369
 9494SOL     OW29380   4.913   2.658   2.477
 9494SOL    HW129381   4.887   2.642   2.572
 9494SOL    HW229382   4.837   2.632   2.417
 9495SOL     OW29383   4.997   3.300   1.004
 9495SOL    HW129384   5.023   3.304   0.908
 9495SOL    HW229385   5.072   3.334   1.060
 9496SOL     OW29386   6.007   3.169   1.028
 9496SOL    HW129387   5.939   3.189   0.957
 9496SOL    HW229388   5.996   3.075   1.059
 9497SOL     OW29389   5.007   4.125   5.243
 9497SOL    HW129390   4.947   4.155   5.169
 9497SOL    HW229391   4.994   4.185   5.322
 9498SOL     OW29392   0.981   6.001   6.066
 9498SOL    HW129393   0.942   5.972   6.153
 9498SOL    HW229394   1.057   6.064   6.082
 9499SOL     OW29395   5.153   6.662   4.208
 9499SOL    HW129396   5.083   6.721   4.167
 9499SOL    HW229397   5.113   6.573   4.229
 9500SOL     OW29398   3.208   1.952   0.788
 9500SOL    HW129399   3.283   1.932   0.850
 9500SOL    HW229400   3.127   1.900   0.816
 9501SOL     OW29401   1.574   3.199   5.509
 9501SOL    HW129402   1.660   3.148   5.513
 9501SOL    HW229403   1.498   3.135   5.504
 9502SOL     OW29404   5.945   4.301   3.832
 9502SOL    HW129405   6.038   4.270   3.811
 9502SOL    HW229406   5.945   4.348   3.921
 9503SOL     OW29407   6.128   1.148   0.007
 9503SOL    HW129408   6.198   1.183   0.068
 9503SOL    HW229409   6.059   1.098   0.061
 9504SOL     OW29410   6.396   5.271   2.476
 9504SOL    HW129411   6.428   5.233   2.389
 9504SOL    HW229412   6.319   5.333   2.458
 9505SOL     OW29413   4.695   3.088   6.947
 9505SOL    HW129414   4.615   3.111   7.003
 9505SOL    HW229415   4.726   3.170   6.900
 9506SOL     OW29416   3.636   1.648   1.788
 9506SOL    HW129417   3.610   1.563   1.742
 9506SOL    HW229418   3.572   1.721   1.765
 9507SOL     OW29419   6.636   6.261   1.846
 9507SOL    HW129420   6.638   6.301   1.755
 9507SOL    HW229421   6.730   6.249   1.879
 9508SOL     OW29422   4.950   1.266   2.053
 9508SOL    HW129423   4.948   1.359   2.018
 9508SOL    HW229424   4.892   1.208   1.995
 9509SOL     OW29425   6.200   1.524   3.874
 9509SOL    HW129426   6.253   1.442   3.892
 9509SOL    HW229427   6.104   1.500   3.863
 9510SOL     OW29428   1.544   3.601   2.366
 9510SOL    HW129429   1.447   3.595   2.387
 9510SOL    HW229430   1.573   3.696   2.364
 9511SOL     OW29431   1.329   1.973   0.790
 9511SOL    HW129432   1.313   1.911   0.866
 9511SOL    HW229433   1.263   2.048   0.793
 9512SOL     OW29434   6.422   2.641   1.433
 9512SOL    HW129435   6.487   2.568   1.414
 9512SOL    HW229436   6.466   2.711   1.490
 9513SOL     OW29437   4.761   4.074   5.061
 9513SOL    HW129438   4.725   4.167   5.069
 9513SOL    HW229439   4.804   4.062   4.972
 9514SOL     OW29440   3.517   3.333   1.491
 9514SOL    HW129441   3.560   3.255   1.537
 9514SOL    HW229442   3.443   3.300   1.433
 9515SOL     OW29443   6.820   6.007   2.760
 9515SOL    HW129444   6.845   5.936   2.694
 9515SOL    HW229445   6.751   6.067   2.720
 9516SOL     OW29446   0.497   3.492   6.226
 9516SOL    HW129447   0.411   3.470   6.272
 9516SOL    HW229448   0.568   3.428   6.255
 9517SOL     OW29449   1.077   6.190   2.058
 9517SOL    HW129450   1.112   6.195   2.152
 9517SOL    HW229451   1.029   6.104   2.045
 9518SOL     OW29452   0.610   0.997   1.192
 9518SOL    HW129453   0.610   0.962   1.098
 9518SOL    HW229454   0.700   0.986   1.232
 9519SOL     OW29455   1.532   2.664   6.001
 9519SOL    HW129456   1.601   2.595   6.026
 9519SOL    HW229457   1.444   2.619   5.986
 9520SOL     OW29458   4.346   6.920   2.170
 9520SOL    HW129459   4.281   6.881   2.236
 9520SOL    HW229460   4.320   6.892   2.078
 9521SOL     OW29461   5.359   4.711   3.257
 9521SOL    HW129462   5.408   4.797   3.271
 9521SOL    HW229463   5.387   4.671   3.170
 9522SOL     OW29464   3.533   5.098   5.620
 9522SOL    HW129465   3.460   5.029   5.618
 9522SOL    HW229466   3.572   5.101   5.712
 9523SOL     OW29467   1.671   7.027   5.033
 9523SOL    HW129468   1.727   6.961   5.084
 9523SOL    HW229469   1.649   6.989   4.943
 9524SOL     OW29470   6.081   3.312   0.438
 9524SOL    HW129471   6.086   3.235   0.374
 9524SOL    HW229472   6.162   3.370   0.426
 9525SOL     OW29473   3.970   0.531   4.458
 9525SOL    HW129474   4.020   0.470   4.519
 9525SOL    HW229475   4.000   0.625   4.474
 9526SOL     OW29476   4.805   5.054   0.464
 9526SOL    HW129477   4.832   5.036   0.559
 9526SOL    HW229478   4.871   5.117   0.422
 9527SOL     OW29479   6.783   2.113   0.292
 9527SOL    HW129480   6.881   2.134   0.292
 9527SOL    HW229481   6.732   2.190   0.253
 9528SOL     OW29482   5.974   1.170   1.734
 9528SOL    HW129483   6.025   1.104   1.679
 9528SOL    HW229484   6.038   1.235   1.775
 9529SOL     OW29485   1.629   2.400   6.053
 9529SOL    HW129486   1.638   2.310   6.095
 9529SOL    HW229487   1.532   2.420   6.036
 9530SOL     OW29488   2.203   1.258   3.741
 9530SOL    HW129489   2.293   1.296   3.719
 9530SOL    HW229490   2.214   1.166   3.778
 9531SOL     OW29491   2.662   6.623   4.024
 9531SOL    HW129492   2.739   6.572   3.986
 9531SOL    HW229493   2.695   6.710   4.062
 9532SOL     OW29494   3.540   1.398   1.654
 9532SOL    HW129495   3.523   1.301   1.672
 9532SOL    HW229496   3.528   1.417   1.557
 9533SOL     OW29497   0.312   1.931   3.909
 9533SOL    HW129498   0.244   1.914   3.838
 9533SOL    HW229499   0.279   2.001   3.971
 9534SOL     OW29500   5.691   1.296   3.894
 9534SOL    HW129501   5.632   1.325   3.969
 9534SOL    HW229502   5.655   1.212   3.853
 9535SOL     OW29503   2.779   1.221   4.800
 9535SOL    HW129504   2.802   1.185   4.890
 9535SOL    HW229505   2.683   1.250   4.800
 9536SOL     OW29506   2.235   6.072   6.706
 9536SOL    HW129507   2.279   6.079   6.795
 9536SOL    HW229508   2.193   5.982   6.696
 9537SOL     OW29509   2.308   0.541   0.933
 9537SOL    HW129510   2.226   0.593   0.911
 9537SOL    HW229511   2.370   0.541   0.854
 9538SOL     OW29512   6.079   4.004   2.652
 9538SOL    HW129513   6.105   4.079   2.591
 9538SOL    HW229514   6.120   4.019   2.742
 9539SOL     OW29515   0.711   3.472   6.751
 9539SOL    HW129516   0.651   3.484   6.830
 9539SOL    HW229517   0.795   3.523   6.765
 9540SOL     OW29518   5.608   3.131   5.479
 9540SOL    HW129519   5.610   3.186   5.562
 9540SOL    HW229520   5.673   3.055   5.489
 9541SOL     OW29521   6.392   2.067   3.291
 9541SOL    HW129522   6.321   2.000   3.271
 9541SOL    HW229523   6.441   2.090   3.207
 9542SOL     OW29524   4.913   3.728   4.501
 9542SOL    HW129525   4.952   3.636   4.498
 9542SOL    HW229526   4.900   3.755   4.597
 9543SOL     OW29527   4.226   1.971   0.388
 9543SOL    HW129528   4.147   1.938   0.338
 9543SOL    HW229529   4.198   2.001   0.479
 9544SOL     OW29530   5.313   0.556   1.686
 9544SOL    HW129531   5.401   0.548   1.733
 9544SOL    HW229532   5.326   0.540   1.588
 9545SOL     OW29533   1.298   6.522   4.552
 9545SOL    HW129534   1.278   6.533   4.650
 9545SOL    HW229535   1.336   6.607   4.516
 9546SOL     OW29536   2.846   3.957   1.759
 9546SOL    HW129537   2.888   3.870   1.733
 9546SOL    HW229538   2.917   4.022   1.786
 9547SOL     OW29539   5.219   6.396   2.473
 9547SOL    HW129540   5.181   6.475   2.425
 9547SOL    HW229541   5.154   6.363   2.541
 9548SOL     OW29542   5.853   6.729   2.042
 9548SOL    HW129543   5.755   6.725   2.022
 9548SOL    HW229544   5.881   6.824   2.056
 9549SOL     OW29545   1.917   6.053   6.983
 9549SOL    HW129546   1.995   6.025   0.014
 9549SOL    HW229547   1.928   6.148   6.956
 9550SOL     OW29548   1.557   0.536   0.188
 9550SOL    HW129549   1.645   0.566   0.224
 9550SOL    HW229550   1.563   0.440   0.159
 9551SOL     OW29551   1.325   5.590   4.856
 9551SOL    HW129552   1.344   5.601   4.953
 9551SOL    HW229553   1.246   5.531   4.844
 9552SOL     OW29554   6.899   5.436   2.948
 9552SOL    HW129555   6.850   5.502   2.891
 9552SOL    HW229556   6.997   5.457   2.947
 9553SOL     OW29557   6.160   4.356   6.644
 9553SOL    HW129558   6.064   4.330   6.647
 9553SOL    HW229559   6.201   4.343   6.734
 9554SOL     OW29560   1.532   2.330   1.845
 9554SOL    HW129561   1.486   2.414   1.873
 9554SOL    HW229562   1.577   2.289   1.924
 9555SOL     OW29563   6.908   2.654   6.482
 9555SOL    HW129564   6.956   2.697   6.406
 9555SOL    HW229565   6.951   2.567   6.504
 9556SOL     OW29566   6.788   0.202   0.984
 9556SOL    HW129567   6.794   0.107   1.015
 9556SOL    HW229568   6.695   0.221   0.954
 9557SOL     OW29569   5.184   1.739   1.771
 9557SOL    HW129570   5.128   1.713   1.692
 9557SOL    HW229571   5.204   1.837   1.767
 9558SOL     OW29572   6.640   3.705   1.357
 9558SOL    HW129573   6.550   3.668   1.381
 9558SOL    HW229574   6.634   3.805   1.351
 9559SOL     OW29575   0.517   4.811   3.062
 9559SOL    HW129576   0.538   4.718   3.092
 9559SOL    HW229577   0.449   4.851   3.124
 9560SOL     OW29578   4.111   1.876   5.660
 9560SOL    HW129579   4.207   1.881   5.687
 9560SOL    HW229580   4.054   1.922   5.728
 9561SOL     OW29581   3.625   4.743   6.964
 9561SOL    HW129582   3.595   4.834   6.992
 9561SOL    HW229583   3.723   4.744   6.944
 9562SOL     OW29584   6.471   5.527   3.962
 9562SOL    HW129585   6.392   5.541   3.902
 9562SOL    HW229586   6.531   5.607   3.956
 9563SOL     OW29587   0.935   0.094   6.163
 9563SOL    HW129588   0.853   0.148   6.145
 9563SOL    HW229589   0.972   0.120   6.253
 9564SOL     OW29590   0.737   0.270   6.048
 9564SOL    HW129591   0.656   0.211   6.056
 9564SOL    HW229592   0.733   0.320   5.961
 9565SOL     OW29593   2.765   5.450   5.069
 9565SOL    HW129594   2.705   5.377   5.104
 9565SOL    HW229595   2.709   5.522   5.029
 9566SOL     OW29596   2.653   6.111   4.934
 9566SOL    HW129597   2.727   6.059   4.891
 9566SOL    HW229598   2.575   6.116   4.872
 9567SOL     OW29599   5.953   5.604   4.520
 9567SOL    HW129600   5.881   5.543   4.485
 9567SOL    HW229601   5.917   5.698   4.526
 9568SOL     OW29602   5.712   3.392   5.350
 9568SOL    HW129603   5.686   3.296   5.361
 9568SOL    HW229604   5.657   3.448   5.411
 9569SOL     OW29605   5.050   6.908   1.441
 9569SOL    HW129606   5.056   6.832   1.377
 9569SOL    HW229607   5.121   6.975   1.421
 9570SOL     OW29608   0.459   2.435   6.765
 9570SOL    HW129609   0.435   2.462   6.672
 9570SOL    HW229610   0.406   2.489   6.830
 9571SOL     OW29611   3.687   1.811   0.697
 9571SOL    HW129612   3.674   1.910   0.692
 9571SOL    HW229613   3.621   1.772   0.762
 9572SOL     OW29614   0.781   3.482   0.688
 9572SOL    HW129615   0.745   3.513   0.776
 9572SOL    HW229616   0.826   3.394   0.700
 9573SOL     OW29617   5.233   2.035   1.915
 9573SOL    HW129618   5.264   1.982   1.993
 9573SOL    HW229619   5.159   2.096   1.943
 9574SOL     OW29620   1.974   1.555   3.967
 9574SOL    HW129621   2.024   1.545   3.881
 9574SOL    HW229622   2.023   1.508   4.040
 9575SOL     OW29623   3.364   1.529   2.526
 9575SOL    HW129624   3.272   1.493   2.509
 9575SOL    HW229625   3.396   1.497   2.616
 9576SOL     OW29626   4.042   3.236   6.125
 9576SOL    HW129627   4.035   3.269   6.031
 9576SOL    HW229628   4.085   3.305   6.183
 9577SOL     OW29629   0.384   5.467   3.798
 9577SOL    HW129630   0.425   5.376   3.788
 9577SOL    HW229631   0.454   5.532   3.827
 9578SOL     OW29632   6.731   4.302   1.264
 9578SOL    HW129633   6.773   4.257   1.185
 9578SOL    HW229634   6.657   4.362   1.233
 9579SOL     OW29635   1.347   4.604   2.807
 9579SOL    HW129636   1.251   4.591   2.833
 9579SOL    HW229637   1.363   4.701   2.787
 9580SOL     OW29638   3.908   4.184   5.154
 9580SOL    HW129639   3.814   4.205   5.183
 9580SOL    HW229640   3.921   4.214   5.060
 9581SOL     OW29641   1.330   0.096   6.677
 9581SOL    HW129642   1.317   0.033   6.754
 9581SOL    HW229643   1.319   0.046   6.591
 9582SOL     OW29644   4.219   6.099   3.572
 9582SOL    HW129645   4.317   6.091   3.592
 9582SOL    HW229646   4.172   6.138   3.652
 9583SOL     OW29647   1.257   4.915   2.315
 9583SOL    HW129648   1.356   4.923   2.319
 9583SOL    HW229649   1.231   4.847   2.246
 9584SOL     OW29650   5.344   4.259   6.836
 9584SOL    HW129651   5.398   4.271   6.919
 9584SOL    HW229652   5.400   4.215   6.766
 9585SOL     OW29653   6.098   1.465   2.668
 9585SOL    HW129654   6.049   1.406   2.732
 9585SOL    HW229655   6.106   1.419   2.579
 9586SOL     OW29656   4.662   4.266   2.663
 9586SOL    HW129657   4.585   4.314   2.705
 9586SOL    HW229658   4.661   4.282   2.564
 9587SOL     OW29659   4.401   6.296   1.609
 9587SOL    HW129660   4.394   6.299   1.708
 9587SOL    HW229661   4.315   6.327   1.569
 9588SOL     OW29662   5.982   1.440   3.553
 9588SOL    HW129663   5.985   1.395   3.463
 9588SOL    HW229664   6.045   1.517   3.553
 9589SOL     OW29665   4.176   2.017   5.239
 9589SOL    HW129666   4.080   2.022   5.211
 9589SOL    HW229667   4.226   1.955   5.179
 9590SOL     OW29668   0.294   4.922   4.493
 9590SOL    HW129669   0.333   4.836   4.459
 9590SOL    HW229670   0.354   4.960   4.564
 9591SOL     OW29671   6.758   4.360   2.204
 9591SOL    HW129672   6.770   4.363   2.303
 9591SOL    HW229673   6.699   4.436   2.175
 9592SOL     OW29674   4.128   5.490   0.506
 9592SOL    HW129675   4.058   5.561   0.507
 9592SOL    HW229676   4.084   5.400   0.505
 9593SOL     OW29677   1.885   2.526   3.824
 9593SOL    HW129678   1.970   2.564   3.787
 9593SOL    HW229679   1.812   2.594   3.817
 9594SOL     OW29680   5.645   0.350   0.823
 9594SOL    HW129681   5.621   0.427   0.764
 9594SOL    HW229682   5.708   0.381   0.894
 9595SOL     OW29683   2.443   5.149   5.618
 9595SOL    HW129684   2.515   5.217   5.603
 9595SOL    HW229685   2.358   5.181   5.577
 9596SOL     OW29686   5.356   5.083   2.275
 9596SOL    HW129687   5.387   5.070   2.369
 9596SOL    HW229688   5.412   5.154   2.231
 9597SOL     OW29689   1.912   4.377   2.010
 9597SOL    HW129690   1.822   4.336   1.995
 9597SOL    HW229691   1.933   4.377   2.108
 9598SOL     OW29692   0.733   6.157   5.595
 9598SOL    HW129693   0.816   6.192   5.639
 9598SOL    HW229694   0.653   6.201   5.635
 9599SOL     OW29695   3.726   2.114   5.529
 9599SOL    HW129696   3.630   2.106   5.501
 9599SOL    HW229697   3.777   2.035   5.494
 9600SOL     OW29698   1.505   5.747   6.936
 9600SOL    HW129699   1.509   5.647   6.946
 9600SOL    HW229700   1.595   5.782   6.912
 9601SOL     OW29701   1.396   6.701   4.765
 9601SOL    HW129702   1.363   6.659   4.850
 9601SOL    HW229703   1.363   6.795   4.759
 9602SOL     OW29704   1.322   5.783   6.173
 9602SOL    HW129705   1.311   5.734   6.260
 9602SOL    HW229706   1.277   5.733   6.100
 9603SOL     OW29707   1.258   5.421   1.981
 9603SOL    HW129708   1.215   5.359   1.916
 9603SOL    HW229709   1.354   5.396   1.993
 9604SOL     OW29710   0.054   0.337   6.079
 9604SOL    HW129711   0.071   0.244   6.049
 9604SOL    HW229712   0.124   0.398   6.042
 9605SOL     OW29713   3.642   4.532   1.001
 9605SOL    HW129714   3.550   4.534   1.041
 9605SOL    HW229715   3.672   4.626   0.984
 9606SOL     OW29716   6.819   1.731   4.946
 9606SOL    HW129717   6.853   1.807   4.890
 9606SOL    HW229718   6.824   1.647   4.893
 9607SOL     OW29719   6.876   2.963   3.679
 9607SOL    HW129720   6.822   2.965   3.763
 9607SOL    HW229721   6.854   2.880   3.628
 9608SOL     OW29722   5.930   0.901   1.142
 9608SOL    HW129723   5.913   0.826   1.206
 9608SOL    HW229724   5.888   0.879   1.054
 9609SOL     OW29725   1.291   2.069   4.336
 9609SOL    HW129726   1.377   2.118   4.327
 9609SOL    HW229727   1.246   2.095   4.422
 9610SOL     OW29728   5.186   0.954   6.008
 9610SOL    HW129729   5.159   0.977   5.914
 9610SOL    HW229730   5.259   1.015   6.037
 9611SOL     OW29731   4.508   5.824   1.463
 9611SOL    HW129732   4.564   5.787   1.538
 9611SOL    HW229733   4.425   5.768   1.453
 9612SOL     OW29734   5.179   3.824   3.780
 9612SOL    HW129735   5.257   3.809   3.720
 9612SOL    HW229736   5.150   3.920   3.774
 9613SOL     OW29737   5.522   0.850   4.839
 9613SOL    HW129738   5.542   0.946   4.820
 9613SOL    HW229739   5.531   0.833   4.937
 9614SOL     OW29740   3.191   2.283   0.405
 9614SOL    HW129741   3.123   2.312   0.338
 9614SOL    HW229742   3.192   2.348   0.481
 9615SOL     OW29743   6.479   6.209   3.577
 9615SOL    HW129744   6.523   6.226   3.490
 9615SOL    HW229745   6.380   6.204   3.564
 9616SOL     OW29746   0.392   2.198   1.094
 9616SOL    HW129747   0.430   2.290   1.096
 9616SOL    HW229748   0.410   2.153   1.182
 9617SOL     OW29749   0.283   3.439   3.597
 9617SOL    HW129750   0.306   3.536   3.611
 9617SOL    HW229751   0.308   3.387   3.678
 9618SOL     OW29752   5.214   4.084   2.391
 9618SOL    HW129753   5.276   4.042   2.325
 9618SOL    HW229754   5.150   4.144   2.344
 9619SOL     OW29755   1.298   0.642   1.158
 9619SOL    HW129756   1.374   0.698   1.125
 9619SOL    HW229757   1.247   0.693   1.228
 9620SOL     OW29758   4.114   0.848   6.356
 9620SOL    HW129759   4.075   0.859   6.265
 9620SOL    HW229760   4.212   0.830   6.348
 9621SOL     OW29761   6.497   1.510   1.013
 9621SOL    HW129762   6.412   1.471   1.049
 9621SOL    HW229763   6.574   1.480   1.069
 9622SOL     OW29764   6.753   6.616   4.711
 9622SOL    HW129765   6.670   6.589   4.663
 9622SOL    HW229766   6.740   6.604   4.810
 9623SOL     OW29767   2.432   6.062   6.077
 9623SOL    HW129768   2.338   6.035   6.100
 9623SOL    HW229769   2.474   6.107   6.156
 9624SOL     OW29770   4.287   4.520   6.657
 9624SOL    HW129771   4.297   4.470   6.743
 9624SOL    HW229772   4.288   4.619   6.675
 9625SOL     OW29773   5.332   4.754   6.046
 9625SOL    HW129774   5.338   4.848   6.079
 9625SOL    HW229775   5.317   4.692   6.124
 9626SOL     OW29776   2.648   2.728   6.439
 9626SOL    HW129777   2.572   2.740   6.376
 9626SOL    HW229778   2.707   2.809   6.436
 9627SOL     OW29779   6.558   6.012   0.568
 9627SOL    HW129780   6.593   6.103   0.590
 9627SOL    HW229781   6.485   6.020   0.500
 9628SOL     OW29782   6.112   1.521   5.301
 9628SOL    HW129783   6.028   1.549   5.347
 9628SOL    HW229784   6.189   1.530   5.364
 9629SOL     OW29785   0.612   5.573   4.184
 9629SOL    HW129786   0.612   5.515   4.266
 9629SOL    HW229787   0.589   5.667   4.210
 9630SOL     OW29788   6.299   0.137   6.118
 9630SOL    HW129789   6.340   0.203   6.055
 9630SOL    HW229790   6.321   0.044   6.087
 9631SOL     OW29791   4.796   5.757   0.109
 9631SOL    HW129792   4.858   5.828   0.142
 9631SOL    HW229793   4.791   5.761   0.009
 9632SOL     OW29794   2.975   5.478   2.395
 9632SOL    HW129795   2.928   5.449   2.478
 9632SOL    HW229796   3.064   5.434   2.390
 9633SOL     OW29797   3.191   3.123   5.255
 9633SOL    HW129798   3.185   3.204   5.195
 9633SOL    HW229799   3.263   3.136   5.322
 9634SOL     OW29800   6.234   4.640   2.628
 9634SOL    HW129801   6.242   4.654   2.529
 9634SOL    HW229802   6.293   4.705   2.676
 9635SOL     OW29803   0.895   5.529   4.122
 9635SOL    HW129804   0.904   5.597   4.050
 9635SOL    HW229805   0.800   5.523   4.151
 9636SOL     OW29806   5.448   3.496   3.864
 9636SOL    HW129807   5.396   3.559   3.922
 9636SOL    HW229808   5.385   3.448   3.802
 9637SOL     OW29809   2.924   2.628   6.321
 9637SOL    HW129810   2.945   2.698   6.390
 9637SOL    HW229811   2.931   2.537   6.363
 9638SOL     OW29812   0.556   4.410   5.772
 9638SOL    HW129813   0.498   4.414   5.853
 9638SOL    HW229814   0.542   4.492   5.717
 9639SOL     OW29815   5.376   3.100   1.653
 9639SOL    HW129816   5.307   3.119   1.583
 9639SOL    HW229817   5.335   3.047   1.727
 9640SOL     OW29818   3.104   7.004   3.281
 9640SOL    HW129819   3.180   6.950   3.245
 9640SOL    HW229820   3.091   6.982   3.378
 9641SOL     OW29821   0.793   2.636   4.577
 9641SOL    HW129822   0.861   2.664   4.509
 9641SOL    HW229823   0.714   2.595   4.531
 9642SOL     OW29824   0.696   2.771   5.155
 9642SOL    HW129825   0.755   2.690   5.155
 9642SOL    HW229826   0.679   2.799   5.250
 9643SOL     OW29827   6.357   5.459   4.574
 9643SOL    HW129828   6.410   5.519   4.515
 9643SOL    HW229829   6.299   5.513   4.635
 9644SOL     OW29830   0.529   4.660   3.441
 9644SOL    HW129831   0.448   4.696   3.394
 9644SOL    HW229832   0.502   4.626   3.531
 9645SOL     OW29833   1.096   4.725   0.413
 9645SOL    HW129834   1.111   4.635   0.371
 9645SOL    HW229835   1.151   4.793   0.365
 9646SOL     OW29836   2.850   4.732   0.621
 9646SOL    HW129837   2.840   4.650   0.676
 9646SOL    HW229838   2.805   4.719   0.532
 9647SOL     OW29839   5.595   0.191   2.952
 9647SOL    HW129840   5.519   0.210   3.014
 9647SOL    HW229841   5.558   0.165   2.862
 9648SOL     OW29842   3.655   2.440   1.065
 9648SOL    HW129843   3.728   2.429   1.133
 9648SOL    HW229844   3.599   2.357   1.064
 9649SOL     OW29845   0.021   6.134   0.742
 9649SOL    HW129846   0.031   6.203   0.813
 9649SOL    HW229847   0.110   6.091   0.725
 9650SOL     OW29848   0.303   5.475   5.181
 9650SOL    HW129849   0.309   5.399   5.115
 9650SOL    HW229850   0.319   5.561   5.133
 9651SOL     OW29851   3.936   1.338   6.725
 9651SOL    HW129852   3.917   1.367   6.818
 9651SOL    HW229853   3.879   1.391   6.661
 9652SOL     OW29854   0.117   3.769   0.578
 9652SOL    HW129855   0.078   3.841   0.520
 9652SOL    HW229856   0.077   3.775   0.670
 9653SOL     OW29857   5.552   3.830   5.176
 9653SOL    HW129858   5.493   3.753   5.152
 9653SOL    HW229859   5.610   3.854   5.098
 9654SOL     OW29860   4.025   3.229   4.575
 9654SOL    HW129861   4.027   3.273   4.485
 9654SOL    HW229862   4.074   3.286   4.641
 9655SOL     OW29863   4.862   0.219   0.981
 9655SOL    HW129864   4.839   0.317   0.979
 9655SOL    HW229865   4.792   0.170   1.033
 9656SOL     OW29866   5.454   4.719   5.802
 9656SOL    HW129867   5.403   4.719   5.889
 9656SOL    HW229868   5.521   4.794   5.803
 9657SOL     OW29869   5.001   5.339   2.946
 9657SOL    HW129870   5.006   5.374   3.039
 9657SOL    HW229871   5.002   5.239   2.947
 9658SOL     OW29872   5.251   0.764   2.900
 9658SOL    HW129873   5.217   0.792   2.810
 9658SOL    HW229874   5.201   0.813   2.971
 9659SOL     OW29875   3.658   2.824   0.595
 9659SOL    HW129876   3.569   2.819   0.639
 9659SOL    HW229877   3.714   2.746   0.622
 9660SOL     OW29878   2.925   6.729   1.550
 9660SOL    HW129879   2.921   6.783   1.634
 9660SOL    HW229880   2.840   6.677   1.539
 9661SOL     OW29881   4.111   3.703   2.293
 9661SOL    HW129882   4.089   3.623   2.348
 9661SOL    HW229883   4.174   3.762   2.344
 9662SOL     OW29884   4.359   0.643   4.929
 9662SOL    HW129885   4.288   0.597   4.982
 9662SOL    HW229886   4.442   0.651   4.983
 9663SOL     OW29887   1.362   5.955   2.676
 9663SOL    HW129888   1.270   5.994   2.675
 9663SOL    HW229889   1.429   6.027   2.688
 9664SOL     OW29890   2.167   4.414   3.334
 9664SOL    HW129891   2.153   4.437   3.431
 9664SOL    HW229892   2.123   4.483   3.277
 9665SOL     OW29893   6.190   3.770   6.213
 9665SOL    HW129894   6.180   3.671   6.204
 9665SOL    HW229895   6.286   3.793   6.230
 9666SOL     OW29896   5.109   4.234   0.745
 9666SOL    HW129897   5.029   4.280   0.708
 9666SOL    HW229898   5.082   4.175   0.821
 9667SOL     OW29899   6.057   6.423   6.559
 9667SOL    HW129900   6.083   6.404   6.464
 9667SOL    HW229901   6.110   6.501   6.592
 9668SOL     OW29902   2.303   0.015   0.029
 9668SOL    HW129903   2.274   6.970   6.994
 9668SOL    HW229904   2.324   0.098   7.003
 9669SOL     OW29905   3.428   6.997   0.384
 9669SOL    HW129906   3.400   6.901   0.385
 9669SOL    HW229907   3.518   7.005   0.341
 9670SOL     OW29908   0.747   7.007   2.409
 9670SOL    HW129909   0.838   7.005   2.368
 9670SOL    HW229910   0.678   7.014   2.338
 9671SOL     OW29911   0.904   6.465   6.355
 9671SOL    HW129912   0.967   6.492   6.283
 9671SOL    HW229913   0.920   6.369   6.378
 9672SOL     OW29914   0.865   4.615   5.033
 9672SOL    HW129915   0.937   4.638   5.098
 9672SOL    HW229916   0.898   4.629   4.940
 9673SOL     OW29917   2.085   3.082   5.735
 9673SOL    HW129918   2.112   3.106   5.642
 9673SOL    HW229919   2.043   3.161   5.780
 9674SOL     OW29920   1.558   0.101   3.523
 9674SOL    HW129921   1.535   0.167   3.594
 9674SOL    HW229922   1.604   0.022   3.564
 9675SOL     OW29923   5.887   4.056   6.011
 9675SOL    HW129924   5.941   4.137   6.034
 9675SOL    HW229925   5.946   3.975   6.012
 9676SOL     OW29926   0.778   3.056   6.044
 9676SOL    HW129927   0.842   3.129   6.019
 9676SOL    HW229928   0.727   3.084   6.126
 9677SOL     OW29929   0.594   4.957   2.684
 9677SOL    HW129930   0.496   4.952   2.704
 9677SOL    HW229931   0.645   4.962   2.770
 9678SOL     OW29932   4.732   3.023   6.148
 9678SOL    HW129933   4.766   2.977   6.065
 9678SOL    HW229934   4.644   2.983   6.173
 9679SOL     OW29935   1.336   1.261   4.711
 9679SOL    HW129936   1.407   1.308   4.763
 9679SOL    HW229937   1.378   1.195   4.649
 9680SOL     OW29938   4.516   0.161   2.342
 9680SOL    HW129939   4.503   0.235   2.408
 9680SOL    HW229940   4.562   0.085   2.387
 9681SOL     OW29941   0.300   2.957   1.451
 9681SOL    HW129942   0.219   3.004   1.484
 9681SOL    HW229943   0.382   2.996   1.494
 9682SOL     OW29944   3.729   6.458   5.356
 9682SOL    HW129945   3.707   6.410   5.271
 9682SOL    HW229946   3.812   6.512   5.344
 9683SOL     OW29947   3.390   5.751   3.688
 9683SOL    HW129948   3.364   5.834   3.739
 9683SOL    HW229949   3.476   5.715   3.724
 9684SOL     OW29950   0.997   2.602   6.419
 9684SOL    HW129951   1.022   2.647   6.333
 9684SOL    HW229952   1.077   2.597   6.479
 9685SOL     OW29953   3.663   4.359   1.711
 9685SOL    HW129954   3.635   4.438   1.765
 9685SOL    HW229955   3.585   4.328   1.655
 9686SOL     OW29956   0.711   1.799   5.997
 9686SOL    HW129957   0.805   1.768   6.013
 9686SOL    HW229958   0.670   1.744   5.924
 9687SOL     OW29959   5.551   0.650   3.953
 9687SOL    HW129960   5.519   0.556   3.946
 9687SOL    HW229961   5.480   0.706   3.997
 9688SOL     OW29962   0.636   5.251   2.451
 9688SOL    HW129963   0.661   5.293   2.539
 9688SOL    HW229964   0.633   5.322   2.381
 9689SOL     OW29965   1.948   5.489   1.312
 9689SOL    HW129966   2.014   5.468   1.384
 9689SOL    HW229967   1.903   5.405   1.282
 9690SOL     OW29968   6.258   4.757   4.699
 9690SOL    HW129969   6.340   4.813   4.705
 9690SOL    HW229970   6.279   4.663   4.726
 9691SOL     OW29971   3.844   3.396   2.321
 9691SOL    HW129972   3.833   3.494   2.336
 9691SOL    HW229973   3.770   3.347   2.368
 9692SOL     OW29974   5.656   4.821   0.504
 9692SOL    HW129975   5.745   4.868   0.498
 9692SOL    HW229976   5.666   4.740   0.562
 9693SOL     OW29977   4.528   3.248   6.487
 9693SOL    HW129978   4.602   3.192   6.525
 9693SOL    HW229979   4.440   3.208   6.511
 9694SOL     OW29980   2.938   6.406   0.842
 9694SOL    HW129981   3.004   6.443   0.776
 9694SOL    HW229982   2.913   6.313   0.815
 9695SOL     OW29983   2.017   2.738   3.567
 9695SOL    HW129984   2.092   2.752   3.631
 9695SOL    HW229985   2.048   2.684   3.489
 9696SOL     OW29986   4.831   3.840   3.279
 9696SOL    HW129987   4.838   3.917   3.343
 9696SOL    HW229988   4.843   3.754   3.329
 9697SOL     OW29989   6.497   7.022   2.038
 9697SOL    HW129990   6.580   6.999   1.988
 9697SOL    HW229991   6.508   7.000   2.135
 9698SOL     OW29992   6.822   3.142   1.581
 9698SOL    HW129993   6.762   3.175   1.653
 9698SOL    HW229994   6.774   3.147   1.493
 9699SOL     OW29995   1.672   6.884   2.265
 9699SOL    HW129996   1.651   6.798   2.220
 9699SOL    HW229997   1.711   6.948   2.198
 9700SOL     OW29998   6.357   0.502   5.600
 9700SOL    HW129999   6.388   0.494   5.505
 9700SOL    HW230000   6.431   0.478   5.662
 9701SOL     OW30001   5.610   3.705   6.821
 9701SOL    HW130002   5.601   3.640   6.897
 9701SOL    HW230003   5.675   3.670   6.755
 9702SOL     OW30004   3.037   3.742   1.766
 9702SOL    HW130005   3.055   3.680   1.690
 9702SOL    HW230006   2.973   3.699   1.830
 9703SOL     OW30007   6.751   5.210   2.904
 9703SOL    HW130008   6.786   5.120   2.928
 9703SOL    HW230009   6.821   5.279   2.924
 9704SOL     OW30010   0.752   4.592   2.337
 9704SOL    HW130011   0.697   4.535   2.399
 9704SOL    HW230012   0.694   4.622   2.261
 9705SOL     OW30013   6.845   4.061   5.915
 9705SOL    HW130014   6.933   4.027   5.949
 9705SOL    HW230015   6.835   4.036   5.819
 9706SOL     OW30016   0.818   6.651   1.988
 9706SOL    HW130017   0.787   6.642   2.082
 9706SOL    HW230018   0.909   6.692   1.986
 9707SOL     OW30019   1.428   5.125   2.153
 9707SOL    HW130020   1.425   5.154   2.249
 9707SOL    HW230021   1.462   5.199   2.096
 9708SOL     OW30022   2.976   1.116   1.735
 9708SOL    HW130023   3.032   1.182   1.784
 9708SOL    HW230024   2.888   1.158   1.711
 9709SOL     OW30025   4.395   1.593   2.141
 9709SOL    HW130026   4.484   1.549   2.130
 9709SOL    HW230027   4.327   1.526   2.171
 9710SOL     OW30028   4.737   4.421   4.237
 9710SOL    HW130029   4.808   4.426   4.167
 9710SOL    HW230030   4.650   4.453   4.199
 9711SOL     OW30031   2.824   0.314   0.128
 9711SOL    HW130032   2.765   0.327   0.049
 9711SOL    HW230033   2.919   0.331   0.101
 9712SOL     OW30034   4.980   6.799   5.258
 9712SOL    HW130035   5.057   6.860   5.277
 9712SOL    HW230036   4.908   6.851   5.211
 9713SOL     OW30037   1.031   0.708   2.990
 9713SOL    HW130038   1.057   0.790   3.041
 9713SOL    HW230039   0.948   0.727   2.937
 9714SOL     OW30040   2.294   2.592   4.084
 9714SOL    HW130041   2.300   2.683   4.125
 9714SOL    HW230042   2.386   2.561   4.058
 9715SOL     OW30043   0.215   1.793   6.453
 9715SOL    HW130044   0.118   1.776   6.434
 9715SOL    HW230045   0.271   1.745   6.385
 9716SOL     OW30046   1.731   6.401   0.770
 9716SOL    HW130047   1.690   6.389   0.861
 9716SOL    HW230048   1.752   6.497   0.755
 9717SOL     OW30049   4.476   2.284   6.044
 9717SOL    HW130050   4.472   2.185   6.031
 9717SOL    HW230051   4.415   2.311   6.118
 9718SOL     OW30052   3.112   1.959   6.556
 9718SOL    HW130053   3.041   1.892   6.533
 9718SOL    HW230054   3.070   2.040   6.596
 9719SOL     OW30055   3.963   0.208   5.310
 9719SOL    HW130056   4.018   0.250   5.382
 9719SOL    HW230057   3.903   0.277   5.269
 9720SOL     OW30058   2.119   2.681   1.946
 9720SOL    HW130059   2.095   2.585   1.960
 9720SOL    HW230060   2.138   2.696   1.848
 9721SOL     OW30061   0.782   2.209   1.439
 9721SOL    HW130062   0.709   2.276   1.446
 9721SOL    HW230063   0.862   2.243   1.489
 9722SOL     OW30064   3.203   2.976   5.720
 9722SOL    HW130065   3.186   2.907   5.650
 9722SOL    HW230066   3.115   3.014   5.751
 9723SOL     OW30067   5.655   0.666   5.261
 9723SOL    HW130068   5.667   0.660   5.360
 9723SOL    HW230069   5.680   0.578   5.219
 9724SOL     OW30070   2.021   5.039   1.318
 9724SOL    HW130071   2.013   4.946   1.282
 9724SOL    HW230072   2.114   5.072   1.305
 9725SOL     OW30073   5.345   5.445   4.185
 9725SOL    HW130074   5.389   5.408   4.103
 9725SOL    HW230075   5.257   5.401   4.198
 9726SOL     OW30076   6.925   0.264   3.378
 9726SOL    HW130077   7.004   0.258   3.439
 9726SOL    HW230078   6.871   0.181   3.385
 9727SOL     OW30079   6.524   2.836   1.581
 9727SOL    HW130080   6.524   2.932   1.553
 9727SOL    HW230081   6.484   2.828   1.672
 9728SOL     OW30082   6.045   1.824   5.084
 9728SOL    HW130083   5.948   1.832   5.062
 9728SOL    HW230084   6.083   1.743   5.039
 9729SOL     OW30085   0.120   3.824   2.552
 9729SOL    HW130086   0.149   3.918   2.536
 9729SOL    HW230087   0.036   3.806   2.502
 9730SOL     OW30088   0.671   5.819   3.576
 9730SOL    HW130089   0.753   5.876   3.568
 9730SOL    HW230090   0.642   5.789   3.485
 9731SOL     OW30091   6.704   1.763   1.471
 9731SOL    HW130092   6.698   1.861   1.489
 9731SOL    HW230093   6.798   1.739   1.447
 9732SOL     OW30094   0.130   2.607   3.487
 9732SOL    HW130095   0.121   2.693   3.537
 9732SOL    HW230096   0.087   2.617   3.397
 9733SOL     OW30097   5.625   5.690   0.483
 9733SOL    HW130098   5.583   5.706   0.572
 9733SOL    HW230099   5.723   5.675   0.495
 9734SOL     OW30100   3.937   3.812   0.051
 9734SOL    HW130101   3.965   3.763   6.996
 9734SOL    HW230102   3.899   3.748   0.117
 9735SOL     OW30103   1.175   1.555   0.451
 9735SOL    HW130104   1.252   1.613   0.476
 9735SOL    HW230105   1.122   1.600   0.379
 9736SOL     OW30106   5.159   2.046   5.715
 9736SOL    HW130107   5.186   1.951   5.706
 9736SOL    HW230108   5.204   2.087   5.794
 9737SOL     OW30109   5.278   3.350   4.885
 9737SOL    HW130110   5.353   3.390   4.833
 9737SOL    HW230111   5.196   3.406   4.875
 9738SOL     OW30112   2.713   5.958   1.346
 9738SOL    HW130113   2.810   5.955   1.323
 9738SOL    HW230114   2.682   6.053   1.351
 9739SOL     OW30115   5.606   6.681   0.563
 9739SOL    HW130116   5.507   6.671   0.560
 9739SOL    HW230117   5.650   6.601   0.523
 9740SOL     OW30118   6.589   1.044   0.815
 9740SOL    HW130119   6.654   1.046   0.890
 9740SOL    HW230120   6.610   0.967   0.755
 9741SOL     OW30121   2.343   2.753   3.033
 9741SOL    HW130122   2.347   2.849   3.005
 9741SOL    HW230123   2.357   2.746   3.132
 9742SOL     OW30124   4.158   0.476   6.893
 9742SOL    HW130125   4.247   0.502   6.856
 9742SOL    HW230126   4.089   0.542   6.863
 9743SOL     OW30127   6.527   3.878   4.488
 9743SOL    HW130128   6.536   3.913   4.395
 9743SOL    HW230129   6.595   3.922   4.547
 9744SOL     OW30130   1.871   2.606   2.193
 9744SOL    HW130131   1.951   2.651   2.152
 9744SOL    HW230132   1.859   2.516   2.152
 9745SOL     OW30133   1.472   6.629   5.986
 9745SOL    HW130134   1.416   6.707   5.957
 9745SOL    HW230135   1.415   6.548   5.995
 9746SOL     OW30136   3.504   6.168   6.050
 9746SOL    HW130137   3.487   6.103   5.976
 9746SOL    HW230138   3.589   6.217   6.033
 9747SOL     OW30139   4.107   1.609   3.302
 9747SOL    HW130140   4.137   1.664   3.224
 9747SOL    HW230141   4.080   1.669   3.377
 9748SOL     OW30142   0.409   2.243   2.759
 9748SOL    HW130143   0.424   2.223   2.856
 9748SOL    HW230144   0.341   2.179   2.722
 9749SOL     OW30145   6.938   0.182   1.667
 9749SOL    HW130146   6.862   0.246   1.679
 9749SOL    HW230147   6.904   0.095   1.632
 9750SOL     OW30148   6.000   2.126   4.998
 9750SOL    HW130149   5.959   2.157   5.084
 9750SOL    HW230150   5.993   2.026   4.992
 9751SOL     OW30151   2.937   5.559   1.168
 9751SOL    HW130152   2.971   5.495   1.099
 9751SOL    HW230153   2.840   5.542   1.185
 9752SOL     OW30154   3.913   3.800   0.766
 9752SOL    HW130155   3.880   3.893   0.748
 9752SOL    HW230156   3.953   3.796   0.858
 9753SOL     OW30157   6.182   6.488   3.225
 9753SOL    HW130158   6.262   6.505   3.283
 9753SOL    HW230159   6.207   6.423   3.153
 9754SOL     OW30160   3.324   0.589   1.825
 9754SOL    HW130161   3.304   0.497   1.861
 9754SOL    HW230162   3.251   0.617   1.763
 9755SOL     OW30163   3.045   3.980   1.170
 9755SOL    HW130164   3.072   3.941   1.258
 9755SOL    HW230165   3.092   3.931   1.096
 9756SOL     OW30166   4.906   6.796   6.618
 9756SOL    HW130167   4.844   6.729   6.657
 9756SOL    HW230168   4.931   6.864   6.688
 9757SOL     OW30169   5.006   4.137   4.146
 9757SOL    HW130170   4.947   4.091   4.080
 9757SOL    HW230171   5.102   4.123   4.121
 9758SOL     OW30172   3.652   1.048   1.906
 9758SOL    HW130173   3.718   1.122   1.893
 9758SOL    HW230174   3.701   0.964   1.931
 9759SOL     OW30175   6.811   2.065   1.228
 9759SOL    HW130176   6.850   2.093   1.316
 9759SOL    HW230177   6.719   2.029   1.242
 9760SOL     OW30178   4.693   0.639   6.590
 9760SOL    HW130179   4.705   0.699   6.510
 9760SOL    HW230180   4.757   0.667   6.662
 9761SOL     OW30181   0.794   1.984   2.083
 9761SOL    HW130182   0.844   1.999   2.168
 9761SOL    HW230183   0.854   2.000   2.005
 9762SOL     OW30184   3.700   0.989   5.857
 9762SOL    HW130185   3.678   0.926   5.932
 9762SOL    HW230186   3.698   0.939   5.771
 9763SOL     OW30187   5.854   1.835   1.093
 9763SOL    HW130188   5.901   1.829   1.005
 9763SOL    HW230189   5.841   1.743   1.130
 9764SOL     OW30190   0.348   2.453   3.425
 9764SOL    HW130191   0.334   2.367   3.473
 9764SOL    HW230192   0.270   2.513   3.440
 9765SOL     OW30193   6.508   2.322   1.433
 9765SOL    HW130194   6.412   2.317   1.407
 9765SOL    HW230195   6.564   2.335   1.351
 9766SOL     OW30196   0.252   2.592   2.954
 9766SOL    HW130197   0.210   2.683   2.946
 9766SOL    HW230198   0.215   2.533   2.882
 9767SOL     OW30199   3.845   2.055   4.616
 9767SOL    HW130200   3.910   2.068   4.541
 9767SOL    HW230201   3.860   1.966   4.658
 9768SOL     OW30202   4.717   2.101   6.681
 9768SOL    HW130203   4.682   2.057   6.599
 9768SOL    HW230204   4.748   2.032   6.746
 9769SOL     OW30205   4.084   1.036   5.346
 9769SOL    HW130206   4.008   1.088   5.385
 9769SOL    HW230207   4.106   1.071   5.256
 9770SOL     OW30208   2.179   3.130   5.467
 9770SOL    HW130209   2.128   3.215   5.452
 9770SOL    HW230210   2.169   3.071   5.387
 9771SOL     OW30211   3.271   1.075   2.203
 9771SOL    HW130212   3.198   1.051   2.139
 9771SOL    HW230213   3.334   1.139   2.160
 9772SOL     OW30214   0.294   0.513   2.051
 9772SOL    HW130215   0.350   0.563   2.116
 9772SOL    HW230216   0.330   0.420   2.040
 9773SOL     OW30217   4.798   6.089   1.770
 9773SOL    HW130218   4.878   6.080   1.711
 9773SOL    HW230219   4.749   6.174   1.748
 9774SOL     OW30220   1.731   5.617   4.618
 9774SOL    HW130221   1.690   5.541   4.568
 9774SOL    HW230222   1.749   5.692   4.555
 9775SOL     OW30223   1.494   0.895   3.313
 9775SOL    HW130224   1.402   0.899   3.353
 9775SOL    HW230225   1.512   0.801   3.282
 9776SOL     OW30226   1.378   5.820   1.577
 9776SOL    HW130227   1.436   5.744   1.607
 9776SOL    HW230228   1.433   5.887   1.529
 9777SOL     OW30229   4.193   1.724   5.091
 9777SOL    HW130230   4.266   1.691   5.151
 9777SOL    HW230231   4.234   1.770   5.012
 9778SOL     OW30232   1.434   3.702   2.886
 9778SOL    HW130233   1.526   3.721   2.921
 9778SOL    HW230234   1.374   3.677   2.962
 9779SOL     OW30235   2.539   1.071   2.886
 9779SOL    HW130236   2.500   1.062   2.978
 9779SOL    HW230237   2.618   1.133   2.889
 9780SOL     OW30238   1.392   1.748   0.456
 9780SOL    HW130239   1.475   1.732   0.401
 9780SOL    HW230240   1.363   1.843   0.443
 9781SOL     OW30241   1.199   1.451   2.162
 9781SOL    HW130242   1.272   1.484   2.222
 9781SOL    HW230243   1.113   1.495   2.186
 9782SOL     OW30244   6.738   2.584   0.237
 9782SOL    HW130245   6.657   2.619   0.282
 9782SOL    HW230246   6.796   2.538   0.303
 9783SOL     OW30247   4.914   1.677   2.525
 9783SOL    HW130248   4.827   1.720   2.502
 9783SOL    HW230249   4.925   1.593   2.471
 9784SOL     OW30250   1.997   1.282   0.600
 9784SOL    HW130251   1.953   1.339   0.531
 9784SOL    HW230252   2.063   1.222   0.557
 9785SOL     OW30253   1.347   3.490   4.718
 9785SOL    HW130254   1.364   3.501   4.816
 9785SOL    HW230255   1.354   3.580   4.674
 9786SOL     OW30256   3.068   4.474   6.485
 9786SOL    HW130257   3.021   4.509   6.566
 9786SOL    HW230258   3.058   4.539   6.410
 9787SOL     OW30259   2.394   3.337   0.783
 9787SOL    HW130260   2.353   3.415   0.735
 9787SOL    HW230261   2.460   3.370   0.851
 9788SOL     OW30262   2.360   7.021   2.667
 9788SOL    HW130263   2.388   6.950   2.732
 9788SOL    HW230264   2.386   0.084   2.701
 9789SOL     OW30265   4.401   1.766   0.405
 9789SOL    HW130266   4.337   1.689   0.405
 9789SOL    HW230267   4.350   1.852   0.408
 9790SOL     OW30268   4.763   5.775   5.159
 9790SOL    HW130269   4.756   5.860   5.211
 9790SOL    HW230270   4.816   5.708   5.212
 9791SOL     OW30271   0.325   1.447   1.346
 9791SOL    HW130272   0.343   1.444   1.248
 9791SOL    HW230273   0.411   1.437   1.396
 9792SOL     OW30274   3.163   3.480   0.814
 9792SOL    HW130275   3.080   3.447   0.858
 9792SOL    HW230276   3.148   3.571   0.775
 9793SOL     OW30277   6.194   1.300   1.869
 9793SOL    HW130278   6.277   1.350   1.844
 9793SOL    HW230279   6.154   1.341   1.951
 9794SOL     OW30280   4.140   5.854   4.669
 9794SOL    HW130281   4.115   5.934   4.723
 9794SOL    HW230282   4.095   5.773   4.708
 9795SOL     OW30283   1.830   4.280   3.093
 9795SOL    HW130284   1.738   4.269   3.131
 9795SOL    HW230285   1.842   4.375   3.064
 9796SOL     OW30286   3.600   3.311   4.790
 9796SOL    HW130287   3.619   3.235   4.728
 9796SOL    HW230288   3.579   3.393   4.736
 9797SOL     OW30289   3.601   5.517   6.686
 9797SOL    HW130290   3.687   5.540   6.731
 9797SOL    HW230291   3.592   5.567   6.600
 9798SOL     OW30292   0.074   4.226   6.491
 9798SOL    HW130293   0.067   4.135   6.449
 9798SOL    HW230294   7.017   4.247   6.540
 9799SOL     OW30295   3.849   6.355   6.761
 9799SOL    HW130296   3.904   6.430   6.724
 9799SOL    HW230297   3.886   6.268   6.728
 9800SOL     OW30298   6.865   4.272   5.122
 9800SOL    HW130299   6.813   4.353   5.149
 9800SOL    HW230300   6.891   4.220   5.203
 9801SOL     OW30301   4.366   0.400   0.689
 9801SOL    HW130302   4.274   0.438   0.692
 9801SOL    HW230303   4.363   0.302   0.704
 9802SOL     OW30304   3.819   3.065   0.427
 9802SOL    HW130305   3.897   3.124   0.407
 9802SOL    HW230306   3.799   3.068   0.524
 9803SOL     OW30307   2.625   3.653   0.466
 9803SOL    HW130308   2.576   3.582   0.415
 9803SOL    HW230309   2.673   3.713   0.402
 9804SOL     OW30310   1.035   4.114   3.094
 9804SOL    HW130311   1.027   4.202   3.142
 9804SOL    HW230312   0.969   4.112   3.019
 9805SOL     OW30313   0.247   5.232   5.028
 9805SOL    HW130314   0.323   5.228   4.963
 9805SOL    HW230315   0.196   5.146   5.025
 9806SOL     OW30316   3.159   0.853   6.620
 9806SOL    HW130317   3.140   0.927   6.555
 9806SOL    HW230318   3.189   0.892   6.707
 9807SOL     OW30319   3.417   3.202   4.191
 9807SOL    HW130320   3.327   3.173   4.223
 9807SOL    HW230321   3.420   3.200   4.092
 9808SOL     OW30322   2.939   5.813   2.603
 9808SOL    HW130323   2.893   5.776   2.685
 9808SOL    HW230324   3.018   5.756   2.581
 9809SOL     OW30325   5.965   3.224   1.296
 9809SOL    HW130326   5.980   3.207   1.198
 9809SOL    HW230327   5.882   3.176   1.326
 9810SOL     OW30328   3.785   3.000   1.107
 9810SOL    HW130329   3.836   2.948   1.038
 9810SOL    HW230330   3.846   3.067   1.149
 9811SOL     OW30331   5.182   3.458   4.131
 9811SOL    HW130332   5.228   3.369   4.136
 9811SOL    HW230333   5.103   3.452   4.071
 9812SOL     OW30334   3.470   4.771   6.738
 9812SOL    HW130335   3.538   4.765   6.811
 9812SOL    HW230336   3.437   4.865   6.731
 9813SOL     OW30337   4.471   0.970   2.210
 9813SOL    HW130338   4.477   1.025   2.293
 9813SOL    HW230339   4.383   0.923   2.207
 9814SOL     OW30340   6.861   1.883   6.088
 9814SOL    HW130341   6.774   1.889   6.136
 9814SOL    HW230342   6.865   1.796   6.037
 9815SOL     OW30343   5.493   2.570   4.603
 9815SOL    HW130344   5.571   2.594   4.660
 9815SOL    HW230345   5.431   2.647   4.597
 9816SOL     OW30346   3.211   0.791   0.325
 9816SOL    HW130347   3.112   0.797   0.338
 9816SOL    HW230348   3.245   0.706   0.366
 9817SOL     OW30349   6.521   0.361   1.669
 9817SOL    HW130350   6.457   0.426   1.710
 9817SOL    HW230351   6.503   0.269   1.704
 9818SOL     OW30352   3.783   2.536   5.324
 9818SOL    HW130353   3.810   2.627   5.294
 9818SOL    HW230354   3.823   2.517   5.414
 9819SOL     OW30355   2.402   0.573   1.828
 9819SOL    HW130356   2.490   0.535   1.856
 9819SOL    HW230357   2.412   0.670   1.808
 9820SOL     OW30358   3.716   2.476   6.806
 9820SOL    HW130359   3.757   2.400   6.856
 9820SOL    HW230360   3.759   2.562   6.835
 9821SOL     OW30361   0.431   5.815   0.043
 9821SOL    HW130362   0.462   5.808   6.975
 9821SOL    HW230363   0.331   5.822   0.045
 9822SOL     OW30364   0.312   0.700   2.296
 9822SOL    HW130365   0.217   0.734   2.294
 9822SOL    HW230366   0.356   0.728   2.381
 9823SOL     OW30367   3.613   6.775   1.889
 9823SOL    HW130368   3.704   6.761   1.928
 9823SOL    HW230369   3.567   6.687   1.878
 9824SOL     OW30370   1.933   4.039   5.464
 9824SOL    HW130371   1.988   4.009   5.542
 9824SOL    HW230372   1.988   4.031   5.380
 9825SOL     OW30373   3.827   5.311   5.040
 9825SOL    HW130374   3.735   5.312   5.001
 9825SOL    HW230375   3.821   5.286   5.137
 9826SOL     OW30376   5.693   6.689   5.483
 9826SOL    HW130377   5.594   6.699   5.487
 9826SOL    HW230378   5.723   6.628   5.557
 9827SOL     OW30379   0.758   5.214   4.910
 9827SOL    HW130380   0.800   5.291   4.863
 9827SOL    HW230381   0.828   5.146   4.933
 9828SOL     OW30382   2.643   1.460   0.027
 9828SOL    HW130383   2.569   1.523   0.052
 9828SOL    HW230384   2.731   1.500   0.053
 9829SOL     OW30385   2.600   3.964   1.657
 9829SOL    HW130386   2.576   4.059   1.636
 9829SOL    HW230387   2.695   3.959   1.686
 9830SOL     OW30388   6.226   1.686   0.935
 9830SOL    HW130389   6.286   1.625   0.883
 9830SOL    HW230390   6.255   1.688   1.030
 9831SOL     OW30391   6.121   6.182   1.329
 9831SOL    HW130392   6.196   6.193   1.264
 9831SOL    HW230393   6.051   6.122   1.289
 9832SOL     OW30394   3.133   3.722   0.687
 9832SOL    HW130395   3.217   3.691   0.642
 9832SOL    HW230396   3.126   3.822   0.678
 9833SOL     OW30397   4.875   4.536   6.809
 9833SOL    HW130398   4.803   4.552   6.877
 9833SOL    HW230399   4.941   4.471   6.845
 9834SOL     OW30400   2.193   2.334   4.156
 9834SOL    HW130401   2.179   2.355   4.253
 9834SOL    HW230402   2.246   2.407   4.113
 9835SOL     OW30403   5.543   1.702   4.625
 9835SOL    HW130404   5.493   1.621   4.595
 9835SOL    HW230405   5.587   1.745   4.546
 9836SOL     OW30406   5.382   5.528   1.436
 9836SOL    HW130407   5.463   5.583   1.454
 9836SOL    HW230408   5.351   5.486   1.522
 9837SOL     OW30409   2.547   5.802   5.703
 9837SOL    HW130410   2.467   5.855   5.733
 9837SOL    HW230411   2.580   5.839   5.616
 9838SOL     OW30412   6.818   5.970   4.905
 9838SOL    HW130413   6.767   5.887   4.884
 9838SOL    HW230414   6.786   6.008   4.992
 9839SOL     OW30415   5.737   3.153   2.364
 9839SOL    HW130416   5.752   3.207   2.447
 9839SOL    HW230417   5.695   3.211   2.294
 9840SOL     OW30418   5.653   0.338   0.191
 9840SOL    HW130419   5.659   0.337   0.291
 9840SOL    HW230420   5.557   0.348   0.163
 9841SOL     OW30421   2.111   3.087   4.592
 9841SOL    HW130422   2.091   3.016   4.659
 9841SOL    HW230423   2.152   3.166   4.638
 9842SOL     OW30424   3.353   3.592   4.000
 9842SOL    HW130425   3.354   3.690   4.019
 9842SOL    HW230426   3.376   3.577   3.904
 9843SOL     OW30427   6.122   4.806   3.164
 9843SOL    HW130428   6.212   4.776   3.132
 9843SOL    HW230429   6.098   4.756   3.247
 9844SOL     OW30430   5.067   0.140   2.065
 9844SOL    HW130431   4.973   0.127   2.033
 9844SOL    HW230432   5.090   0.237   2.062
 9845SOL     OW30433   1.714   1.819   3.670
 9845SOL    HW130434   1.765   1.837   3.754
 9845SOL    HW230435   1.633   1.876   3.667
 9846SOL     OW30436   2.895   3.603   3.871
 9846SOL    HW130437   2.900   3.510   3.836
 9846SOL    HW230438   2.841   3.604   3.956
 9847SOL     OW30439   2.275   4.228   4.768
 9847SOL    HW130440   2.295   4.164   4.842
 9847SOL    HW230441   2.215   4.184   4.701
 9848SOL     OW30442   6.300   3.997   0.266
 9848SOL    HW130443   6.227   4.040   0.320
 9848SOL    HW230444   6.294   3.898   0.273
 9849SOL     OW30445   6.987   6.284   5.419
 9849SOL    HW130446   7.009   6.287   5.321
 9849SOL    HW230447   6.949   6.372   5.448
 9850SOL     OW30448   4.577   0.601   3.085
 9850SOL    HW130449   4.572   0.637   2.992
 9850SOL    HW230450   4.582   0.677   3.150
 9851SOL     OW30451   5.096   2.407   5.439
 9851SOL    HW130452   4.999   2.429   5.428
 9851SOL    HW230453   5.106   2.309   5.455
 9852SOL     OW30454   5.766   1.730   4.416
 9852SOL    HW130455   5.736   1.650   4.467
 9852SOL    HW230456   5.770   1.709   4.319
 9853SOL     OW30457   0.653   4.876   1.217
 9853SOL    HW130458   0.749   4.876   1.186
 9853SOL    HW230459   0.648   4.912   1.310
 9854SOL     OW30460   3.639   6.800   3.733
 9854SOL    HW130461   3.638   6.887   3.783
 9854SOL    HW230462   3.668   6.815   3.639
 9855SOL     OW30463   1.887   4.343   0.695
 9855SOL    HW130464   1.804   4.317   0.744
 9855SOL    HW230465   1.863   4.407   0.621
 9856SOL     OW30466   3.520   3.161   1.708
 9856SOL    HW130467   3.522   3.229   1.781
 9856SOL    HW230468   3.452   3.091   1.729
 9857SOL     OW30469   6.181   5.011   2.793
 9857SOL    HW130470   6.203   5.103   2.759
 9857SOL    HW230471   6.164   5.016   2.891
 9858SOL     OW30472   3.700   1.696   1.473
 9858SOL    HW130473   3.610   1.670   1.508
 9858SOL    HW230474   3.723   1.787   1.506
 9859SOL     OW30475   0.153   6.560   1.370
 9859SOL    HW130476   0.247   6.594   1.375
 9859SOL    HW230477   0.144   6.499   1.291
 9860SOL     OW30478   0.835   1.019   2.863
 9860SOL    HW130479   0.785   1.090   2.912
 9860SOL    HW230480   0.892   1.062   2.792
 9861SOL     OW30481   3.048   6.711   3.993
 9861SOL    HW130482   3.136   6.686   4.033
 9861SOL    HW230483   2.992   6.629   3.982
 9862SOL     OW30484   0.624   1.995   0.839
 9862SOL    HW130485   0.624   2.073   0.901
 9862SOL    HW230486   0.530   1.961   0.829
 9863SOL     OW30487   3.591   0.304   0.206
 9863SOL    HW130488   3.629   0.212   0.204
 9863SOL    HW230489   3.495   0.299   0.235
 9864SOL     OW30490   4.457   6.167   3.271
 9864SOL    HW130491   4.433   6.213   3.185
 9864SOL    HW230492   4.555   6.146   3.271
 9865SOL     OW30493   1.940   3.081   3.990
 9865SOL    HW130494   1.889   3.126   3.918
 9865SOL    HW230495   1.887   3.082   4.075
 9866SOL     OW30496   3.246   4.951   3.626
 9866SOL    HW130497   3.161   4.951   3.679
 9866SOL    HW230498   3.322   4.924   3.684
 9867SOL     OW30499   3.967   6.931   6.368
 9867SOL    HW130500   4.033   6.961   6.437
 9867SOL    HW230501   3.997   6.960   6.278
 9868SOL     OW30502   1.469   5.184   5.604
 9868SOL    HW130503   1.462   5.282   5.625
 9868SOL    HW230504   1.483   5.172   5.506
 9869SOL     OW30505   1.385   4.245   3.142
 9869SOL    HW130506   1.466   4.223   3.197
 9869SOL    HW230507   1.414   4.268   3.049
 9870SOL     OW30508   4.047   4.941   1.525
 9870SOL    HW130509   4.063   4.852   1.568
 9870SOL    HW230510   4.130   4.996   1.529
 9871SOL     OW30511   1.772   1.807   5.819
 9871SOL    HW130512   1.812   1.720   5.788
 9871SOL    HW230513   1.840   1.880   5.810
 9872SOL     OW30514   1.423   4.349   3.502
 9872SOL    HW130515   1.345   4.394   3.545
 9872SOL    HW230516   1.398   4.256   3.475
 9873SOL     OW30517   1.801   1.566   0.448
 9873SOL    HW130518   1.899   1.559   0.469
 9873SOL    HW230519   1.769   1.480   0.408
 9874SOL     OW30520   1.277   4.076   5.045
 9874SOL    HW130521   1.259   4.049   5.140
 9874SOL    HW230522   1.374   4.094   5.033
 9875SOL     OW30523   1.361   1.353   2.922
 9875SOL    HW130524   1.357   1.291   3.000
 9875SOL    HW230525   1.338   1.446   2.952
 9876SOL     OW30526   7.023   5.505   2.307
 9876SOL    HW130527   0.047   5.536   2.387
 9876SOL    HW230528   6.961   5.431   2.333
 9877SOL     OW30529   4.090   0.314   1.466
 9877SOL    HW130530   4.127   0.264   1.387
 9877SOL    HW230531   3.996   0.285   1.482
 9878SOL     OW30532   6.875   0.643   5.103
 9878SOL    HW130533   6.958   0.596   5.133
 9878SOL    HW230534   6.830   0.685   5.182
 9879SOL     OW30535   5.152   5.829   5.064
 9879SOL    HW130536   5.129   5.733   5.075
 9879SOL    HW230537   5.174   5.869   5.153
 9880SOL     OW30538   1.621   2.033   4.019
 9880SOL    HW130539   1.699   2.050   3.958
 9880SOL    HW230540   1.602   1.935   4.022
 9881SOL     OW30541   0.079   1.435   6.074
 9881SOL    HW130542   0.108   1.463   6.166
 9881SOL    HW230543   0.122   1.347   6.051
 9882SOL     OW30544   2.468   2.191   3.271
 9882SOL    HW130545   2.403   2.226   3.338
 9882SOL    HW230546   2.421   2.131   3.206
 9883SOL     OW30547   2.820   1.232   2.469
 9883SOL    HW130548   2.913   1.202   2.446
 9883SOL    HW230549   2.808   1.327   2.439
 9884SOL     OW30550   3.528   0.515   4.095
 9884SOL    HW130551   3.585   0.509   4.176
 9884SOL    HW230552   3.439   0.554   4.120
 9885SOL     OW30553   6.647   3.997   4.247
 9885SOL    HW130554   6.556   3.979   4.210
 9885SOL    HW230555   6.650   4.089   4.285
 9886SOL     OW30556   0.340   2.972   1.936
 9886SOL    HW130557   0.325   2.888   1.988
 9886SOL    HW230558   0.268   3.038   1.957
 9887SOL     OW30559   4.773   6.680   5.886
 9887SOL    HW130560   4.758   6.592   5.841
 9887SOL    HW230561   4.723   6.751   5.838
 9888SOL     OW30562   6.636   5.224   6.823
 9888SOL    HW130563   6.550   5.223   6.874
 9888SOL    HW230564   6.704   5.168   6.872
 9889SOL     OW30565   0.329   5.538   0.831
 9889SOL    HW130566   0.363   5.480   0.757
 9889SOL    HW230567   0.275   5.483   0.894
 9890SOL     OW30568   0.867   2.945   0.565
 9890SOL    HW130569   0.885   2.901   0.477
 9890SOL    HW230570   0.771   2.973   0.570
 9891SOL     OW30571   4.766   1.114   1.877
 9891SOL    HW130572   4.737   1.161   1.794
 9891SOL    HW230573   4.687   1.073   1.922
 9892SOL     OW30574   0.865   0.002   0.051
 9892SOL    HW130575   0.873   0.078   0.115
 9892SOL    HW230576   0.874   0.035   6.984
 9893SOL     OW30577   2.414   1.055   6.626
 9893SOL    HW130578   2.395   1.127   6.693
 9893SOL    HW230579   2.352   0.978   6.642
 9894SOL     OW30580   2.242   0.733   1.432
 9894SOL    HW130581   2.236   0.767   1.339
 9894SOL    HW230582   2.218   0.806   1.496
 9895SOL     OW30583   4.482   2.792   5.415
 9895SOL    HW130584   4.401   2.817   5.467
 9895SOL    HW230585   4.512   2.870   5.359
 9896SOL     OW30586   6.860   6.484   5.572
 9896SOL    HW130587   6.881   6.453   5.665
 9896SOL    HW230588   6.922   6.559   5.548
 9897SOL     OW30589   5.202   5.403   4.818
 9897SOL    HW130590   5.119   5.418   4.871
 9897SOL    HW230591   5.282   5.405   4.878
 9898SOL     OW30592   2.625   6.848   5.869
 9898SOL    HW130593   2.703   6.818   5.814
 9898SOL    HW230594   2.648   6.840   5.966
 9899SOL     OW30595   0.476   4.795   0.093
 9899SOL    HW130596   0.414   4.719   0.112
 9899SOL    HW230597   0.568   4.760   0.074
 9900SOL     OW30598   2.404   4.289   3.800
 9900SOL    HW130599   2.437   4.341   3.721
 9900SOL    HW230600   2.366   4.202   3.768
 9901SOL     OW30601   1.847   3.273   5.612
 9901SOL    HW130602   1.794   3.217   5.548
 9901SOL    HW230603   1.851   3.226   5.700
 9902SOL     OW30604   2.776   4.512   0.763
 9902SOL    HW130605   2.753   4.473   0.852
 9902SOL    HW230606   2.733   4.458   0.691
 9903SOL     OW30607   5.571   1.125   4.546
 9903SOL    HW130608   5.602   1.098   4.637
 9903SOL    HW230609   5.554   1.043   4.490
 9904SOL     OW30610   6.258   2.192   0.889
 9904SOL    HW130611   6.338   2.217   0.944
 9904SOL    HW230612   6.230   2.098   0.912
 9905SOL     OW30613   4.871   0.220   0.297
 9905SOL    HW130614   4.945   0.161   0.264
 9905SOL    HW230615   4.879   0.310   0.255
 9906SOL     OW30616   3.198   3.343   5.113
 9906SOL    HW130617   3.282   3.394   5.131
 9906SOL    HW230618   3.154   3.379   5.031
 9907SOL     OW30619   1.126   6.712   1.514
 9907SOL    HW130620   1.135   6.658   1.598
 9907SOL    HW230621   1.187   6.677   1.444
 9908SOL     OW30622   4.923   3.585   2.089
 9908SOL    HW130623   4.913   3.683   2.107
 9908SOL    HW230624   4.860   3.558   2.017
 9909SOL     OW30625   2.216   0.282   4.955
 9909SOL    HW130626   2.257   0.193   4.935
 9909SOL    HW230627   2.175   0.280   5.046
 9910SOL     OW30628   6.950   5.161   3.640
 9910SOL    HW130629   6.910   5.075   3.609
 9910SOL    HW230630   6.895   5.197   3.716
 9911SOL     OW30631   2.772   5.661   2.367
 9911SOL    HW130632   2.764   5.729   2.439
 9911SOL    HW230633   2.853   5.605   2.382
 9912SOL     OW30634   4.447   0.832   6.263
 9912SOL    HW130635   4.424   0.909   6.204
 9912SOL    HW230636   4.547   0.822   6.268
 9913SOL     OW30637   4.852   3.306   0.352
 9913SOL    HW130638   4.882   3.390   0.398
 9913SOL    HW230639   4.833   3.327   0.256
 9914SOL     OW30640   0.348   4.299   4.748
 9914SOL    HW130641   0.250   4.313   4.759
 9914SOL    HW230642   0.391   4.295   4.839
 9915SOL     OW30643   4.709   1.395   3.588
 9915SOL    HW130644   4.784   1.378   3.651
 9915SOL    HW230645   4.724   1.343   3.504
 9916SOL     OW30646   1.614   2.957   2.035
 9916SOL    HW130647   1.670   3.007   2.102
 9916SOL    HW230648   1.517   2.966   2.058
 9917SOL     OW30649   6.016   4.739   4.908
 9917SOL    HW130650   5.986   4.730   4.813
 9917SOL    HW230651   6.008   4.651   4.954
 9918SOL     OW30652   4.783   2.855   2.281
 9918SOL    HW130653   4.863   2.795   2.279
 9918SOL    HW230654   4.771   2.898   2.192
 9919SOL     OW30655   6.014   5.993   0.751
 9919SOL    HW130656   6.099   5.960   0.710
 9919SOL    HW230657   5.963   6.046   0.683
 9920SOL     OW30658   4.777   1.937   2.844
 9920SOL    HW130659   4.749   2.020   2.797
 9920SOL    HW230660   4.718   1.861   2.814
 9921SOL     OW30661   4.092   4.942   6.439
 9921SOL    HW130662   4.191   4.940   6.423
 9921SOL    HW230663   4.070   4.888   6.520
 9922SOL     OW30664   0.250   6.149   1.338
 9922SOL    HW130665   0.342   6.142   1.378
 9922SOL    HW230666   0.232   6.067   1.284
 9923SOL     OW30667   5.868   4.381   0.876
 9923SOL    HW130668   5.968   4.382   0.865
 9923SOL    HW230669   5.825   4.402   0.788
 9924SOL     OW30670   1.247   3.838   4.890
 9924SOL    HW130671   1.323   3.796   4.939
 9924SOL    HW230672   1.234   3.932   4.921
 9925SOL     OW30673   5.350   2.057   4.035
 9925SOL    HW130674   5.311   2.123   3.971
 9925SOL    HW230675   5.387   2.106   4.114
 9926SOL     OW30676   3.186   5.048   0.917
 9926SOL    HW130677   3.267   5.094   0.879
 9926SOL    HW230678   3.181   4.954   0.882
 9927SOL     OW30679   4.912   6.818   4.183
 9927SOL    HW130680   4.915   6.918   4.173
 9927SOL    HW230681   4.877   6.795   4.273
 9928SOL     OW30682   4.788   4.731   1.984
 9928SOL    HW130683   4.819   4.824   2.000
 9928SOL    HW230684   4.860   4.677   1.941
 9929SOL     OW30685   1.067   4.588   2.882
 9929SOL    HW130686   1.027   4.513   2.934
 9929SOL    HW230687   1.010   4.670   2.892
 9930SOL     OW30688   5.283   0.810   3.292
 9930SOL    HW130689   5.354   0.851   3.235
 9930SOL    HW230690   5.194   0.818   3.245
 9931SOL     OW30691   1.148   5.248   5.618
 9931SOL    HW130692   1.178   5.304   5.695
 9931SOL    HW230693   1.120   5.307   5.542
 9932SOL     OW30694   1.016   5.986   4.919
 9932SOL    HW130695   1.022   5.955   5.014
 9932SOL    HW230696   1.071   6.069   4.908
 9933SOL     OW30697   0.085   6.564   2.594
 9933SOL    HW130698   0.095   6.510   2.511
 9933SOL    HW230699   0.116   6.658   2.577
 9934SOL     OW30700   0.271   2.067   5.134
 9934SOL    HW130701   0.313   2.157   5.146
 9934SOL    HW230702   0.250   2.028   5.223
 9935SOL     OW30703   2.160   0.462   6.286
 9935SOL    HW130704   2.072   0.501   6.313
 9935SOL    HW230705   2.152   0.362   6.282
 9936SOL     OW30706   0.808   3.891   3.941
 9936SOL    HW130707   0.750   3.823   3.986
 9936SOL    HW230708   0.893   3.902   3.992
 9937SOL     OW30709   6.643   2.561   6.304
 9937SOL    HW130710   6.711   2.633   6.314
 9937SOL    HW230711   6.559   2.588   6.352
 9938SOL     OW30712   6.887   6.384   2.677
 9938SOL    HW130713   6.836   6.458   2.633
 9938SOL    HW230714   6.965   6.421   2.727
 9939SOL     OW30715   3.173   3.510   3.206
 9939SOL    HW130716   3.208   3.556   3.124
 9939SOL    HW230717   3.145   3.578   3.273
 9940SOL     OW30718   0.511   1.231   1.095
 9940SOL    HW130719   0.418   1.221   1.058
 9940SOL    HW230720   0.542   1.144   1.133
 9941SOL     OW30721   3.173   5.725   4.468
 9941SOL    HW130722   3.164   5.764   4.560
 9941SOL    HW230723   3.176   5.625   4.475
 9942SOL     OW30724   2.509   5.196   3.793
 9942SOL    HW130725   2.474   5.262   3.860
 9942SOL    HW230726   2.471   5.106   3.812
 9943SOL     OW30727   0.162   0.139   5.041
 9943SOL    HW130728   0.076   0.175   5.004
 9943SOL    HW230729   0.216   0.214   5.078
 9944SOL     OW30730   1.652   4.848   6.437
 9944SOL    HW130731   1.706   4.894   6.507
 9944SOL    HW230732   1.691   4.758   6.418
 9945SOL     OW30733   0.217   5.607   6.905
 9945SOL    HW130734   0.272   5.544   6.851
 9945SOL    HW230735   0.130   5.563   6.929
 9946SOL     OW30736   5.804   1.117   4.237
 9946SOL    HW130737   5.837   1.081   4.149
 9946SOL    HW230738   5.816   1.047   4.308
 9947SOL     OW30739   6.350   4.623   3.450
 9947SOL    HW130740   6.264   4.620   3.500
 9947SOL    HW230741   6.343   4.568   3.367
 9948SOL     OW30742   5.578   3.674   3.616
 9948SOL    HW130743   5.510   3.743   3.594
 9948SOL    HW230744   5.559   3.590   3.566
 9949SOL     OW30745   5.937   5.438   1.700
 9949SOL    HW130746   5.900   5.406   1.787
 9949SOL    HW230747   5.993   5.519   1.715
 9950SOL     OW30748   3.427   6.422   0.030
 9950SOL    HW130749   3.483   6.486   0.082
 9950SOL    HW230750   3.484   6.351   7.017
 9951SOL     OW30751   6.588   2.805   2.848
 9951SOL    HW130752   6.553   2.879   2.790
 9951SOL    HW230753   6.603   2.724   2.792
 9952SOL     OW30754   0.089   4.167   6.115
 9952SOL    HW130755   0.078   4.155   6.213
 9952SOL    HW230756   0.138   4.089   6.077
 9953SOL     OW30757   5.229   2.957   3.785
 9953SOL    HW130758   5.323   2.926   3.771
 9953SOL    HW230759   5.166   2.883   3.762
 9954SOL     OW30760   4.044   0.775   4.548
 9954SOL    HW130761   4.060   0.735   4.638
 9954SOL    HW230762   3.966   0.837   4.553
 9955SOL     OW30763   0.609   4.560   4.014
 9955SOL    HW130764   0.693   4.507   4.030
 9955SOL    HW230765   0.545   4.545   4.090
 9956SOL     OW30766   1.153   6.089   0.444
 9956SOL    HW130767   1.224   6.157   0.426
 9956SOL    HW230768   1.091   6.084   0.366
 9957SOL     OW30769   5.672   5.585   2.065
 9957SOL    HW130770   5.769   5.606   2.074
 9957SOL    HW230771   5.620   5.645   2.126
 9958SOL     OW30772   3.125   4.383   0.928
 9958SOL    HW130773   3.031   4.348   0.927
 9958SOL    HW230774   3.131   4.459   0.993
 9959SOL     OW30775   3.414   3.923   1.310
 9959SOL    HW130776   3.319   3.935   1.338
 9959SOL    HW230777   3.424   3.837   1.260
 9960SOL     OW30778   0.726   0.716   2.403
 9960SOL    HW130779   0.785   0.742   2.327
 9960SOL    HW230780   0.783   0.698   2.484
 9961SOL     OW30781   2.017   3.681   4.884
 9961SOL    HW130782   1.994   3.659   4.789
 9961SOL    HW230783   2.077   3.610   4.922
 9962SOL     OW30784   5.110   6.684   4.913
 9962SOL    HW130785   5.177   6.614   4.938
 9962SOL    HW230786   5.021   6.659   4.951
 9963SOL     OW30787   3.207   1.419   0.692
 9963SOL    HW130788   3.124   1.396   0.642
 9963SOL    HW230789   3.221   1.518   0.692
 9964SOL     OW30790   5.780   6.740   4.880
 9964SOL    HW130791   5.744   6.769   4.791
 9964SOL    HW230792   5.720   6.668   4.918
 9965SOL     OW30793   5.338   6.676   0.597
 9965SOL    HW130794   5.277   6.686   0.519
 9965SOL    HW230795   5.291   6.705   0.681
 9966SOL     OW30796   6.117   1.079   2.826
 9966SOL    HW130797   6.070   1.131   2.755
 9966SOL    HW230798   6.209   1.056   2.797
 9967SOL     OW30799   1.392   5.524   0.466
 9967SOL    HW130800   1.326   5.577   0.412
 9967SOL    HW230801   1.472   5.580   0.486
 9968SOL     OW30802   3.426   3.665   2.790
 9968SOL    HW130803   3.442   3.624   2.701
 9968SOL    HW230804   3.511   3.706   2.823
 9969SOL     OW30805   1.426   3.335   1.422
 9969SOL    HW130806   1.525   3.343   1.435
 9969SOL    HW230807   1.405   3.245   1.386
 9970SOL     OW30808   6.159   4.871   1.717
 9970SOL    HW130809   6.096   4.939   1.754
 9970SOL    HW230810   6.109   4.786   1.697
 9971SOL     OW30811   2.877   6.886   6.729
 9971SOL    HW130812   2.802   6.823   6.708
 9971SOL    HW230813   2.962   6.836   6.736
 9972SOL     OW30814   6.601   5.091   1.472
 9972SOL    HW130815   6.603   4.998   1.509
 9972SOL    HW230816   6.535   5.096   1.397
 9973SOL     OW30817   4.976   6.766   3.708
 9973SOL    HW130818   4.907   6.775   3.780
 9973SOL    HW230819   5.043   6.697   3.736
 9974SOL     OW30820   2.182   0.413   4.174
 9974SOL    HW130821   2.203   0.510   4.175
 9974SOL    HW230822   2.089   0.399   4.141
 9975SOL     OW30823   6.964   4.206   1.040
 9975SOL    HW130824   0.027   4.220   0.998
 9975SOL    HW230825   6.946   4.107   1.046
 9976SOL     OW30826   3.156   6.630   4.325
 9976SOL    HW130827   3.204   6.605   4.241
 9976SOL    HW230828   3.129   6.726   4.322
 9977SOL     OW30829   6.458   4.767   3.937
 9977SOL    HW130830   6.485   4.863   3.950
 9977SOL    HW230831   6.533   4.717   3.894
 9978SOL     OW30832   6.741   2.802   4.613
 9978SOL    HW130833   6.707   2.871   4.678
 9978SOL    HW230834   6.834   2.776   4.638
 9979SOL     OW30835   0.655   4.030   5.344
 9979SOL    HW130836   0.577   3.995   5.292
 9979SOL    HW230837   0.720   4.074   5.282
 9980SOL     OW30838   2.692   6.351   5.381
 9980SOL    HW130839   2.760   6.316   5.444
 9980SOL    HW230840   2.606   6.367   5.430
 9981SOL     OW30841   4.291   2.163   3.597
 9981SOL    HW130842   4.231   2.094   3.638
 9981SOL    HW230843   4.289   2.246   3.654
 9982SOL     OW30844   6.495   6.685   2.843
 9982SOL    HW130845   6.431   6.670   2.768
 9982SOL    HW230846   6.445   6.690   2.930
 9983SOL     OW30847   6.701   0.387   1.173
 9983SOL    HW130848   6.618   0.416   1.126
 9983SOL    HW230849   6.755   0.328   1.113
 9984SOL     OW30850   2.964   0.649   6.607
 9984SOL    HW130851   3.043   0.710   6.600
 9984SOL    HW230852   2.888   0.697   6.651
 9985SOL     OW30853   1.994   1.174   1.628
 9985SOL    HW130854   1.985   1.220   1.716
 9985SOL    HW230855   1.906   1.136   1.601
 9986SOL     OW30856   4.895   4.004   4.556
 9986SOL    HW130857   4.911   3.909   4.530
 9986SOL    HW230858   4.853   4.053   4.479
 9987SOL     OW30859   0.240   4.053   5.726
 9987SOL    HW130860   0.291   4.134   5.696
 9987SOL    HW230861   0.196   4.010   5.647
 9988SOL     OW30862   6.661   0.594   4.363
 9988SOL    HW130863   6.649   0.692   4.380
 9988SOL    HW230864   6.588   0.561   4.303
 9989SOL     OW30865   2.061   2.790   4.727
 9989SOL    HW130866   1.985   2.746   4.774
 9989SOL    HW230867   2.045   2.787   4.628
 9990SOL     OW30868   1.309   4.609   1.528
 9990SOL    HW130869   1.231   4.567   1.481
 9990SOL    HW230870   1.279   4.644   1.617
 9991SOL     OW30871   3.706   1.830   3.360
 9991SOL    HW130872   3.772   1.850   3.432
 9991SOL    HW230873   3.644   1.908   3.349
 9992SOL     OW30874   6.018   5.376   6.574
 9992SOL    HW130875   6.067   5.426   6.504
 9992SOL    HW230876   5.920   5.377   6.554
 9993SOL     OW30877   1.190   0.512   2.057
 9993SOL    HW130878   1.138   0.456   2.121
 9993SOL    HW230879   1.129   0.574   2.008
 9994SOL     OW30880   6.533   4.521   3.661
 9994SOL    HW130881   6.496   4.537   3.569
 9994SOL    HW230882   6.617   4.467   3.654
 9995SOL     OW30883   5.723   1.799   4.801
 9995SOL    HW130884   5.813   1.799   4.757
 9995SOL    HW230885   5.658   1.751   4.743
 9996SOL     OW30886   3.131   3.082   0.342
 9996SOL    HW130887   3.162   3.148   0.411
 9996SOL    HW230888   3.170   2.992   0.362
 9997SOL     OW30889   2.203   0.724   4.414
 9997SOL    HW130890   2.215   0.652   4.481
 9997SOL    HW230891   2.117   0.773   4.433
 9998SOL     OW30892   6.239   5.978   4.719
 9998SOL    HW130893   6.191   5.995   4.633
 9998SOL    HW230894   6.336   5.999   4.708
 9999SOL     OW30895   0.192   1.111   4.995
 9999SOL    HW130896   0.267   1.176   4.988
 9999SOL    HW230897   0.225   1.027   5.039
10000SOL     OW30898   6.822   4.867   0.668
10000SOL    HW130899   6.850   4.963   0.662
10000SOL    HW230900   6.902   4.809   0.656
10001SOL     OW30901   3.994   0.754   3.795
10001SOL    HW130902   3.915   0.713   3.841
10001SOL    HW230903   4.020   0.696   3.718
10002SOL     OW30904   1.123   1.837   1.355
10002SOL    HW130905   1.117   1.872   1.261
10002SOL    HW230906   1.151   1.912   1.416
10003SOL     OW30907   5.156   3.819   2.401
10003SOL    HW130908   5.072   3.770   2.426
10003SOL    HW230909   5.142   3.917   2.411
10004SOL     OW30910   6.826   3.459   4.034
10004SOL    HW130911   6.777   3.545   4.018
10004SOL    HW230912   6.922   3.470   4.007
10005SOL     OW30913   4.304   0.212   3.495
10005SOL    HW130914   4.301   0.201   3.396
10005SOL    HW230915   4.357   0.294   3.518
10006SOL     OW30916   4.728   2.396   3.857
10006SOL    HW130917   4.702   2.308   3.897
10006SOL    HW230918   4.807   2.384   3.798
10007SOL     OW30919   5.414   5.098   4.286
10007SOL    HW130920   5.494   5.148   4.321
10007SOL    HW230921   5.410   5.108   4.187
10008SOL     OW30922   2.889   0.079   3.961
10008SOL    HW130923   2.964   0.030   4.004
10008SOL    HW230924   2.812   0.017   3.946
10009SOL     OW30925   2.461   4.414   1.305
10009SOL    HW130926   2.390   4.466   1.352
10009SOL    HW230927   2.480   4.456   1.216
10010SOL     OW30928   5.913   0.777   6.616
10010SOL    HW130929   5.887   0.864   6.659
10010SOL    HW230930   5.987   0.735   6.668
10011SOL     OW30931   7.020   6.595   3.458
10011SOL    HW130932   7.005   6.693   3.460
10011SOL    HW230933   0.055   6.568   3.532
10012SOL     OW30934   5.291   0.685   5.159
10012SOL    HW130935   5.376   0.721   5.121
10012SOL    HW230936   5.310   0.599   5.206
10013SOL     OW30937   0.870   0.396   1.580
10013SOL    HW130938   0.953   0.447   1.559
10013SOL    HW230939   0.861   0.319   1.516
10014SOL     OW30940   1.499   4.529   5.896
10014SOL    HW130941   1.560   4.607   5.882
10014SOL    HW230942   1.534   4.472   5.970
10015SOL     OW30943   2.506   6.255   6.278
10015SOL    HW130944   2.529   6.330   6.216
10015SOL    HW230945   2.584   6.234   6.336
10016SOL     OW30946   2.234   1.434   4.829
10016SOL    HW130947   2.158   1.471   4.776
10016SOL    HW230948   2.309   1.500   4.831
10017SOL     OW30949   0.009   1.925   3.398
10017SOL    HW130950   0.030   2.023   3.398
10017SOL    HW230951   6.965   1.906   3.466
10018SOL     OW30952   5.381   6.888   6.310
10018SOL    HW130953   5.451   6.844   6.365
10018SOL    HW230954   5.293   6.882   6.356
10019SOL     OW30955   0.828   0.648   3.252
10019SOL    HW130956   0.908   0.599   3.218
10019SOL    HW230957   0.796   0.604   3.337
10020SOL     OW30958   0.302   3.783   0.193
10020SOL    HW130959   0.347   3.749   0.276
10020SOL    HW230960   0.305   3.713   0.122
10021SOL     OW30961   4.874   2.875   1.160
10021SOL    HW130962   4.904   2.786   1.195
10021SOL    HW230963   4.789   2.901   1.205
10022SOL     OW30964   1.959   0.893   6.192
10022SOL    HW130965   1.992   0.970   6.248
10022SOL    HW230966   2.015   0.885   6.110
10023SOL     OW30967   0.371   3.806   0.490
10023SOL    HW130968   0.434   3.729   0.481
10023SOL    HW230969   0.280   3.771   0.511
10024SOL     OW30970   0.926   3.800   2.741
10024SOL    HW130971   0.971   3.812   2.830
10024SOL    HW230972   0.902   3.704   2.729
10025SOL     OW30973   0.685   1.472   0.864
10025SOL    HW130974   0.759   1.539   0.871
10025SOL    HW230975   0.690   1.427   0.774
10026SOL     OW30976   6.261   1.036   4.456
10026SOL    HW130977   6.171   0.996   4.439
10026SOL    HW230978   6.259   1.089   4.541
10027SOL     OW30979   5.905   2.864   5.845
10027SOL    HW130980   5.973   2.805   5.803
10027SOL    HW230981   5.813   2.833   5.819
10028SOL     OW30982   1.765   1.405   1.767
10028SOL    HW130983   1.791   1.495   1.731
10028SOL    HW230984   1.847   1.359   1.801
10029SOL     OW30985   3.665   1.259   4.419
10029SOL    HW130986   3.708   1.170   4.401
10029SOL    HW230987   3.626   1.258   4.511
10030SOL     OW30988   0.928   1.153   2.605
10030SOL    HW130989   0.869   1.222   2.565
10030SOL    HW230990   1.021   1.163   2.568
10031SOL     OW30991   7.027   4.787   3.143
10031SOL    HW130992   6.955   4.771   3.075
10031SOL    HW230993   0.007   4.885   3.162
10032SOL     OW30994   3.764   2.265   5.284
10032SOL    HW130995   3.770   2.222   5.374
10032SOL    HW230996   3.768   2.364   5.294
10033SOL     OW30997   6.125   3.039   3.617
10033SOL    HW130998   6.194   2.967   3.614
10033SOL    HW230999   6.035   2.999   3.635
10034SOL     OW31000   4.101   6.225   6.014
10034SOL    HW131001   4.158   6.172   5.951
10034SOL    HW231002   4.084   6.172   6.096
10035SOL     OW31003   0.434   6.795   3.869
10035SOL    HW131004   0.355   6.755   3.823
10035SOL    HW231005   0.511   6.730   3.865
10036SOL     OW31006   6.335   0.637   0.395
10036SOL    HW131007   6.417   0.614   0.448
10036SOL    HW231008   6.363   0.674   0.306
10037SOL     OW31009   6.727   6.761   1.282
10037SOL    HW131010   6.659   6.688   1.295
10037SOL    HW231011   6.809   6.722   1.240
10038SOL     OW31012   6.149   0.298   1.138
10038SOL    HW131013   6.159   0.379   1.196
10038SOL    HW231014   6.090   0.232   1.185
10039SOL     OW31015   4.310   1.118   2.714
10039SOL    HW131016   4.312   1.189   2.644
10039SOL    HW231017   4.246   1.143   2.786
10040SOL     OW31018   0.753   2.236   0.555
10040SOL    HW131019   0.654   2.232   0.568
10040SOL    HW231020   0.787   2.328   0.576
10041SOL     OW31021   1.261   6.458   0.327
10041SOL    HW131022   1.342   6.486   0.379
10041SOL    HW231023   1.182   6.451   0.389
10042SOL     OW31024   6.572   1.615   3.823
10042SOL    HW131025   6.493   1.554   3.827
10042SOL    HW231026   6.550   1.695   3.766
10043SOL     OW31027   1.952   2.481   5.829
10043SOL    HW131028   1.957   2.435   5.739
10043SOL    HW231029   1.925   2.576   5.816
10044SOL     OW31030   4.447   0.947   0.042
10044SOL    HW131031   4.458   1.027   7.010
10044SOL    HW231032   4.352   0.943   0.074
10045SOL     OW31033   2.215   0.468   1.187
10045SOL    HW131034   2.197   0.418   1.272
10045SOL    HW231035   2.130   0.504   1.151
10046SOL     OW31036   0.474   5.590   0.277
10046SOL    HW131037   0.535   5.585   0.355
10046SOL    HW231038   0.453   5.686   0.257
10047SOL     OW31039   1.517   3.837   0.944
10047SOL    HW131040   1.531   3.854   1.042
10047SOL    HW231041   1.547   3.917   0.892
10048SOL     OW31042   5.630   3.473   1.462
10048SOL    HW131043   5.661   3.501   1.371
10048SOL    HW231044   5.597   3.553   1.512
10049SOL     OW31045   6.912   1.936   4.733
10049SOL    HW131046   6.869   1.902   4.649
10049SOL    HW231047   6.846   1.991   4.784
10050SOL     OW31048   6.987   2.716   6.219
10050SOL    HW131049   0.055   2.732   6.191
10050SOL    HW231050   6.952   2.634   6.173
10051SOL     OW31051   1.741   0.305   3.089
10051SOL    HW131052   1.738   0.256   3.176
10051SOL    HW231053   1.820   0.367   3.088
10052SOL     OW31054   1.217   0.261   3.835
10052SOL    HW131055   1.191   0.357   3.843
10052SOL    HW231056   1.143   0.209   3.794
10053SOL     OW31057   6.003   5.591   2.594
10053SOL    HW131058   6.027   5.688   2.605
10053SOL    HW231059   5.906   5.579   2.612
10054SOL     OW31060   5.374   3.874   3.578
10054SOL    HW131061   5.432   3.950   3.605
10054SOL    HW231062   5.381   3.860   3.479
10055SOL     OW31063   1.721   1.837   0.008
10055SOL    HW131064   1.643   1.785   7.000
10055SOL    HW231065   1.776   1.777   0.067
10056SOL     OW31066   5.109   2.323   4.332
10056SOL    HW131067   5.109   2.361   4.240
10056SOL    HW231068   5.021   2.341   4.376
10057SOL     OW31069   5.750   4.157   4.773
10057SOL    HW131070   5.676   4.123   4.831
10057SOL    HW231071   5.718   4.238   4.723
10058SOL     OW31072   6.236   3.974   3.558
10058SOL    HW131073   6.239   4.074   3.547
10058SOL    HW231074   6.233   3.931   3.467
10059SOL     OW31075   5.374   5.722   5.600
10059SOL    HW131076   5.419   5.744   5.687
10059SOL    HW231077   5.436   5.745   5.525
10060SOL     OW31078   2.958   1.936   2.255
10060SOL    HW131079   3.024   1.867   2.226
10060SOL    HW231080   2.918   1.911   2.343
10061SOL     OW31081   3.706   6.890   3.484
10061SOL    HW131082   3.662   6.871   3.396
10061SOL    HW231083   3.754   6.978   3.479
10062SOL     OW31084   6.832   6.862   4.622
10062SOL    HW131085   6.828   6.866   4.522
10062SOL    HW231086   6.805   6.771   4.653
10063SOL     OW31087   3.833   2.166   3.641
10063SOL    HW131088   3.906   2.181   3.708
10063SOL    HW231089   3.746   2.157   3.689
10064SOL     OW31090   2.310   6.336   2.248
10064SOL    HW131091   2.346   6.429   2.254
10064SOL    HW231092   2.248   6.319   2.324
10065SOL     OW31093   6.560   2.060   1.798
10065SOL    HW131094   6.608   2.057   1.710
10065SOL    HW231095   6.628   2.065   1.872
10066SOL     OW31096   6.536   3.998   3.483
10066SOL    HW131097   6.452   3.974   3.532
10066SOL    HW231098   6.603   3.924   3.493
10067SOL     OW31099   5.505   3.242   4.945
10067SOL    HW131100   5.425   3.302   4.941
10067SOL    HW231101   5.478   3.154   4.984
10068SOL     OW31102   1.922   3.458   3.102
10068SOL    HW131103   1.847   3.510   3.144
10068SOL    HW231104   2.002   3.461   3.163
10069SOL     OW31105   3.079   5.105   2.110
10069SOL    HW131106   3.105   5.172   2.041
10069SOL    HW231107   2.984   5.120   2.137
10070SOL     OW31108   5.326   6.969   0.102
10070SOL    HW131109   5.317   6.886   0.047
10070SOL    HW231110   5.343   0.020   0.041
10071SOL     OW31111   5.000   0.745   5.129
10071SOL    HW131112   4.984   0.753   5.228
10071SOL    HW231113   5.098   0.737   5.112
10072SOL     OW31114   5.576   3.201   1.807
10072SOL    HW131115   5.491   3.164   1.770
10072SOL    HW231116   5.644   3.128   1.813
10073SOL     OW31117   5.813   5.930   5.262
10073SOL    HW131118   5.750   5.961   5.191
10073SOL    HW231119   5.870   5.856   5.227
10074SOL     OW31120   1.628   4.530   0.991
10074SOL    HW131121   1.556   4.475   0.949
10074SOL    HW231122   1.628   4.516   1.090
10075SOL     OW31123   0.710   3.238   2.150
10075SOL    HW131124   0.763   3.153   2.153
10075SOL    HW231125   0.716   3.283   2.239
10076SOL     OW31126   6.084   4.632   3.596
10076SOL    HW131127   6.005   4.571   3.596
10076SOL    HW231128   6.120   4.639   3.689
10077SOL     OW31129   4.155   3.705   6.579
10077SOL    HW131130   4.222   3.631   6.584
10077SOL    HW231131   4.200   3.789   6.549
10078SOL     OW31132   5.948   6.050   3.841
10078SOL    HW131133   6.017   5.982   3.865
10078SOL    HW231134   5.867   6.038   3.899
10079SOL     OW31135   5.640   5.341   2.990
10079SOL    HW131136   5.722   5.289   2.965
10079SOL    HW231137   5.623   5.330   3.088
10080SOL     OW31138   5.238   2.623   5.304
10080SOL    HW131139   5.221   2.570   5.220
10080SOL    HW231140   5.216   2.567   5.384
10081SOL     OW31141   1.288   4.828   0.798
10081SOL    HW131142   1.267   4.751   0.859
10081SOL    HW231143   1.365   4.880   0.836
10082SOL     OW31144   0.342   4.668   1.449
10082SOL    HW131145   0.273   4.598   1.427
10082SOL    HW231146   0.424   4.623   1.485
10083SOL     OW31147   3.020   6.096   2.654
10083SOL    HW131148   3.018   5.996   2.650
10083SOL    HW231149   3.115   6.127   2.662
10084SOL     OW31150   1.741   2.569   5.004
10084SOL    HW131151   1.800   2.549   5.083
10084SOL    HW231152   1.755   2.664   4.976
10085SOL     OW31153   3.809   6.754   1.622
10085SOL    HW131154   3.725   6.808   1.617
10085SOL    HW231155   3.876   6.803   1.677
10086SOL     OW31156   2.904   1.080   3.143
10086SOL    HW131157   2.940   0.993   3.176
10086SOL    HW231158   2.805   1.084   3.160
10087SOL     OW31159   1.779   5.683   6.337
10087SOL    HW131160   1.843   5.612   6.366
10087SOL    HW231161   1.714   5.702   6.411
10088SOL     OW31162   5.895   1.875   0.820
10088SOL    HW131163   5.914   1.802   0.755
10088SOL    HW231164   5.828   1.938   0.780
10089SOL     OW31165   3.289   6.627   2.408
10089SOL    HW131166   3.198   6.584   2.413
10089SOL    HW231167   3.351   6.580   2.470
10090SOL     OW31168   3.069   5.892   2.271
10090SOL    HW131169   3.117   5.904   2.358
10090SOL    HW231170   3.016   5.807   2.274
10091SOL     OW31171   5.385   6.065   3.010
10091SOL    HW131172   5.412   5.970   3.023
10091SOL    HW231173   5.445   6.124   3.064
10092SOL     OW31174   0.057   1.402   2.505
10092SOL    HW131175   6.995   1.389   2.550
10092SOL    HW231176   0.116   1.324   2.527
10093SOL     OW31177   4.572   4.218   6.095
10093SOL    HW131178   4.595   4.222   6.192
10093SOL    HW231179   4.486   4.268   6.078
10094SOL     OW31180   3.685   2.518   0.518
10094SOL    HW131181   3.679   2.431   0.469
10094SOL    HW231182   3.722   2.588   0.457
10095SOL     OW31183   4.473   2.660   5.167
10095SOL    HW131184   4.375   2.642   5.159
10095SOL    HW231185   4.492   2.699   5.257
10096SOL     OW31186   0.018   5.240   1.788
10096SOL    HW131187   6.993   5.172   1.737
10096SOL    HW231188   0.062   5.304   1.724
10097SOL     OW31189   1.341   1.156   1.595
10097SOL    HW131190   1.324   1.242   1.546
10097SOL    HW231191   1.432   1.161   1.638
10098SOL     OW31192   4.265   5.040   0.223
10098SOL    HW131193   4.267   4.941   0.237
10098SOL    HW231194   4.358   5.076   0.222
10099SOL     OW31195   6.856   6.229   3.463
10099SOL    HW131196   6.886   6.252   3.370
10099SOL    HW231197   6.936   6.216   3.522
10100SOL     OW31198   5.160   5.715   4.231
10100SOL    HW131199   5.120   5.647   4.292
10100SOL    HW231200   5.259   5.722   4.247
10101SOL     OW31201   0.083   2.293   6.745
10101SOL    HW131202   0.073   2.203   6.703
10101SOL    HW231203   0.155   2.290   6.814
10102SOL     OW31204   0.352   4.848   2.778
10102SOL    HW131205   0.334   4.809   2.868
10102SOL    HW231206   0.288   4.922   2.760
10103SOL     OW31207   0.250   0.004   0.214
10103SOL    HW131208   0.327   6.985   0.170
10103SOL    HW231209   0.172   0.006   0.153
10104SOL     OW31210   2.421   1.500   4.529
10104SOL    HW131211   2.419   1.404   4.559
10104SOL    HW231212   2.475   1.507   4.445
10105SOL     OW31213   3.247   1.708   4.179
10105SOL    HW131214   3.318   1.655   4.132
10105SOL    HW231215   3.284   1.747   4.263
10106SOL     OW31216   6.333   3.872   0.930
10106SOL    HW131217   6.395   3.821   0.870
10106SOL    HW231218   6.316   3.820   1.014
10107SOL     OW31219   5.103   5.500   5.905
10107SOL    HW131220   5.156   5.503   5.820
10107SOL    HW231221   5.161   5.467   5.979
10108SOL     OW31222   3.023   1.937   4.815
10108SOL    HW131223   3.026   1.945   4.716
10108SOL    HW231224   3.109   1.898   4.848
10109SOL     OW31225   1.081   2.990   0.929
10109SOL    HW131226   1.075   2.901   0.976
10109SOL    HW231227   0.995   3.039   0.941
10110SOL     OW31228   6.058   6.379   1.515
10110SOL    HW131229   6.081   6.336   1.428
10110SOL    HW231230   6.059   6.311   1.588
10111SOL     OW31231   6.485   2.493   2.064
10111SOL    HW131232   6.454   2.518   1.972
10111SOL    HW231233   6.408   2.452   2.115
10112SOL     OW31234   0.095   2.686   3.884
10112SOL    HW131235   0.027   2.612   3.886
10112SOL    HW231236   0.051   2.773   3.902
10113SOL     OW31237   6.994   6.761   6.282
10113SOL    HW131238   6.974   6.705   6.202
10113SOL    HW231239   6.909   6.790   6.324
10114SOL     OW31240   5.871   4.545   1.122
10114SOL    HW131241   5.892   4.641   1.101
10114SOL    HW231242   5.836   4.500   1.041
10115SOL     OW31243   3.759   1.827   6.356
10115SOL    HW131244   3.705   1.909   6.337
10115SOL    HW231245   3.856   1.848   6.350
10116SOL     OW31246   0.745   6.778   6.683
10116SOL    HW131247   0.799   6.695   6.691
10116SOL    HW231248   0.739   6.823   6.773
10117SOL     OW31249   0.438   4.344   1.078
10117SOL    HW131250   0.362   4.406   1.098
10117SOL    HW231251   0.511   4.395   1.032
10118SOL     OW31252   4.171   5.278   3.622
10118SOL    HW131253   4.220   5.362   3.603
10118SOL    HW231254   4.080   5.282   3.580
10119SOL     OW31255   5.581   6.110   6.573
10119SOL    HW131256   5.572   6.025   6.625
10119SOL    HW231257   5.676   6.140   6.574
10120SOL     OW31258   2.499   2.542   2.853
10120SOL    HW131259   2.468   2.630   2.890
10120SOL    HW231260   2.570   2.504   2.911
10121SOL     OW31261   6.849   5.670   1.151
10121SOL    HW131262   6.795   5.750   1.177
10121SOL    HW231263   6.857   5.666   1.051
10122SOL     OW31264   1.852   6.964   3.246
10122SOL    HW131265   1.903   6.883   3.277
10122SOL    HW231266   1.904   7.012   3.176
10123SOL     OW31267   6.318   6.763   6.393
10123SOL    HW131268   6.228   6.801   6.415
10123SOL    HW231269   6.330   6.676   6.440
10124SOL     OW31270   0.741   4.933   3.360
10124SOL    HW131271   0.760   4.841   3.326
10124SOL    HW231272   0.678   4.927   3.437
10125SOL     OW31273   1.714   2.378   4.768
10125SOL    HW131274   1.720   2.448   4.839
10125SOL    HW231275   1.677   2.294   4.808
10126SOL     OW31276   7.001   6.098   4.447
10126SOL    HW131277   6.921   6.041   4.427
10126SOL    HW231278   0.049   6.070   4.388
10127SOL     OW31279   2.393   0.877   4.500
10127SOL    HW131280   2.456   0.925   4.438
10127SOL    HW231281   2.322   0.832   4.447
10128SOL     OW31282   3.045   0.888   0.504
10128SOL    HW131283   3.020   0.809   0.559
10128SOL    HW231284   3.104   0.949   0.558
10129SOL     OW31285   6.789   1.728   5.765
10129SOL    HW131286   6.824   1.774   5.683
10129SOL    HW231287   6.865   1.708   5.827
10130SOL     OW31288   1.477   2.983   3.229
10130SOL    HW131289   1.484   2.917   3.304
10130SOL    HW231290   1.514   2.942   3.145
10131SOL     OW31291   2.462   0.921   4.959
10131SOL    HW131292   2.390   0.902   4.894
10131SOL    HW231293   2.429   0.905   5.052
10132SOL     OW31294   6.201   0.650   2.068
10132SOL    HW131295   6.180   0.733   2.016
10132SOL    HW231296   6.292   0.659   2.108
10133SOL     OW31297   4.580   5.527   1.166
10133SOL    HW131298   4.540   5.502   1.254
10133SOL    HW231299   4.547   5.617   1.138
10134SOL     OW31300   6.365   1.030   2.707
10134SOL    HW131301   6.336   0.965   2.637
10134SOL    HW231302   6.384   0.982   2.792
10135SOL     OW31303   6.687   6.638   3.117
10135SOL    HW131304   6.589   6.616   3.121
10135SOL    HW231305   6.708   6.677   3.027
10136SOL     OW31306   4.933   0.699   3.127
10136SOL    HW131307   4.836   0.672   3.128
10136SOL    HW231308   4.962   0.719   3.220
10137SOL     OW31309   6.082   6.275   2.762
10137SOL    HW131310   6.034   6.338   2.701
10137SOL    HW231311   6.136   6.210   2.707
10138SOL     OW31312   0.222   2.064   2.688
10138SOL    HW131313   0.181   2.101   2.605
10138SOL    HW231314   0.238   1.966   2.677
10139SOL     OW31315   4.475   2.854   0.870
10139SOL    HW131316   4.407   2.893   0.933
10139SOL    HW231317   4.494   2.919   0.797
10140SOL     OW31318   5.956   6.404   3.901
10140SOL    HW131319   6.001   6.449   3.824
10140SOL    HW231320   5.932   6.471   3.971
10141SOL     OW31321   0.912   1.969   4.329
10141SOL    HW131322   0.947   1.985   4.237
10141SOL    HW231323   0.927   2.050   4.385
10142SOL     OW31324   4.696   6.405   1.550
10142SOL    HW131325   4.742   6.392   1.637
10142SOL    HW231326   4.597   6.410   1.565
10143SOL     OW31327   0.060   3.485   0.218
10143SOL    HW131328   0.057   3.390   0.249
10143SOL    HW231329   0.075   3.487   0.119
10144SOL     OW31330   4.762   0.396   2.536
10144SOL    HW131331   4.723   0.433   2.451
10144SOL    HW231332   4.698   0.331   2.577
10145SOL     OW31333   6.467   0.137   4.978
10145SOL    HW131334   6.534   0.082   4.929
10145SOL    HW231335   6.498   0.232   4.982
10146SOL     OW31336   1.680   1.363   5.474
10146SOL    HW131337   1.651   1.296   5.542
10146SOL    HW231338   1.627   1.448   5.485
10147SOL     OW31339   3.472   4.670   0.423
10147SOL    HW131340   3.559   4.717   0.405
10147SOL    HW231341   3.448   4.613   0.344
10148SOL     OW31342   0.103   5.642   6.591
10148SOL    HW131343   0.096   5.676   6.497
10148SOL    HW231344   0.128   5.716   6.652
10149SOL     OW31345   3.061   3.108   3.892
10149SOL    HW131346   3.117   3.044   3.945
10149SOL    HW231347   3.088   3.105   3.796
10150SOL     OW31348   6.148   4.325   0.103
10150SOL    HW131349   6.163   4.376   0.187
10150SOL    HW231350   6.209   4.358   0.031
10151SOL     OW31351   0.512   0.658   0.563
10151SOL    HW131352   0.512   0.728   0.635
10151SOL    HW231353   0.601   0.612   0.562
10152SOL     OW31354   3.544   6.240   3.993
10152SOL    HW131355   3.455   6.195   4.000
10152SOL    HW231356   3.608   6.181   3.943
10153SOL     OW31357   4.978   4.098   1.311
10153SOL    HW131358   5.040   4.175   1.323
10153SOL    HW231359   4.890   4.131   1.276
10154SOL     OW31360   4.852   5.083   6.240
10154SOL    HW131361   4.895   5.173   6.246
10154SOL    HW231362   4.860   5.036   6.328
10155SOL     OW31363   4.935   2.402   4.762
10155SOL    HW131364   5.015   2.344   4.779
10155SOL    HW231365   4.935   2.479   4.827
10156SOL     OW31366   3.571   1.625   6.607
10156SOL    HW131367   3.574   1.712   6.655
10156SOL    HW231368   3.664   1.596   6.584
10157SOL     OW31369   0.008   5.632   2.051
10157SOL    HW131370   0.095   5.590   2.024
10157SOL    HW231371   7.003   5.590   2.136
10158SOL     OW31372   6.690   5.138   6.393
10158SOL    HW131373   6.776   5.099   6.425
10158SOL    HW231374   6.641   5.070   6.338
10159SOL     OW31375   3.637   2.895   1.620
10159SOL    HW131376   3.620   2.993   1.629
10159SOL    HW231377   3.664   2.858   1.708
10160SOL     OW31378   7.014   4.176   2.212
10160SOL    HW131379   6.925   4.173   2.166
10160SOL    HW231380   0.030   4.086   2.207
10161SOL     OW31381   6.325   2.728   0.406
10161SOL    HW131382   6.247   2.713   0.467
10161SOL    HW231383   6.324   2.660   0.333
10162SOL     OW31384   2.180   2.289   1.846
10162SOL    HW131385   2.150   2.296   1.940
10162SOL    HW231386   2.102   2.300   1.784
10163SOL     OW31387   3.614   5.330   4.916
10163SOL    HW131388   3.531   5.274   4.903
10163SOL    HW231389   3.635   5.378   4.831
10164SOL     OW31390   0.606   1.068   3.909
10164SOL    HW131391   0.667   1.077   3.989
10164SOL    HW231392   0.617   0.977   3.870
10165SOL     OW31393   2.025   3.271   3.749
10165SOL    HW131394   1.960   3.324   3.804
10165SOL    HW231395   1.979   3.191   3.711
10166SOL     OW31396   3.000   6.243   3.277
10166SOL    HW131397   2.961   6.196   3.197
10166SOL    HW231398   3.058   6.179   3.327
10167SOL     OW31399   3.856   1.741   6.917
10167SOL    HW131400   3.866   1.658   6.972
10167SOL    HW231401   3.775   1.791   6.947
10168SOL     OW31402   0.565   0.995   6.894
10168SOL    HW131403   0.541   0.950   6.808
10168SOL    HW231404   0.656   1.036   6.886
10169SOL     OW31405   4.607   5.277   2.913
10169SOL    HW131406   4.529   5.232   2.956
10169SOL    HW231407   4.651   5.214   2.849
10170SOL     OW31408   4.690   6.638   6.979
10170SOL    HW131409   4.715   6.588   0.035
10170SOL    HW231410   4.740   6.725   6.977
10171SOL     OW31411   1.224   4.060   2.884
10171SOL    HW131412   1.220   4.102   2.975
10171SOL    HW231413   1.159   4.106   2.823
10172SOL     OW31414   0.849   1.159   3.320
10172SOL    HW131415   0.907   1.240   3.327
10172SOL    HW231416   0.801   1.144   3.407
10173SOL     OW31417   4.415   2.309   4.524
10173SOL    HW131418   4.364   2.338   4.444
10173SOL    HW231419   4.373   2.227   4.563
10174SOL     OW31420   4.809   4.835   1.019
10174SOL    HW131421   4.732   4.824   1.082
10174SOL    HW231422   4.886   4.779   1.050
10175SOL     OW31423   6.500   6.857   3.749
10175SOL    HW131424   6.505   6.927   3.820
10175SOL    HW231425   6.580   6.797   3.756
10176SOL     OW31426   6.829   1.488   5.298
10176SOL    HW131427   6.797   1.445   5.382
10176SOL    HW231428   6.833   1.420   5.225
10177SOL     OW31429   3.081   0.939   4.592
10177SOL    HW131430   3.003   0.960   4.651
10177SOL    HW231431   3.125   1.023   4.563
10178SOL     OW31432   6.315   1.824   2.076
10178SOL    HW131433   6.289   1.748   2.136
10178SOL    HW231434   6.357   1.897   2.130
10179SOL     OW31435   0.120   6.240   0.979
10179SOL    HW131436   0.173   6.155   0.986
10179SOL    HW231437   0.032   6.228   1.026
10180SOL     OW31438   1.655   0.307   6.182
10180SOL    HW131439   1.623   0.393   6.220
10180SOL    HW231440   1.748   0.319   6.146
10181SOL     OW31441   0.436   4.083   2.090
10181SOL    HW131442   0.494   4.056   2.014
10181SOL    HW231443   0.342   4.054   2.073
10182SOL     OW31444   2.945   6.630   6.496
10182SOL    HW131445   2.939   6.542   6.448
10182SOL    HW231446   3.010   6.622   6.572
10183SOL     OW31447   3.779   5.855   5.898
10183SOL    HW131448   3.801   5.841   5.995
10183SOL    HW231449   3.815   5.779   5.844
10184SOL     OW31450   4.817   2.616   3.697
10184SOL    HW131451   4.833   2.523   3.665
10184SOL    HW231452   4.756   2.663   3.633
10185SOL     OW31453   3.121   4.735   1.845
10185SOL    HW131454   3.043   4.689   1.886
10185SOL    HW231455   3.176   4.777   1.917
10186SOL     OW31456   3.472   2.714   1.899
10186SOL    HW131457   3.438   2.631   1.856
10186SOL    HW231458   3.568   2.729   1.873
10187SOL     OW31459   1.419   3.436   5.494
10187SOL    HW131460   1.421   3.487   5.408
10187SOL    HW231461   1.470   3.350   5.482
10188SOL     OW31462   2.149   6.868   6.944
10188SOL    HW131463   2.080   6.901   7.008
10188SOL    HW231464   2.130   6.774   6.918
10189SOL     OW31465   2.029   1.643   5.182
10189SOL    HW131466   2.115   1.693   5.189
10189SOL    HW231467   2.049   1.546   5.164
10190SOL     OW31468   2.851   3.995   0.959
10190SOL    HW131469   2.846   3.996   0.859
10190SOL    HW231470   2.947   3.985   0.987
10191SOL     OW31471   6.221   0.571   0.052
10191SOL    HW131472   6.151   0.518   0.100
10191SOL    HW231473   6.184   0.660   0.026
10192SOL     OW31474   2.759   0.536   4.359
10192SOL    HW131475   2.752   0.612   4.294
10192SOL    HW231476   2.675   0.529   4.412
10193SOL     OW31477   3.787   3.094   3.703
10193SOL    HW131478   3.795   3.115   3.800
10193SOL    HW231479   3.865   3.132   3.653
10194SOL     OW31480   3.113   5.746   3.273
10194SOL    HW131481   3.134   5.649   3.269
10194SOL    HW231482   3.175   5.791   3.337
10195SOL     OW31483   5.136   0.414   2.357
10195SOL    HW131484   5.123   0.395   2.260
10195SOL    HW231485   5.089   0.344   2.411
10196SOL     OW31486   4.557   4.862   4.170
10196SOL    HW131487   4.482   4.909   4.122
10196SOL    HW231488   4.619   4.822   4.103
10197SOL     OW31489   5.520   1.585   2.883
10197SOL    HW131490   5.570   1.501   2.858
10197SOL    HW231491   5.543   1.658   2.819
10198SOL     OW31492   3.864   1.246   1.820
10198SOL    HW131493   3.841   1.343   1.806
10198SOL    HW231494   3.958   1.230   1.792
10199SOL     OW31495   1.191   1.794   0.247
10199SOL    HW131496   1.266   1.765   0.306
10199SOL    HW231497   1.228   1.823   0.158
10200SOL     OW31498   5.254   7.015   3.627
10200SOL    HW131499   5.165   7.005   3.584
10200SOL    HW231500   5.288   6.925   3.656
10201SOL     OW31501   0.856   5.305   3.389
10201SOL    HW131502   0.775   5.250   3.369
10201SOL    HW231503   0.828   5.386   3.441
10202SOL     OW31504   1.494   2.656   3.207
10202SOL    HW131505   1.531   2.711   3.282
10202SOL    HW231506   1.398   2.679   3.194
10203SOL     OW31507   6.154   2.506   0.988
10203SOL    HW131508   6.144   2.416   1.031
10203SOL    HW231509   6.221   2.501   0.914
10204SOL     OW31510   1.524   6.127   4.390
10204SOL    HW131511   1.608   6.108   4.339
10204SOL    HW231512   1.446   6.124   4.327
10205SOL     OW31513   3.874   6.784   0.818
10205SOL    HW131514   3.880   6.685   0.823
10205SOL    HW231515   3.835   6.810   0.729
10206SOL     OW31516   6.000   6.132   0.058
10206SOL    HW131517   5.992   6.120   6.986
10206SOL    HW231518   5.980   6.046   0.104
10207SOL     OW31519   3.634   1.347   2.227
10207SOL    HW131520   3.580   1.288   2.167
10207SOL    HW231521   3.636   1.308   2.319
10208SOL     OW31522   0.380   2.495   6.504
10208SOL    HW131523   0.407   2.532   6.415
10208SOL    HW231524   0.281   2.502   6.515
10209SOL     OW31525   3.561   6.184   0.032
10209SOL    HW131526   3.557   6.091   7.023
10209SOL    HW231527   3.507   6.189   0.116
10210SOL     OW31528   4.427   6.714   6.922
10210SOL    HW131529   4.379   6.631   6.893
10210SOL    HW231530   4.522   6.691   6.944
10211SOL     OW31531   3.639   5.017   5.007
10211SOL    HW131532   3.602   5.091   5.064
10211SOL    HW231533   3.641   4.932   5.060
10212SOL     OW31534   6.414   6.167   5.810
10212SOL    HW131535   6.406   6.112   5.893
10212SOL    HW231536   6.510   6.192   5.797
10213SOL     OW31537   3.909   0.222   4.795
10213SOL    HW131538   3.867   0.268   4.873
10213SOL    HW231539   4.001   0.193   4.819
10214SOL     OW31540   6.849   0.738   0.536
10214SOL    HW131541   6.870   0.737   0.634
10214SOL    HW231542   6.881   0.653   0.494
10215SOL     OW31543   4.709   2.598   0.262
10215SOL    HW131544   4.704   2.552   0.173
10215SOL    HW231545   4.800   2.585   0.301
10216SOL     OW31546   5.264   0.347   2.597
10216SOL    HW131547   5.337   0.402   2.637
10216SOL    HW231548   5.230   0.392   2.514
10217SOL     OW31549   3.222   1.952   6.008
10217SOL    HW131550   3.266   1.962   5.919
10217SOL    HW231551   3.266   1.878   6.059
10218SOL     OW31552   3.638   0.872   6.405
10218SOL    HW131553   3.605   0.838   6.317
10218SOL    HW231554   3.592   0.824   6.480
10219SOL     OW31555   0.067   4.966   0.832
10219SOL    HW131556   0.148   4.930   0.786
10219SOL    HW231557   0.094   5.038   0.895
10220SOL     OW31558   4.046   2.631   6.111
10220SOL    HW131559   4.002   2.542   6.119
10220SOL    HW231560   4.135   2.620   6.066
10221SOL     OW31561   2.536   0.351   4.795
10221SOL    HW131562   2.609   0.416   4.814
10221SOL    HW231563   2.454   0.401   4.767
10222SOL     OW31564   2.491   4.807   5.202
10222SOL    HW131565   2.591   4.814   5.208
10222SOL    HW231566   2.450   4.849   5.283
10223SOL     OW31567   2.015   5.509   6.111
10223SOL    HW131568   2.012   5.436   6.043
10223SOL    HW231569   1.999   5.471   6.202
10224SOL     OW31570   3.929   5.848   5.362
10224SOL    HW131571   3.888   5.859   5.452
10224SOL    HW231572   3.905   5.758   5.324
10225SOL     OW31573   5.236   6.916   4.808
10225SOL    HW131574   5.335   6.924   4.801
10225SOL    HW231575   5.213   6.839   4.868
10226SOL     OW31576   6.445   2.524   6.634
10226SOL    HW131577   6.512   2.594   6.613
10226SOL    HW231578   6.488   2.450   6.685
10227SOL     OW31579   4.588   4.500   5.349
10227SOL    HW131580   4.606   4.408   5.385
10227SOL    HW231581   4.675   4.544   5.327
10228SOL     OW31582   1.150   2.465   1.338
10228SOL    HW131583   1.163   2.564   1.342
10228SOL    HW231584   1.142   2.429   1.431
10229SOL     OW31585   3.069   0.605   1.716
10229SOL    HW131586   3.018   0.688   1.741
10229SOL    HW231587   3.022   0.525   1.755
10230SOL     OW31588   5.324   6.968   3.139
10230SOL    HW131589   5.320   0.019   3.201
10230SOL    HW231590   5.315   7.000   3.045
10231SOL     OW31591   5.149   6.409   4.775
10231SOL    HW131592   5.177   6.456   4.692
10231SOL    HW231593   5.060   6.365   4.760
10232SOL     OW31594   4.009   2.202   3.086
10232SOL    HW131595   3.944   2.127   3.103
10232SOL    HW231596   4.070   2.211   3.165
10233SOL     OW31597   4.893   6.199   5.569
10233SOL    HW131598   4.813   6.190   5.629
10233SOL    HW231599   4.870   6.259   5.492
10234SOL     OW31600   3.956   4.155   1.000
10234SOL    HW131601   4.022   4.096   1.046
10234SOL    HW231602   3.993   4.184   0.912
10235SOL     OW31603   4.756   0.274   6.932
10235SOL    HW131604   4.842   0.283   6.882
10235SOL    HW231605   4.717   0.365   6.948
10236SOL     OW31606   1.271   4.683   1.251
10236SOL    HW131607   1.219   4.626   1.314
10236SOL    HW231608   1.338   4.737   1.302
10237SOL     OW31609   5.976   2.433   3.053
10237SOL    HW131610   5.971   2.393   2.961
10237SOL    HW231611   5.897   2.492   3.068
10238SOL     OW31612   5.418   4.968   6.210
10238SOL    HW131613   5.512   4.978   6.177
10238SOL    HW231614   5.399   5.038   6.279
10239SOL     OW31615   5.473   3.542   4.439
10239SOL    HW131616   5.498   3.597   4.360
10239SOL    HW231617   5.535   3.464   4.446
10240SOL     OW31618   4.983   3.707   2.774
10240SOL    HW131619   4.921   3.701   2.852
10240SOL    HW231620   4.945   3.768   2.705
10241SOL     OW31621   1.447   2.587   2.267
10241SOL    HW131622   1.479   2.637   2.187
10241SOL    HW231623   1.523   2.572   2.330
10242SOL     OW31624   0.921   5.526   6.817
10242SOL    HW131625   0.867   5.508   6.899
10242SOL    HW231626   0.860   5.553   6.743
10243SOL     OW31627   0.223   5.665   3.675
10243SOL    HW131628   0.128   5.643   3.696
10243SOL    HW231629   0.283   5.594   3.714
10244SOL     OW31630   2.847   6.005   0.075
10244SOL    HW131631   2.880   6.042   0.162
10244SOL    HW231632   2.758   5.961   0.090
10245SOL     OW31633   3.703   3.307   1.238
10245SOL    HW131634   3.704   3.401   1.270
10245SOL    HW231635   3.705   3.245   1.316
10246SOL     OW31636   3.362   4.067   4.851
10246SOL    HW131637   3.399   3.974   4.850
10246SOL    HW231638   3.391   4.113   4.935
10247SOL     OW31639   1.008   5.307   6.608
10247SOL    HW131640   0.995   5.264   6.698
10247SOL    HW231641   0.921   5.346   6.578
10248SOL     OW31642   5.886   0.398   3.458
10248SOL    HW131643   5.915   0.410   3.553
10248SOL    HW231644   5.793   0.433   3.447
10249SOL     OW31645   4.355   0.983   6.028
10249SOL    HW131646   4.345   1.082   6.032
10249SOL    HW231647   4.366   0.954   5.933
10250SOL     OW31648   4.413   5.737   0.697
10250SOL    HW131649   4.463   5.676   0.636
10250SOL    HW231650   4.363   5.804   0.644
10251SOL     OW31651   3.699   4.387   1.285
10251SOL    HW131652   3.736   4.295   1.300
10251SOL    HW231653   3.772   4.447   1.252
10252SOL     OW31654   6.849   4.057   0.734
10252SOL    HW131655   6.806   4.017   0.653
10252SOL    HW231656   6.799   4.139   0.761
10253SOL     OW31657   5.043   4.311   6.843
10253SOL    HW131658   4.973   4.241   6.827
10253SOL    HW231659   5.133   4.268   6.848
10254SOL     OW31660   3.247   2.421   5.612
10254SOL    HW131661   3.262   2.508   5.658
10254SOL    HW231662   3.218   2.438   5.518
10255SOL     OW31663   2.968   5.182   4.118
10255SOL    HW131664   2.987   5.084   4.105
10255SOL    HW231665   3.025   5.217   4.192
10256SOL     OW31666   5.355   5.723   0.336
10256SOL    HW131667   5.273   5.778   0.348
10256SOL    HW231668   5.404   5.715   0.423
10257SOL     OW31669   1.737   4.091   5.109
10257SOL    HW131670   1.755   4.076   5.206
10257SOL    HW231671   1.787   4.172   5.078
10258SOL     OW31672   4.891   1.142   2.509
10258SOL    HW131673   4.887   1.079   2.431
10258SOL    HW231674   4.798   1.162   2.540
10259SOL     OW31675   5.998   3.599   4.147
10259SOL    HW131676   5.956   3.674   4.197
10259SOL    HW231677   5.978   3.609   4.049
10260SOL     OW31678   6.994   5.621   2.619
10260SOL    HW131679   6.923   5.647   2.553
10260SOL    HW231680   6.950   5.592   2.705
10261SOL     OW31681   2.415   0.248   1.692
10261SOL    HW131682   2.412   0.300   1.606
10261SOL    HW231683   2.510   0.239   1.721
10262SOL     OW31684   6.780   6.478   3.486
10262SOL    HW131685   6.872   6.514   3.469
10262SOL    HW231686   6.782   6.378   3.482
10263SOL     OW31687   6.388   3.502   5.283
10263SOL    HW131688   6.354   3.409   5.292
10263SOL    HW231689   6.474   3.502   5.231
10264SOL     OW31690   0.746   0.547   0.625
10264SOL    HW131691   0.767   0.488   0.547
10264SOL    HW231692   0.824   0.607   0.644
10265SOL     OW31693   5.242   2.605   4.319
10265SOL    HW131694   5.160   2.645   4.280
10265SOL    HW231695   5.254   2.512   4.283
10266SOL     OW31696   3.220   3.483   6.946
10266SOL    HW131697   3.240   3.559   6.885
10266SOL    HW231698   3.122   3.477   6.961
10267SOL     OW31699   7.002   0.486   6.275
10267SOL    HW131700   6.933   0.549   6.240
10267SOL    HW231701   7.022   0.416   6.207
10268SOL     OW31702   6.963   4.481   0.273
10268SOL    HW131703   6.956   4.520   0.365
10268SOL    HW231704   6.887   4.515   0.218
10269SOL     OW31705   4.584   1.624   5.690
10269SOL    HW131706   4.492   1.641   5.726
10269SOL    HW231707   4.636   1.570   5.756
10270SOL     OW31708   3.735   6.532   2.847
10270SOL    HW131709   3.685   6.560   2.929
10270SOL    HW231710   3.814   6.476   2.873
10271SOL     OW31711   1.731   4.803   1.251
10271SOL    HW131712   1.704   4.737   1.322
10271SOL    HW231713   1.831   4.801   1.240
10272SOL     OW31714   2.209   3.062   3.994
10272SOL    HW131715   2.109   3.063   3.991
10272SOL    HW231716   2.244   3.155   3.990
10273SOL     OW31717   4.355   6.668   3.933
10273SOL    HW131718   4.384   6.603   4.003
10273SOL    HW231719   4.302   6.619   3.863
10274SOL     OW31720   2.059   4.565   6.543
10274SOL    HW131721   2.006   4.620   6.608
10274SOL    HW231722   2.088   4.480   6.587
10275SOL     OW31723   0.645   6.043   1.923
10275SOL    HW131724   0.718   5.994   1.876
10275SOL    HW231725   0.609   6.115   1.864
10276SOL     OW31726   1.901   6.989   0.300
10276SOL    HW131727   1.916   0.052   0.341
10276SOL    HW231728   1.901   6.920   0.373
10277SOL     OW31729   6.566   5.542   1.982
10277SOL    HW131730   6.477   5.504   1.955
10277SOL    HW231731   6.607   5.484   2.053
10278SOL     OW31732   6.488   1.321   5.329
10278SOL    HW131733   6.495   1.261   5.249
10278SOL    HW231734   6.451   1.410   5.301
10279SOL     OW31735   3.862   6.181   4.200
10279SOL    HW131736   3.900   6.140   4.117
10279SOL    HW231737   3.821   6.269   4.177
10280SOL     OW31738   2.703   2.372   0.244
10280SOL    HW131739   2.791   2.367   0.290
10280SOL    HW231740   2.692   2.294   0.182
10281SOL     OW31741   4.302   0.864   4.392
10281SOL    HW131742   4.222   0.833   4.443
10281SOL    HW231743   4.385   0.826   4.433
10282SOL     OW31744   1.801   3.324   4.282
10282SOL    HW131745   1.766   3.253   4.221
10282SOL    HW231746   1.791   3.295   4.377
10283SOL     OW31747   1.499   5.318   6.517
10283SOL    HW131748   1.507   5.233   6.464
10283SOL    HW231749   1.406   5.354   6.507
10284SOL     OW31750   5.077   3.125   0.146
10284SOL    HW131751   5.023   3.044   0.171
10284SOL    HW231752   5.077   3.135   0.046
10285SOL     OW31753   4.920   1.576   1.272
10285SOL    HW131754   4.996   1.533   1.321
10285SOL    HW231755   4.939   1.577   1.174
10286SOL     OW31756   3.590   0.262   4.032
10286SOL    HW131757   3.565   0.359   4.038
10286SOL    HW231758   3.550   0.222   3.949
10287SOL     OW31759   2.129   3.958   2.887
10287SOL    HW131760   2.048   4.015   2.904
10287SOL    HW231761   2.105   3.883   2.826
10288SOL     OW31762   4.271   6.475   4.381
10288SOL    HW131763   4.354   6.433   4.418
10288SOL    HW231764   4.215   6.405   4.336
10289SOL     OW31765   2.564   1.717   1.723
10289SOL    HW131766   2.524   1.626   1.729
10289SOL    HW231767   2.565   1.747   1.627
10290SOL     OW31768   2.933   3.287   3.449
10290SOL    HW131769   2.907   3.254   3.358
10290SOL    HW231770   2.990   3.218   3.494
10291SOL     OW31771   3.894   6.918   3.941
10291SOL    HW131772   3.861   6.998   3.993
10291SOL    HW231773   3.927   6.848   4.004
10292SOL     OW31774   6.559   3.118   4.423
10292SOL    HW131775   6.485   3.051   4.421
10292SOL    HW231776   6.645   3.073   4.399
10293SOL     OW31777   1.542   4.542   3.043
10293SOL    HW131778   1.514   4.518   2.950
10293SOL    HW231779   1.475   4.507   3.109
10294SOL     OW31780   5.818   0.864   3.026
10294SOL    HW131781   5.776   0.777   3.052
10294SOL    HW231782   5.796   0.885   2.930
10295SOL     OW31783   1.738   3.905   3.405
10295SOL    HW131784   1.764   3.810   3.420
10295SOL    HW231785   1.667   3.931   3.471
10296SOL     OW31786   6.366   3.497   1.493
10296SOL    HW131787   6.367   3.597   1.489
10296SOL    HW231788   6.285   3.463   1.447
10297SOL     OW31789   3.459   4.699   5.498
10297SOL    HW131790   3.556   4.713   5.519
10297SOL    HW231791   3.406   4.776   5.534
10298SOL     OW31792   5.956   3.305   2.931
10298SOL    HW131793   5.969   3.379   2.864
10298SOL    HW231794   5.923   3.344   3.017
10299SOL     OW31795   4.137   5.014   2.297
10299SOL    HW131796   4.134   4.922   2.336
10299SOL    HW231797   4.059   5.026   2.236
10300SOL     OW31798   0.329   6.130   2.269
10300SOL    HW131799   0.327   6.091   2.360
10300SOL    HW231800   0.423   6.138   2.237
10301SOL     OW31801   4.410   0.440   1.774
10301SOL    HW131802   4.346   0.364   1.760
10301SOL    HW231803   4.392   0.483   1.863
10302SOL     OW31804   0.549   4.033   3.302
10302SOL    HW131805   0.504   4.015   3.389
10302SOL    HW231806   0.647   4.011   3.309
10303SOL     OW31807   4.812   3.552   0.871
10303SOL    HW131808   4.782   3.499   0.951
10303SOL    HW231809   4.863   3.493   0.809
10304SOL     OW31810   5.615   5.962   4.156
10304SOL    HW131811   5.644   6.049   4.116
10304SOL    HW231812   5.599   5.895   4.083
10305SOL     OW31813   2.515   5.186   1.466
10305SOL    HW131814   2.599   5.168   1.415
10305SOL    HW231815   2.533   5.258   1.534
10306SOL     OW31816   4.960   3.920   0.014
10306SOL    HW131817   5.020   3.839   0.018
10306SOL    HW231818   4.867   3.891   7.017
10307SOL     OW31819   2.837   2.264   5.565
10307SOL    HW131820   2.907   2.336   5.565
10307SOL    HW231821   2.753   2.299   5.523
10308SOL     OW31822   2.720   5.265   4.220
10308SOL    HW131823   2.807   5.234   4.182
10308SOL    HW231824   2.666   5.310   4.148
10309SOL     OW31825   0.241   6.324   3.508
10309SOL    HW131826   0.250   6.321   3.409
10309SOL    HW231827   0.167   6.263   3.537
10310SOL     OW31828   3.822   4.021   4.394
10310SOL    HW131829   3.795   3.997   4.301
10310SOL    HW231830   3.914   3.986   4.412
10311SOL     OW31831   0.927   7.000   0.957
10311SOL    HW131832   0.955   0.002   0.866
10311SOL    HW231833   0.877   6.913   0.951
10312SOL     OW31834   2.797   4.606   0.387
10312SOL    HW131835   2.808   4.665   0.307
10312SOL    HW231836   2.700   4.586   0.401
10313SOL     OW31837   6.359   5.848   3.930
10313SOL    HW131838   6.321   5.769   3.882
10313SOL    HW231839   6.415   5.902   3.867
10314SOL     OW31840   0.066   5.371   5.303
10314SOL    HW131841   0.088   5.333   5.392
10314SOL    HW231842   0.150   5.400   5.257
10315SOL     OW31843   4.094   6.293   5.371
10315SOL    HW131844   4.064   6.280   5.465
10315SOL    HW231845   4.194   6.294   5.368
10316SOL     OW31846   0.080   2.915   4.233
10316SOL    HW131847   0.012   2.896   4.304
10316SOL    HW231848   0.036   2.914   4.143
10317SOL     OW31849   5.980   4.271   6.150
10317SOL    HW131850   6.024   4.212   6.217
10317SOL    HW231851   5.947   4.354   6.195
10318SOL     OW31852   4.706   5.010   2.846
10318SOL    HW131853   4.641   4.934   2.842
10318SOL    HW231854   4.773   4.993   2.918
10319SOL     OW31855   4.601   6.585   3.831
10319SOL    HW131856   4.668   6.624   3.893
10319SOL    HW231857   4.516   6.567   3.880
10320SOL     OW31858   3.418   6.537   1.872
10320SOL    HW131859   3.389   6.459   1.817
10320SOL    HW231860   3.350   6.610   1.864
10321SOL     OW31861   4.655   6.234   4.993
10321SOL    HW131862   4.734   6.266   5.045
10321SOL    HW231863   4.665   6.136   4.976
10322SOL     OW31864   6.939   1.584   6.500
10322SOL    HW131865   6.937   1.682   6.478
10322SOL    HW231866   6.878   1.535   6.438
10323SOL     OW31867   0.551   1.979   4.948
10323SOL    HW131868   0.560   2.009   4.853
10323SOL    HW231869   0.574   2.055   5.009
10324SOL     OW31870   3.082   3.643   4.661
10324SOL    HW131871   3.133   3.663   4.578
10324SOL    HW231872   3.142   3.655   4.740
10325SOL     OW31873   0.559   3.116   3.780
10325SOL    HW131874   0.613   3.091   3.700
10325SOL    HW231875   0.505   3.038   3.810
10326SOL     OW31876   5.988   1.564   1.219
10326SOL    HW131877   5.923   1.511   1.272
10326SOL    HW231878   6.063   1.594   1.278
10327SOL     OW31879   5.840   1.797   3.784
10327SOL    HW131880   5.926   1.808   3.835
10327SOL    HW231881   5.793   1.715   3.817
10328SOL     OW31882   6.867   3.693   2.052
10328SOL    HW131883   6.844   3.777   2.004
10328SOL    HW231884   6.955   3.659   2.019
10329SOL     OW31885   3.032   5.398   2.933
10329SOL    HW131886   3.096   5.458   2.885
10329SOL    HW231887   3.082   5.323   2.976
10330SOL     OW31888   3.387   3.443   0.998
10330SOL    HW131889   3.322   3.458   0.924
10330SOL    HW231890   3.410   3.346   1.004
10331SOL     OW31891   5.268   1.859   4.678
10331SOL    HW131892   5.352   1.808   4.695
10331SOL    HW231893   5.291   1.949   4.642
10332SOL     OW31894   1.372   2.896   6.577
10332SOL    HW131895   1.441   2.826   6.598
10332SOL    HW231896   1.336   2.881   6.485
10333SOL     OW31897   0.302   4.672   5.392
10333SOL    HW131898   0.219   4.628   5.427
10333SOL    HW231899   0.348   4.719   5.467
10334SOL     OW31900   1.100   4.987   5.669
10334SOL    HW131901   1.106   5.087   5.664
10334SOL    HW231902   1.188   4.946   5.646
10335SOL     OW31903   3.041   4.842   2.877
10335SOL    HW131904   3.032   4.926   2.824
10335SOL    HW231905   2.951   4.802   2.893
10336SOL     OW31906   3.900   0.022   3.066
10336SOL    HW131907   3.855   0.084   3.129
10336SOL    HW231908   3.835   6.980   3.034
10337SOL     OW31909   1.733   4.005   6.423
10337SOL    HW131910   1.774   4.031   6.336
10337SOL    HW231911   1.779   3.923   6.459
10338SOL     OW31912   2.243   4.205   2.771
10338SOL    HW131913   2.249   4.106   2.788
10338SOL    HW231914   2.186   4.248   2.841
10339SOL     OW31915   3.270   5.917   6.762
10339SOL    HW131916   3.250   6.014   6.756
10339SOL    HW231917   3.250   5.884   6.855
10340SOL     OW31918   1.866   6.178   1.023
10340SOL    HW131919   1.952   6.199   0.977
10340SOL    HW231920   1.790   6.195   0.961
10341SOL     OW31921   6.955   3.412   1.784
10341SOL    HW131922   6.958   3.418   1.684
10341SOL    HW231923   6.891   3.340   1.811
10342SOL     OW31924   3.094   5.162   3.876
10342SOL    HW131925   3.031   5.184   3.951
10342SOL    HW231926   3.150   5.242   3.856
10343SOL     OW31927   2.260   2.097   4.686
10343SOL    HW131928   2.223   2.004   4.677
10343SOL    HW231929   2.202   2.150   4.748
10344SOL     OW31930   5.147   3.849   1.258
10344SOL    HW131931   5.087   3.928   1.244
10344SOL    HW231932   5.114   3.772   1.204
10345SOL     OW31933   3.431   1.395   6.523
10345SOL    HW131934   3.478   1.478   6.553
10345SOL    HW231935   3.498   1.327   6.495
10346SOL     OW31936   6.336   5.989   0.395
10346SOL    HW131937   6.315   5.895   0.369
10346SOL    HW231938   6.272   6.051   0.350
10347SOL     OW31939   3.884   6.894   2.239
10347SOL    HW131940   3.806   6.941   2.199
10347SOL    HW231941   3.929   6.955   2.305
10348SOL     OW31942   0.030   3.804   5.095
10348SOL    HW131943   6.973   3.781   5.045
10348SOL    HW231944   0.105   3.818   5.031
10349SOL     OW31945   5.968   2.135   0.260
10349SOL    HW131946   5.908   2.153   0.338
10349SOL    HW231947   5.913   2.125   0.177
10350SOL     OW31948   2.002   5.450   4.417
10350SOL    HW131949   2.098   5.425   4.428
10350SOL    HW231950   1.977   5.444   4.320
10351SOL     OW31951   3.655   5.621   4.983
10351SOL    HW131952   3.724   5.551   4.997
10351SOL    HW231953   3.564   5.580   4.987
10352SOL     OW31954   0.518   1.223   1.746
10352SOL    HW131955   0.441   1.236   1.809
10352SOL    HW231956   0.603   1.216   1.798
10353SOL     OW31957   5.667   2.841   3.502
10353SOL    HW131958   5.660   2.748   3.467
10353SOL    HW231959   5.686   2.904   3.426
10354SOL     OW31960   6.882   2.638   2.104
10354SOL    HW131961   6.977   2.655   2.129
10354SOL    HW231962   6.834   2.725   2.094
10355SOL     OW31963   6.658   2.135   0.877
10355SOL    HW131964   6.751   2.172   0.864
10355SOL    HW231965   6.611   2.132   0.790
10356SOL     OW31966   6.053   2.516   6.679
10356SOL    HW131967   6.107   2.444   6.721
10356SOL    HW231968   5.956   2.490   6.679
10357SOL     OW31969   0.449   6.837   6.391
10357SOL    HW131970   0.414   6.909   6.450
10357SOL    HW231971   0.486   6.877   6.307
10358SOL     OW31972   0.643   3.419   4.162
10358SOL    HW131973   0.697   3.363   4.098
10358SOL    HW231974   0.625   3.508   4.121
10359SOL     OW31975   1.193   2.682   2.366
10359SOL    HW131976   1.214   2.751   2.435
10359SOL    HW231977   1.278   2.644   2.330
10360SOL     OW31978   5.899   4.679   0.738
10360SOL    HW131979   5.969   4.657   0.805
10360SOL    HW231980   5.934   4.661   0.646
10361SOL     OW31981   5.596   2.063   3.413
10361SOL    HW131982   5.629   2.059   3.507
10361SOL    HW231983   5.651   2.002   3.356
10362SOL     OW31984   0.040   6.558   2.203
10362SOL    HW131985   0.060   6.475   2.256
10362SOL    HW231986   0.121   6.583   2.149
10363SOL     OW31987   6.080   4.675   6.206
10363SOL    HW131988   6.103   4.668   6.109
10363SOL    HW231989   6.097   4.587   6.251
10364SOL     OW31990   5.846   5.429   0.973
10364SOL    HW131991   5.839   5.334   1.004
10364SOL    HW231992   5.843   5.490   1.052
10365SOL     OW31993   6.211   6.049   6.806
10365SOL    HW131994   6.111   6.041   6.811
10365SOL    HW231995   6.236   6.146   6.795
10366SOL     OW31996   2.857   6.816   3.552
10366SOL    HW131997   2.843   6.833   3.455
10366SOL    HW231998   2.935   6.870   3.584
10367SOL     OW31999   4.677   6.209   2.164
10367SOL    HW132000   4.659   6.302   2.196
10367SOL    HW232001   4.596   6.152   2.181
10368SOL     OW32002   1.476   5.393   1.530
10368SOL    HW132003   1.525   5.322   1.478
10368SOL    HW232004   1.393   5.418   1.481
10369SOL     OW32005   2.534   0.837   5.497
10369SOL    HW132006   2.487   0.823   5.584
10369SOL    HW232007   2.576   0.928   5.495
10370SOL     OW32008   2.021   2.096   6.474
10370SOL    HW132009   2.024   2.188   6.436
10370SOL    HW232010   1.974   2.097   6.562
10371SOL     OW32011   3.772   5.575   3.255
10371SOL    HW132012   3.809   5.487   3.223
10371SOL    HW232013   3.804   5.648   3.194
10372SOL     OW32014   0.842   6.276   1.718
10372SOL    HW132015   0.870   6.321   1.634
10372SOL    HW232016   0.870   6.331   1.797
10373SOL     OW32017   6.819   0.151   5.920
10373SOL    HW132018   6.837   0.240   5.878
10373SOL    HW232019   6.788   0.087   5.850
10374SOL     OW32020   2.448   4.997   2.461
10374SOL    HW132021   2.521   5.065   2.471
10374SOL    HW232022   2.455   4.929   2.533
10375SOL     OW32023   2.614   5.890   6.706
10375SOL    HW132024   2.660   5.975   6.681
10375SOL    HW232025   2.584   5.843   6.623
10376SOL     OW32026   1.687   4.536   4.213
10376SOL    HW132027   1.760   4.473   4.236
10376SOL    HW232028   1.702   4.573   4.121
10377SOL     OW32029   2.971   0.719   4.012
10377SOL    HW132030   2.876   0.710   4.042
10377SOL    HW232031   2.976   0.785   3.937
10378SOL     OW32032   0.406   6.801   5.404
10378SOL    HW132033   0.371   6.714   5.371
10378SOL    HW232034   0.493   6.786   5.452
10379SOL     OW32035   1.035   5.504   3.330
10379SOL    HW132036   1.086   5.547   3.405
10379SOL    HW232037   1.005   5.413   3.359
10380SOL     OW32038   3.044   1.505   4.066
10380SOL    HW132039   3.004   1.429   4.116
10380SOL    HW232040   3.105   1.557   4.126
10381SOL     OW32041   2.710   0.254   3.329
10381SOL    HW132042   2.753   0.190   3.265
10381SOL    HW232043   2.696   0.342   3.284
10382SOL     OW32044   4.033   5.896   2.257
10382SOL    HW132045   3.933   5.889   2.262
10382SOL    HW232046   4.068   5.941   2.339
10383SOL     OW32047   0.385   6.719   0.040
10383SOL    HW132048   0.297   6.684   0.009
10383SOL    HW232049   0.455   6.696   7.000
10384SOL     OW32050   4.800   5.369   1.454
10384SOL    HW132051   4.817   5.308   1.377
10384SOL    HW232052   4.712   5.346   1.497
10385SOL     OW32053   4.250   4.282   6.540
10385SOL    HW132054   4.268   4.369   6.584
10385SOL    HW232055   4.223   4.214   6.608
10386SOL     OW32056   7.000   6.985   2.350
10386SOL    HW132057   6.963   0.051   2.356
10386SOL    HW232058   0.009   6.969   2.258
10387SOL     OW32059   5.771   1.387   1.767
10387SOL    HW132060   5.865   1.384   1.730
10387SOL    HW232061   5.756   1.476   1.810
10388SOL     OW32062   0.882   0.103   4.682
10388SOL    HW132063   0.891   0.003   4.683
10388SOL    HW232064   0.936   0.140   4.607
10389SOL     OW32065   0.463   3.580   0.808
10389SOL    HW132066   0.494   3.664   0.852
10389SOL    HW232067   0.506   3.572   0.718
10390SOL     OW32068   2.426   1.971   2.253
10390SOL    HW132069   2.501   1.966   2.187
10390SOL    HW232070   2.339   1.970   2.204
10391SOL     OW32071   6.313   7.006   2.667
10391SOL    HW132072   6.258   0.046   2.717
10391SOL    HW232073   6.253   6.936   2.628
10392SOL     OW32074   6.405   3.652   3.875
10392SOL    HW132075   6.483   3.597   3.906
10392SOL    HW232076   6.329   3.641   3.939
10393SOL     OW32077   1.458   2.809   1.725
10393SOL    HW132078   1.555   2.797   1.745
10393SOL    HW232079   1.441   2.905   1.700
10394SOL     OW32080   2.787   6.164   3.619
10394SOL    HW132081   2.760   6.091   3.682
10394SOL    HW232082   2.783   6.130   3.525
10395SOL     OW32083   0.559   1.450   1.534
10395SOL    HW132084   0.586   1.535   1.580
10395SOL    HW232085   0.519   1.388   1.601
10396SOL     OW32086   3.501   2.156   5.115
10396SOL    HW132087   3.404   2.148   5.137
10396SOL    HW232088   3.542   2.228   5.171
10397SOL     OW32089   5.203   1.594   3.988
10397SOL    HW132090   5.148   1.605   4.071
10397SOL    HW232091   5.251   1.506   3.992
10398SOL     OW32092   4.699   2.848   2.576
10398SOL    HW132093   4.646   2.932   2.567
10398SOL    HW232094   4.714   2.807   2.486
10399SOL     OW32095   0.684   3.785   2.142
10399SOL    HW132096   0.613   3.740   2.196
10399SOL    HW232097   0.692   3.740   2.053
10400SOL     OW32098   1.801   6.360   0.354
10400SOL    HW132099   1.795   6.459   0.341
10400SOL    HW232100   1.888   6.326   0.318
10401SOL     OW32101   6.565   1.152   5.541
10401SOL    HW132102   6.504   1.184   5.468
10401SOL    HW232103   6.615   1.230   5.579
10402SOL     OW32104   6.925   4.715   5.279
10402SOL    HW132105   6.976   4.648   5.333
10402SOL    HW232106   6.961   4.807   5.298
10403SOL     OW32107   3.428   0.241   1.157
10403SOL    HW132108   3.438   0.256   1.256
10403SOL    HW232109   3.359   0.171   1.141
10404SOL     OW32110   0.230   5.627   5.994
10404SOL    HW132111   0.287   5.612   6.074
10404SOL    HW232112   0.278   5.595   5.912
10405SOL     OW32113   0.290   1.417   0.053
10405SOL    HW132114   0.265   1.334   0.103
10405SOL    HW232115   0.389   1.419   0.041
10406SOL     OW32116   1.690   5.299   0.915
10406SOL    HW132117   1.690   5.199   0.923
10406SOL    HW232118   1.776   5.329   0.874
10407SOL     OW32119   2.349   6.126   6.973
10407SOL    HW132120   2.387   6.034   6.980
10407SOL    HW232121   2.281   6.139   0.019
10408SOL     OW32122   4.445   0.502   0.142
10408SOL    HW132123   4.409   0.560   0.215
10408SOL    HW232124   4.497   0.426   0.183
10409SOL     OW32125   6.381   4.468   0.446
10409SOL    HW132126   6.295   4.462   0.395
10409SOL    HW232127   6.450   4.409   0.403
10410SOL     OW32128   4.370   6.874   0.800
10410SOL    HW132129   4.300   6.821   0.751
10410SOL    HW232130   4.451   6.818   0.814
10411SOL     OW32131   1.624   5.458   4.153
10411SOL    HW132132   1.612   5.446   4.252
10411SOL    HW232133   1.565   5.532   4.122
10412SOL     OW32134   5.224   0.083   1.388
10412SOL    HW132135   5.200   0.150   1.319
10412SOL    HW232136   5.203   0.119   1.479
10413SOL     OW32137   5.838   3.449   2.261
10413SOL    HW132138   5.768   3.479   2.196
10413SOL    HW232139   5.920   3.421   2.211
10414SOL     OW32140   5.765   3.371   4.232
10414SOL    HW132141   5.686   3.354   4.173
10414SOL    HW232142   5.809   3.456   4.205
10415SOL     OW32143   0.740   0.737   6.892
10415SOL    HW132144   0.698   0.737   6.983
10415SOL    HW232145   0.669   0.723   6.823
10416SOL     OW32146   5.157   3.142   3.946
10416SOL    HW132147   5.190   3.077   3.878
10416SOL    HW232148   5.234   3.172   4.003
10417SOL     OW32149   1.652   4.024   2.634
10417SOL    HW132150   1.708   4.066   2.705
10417SOL    HW232151   1.579   3.970   2.676
10418SOL     OW32152   1.613   5.781   6.120
10418SOL    HW132153   1.519   5.756   6.141
10418SOL    HW232154   1.671   5.766   6.200
10419SOL     OW32155   1.697   0.647   6.475
10419SOL    HW132156   1.686   0.604   6.565
10419SOL    HW232157   1.683   0.746   6.484
10420SOL     OW32158   0.644   2.645   2.312
10420SOL    HW132159   0.705   2.624   2.236
10420SOL    HW232160   0.696   2.641   2.398
10421SOL     OW32161   0.755   2.114   2.990
10421SOL    HW132162   0.721   2.206   2.972
10421SOL    HW232163   0.683   2.060   3.035
10422SOL     OW32164   5.299   2.458   0.047
10422SOL    HW132165   5.247   2.392   0.101
10422SOL    HW232166   5.393   2.424   0.035
10423SOL     OW32167   4.719   5.608   3.121
10423SOL    HW132168   4.782   5.638   3.193
10423SOL    HW232169   4.732   5.665   3.040
10424SOL     OW32170   4.564   1.368   6.561
10424SOL    HW132171   4.505   1.424   6.619
10424SOL    HW232172   4.510   1.324   6.490
10425SOL     OW32173   1.720   6.686   2.053
10425SOL    HW132174   1.808   6.696   2.007
10425SOL    HW232175   1.647   6.717   1.992
10426SOL     OW32176   6.486   4.230   6.232
10426SOL    HW132177   6.419   4.273   6.293
10426SOL    HW232178   6.491   4.132   6.252
10427SOL     OW32179   5.533   0.904   1.237
10427SOL    HW132180   5.443   0.944   1.218
10427SOL    HW232181   5.524   0.805   1.247
10428SOL     OW32182   4.549   1.904   3.477
10428SOL    HW132183   4.461   1.874   3.440
10428SOL    HW232184   4.609   1.931   3.402
10429SOL     OW32185   5.199   5.524   2.857
10429SOL    HW132186   5.128   5.458   2.880
10429SOL    HW232187   5.281   5.476   2.825
10430SOL     OW32188   4.042   6.315   2.585
10430SOL    HW132189   4.048   6.415   2.593
10430SOL    HW232190   3.976   6.281   2.651
10431SOL     OW32191   2.404   1.520   5.364
10431SOL    HW132192   2.481   1.576   5.336
10431SOL    HW232193   2.328   1.579   5.391
10432SOL     OW32194   4.329   0.525   4.688
10432SOL    HW132195   4.248   0.467   4.685
10432SOL    HW232196   4.324   0.585   4.768
10433SOL     OW32197   2.980   6.009   1.308
10433SOL    HW132198   3.000   6.085   1.246
10433SOL    HW232199   3.065   5.960   1.328
10434SOL     OW32200   3.239   2.096   5.244
10434SOL    HW132201   3.165   2.030   5.232
10434SOL    HW232202   3.203   2.189   5.235
10435SOL     OW32203   5.602   5.232   6.291
10435SOL    HW132204   5.644   5.177   6.219
10435SOL    HW232205   5.609   5.184   6.378
10436SOL     OW32206   0.465   1.191   2.872
10436SOL    HW132207   0.446   1.096   2.848
10436SOL    HW232208   0.383   1.246   2.858
10437SOL     OW32209   0.575   3.654   6.509
10437SOL    HW132210   0.645   3.616   6.449
10437SOL    HW232211   0.619   3.702   6.585
10438SOL     OW32212   3.423   0.109   5.872
10438SOL    HW132213   3.498   0.056   5.910
10438SOL    HW232214   3.346   0.109   5.936
10439SOL     OW32215   3.483   0.283   5.607
10439SOL    HW132216   3.422   0.359   5.585
10439SOL    HW232217   3.451   0.240   5.692
10440SOL     OW32218   0.992   5.603   1.035
10440SOL    HW132219   1.022   5.669   1.104
10440SOL    HW232220   1.071   5.566   0.987
10441SOL     OW32221   3.894   0.325   0.863
10441SOL    HW132222   3.815   0.382   0.886
10441SOL    HW232223   3.879   0.279   0.776
10442SOL     OW32224   4.454   6.007   5.992
10442SOL    HW132225   4.380   5.945   6.018
10442SOL    HW232226   4.522   5.958   5.938
10443SOL     OW32227   6.387   2.804   4.804
10443SOL    HW132228   6.425   2.896   4.812
10443SOL    HW232229   6.462   2.738   4.793
10444SOL     OW32230   4.299   5.181   4.956
10444SOL    HW132231   4.223   5.246   4.963
10444SOL    HW232232   4.315   5.138   5.045
10445SOL     OW32233   6.177   6.415   1.957
10445SOL    HW132234   6.275   6.403   1.941
10445SOL    HW232235   6.154   6.512   1.954
10446SOL     OW32236   1.351   6.561   6.319
10446SOL    HW132237   1.360   6.510   6.233
10446SOL    HW232238   1.413   6.522   6.387
10447SOL     OW32239   5.555   1.915   6.884
10447SOL    HW132240   5.601   1.872   6.806
10447SOL    HW232241   5.457   1.915   6.869
10448SOL     OW32242   3.439   3.558   2.197
10448SOL    HW132243   3.473   3.642   2.241
10448SOL    HW232244   3.356   3.579   2.145
10449SOL     OW32245   1.849   5.263   4.529
10449SOL    HW132246   1.776   5.278   4.597
10449SOL    HW232247   1.905   5.345   4.523
10450SOL     OW32248   7.020   3.513   0.805
10450SOL    HW132249   0.023   3.476   0.893
10450SOL    HW232250   6.993   3.608   0.816
10451SOL     OW32251   2.421   4.349   1.779
10451SOL    HW132252   2.516   4.354   1.748
10451SOL    HW232253   2.410   4.404   1.861
10452SOL     OW32254   2.087   3.311   5.944
10452SOL    HW132255   2.169   3.320   5.886
10452SOL    HW232256   2.080   3.217   5.976
10453SOL     OW32257   5.267   0.841   1.803
10453SOL    HW132258   5.180   0.883   1.780
10453SOL    HW232259   5.281   0.759   1.748
10454SOL     OW32260   4.804   4.639   2.614
10454SOL    HW132261   4.883   4.587   2.580
10454SOL    HW232262   4.790   4.719   2.556
10455SOL     OW32263   0.882   4.770   3.080
10455SOL    HW132264   0.966   4.806   3.121
10455SOL    HW232265   0.844   4.699   3.138
10456SOL     OW32266   4.265   6.428   1.183
10456SOL    HW132267   4.334   6.499   1.163
10456SOL    HW232268   4.185   6.443   1.125
10457SOL     OW32269   3.503   2.902   4.065
10457SOL    HW132270   3.419   2.934   4.108
10457SOL    HW232271   3.560   2.856   4.134
10458SOL     OW32272   6.891   6.047   2.099
10458SOL    HW132273   6.813   5.986   2.109
10458SOL    HW232274   6.944   6.020   2.019
10459SOL     OW32275   6.947   4.899   1.470
10459SOL    HW132276   0.010   4.922   1.507
10459SOL    HW232277   6.956   4.827   1.401
10460SOL     OW32278   0.958   3.924   1.432
10460SOL    HW132279   0.979   3.850   1.497
10460SOL    HW232280   0.927   4.005   1.482
10461SOL     OW32281   3.299   0.112   6.622
10461SOL    HW132282   3.297   0.205   6.659
10461SOL    HW232283   3.205   0.082   6.603
10462SOL     OW32284   5.289   6.552   1.041
10462SOL    HW132285   5.232   6.470   1.043
10462SOL    HW232286   5.356   6.544   0.967
10463SOL     OW32287   3.999   3.255   0.614
10463SOL    HW132288   4.044   3.253   0.525
10463SOL    HW232289   3.920   3.316   0.610
10464SOL     OW32290   5.452   6.592   2.342
10464SOL    HW132291   5.441   6.530   2.420
10464SOL    HW232292   5.464   6.686   2.375
10465SOL     OW32293   0.384   4.963   4.779
10465SOL    HW132294   0.448   4.892   4.809
10465SOL    HW232295   0.420   5.053   4.804
10466SOL     OW32296   4.807   6.377   5.391
10466SOL    HW132297   4.873   6.442   5.427
10466SOL    HW232298   4.817   6.371   5.291
10467SOL     OW32299   3.986   1.095   4.606
10467SOL    HW132300   3.923   1.116   4.681
10467SOL    HW232301   4.076   1.072   4.643
10468SOL     OW32302   2.957   4.868   3.405
10468SOL    HW132303   2.932   4.958   3.371
10468SOL    HW232304   2.980   4.874   3.502
10469SOL     OW32305   1.138   4.655   5.961
10469SOL    HW132306   1.145   4.607   6.048
10469SOL    HW232307   1.059   4.717   5.963
10470SOL     OW32308   2.304   2.352   4.446
10470SOL    HW132309   2.228   2.328   4.508
10470SOL    HW232310   2.380   2.289   4.463
10471SOL     OW32311   4.720   3.865   6.896
10471SOL    HW132312   4.692   3.781   6.943
10471SOL    HW232313   4.696   3.859   6.799
10472SOL     OW32314   3.794   1.138   3.910
10472SOL    HW132315   3.724   1.109   3.975
10472SOL    HW232316   3.760   1.215   3.857
10473SOL     OW32317   5.189   5.256   6.842
10473SOL    HW132318   5.174   5.349   6.876
10473SOL    HW232319   5.144   5.191   6.903
10474SOL     OW32320   4.888   0.817   4.157
10474SOL    HW132321   4.965   0.760   4.129
10474SOL    HW232322   4.921   0.889   4.219
10475SOL     OW32323   3.998   6.476   1.553
10475SOL    HW132324   3.972   6.571   1.533
10475SOL    HW232325   4.008   6.464   1.651
10476SOL     OW32326   0.891   5.011   6.415
10476SOL    HW132327   0.803   4.969   6.394
10476SOL    HW232328   0.911   5.082   6.347
10477SOL     OW32329   4.811   4.322   5.186
10477SOL    HW132330   4.788   4.274   5.272
10477SOL    HW232331   4.861   4.405   5.207
10478SOL     OW32332   0.592   6.619   3.345
10478SOL    HW132333   0.496   6.634   3.325
10478SOL    HW232334   0.626   6.691   3.406
10479SOL     OW32335   1.005   4.174   2.226
10479SOL    HW132336   1.098   4.191   2.196
10479SOL    HW232337   1.004   4.156   2.325
10480SOL     OW32338   4.940   1.447   0.713
10480SOL    HW132339   4.959   1.410   0.622
10480SOL    HW232340   5.009   1.516   0.735
10481SOL     OW32341   2.735   2.057   4.220
10481SOL    HW132342   2.775   1.967   4.206
10481SOL    HW232343   2.752   2.114   4.139
10482SOL     OW32344   0.927   6.483   6.905
10482SOL    HW132345   0.985   6.557   6.939
10482SOL    HW232346   0.925   6.485   6.805
10483SOL     OW32347   0.484   5.888   0.929
10483SOL    HW132348   0.578   5.872   0.959
10483SOL    HW232349   0.485   5.944   0.846
10484SOL     OW32350   6.825   1.631   1.695
10484SOL    HW132351   6.858   1.556   1.637
10484SOL    HW232352   6.767   1.692   1.640
10485SOL     OW32353   4.063   3.903   4.432
10485SOL    HW132354   4.148   3.956   4.423
10485SOL    HW232355   4.063   3.830   4.364
10486SOL     OW32356   6.133   5.408   5.773
10486SOL    HW132357   6.034   5.406   5.772
10486SOL    HW232358   6.169   5.364   5.690
10487SOL     OW32359   5.385   3.961   2.791
10487SOL    HW132360   5.482   3.938   2.805
10487SOL    HW232361   5.328   3.899   2.845
10488SOL     OW32362   0.465   2.562   5.967
10488SOL    HW132363   0.465   2.645   5.910
10488SOL    HW232364   0.555   2.550   6.008
10489SOL     OW32365   5.704   5.008   2.757
10489SOL    HW132366   5.782   4.956   2.721
10489SOL    HW232367   5.701   5.097   2.712
10490SOL     OW32368   5.022   6.495   6.277
10490SOL    HW132369   4.993   6.404   6.308
10490SOL    HW232370   5.109   6.518   6.321
10491SOL     OW32371   2.265   1.760   5.182
10491SOL    HW132372   2.263   1.856   5.155
10491SOL    HW232373   2.349   1.718   5.150
10492SOL     OW32374   2.956   6.204   0.260
10492SOL    HW132375   2.951   6.230   0.356
10492SOL    HW232376   2.946   6.285   0.203
10493SOL     OW32377   3.509   5.730   0.690
10493SOL    HW132378   3.453   5.784   0.626
10493SOL    HW232379   3.524   5.783   0.773
10494SOL     OW32380   6.920   5.548   3.647
10494SOL    HW132381   6.933   5.508   3.557
10494SOL    HW232382   6.899   5.476   3.713
10495SOL     OW32383   6.085   6.422   0.063
10495SOL    HW132384   6.048   6.334   0.033
10495SOL    HW232385   6.136   6.464   7.015
10496SOL     OW32386   0.976   4.024   5.918
10496SOL    HW132387   0.989   4.116   5.955
10496SOL    HW232388   0.988   3.957   5.992
10497SOL     OW32389   3.874   6.102   0.159
10497SOL    HW132390   3.855   6.187   0.111
10497SOL    HW232391   3.964   6.107   0.202
10498SOL     OW32392   3.028   3.640   0.201
10498SOL    HW132393   3.108   3.602   0.248
10498SOL    HW232394   2.990   3.571   0.139
10499SOL     OW32395   4.229   4.681   3.277
10499SOL    HW132396   4.202   4.675   3.374
10499SOL    HW232397   4.316   4.634   3.263
10500SOL     OW32398   1.935   3.252   5.230
10500SOL    HW132399   1.962   3.162   5.197
10500SOL    HW232400   1.995   3.280   5.305
10501SOL     OW32401   3.808   4.848   3.234
10501SOL    HW132402   3.740   4.829   3.304
10501SOL    HW232403   3.792   4.939   3.196
10502SOL     OW32404   3.182   4.033   2.771
10502SOL    HW132405   3.158   3.976   2.692
10502SOL    HW232406   3.124   4.009   2.849
10503SOL     OW32407   6.874   0.709   0.806
10503SOL    HW132408   6.807   0.698   0.880
10503SOL    HW232409   6.965   0.717   0.845
10504SOL     OW32410   1.169   2.633   5.722
10504SOL    HW132411   1.105   2.560   5.745
10504SOL    HW232412   1.156   2.710   5.784
10505SOL     OW32413   5.573   6.475   1.185
10505SOL    HW132414   5.514   6.434   1.116
10505SOL    HW232415   5.517   6.532   1.246
10506SOL     OW32416   1.226   5.091   5.119
10506SOL    HW132417   1.303   5.030   5.101
10506SOL    HW232418   1.195   5.078   5.214
10507SOL     OW32419   1.572   6.295   5.936
10507SOL    HW132420   1.620   6.212   5.964
10507SOL    HW232421   1.627   6.375   5.960
10508SOL     OW32422   1.742   6.291   1.245
10508SOL    HW132423   1.790   6.264   1.162
10508SOL    HW232424   1.808   6.305   1.319
10509SOL     OW32425   4.978   3.302   2.093
10509SOL    HW132426   4.959   3.400   2.097
10509SOL    HW232427   4.933   3.256   2.170
10510SOL     OW32428   5.906   6.241   2.138
10510SOL    HW132429   5.820   6.245   2.190
10510SOL    HW232430   5.980   6.213   2.199
10511SOL     OW32431   3.946   1.948   0.950
10511SOL    HW132432   3.968   1.868   0.894
10511SOL    HW232433   3.850   1.943   0.978
10512SOL     OW32434   4.044   0.664   4.824
10512SOL    HW132435   3.980   0.646   4.899
10512SOL    HW232436   4.125   0.711   4.860
10513SOL     OW32437   3.700   3.700   0.558
10513SOL    HW132438   3.732   3.752   0.638
10513SOL    HW232439   3.680   3.763   0.483
10514SOL     OW32440   1.541   5.337   2.040
10514SOL    HW132441   1.621   5.308   1.986
10514SOL    HW232442   1.565   5.418   2.093
10515SOL     OW32443   1.919   3.842   5.082
10515SOL    HW132444   1.951   3.792   5.001
10515SOL    HW232445   1.869   3.924   5.053
10516SOL     OW32446   5.612   1.927   1.707
10516SOL    HW132447   5.543   1.997   1.689
10516SOL    HW232448   5.643   1.936   1.802
10517SOL     OW32449   0.146   2.128   2.455
10517SOL    HW132450   0.178   2.084   2.371
10517SOL    HW232451   0.050   2.154   2.444
10518SOL     OW32452   0.876   5.888   2.780
10518SOL    HW132453   0.849   5.912   2.874
10518SOL    HW232454   0.921   5.799   2.781
10519SOL     OW32455   2.256   6.584   0.693
10519SOL    HW132456   2.321   6.566   0.766
10519SOL    HW232457   2.163   6.564   0.725
10520SOL     OW32458   3.092   2.761   5.910
10520SOL    HW132459   3.048   2.707   5.839
10520SOL    HW232460   3.119   2.850   5.873
10521SOL     OW32461   6.016   2.077   2.527
10521SOL    HW132462   6.007   2.033   2.438
10521SOL    HW232463   5.938   2.052   2.585
10522SOL     OW32464   5.201   1.613   3.100
10522SOL    HW132465   5.273   1.544   3.091
10522SOL    HW232466   5.156   1.626   3.012
10523SOL     OW32467   0.471   3.821   1.641
10523SOL    HW132468   0.486   3.766   1.723
10523SOL    HW232469   0.395   3.784   1.589
10524SOL     OW32470   6.009   6.641   4.979
10524SOL    HW132471   5.925   6.661   4.928
10524SOL    HW232472   6.065   6.724   4.982
10525SOL     OW32473   4.697   1.995   3.261
10525SOL    HW132474   4.784   2.045   3.257
10525SOL    HW232475   4.635   2.029   3.191
10526SOL     OW32476   1.409   5.770   5.781
10526SOL    HW132477   1.483   5.836   5.787
10526SOL    HW232478   1.440   5.681   5.815
10527SOL     OW32479   0.515   6.224   6.390
10527SOL    HW132480   0.557   6.310   6.362
10527SOL    HW232481   0.429   6.242   6.437
10528SOL     OW32482   2.354   6.338   5.123
10528SOL    HW132483   2.379   6.426   5.082
10528SOL    HW232484   2.431   6.306   5.179
10529SOL     OW32485   6.956   5.052   0.244
10529SOL    HW132486   6.881   4.987   0.261
10529SOL    HW232487   6.923   5.125   0.184
10530SOL     OW32488   6.181   0.508   1.310
10530SOL    HW132489   6.111   0.569   1.273
10530SOL    HW232490   6.261   0.561   1.338
10531SOL     OW32491   3.110   1.369   6.196
10531SOL    HW132492   3.183   1.393   6.131
10531SOL    HW232493   3.021   1.379   6.151
10532SOL     OW32494   4.829   5.485   6.045
10532SOL    HW132495   4.922   5.501   6.012
10532SOL    HW232496   4.769   5.559   6.014
10533SOL     OW32497   3.887   6.685   3.219
10533SOL    HW132498   3.959   6.753   3.232
10533SOL    HW232499   3.927   6.595   3.208
10534SOL     OW32500   0.647   6.417   4.223
10534SOL    HW132501   0.554   6.453   4.228
10534SOL    HW232502   0.664   6.357   4.301
10535SOL     OW32503   4.184   1.474   2.260
10535SOL    HW132504   4.198   1.375   2.257
10535SOL    HW232505   4.114   1.500   2.194
10536SOL     OW32506   6.183   3.902   4.374
10536SOL    HW132507   6.125   3.844   4.431
10536SOL    HW232508   6.140   3.991   4.361
10537SOL     OW32509   2.952   1.302   2.692
10537SOL    HW132510   2.902   1.286   2.607
10537SOL    HW232511   3.033   1.358   2.674
10538SOL     OW32512   6.284   2.685   3.853
10538SOL    HW132513   6.214   2.712   3.787
10538SOL    HW232514   6.245   2.685   3.945
10539SOL     OW32515   6.610   6.999   2.303
10539SOL    HW132516   6.539   6.983   2.371
10539SOL    HW232517   6.693   6.951   2.329
10540SOL     OW32518   1.572   3.010   6.136
10540SOL    HW132519   1.587   3.108   6.151
10540SOL    HW232520   1.573   2.963   6.224
10541SOL     OW32521   3.333   1.845   5.691
10541SOL    HW132522   3.264   1.904   5.648
10541SOL    HW232523   3.413   1.899   5.716
10542SOL     OW32524   3.830   6.689   2.010
10542SOL    HW132525   3.876   6.602   1.993
10542SOL    HW232526   3.866   6.729   2.094
10543SOL     OW32527   1.316   2.860   3.987
10543SOL    HW132528   1.266   2.943   4.013
10543SOL    HW232529   1.252   2.796   3.943
10544SOL     OW32530   3.057   2.177   2.276
10544SOL    HW132531   2.993   2.246   2.240
10544SOL    HW232532   3.014   2.087   2.274
10545SOL     OW32533   1.324   2.950   2.047
10545SOL    HW132534   1.233   2.990   2.052
10545SOL    HW232535   1.319   2.860   2.005
10546SOL     OW32536   1.674   6.882   4.807
10546SOL    HW132537   1.602   6.815   4.790
10546SOL    HW232538   1.763   6.836   4.810
10547SOL     OW32539   3.506   5.678   5.945
10547SOL    HW132540   3.412   5.670   5.912
10547SOL    HW232541   3.568   5.689   5.867
10548SOL     OW32542   1.351   5.047   3.355
10548SOL    HW132543   1.306   5.110   3.291
10548SOL    HW232544   1.310   5.057   3.445
10549SOL     OW32545   6.849   1.294   2.620
10549SOL    HW132546   6.752   1.318   2.623
10549SOL    HW232547   6.864   1.211   2.674
10550SOL     OW32548   6.956   5.168   2.667
10550SOL    HW132549   6.942   5.111   2.748
10550SOL    HW232550   6.867   5.195   2.630
10551SOL     OW32551   4.634   0.367   4.394
10551SOL    HW132552   4.553   0.311   4.410
10551SOL    HW232553   4.612   0.463   4.405
10552SOL     OW32554   2.621   6.980   3.364
10552SOL    HW132555   2.621   0.050   3.338
10552SOL    HW232556   2.636   6.972   3.463
10553SOL     OW32557   5.420   5.910   1.269
10553SOL    HW132558   5.503   5.859   1.247
10553SOL    HW232559   5.340   5.851   1.255
10554SOL     OW32560   6.346   5.743   0.947
10554SOL    HW132561   6.352   5.646   0.973
10554SOL    HW232562   6.295   5.793   1.016
10555SOL     OW32563   3.413   3.167   2.072
10555SOL    HW132564   3.438   3.228   1.996
10555SOL    HW232565   3.344   3.102   2.040
10556SOL     OW32566   2.531   2.607   1.837
10556SOL    HW132567   2.485   2.527   1.799
10556SOL    HW232568   2.482   2.690   1.808
10557SOL     OW32569   0.822   4.197   2.906
10557SOL    HW132570   0.733   4.155   2.922
10557SOL    HW232571   0.815   4.261   2.830
10558SOL     OW32572   4.914   5.084   4.589
10558SOL    HW132573   4.884   5.113   4.498
10558SOL    HW232574   4.976   5.007   4.581
10559SOL     OW32575   3.696   6.170   1.206
10559SOL    HW132576   3.646   6.226   1.140
10559SOL    HW232577   3.777   6.221   1.237
10560SOL     OW32578   5.474   0.190   4.092
10560SOL    HW132579   5.432   0.116   4.039
10560SOL    HW232580   5.570   0.199   4.066
10561SOL     OW32581   1.364   5.380   5.317
10561SOL    HW132582   1.394   5.287   5.338
10561SOL    HW232583   1.270   5.393   5.348
10562SOL     OW32584   3.286   0.665   2.635
10562SOL    HW132585   3.307   0.645   2.731
10562SOL    HW232586   3.237   0.588   2.594
10563SOL     OW32587   2.082   5.648   1.702
10563SOL    HW132588   2.017   5.697   1.760
10563SOL    HW232589   2.138   5.714   1.652
10564SOL     OW32590   5.325   4.980   3.088
10564SOL    HW132591   5.368   4.982   3.178
10564SOL    HW232592   5.391   5.010   3.019
10565SOL     OW32593   0.153   1.408   4.516
10565SOL    HW132594   0.216   1.417   4.439
10565SOL    HW232595   0.089   1.484   4.516
10566SOL     OW32596   3.998   1.926   0.244
10566SOL    HW132597   3.988   1.832   0.277
10566SOL    HW232598   3.922   1.949   0.184
10567SOL     OW32599   3.037   1.585   6.595
10567SOL    HW132600   3.064   1.495   6.563
10567SOL    HW232601   3.118   1.642   6.609
10568SOL     OW32602   5.954   2.054   6.375
10568SOL    HW132603   5.887   2.126   6.356
10568SOL    HW232604   6.046   2.091   6.363
10569SOL     OW32605   4.738   0.458   0.904
10569SOL    HW132606   4.732   0.461   0.804
10569SOL    HW232607   4.647   0.445   0.942
10570SOL     OW32608   1.139   4.388   3.141
10570SOL    HW132609   1.154   4.469   3.199
10570SOL    HW232610   1.219   4.330   3.144
10571SOL     OW32611   0.381   3.685   5.394
10571SOL    HW132612   0.467   3.733   5.404
10571SOL    HW232613   0.374   3.613   5.463
10572SOL     OW32614   0.058   4.843   0.522
10572SOL    HW132615   0.098   4.872   0.435
10572SOL    HW232616   0.013   4.921   0.565
10573SOL     OW32617   6.142   2.734   3.634
10573SOL    HW132618   6.114   2.642   3.605
10573SOL    HW232619   6.060   2.787   3.658
10574SOL     OW32620   5.208   2.501   2.208
10574SOL    HW132621   5.109   2.499   2.221
10574SOL    HW232622   5.246   2.409   2.219
10575SOL     OW32623   4.948   0.524   2.749
10575SOL    HW132624   5.030   0.509   2.804
10575SOL    HW232625   4.953   0.468   2.666
10576SOL     OW32626   1.583   3.051   5.242
10576SOL    HW132627   1.679   3.024   5.243
10576SOL    HW232628   1.563   3.107   5.323
10577SOL     OW32629   4.229   4.061   6.803
10577SOL    HW132630   4.237   4.000   6.724
10577SOL    HW232631   4.258   4.013   6.885
10578SOL     OW32632   1.425   3.882   2.123
10578SOL    HW132633   1.373   3.861   2.206
10578SOL    HW232634   1.458   3.976   2.127
10579SOL     OW32635   0.077   3.450   6.985
10579SOL    HW132636   0.131   3.479   6.906
10579SOL    HW232637   7.017   3.412   6.953
10580SOL     OW32638   5.191   0.054   6.579
10580SOL    HW132639   5.171   6.988   6.548
10580SOL    HW232640   5.231   0.107   6.505
10581SOL     OW32641   4.203   0.908   2.561
10581SOL    HW132642   4.171   0.830   2.615
10581SOL    HW232643   4.210   0.988   2.621
10582SOL     OW32644   0.096   3.248   0.368
10582SOL    HW132645   0.038   3.187   0.314
10582SOL    HW232646   0.040   3.295   0.437
10583SOL     OW32647   4.352   1.994   5.714
10583SOL    HW132648   4.415   1.971   5.640
10583SOL    HW232649   4.335   2.092   5.715
10584SOL     OW32650   6.251   0.497   3.649
10584SOL    HW132651   6.165   0.514   3.696
10584SOL    HW232652   6.327   0.514   3.712
10585SOL     OW32653   1.250   1.262   5.170
10585SOL    HW132654   1.156   1.235   5.191
10585SOL    HW232655   1.250   1.329   5.096
10586SOL     OW32656   4.953   3.476   6.057
10586SOL    HW132657   4.957   3.379   6.032
10586SOL    HW232658   4.942   3.531   5.974
10587SOL     OW32659   2.539   5.208   5.194
10587SOL    HW132660   2.621   5.157   5.167
10587SOL    HW232661   2.461   5.146   5.195
10588SOL     OW32662   1.025   4.050   4.497
10588SOL    HW132663   0.980   3.961   4.493
10588SOL    HW232664   1.120   4.038   4.525
10589SOL     OW32665   5.323   0.203   3.770
10589SOL    HW132666   5.285   0.125   3.721
10589SOL    HW232667   5.398   0.242   3.717
10590SOL     OW32668   0.366   6.422   2.197
10590SOL    HW132669   0.338   6.326   2.203
10590SOL    HW232670   0.433   6.432   2.123
10591SOL     OW32671   6.256   4.402   2.317
10591SOL    HW132672   6.226   4.497   2.312
10591SOL    HW232673   6.351   4.398   2.347
10592SOL     OW32674   6.352   3.675   4.618
10592SOL    HW132675   6.418   3.739   4.578
10592SOL    HW232676   6.296   3.636   4.544
10593SOL     OW32677   3.834   5.698   3.487
10593SOL    HW132678   3.837   5.638   3.406
10593SOL    HW232679   3.906   5.670   3.551
10594SOL     OW32680   3.885   6.087   3.935
10594SOL    HW132681   3.800   6.090   3.883
10594SOL    HW232682   3.919   5.993   3.937
10595SOL     OW32683   5.547   6.056   0.601
10595SOL    HW132684   5.497   6.095   0.679
10595SOL    HW232685   5.642   6.038   0.628
10596SOL     OW32686   5.906   3.975   0.248
10596SOL    HW132687   5.819   4.018   0.274
10596SOL    HW232688   5.895   3.928   0.160
10597SOL     OW32689   1.142   6.346   5.434
10597SOL    HW132690   1.120   6.344   5.337
10597SOL    HW232691   1.172   6.438   5.459
10598SOL     OW32692   3.535   1.615   0.941
10598SOL    HW132693   3.469   1.543   0.961
10598SOL    HW232694   3.599   1.623   1.017
10599SOL     OW32695   1.067   2.130   0.830
10599SOL    HW132696   1.082   2.153   0.926
10599SOL    HW232697   0.996   2.060   0.823
10600SOL     OW32698   4.920   1.578   2.005
10600SOL    HW132699   4.933   1.623   1.916
10600SOL    HW232700   4.969   1.630   2.075
10601SOL     OW32701   1.938   1.700   4.883
10601SOL    HW132702   2.021   1.688   4.828
10601SOL    HW232703   1.948   1.781   4.941
10602SOL     OW32704   6.827   0.007   1.485
10602SOL    HW132705   6.815   0.096   1.442
10602SOL    HW232706   6.754   6.972   1.455
10603SOL     OW32707   5.719   0.927   2.766
10603SOL    HW132708   5.656   0.862   2.722
10603SOL    HW232709   5.795   0.946   2.705
10604SOL     OW32710   5.353   2.221   5.151
10604SOL    HW132711   5.289   2.187   5.219
10604SOL    HW232712   5.302   2.265   5.077
10605SOL     OW32713   4.429   2.278   1.140
10605SOL    HW132714   4.498   2.243   1.077
10605SOL    HW232715   4.362   2.207   1.160
10606SOL     OW32716   5.667   1.469   0.722
10606SOL    HW132717   5.586   1.448   0.777
10606SOL    HW232718   5.652   1.553   0.671
10607SOL     OW32719   2.667   4.891   0.785
10607SOL    HW132720   2.646   4.940   0.701
10607SOL    HW232721   2.741   4.826   0.768
10608SOL     OW32722   5.348   4.449   2.663
10608SOL    HW132723   5.349   4.430   2.761
10608SOL    HW232724   5.355   4.363   2.613
10609SOL     OW32725   5.848   0.096   6.197
10609SOL    HW132726   5.928   0.148   6.165
10609SOL    HW232727   5.877   0.006   6.228
10610SOL     OW32728   0.582   1.894   3.098
10610SOL    HW132729   0.484   1.909   3.085
10610SOL    HW232730   0.602   1.881   3.195
10611SOL     OW32731   4.201   5.433   6.081
10611SOL    HW132732   4.105   5.457   6.065
10611SOL    HW232733   4.207   5.348   6.133
10612SOL     OW32734   5.440   2.601   3.316
10612SOL    HW132735   5.373   2.557   3.257
10612SOL    HW232736   5.521   2.625   3.263
10613SOL     OW32737   5.382   5.250   5.507
10613SOL    HW132738   5.434   5.213   5.429
10613SOL    HW232739   5.385   5.185   5.582
10614SOL     OW32740   4.240   2.406   6.786
10614SOL    HW132741   4.325   2.414   6.734
10614SOL    HW232742   4.174   2.473   6.752
10615SOL     OW32743   2.946   2.091   5.403
10615SOL    HW132744   2.895   2.151   5.464
10615SOL    HW232745   2.925   2.114   5.308
10616SOL     OW32746   1.329   5.391   0.029
10616SOL    HW132747   1.340   5.424   6.962
10616SOL    HW232748   1.232   5.380   0.049
10617SOL     OW32749   2.335   3.156   0.072
10617SOL    HW132750   2.292   3.163   0.162
10617SOL    HW232751   2.320   3.241   0.021
10618SOL     OW32752   0.255   4.796   4.059
10618SOL    HW132753   0.265   4.876   4.118
10618SOL    HW232754   0.170   4.803   4.007
10619SOL     OW32755   1.067   2.707   1.022
10619SOL    HW132756   1.004   2.654   0.966
10619SOL    HW232757   1.160   2.674   1.007
10620SOL     OW32758   3.949   0.899   5.697
10620SOL    HW132759   3.935   0.855   5.786
10620SOL    HW232760   3.862   0.905   5.648
10621SOL     OW32761   0.690   4.838   4.799
10621SOL    HW132762   0.705   4.931   4.834
10621SOL    HW232763   0.675   4.776   4.876
10622SOL     OW32764   3.770   1.948   6.057
10622SOL    HW132765   3.774   2.007   6.138
10622SOL    HW232766   3.676   1.946   6.022
10623SOL     OW32767   5.558   4.695   5.355
10623SOL    HW132768   5.486   4.689   5.424
10623SOL    HW232769   5.517   4.688   5.264
10624SOL     OW32770   7.015   1.545   5.647
10624SOL    HW132771   6.979   1.610   5.714
10624SOL    HW232772   0.075   1.578   5.611
10625SOL     OW32773   5.581   5.869   6.712
10625SOL    HW132774   5.598   5.786   6.659
10625SOL    HW232775   5.495   5.860   6.761
10626SOL     OW32776   5.604   3.751   2.370
10626SOL    HW132777   5.524   3.756   2.429
10626SOL    HW232778   5.661   3.832   2.384
10627SOL     OW32779   5.695   4.965   5.382
10627SOL    HW132780   5.753   4.952   5.302
10627SOL    HW232781   5.676   4.876   5.424
10628SOL     OW32782   3.188   5.681   1.723
10628SOL    HW132783   3.276   5.720   1.696
10628SOL    HW232784   3.154   5.621   1.650
10629SOL     OW32785   4.172   6.089   4.432
10629SOL    HW132786   4.231   6.101   4.511
10629SOL    HW232787   4.150   5.992   4.422
10630SOL     OW32788   4.151   0.821   1.209
10630SOL    HW132789   4.216   0.801   1.282
10630SOL    HW232790   4.058   0.808   1.242
10631SOL     OW32791   3.860   6.393   2.023
10631SOL    HW132792   3.762   6.394   2.005
10631SOL    HW232793   3.881   6.321   2.089
10632SOL     OW32794   5.639   0.413   4.806
10632SOL    HW132795   5.723   0.452   4.843
10632SOL    HW232796   5.648   0.401   4.707
10633SOL     OW32797   2.759   3.146   6.999
10633SOL    HW132798   2.715   3.202   6.929
10633SOL    HW232799   2.695   3.078   0.007
10634SOL     OW32800   0.628   4.116   0.190
10634SOL    HW132801   0.599   4.210   0.171
10634SOL    HW232802   0.654   4.108   0.286
10635SOL     OW32803   2.961   4.667   6.900
10635SOL    HW132804   3.013   4.737   6.947
10635SOL    HW232805   2.870   4.660   6.940
10636SOL     OW32806   6.725   3.029   0.989
10636SOL    HW132807   6.661   3.106   0.990
10636SOL    HW232808   6.702   2.969   0.912
10637SOL     OW32809   1.696   0.564   5.510
10637SOL    HW132810   1.736   0.474   5.498
10637SOL    HW232811   1.749   0.616   5.577
10638SOL     OW32812   5.785   4.811   6.814
10638SOL    HW132813   5.800   4.816   6.913
10638SOL    HW232814   5.828   4.728   6.778
10639SOL     OW32815   6.755   5.469   6.859
10639SOL    HW132816   6.708   5.516   6.934
10639SOL    HW232817   6.700   5.391   6.829
10640SOL     OW32818   3.689   5.828   4.596
10640SOL    HW132819   3.758   5.758   4.616
10640SOL    HW232820   3.711   5.873   4.509
10641SOL     OW32821   1.093   1.481   4.026
10641SOL    HW132822   1.014   1.491   3.965
10641SOL    HW232823   1.155   1.559   4.013
10642SOL     OW32824   0.512   1.960   6.443
10642SOL    HW132825   0.566   1.942   6.525
10642SOL    HW232826   0.512   1.879   6.385
10643SOL     OW32827   2.898   5.256   4.782
10643SOL    HW132828   2.822   5.308   4.821
10643SOL    HW232829   2.919   5.290   4.691
10644SOL     OW32830   1.111   3.384   3.460
10644SOL    HW132831   1.040   3.438   3.413
10644SOL    HW232832   1.132   3.426   3.548
10645SOL     OW32833   1.903   3.509   3.835
10645SOL    HW132834   1.817   3.522   3.785
10645SOL    HW232835   1.980   3.515   3.772
10646SOL     OW32836   4.987   1.415   3.309
10646SOL    HW132837   5.005   1.418   3.407
10646SOL    HW232838   4.898   1.372   3.293
10647SOL     OW32839   4.110   5.554   4.781
10647SOL    HW132840   4.163   5.478   4.745
10647SOL    HW232841   4.165   5.606   4.846
10648SOL     OW32842   4.832   3.737   5.578
10648SOL    HW132843   4.741   3.750   5.540
10648SOL    HW232844   4.844   3.795   5.659
10649SOL     OW32845   5.993   3.265   3.688
10649SOL    HW132846   6.052   3.341   3.717
10649SOL    HW232847   6.050   3.185   3.667
10650SOL     OW32848   1.007   0.414   3.110
10650SOL    HW132849   0.993   0.503   3.066
10650SOL    HW232850   1.070   0.359   3.056
10651SOL     OW32851   2.173   5.786   5.403
10651SOL    HW132852   2.115   5.831   5.335
10651SOL    HW232853   2.141   5.809   5.495
10652SOL     OW32854   2.980   0.652   0.161
10652SOL    HW132855   2.902   0.608   0.207
10652SOL    HW232856   2.946   0.710   0.088
10653SOL     OW32857   5.752   6.171   4.383
10653SOL    HW132858   5.818   6.236   4.420
10653SOL    HW232859   5.794   6.120   4.308
10654SOL     OW32860   6.921   1.552   4.161
10654SOL    HW132861   6.986   1.609   4.211
10654SOL    HW232862   6.901   1.469   4.214
10655SOL     OW32863   6.198   5.543   0.632
10655SOL    HW132864   6.234   5.509   0.545
10655SOL    HW232865   6.204   5.470   0.701
10656SOL     OW32866   6.200   0.740   6.316
10656SOL    HW132867   6.256   0.821   6.298
10656SOL    HW232868   6.120   0.741   6.256
10657SOL     OW32869   4.224   6.487   5.658
10657SOL    HW132870   4.237   6.512   5.562
10657SOL    HW232871   4.266   6.557   5.716
10658SOL     OW32872   1.322   1.365   5.870
10658SOL    HW132873   1.329   1.421   5.788
10658SOL    HW232874   1.269   1.413   5.940
10659SOL     OW32875   0.654   5.716   6.841
10659SOL    HW132876   0.678   5.788   6.777
10659SOL    HW232877   0.681   5.742   6.934
10660SOL     OW32878   6.245   2.732   6.650
10660SOL    HW132879   6.180   2.656   6.656
10660SOL    HW232880   6.324   2.713   6.708
10661SOL     OW32881   3.517   5.813   5.401
10661SOL    HW132882   3.511   5.834   5.304
10661SOL    HW232883   3.535   5.897   5.453
10662SOL     OW32884   3.018   1.715   0.855
10662SOL    HW132885   3.076   1.731   0.935
10662SOL    HW232886   2.979   1.623   0.861
10663SOL     OW32887   6.542   3.104   4.042
10663SOL    HW132888   6.534   3.200   4.069
10663SOL    HW232889   6.472   3.083   3.974
10664SOL     OW32890   1.151   6.243   4.919
10664SOL    HW132891   1.192   6.297   4.993
10664SOL    HW232892   1.218   6.228   4.847
10665SOL     OW32893   3.618   3.301   0.772
10665SOL    HW132894   3.527   3.317   0.735
10665SOL    HW232895   3.622   3.210   0.813
10666SOL     OW32896   4.587   3.490   1.353
10666SOL    HW132897   4.496   3.449   1.362
10666SOL    HW232898   4.636   3.482   1.439
10667SOL     OW32899   5.773   2.603   4.042
10667SOL    HW132900   5.717   2.522   4.062
10667SOL    HW232901   5.760   2.671   4.113
10668SOL     OW32902   3.429   3.519   6.154
10668SOL    HW132903   3.368   3.518   6.234
10668SOL    HW232904   3.482   3.434   6.151
10669SOL     OW32905   6.585   3.200   1.749
10669SOL    HW132906   6.531   3.147   1.684
10669SOL    HW232907   6.574   3.298   1.729
10670SOL     OW32908   4.413   4.693   4.368
10670SOL    HW132909   4.318   4.723   4.378
10670SOL    HW232910   4.471   4.772   4.348
10671SOL     OW32911   1.963   3.137   4.931
10671SOL    HW132912   1.926   3.230   4.929
10671SOL    HW232913   2.059   3.140   4.958
10672SOL     OW32914   6.228   4.542   1.414
10672SOL    HW132915   6.190   4.541   1.506
10672SOL    HW232916   6.249   4.636   1.388
10673SOL     OW32917   3.295   1.452   1.743
10673SOL    HW132918   3.206   1.474   1.702
10673SOL    HW232919   3.361   1.431   1.672
10674SOL     OW32920   3.719   3.185   4.542
10674SOL    HW132921   3.719   3.085   4.542
10674SOL    HW232922   3.806   3.218   4.577
10675SOL     OW32923   3.809   6.264   5.681
10675SOL    HW132924   3.773   6.223   5.597
10675SOL    HW232925   3.906   6.241   5.690
10676SOL     OW32926   1.253   1.449   4.993
10676SOL    HW132927   1.274   1.452   4.895
10676SOL    HW232928   1.319   1.505   5.042
10677SOL     OW32929   6.989   1.631   6.799
10677SOL    HW132930   0.061   1.646   6.808
10677SOL    HW232931   6.962   1.643   6.703
10678SOL     OW32932   3.561   5.199   2.472
10678SOL    HW132933   3.504   5.161   2.545
10678SOL    HW232934   3.649   5.152   2.471
10679SOL     OW32935   5.265   3.983   0.083
10679SOL    HW132936   5.269   4.059   0.148
10679SOL    HW232937   5.207   4.008   0.005
10680SOL     OW32938   4.840   1.123   5.294
10680SOL    HW132939   4.794   1.089   5.212
10680SOL    HW232940   4.937   1.098   5.292
10681SOL     OW32941   2.684   3.394   5.327
10681SOL    HW132942   2.669   3.491   5.344
10681SOL    HW232943   2.603   3.343   5.354
10682SOL     OW32944   5.193   3.340   5.867
10682SOL    HW132945   5.159   3.416   5.921
10682SOL    HW232946   5.244   3.375   5.788
10683SOL     OW32947   1.817   0.623   3.236
10683SOL    HW132948   1.724   0.628   3.201
10683SOL    HW232949   1.856   0.715   3.239
10684SOL     OW32950   4.748   4.237   1.553
10684SOL    HW132951   4.680   4.222   1.481
10684SOL    HW232952   4.727   4.177   1.630
10685SOL     OW32953   0.934   0.281   2.789
10685SOL    HW132954   0.931   0.183   2.807
10685SOL    HW232955   1.001   0.299   2.717
10686SOL     OW32956   2.877   1.200   6.319
10686SOL    HW132957   2.913   1.226   6.409
10686SOL    HW232958   2.870   1.281   6.261
10687SOL     OW32959   0.703   2.830   3.113
10687SOL    HW132960   0.634   2.765   3.144
10687SOL    HW232961   0.672   2.876   3.030
10688SOL     OW32962   5.420   1.162   3.763
10688SOL    HW132963   5.427   1.065   3.786
10688SOL    HW232964   5.477   1.182   3.684
10689SOL     OW32965   1.629   1.399   2.841
10689SOL    HW132966   1.636   1.473   2.774
10689SOL    HW232967   1.533   1.389   2.869
10690SOL     OW32968   0.552   6.798   4.361
10690SOL    HW132969   0.555   6.895   4.337
10690SOL    HW232970   0.628   6.776   4.422
10691SOL     OW32971   3.490   6.674   1.195
10691SOL    HW132972   3.564   6.692   1.130
10691SOL    HW232973   3.517   6.597   1.254
10692SOL     OW32974   2.775   2.332   4.320
10692SOL    HW132975   2.701   2.396   4.338
10692SOL    HW232976   2.754   2.278   4.238
10693SOL     OW32977   1.151   4.476   0.287
10693SOL    HW132978   1.101   4.395   0.320
10693SOL    HW232979   1.212   4.450   0.212
10694SOL     OW32980   5.438   1.297   5.241
10694SOL    HW132981   5.431   1.386   5.196
10694SOL    HW232982   5.350   1.250   5.236
10695SOL     OW32983   5.027   4.691   1.040
10695SOL    HW132984   5.110   4.681   0.984
10695SOL    HW232985   5.033   4.629   1.118
10696SOL     OW32986   6.562   4.218   4.780
10696SOL    HW132987   6.510   4.164   4.713
10696SOL    HW232988   6.638   4.264   4.734
10697SOL     OW32989   2.687   5.041   4.369
10697SOL    HW132990   2.699   5.130   4.324
10697SOL    HW232991   2.631   4.981   4.311
10698SOL     OW32992   4.091   4.375   0.011
10698SOL    HW132993   4.150   4.380   6.958
10698SOL    HW232994   4.059   4.281   0.024
10699SOL     OW32995   3.777   3.577   1.238
10699SOL    HW132996   3.786   3.563   1.139
10699SOL    HW232997   3.867   3.581   1.280
10700SOL     OW32998   4.717   0.180   1.479
10700SOL    HW132999   4.738   0.100   1.423
10700SOL    HW233000   4.622   0.206   1.467
10701SOL     OW33001   3.289   6.024   6.456
10701SOL    HW133002   3.215   5.957   6.446
10701SOL    HW233003   3.351   6.016   6.378
10702SOL     OW33004   5.585   2.810   2.534
10702SOL    HW133005   5.540   2.730   2.494
10702SOL    HW233006   5.528   2.891   2.520
10703SOL     OW33007   0.557   1.623   5.573
10703SOL    HW133008   0.501   1.542   5.593
10703SOL    HW233009   0.502   1.689   5.522
10704SOL     OW33010   5.510   0.096   1.916
10704SOL    HW133011   5.539   0.093   2.011
10704SOL    HW233012   5.558   0.170   1.869
10705SOL     OW33013   4.918   3.371   0.683
10705SOL    HW133014   4.945   3.419   0.599
10705SOL    HW233015   4.984   3.298   0.702
10706SOL     OW33016   3.244   0.985   1.697
10706SOL    HW133017   3.231   0.895   1.655
10706SOL    HW233018   3.168   1.044   1.673
10707SOL     OW33019   4.182   6.735   3.223
10707SOL    HW133020   4.258   6.672   3.230
10707SOL    HW233021   4.150   6.760   3.315
10708SOL     OW33022   4.465   0.999   1.384
10708SOL    HW133023   4.462   1.098   1.389
10708SOL    HW233024   4.560   0.968   1.386
10709SOL     OW33025   5.876   4.782   2.436
10709SOL    HW133026   5.780   4.797   2.413
10709SOL    HW233027   5.892   4.814   2.530
10710SOL     OW33028   4.292   1.698   3.088
10710SOL    HW133029   4.302   1.709   2.989
10710SOL    HW233030   4.380   1.673   3.128
10711SOL     OW33031   2.658   6.619   2.937
10711SOL    HW133032   2.695   6.712   2.927
10711SOL    HW233033   2.712   6.556   2.880
10712SOL     OW33034   5.368   0.606   3.448
10712SOL    HW133035   5.456   0.582   3.407
10712SOL    HW233036   5.325   0.678   3.394
10713SOL     OW33037   1.237   3.550   1.774
10713SOL    HW133038   1.166   3.500   1.824
10713SOL    HW233039   1.298   3.596   1.839
10714SOL     OW33040   3.181   4.189   5.302
10714SOL    HW133041   3.108   4.144   5.251
10714SOL    HW233042   3.161   4.287   5.308
10715SOL     OW33043   6.123   0.922   1.898
10715SOL    HW133044   6.151   0.995   1.960
10715SOL    HW233045   6.024   0.926   1.883
10716SOL     OW33046   5.009   1.057   3.565
10716SOL    HW133047   5.038   0.999   3.488
10716SOL    HW233048   4.926   1.106   3.540
10717SOL     OW33049   3.035   2.338   6.962
10717SOL    HW133050   3.085   2.266   6.915
10717SOL    HW233051   3.097   2.414   6.981
10718SOL     OW33052   1.795   5.166   6.284
10718SOL    HW133053   1.797   5.264   6.306
10718SOL    HW233054   1.738   5.151   6.203
10719SOL     OW33055   0.399   5.469   4.766
10719SOL    HW133056   0.356   5.531   4.833
10719SOL    HW233057   0.394   5.510   4.675
10720SOL     OW33058   6.970   4.980   2.888
10720SOL    HW133059   0.032   4.942   2.862
10720SOL    HW233060   6.906   4.906   2.908
10721SOL     OW33061   4.969   2.319   6.090
10721SOL    HW133062   4.895   2.279   6.037
10721SOL    HW233063   4.969   2.279   6.182
10722SOL     OW33064   0.185   3.388   5.176
10722SOL    HW133065   0.232   3.392   5.088
10722SOL    HW233066   0.252   3.391   5.250
10723SOL     OW33067   5.089   6.909   0.478
10723SOL    HW133068   5.012   6.963   0.513
10723SOL    HW233069   5.057   6.816   0.458
10724SOL     OW33070   0.689   6.036   6.280
10724SOL    HW133071   0.649   6.037   6.188
10724SOL    HW233072   0.658   6.116   6.331
10725SOL     OW33073   2.082   6.271   6.254
10725SOL    HW133074   2.139   6.347   6.221
10725SOL    HW233075   2.118   6.185   6.220
10726SOL     OW33076   4.016   0.742   4.145
10726SOL    HW133077   3.983   0.807   4.076
10726SOL    HW233078   4.080   0.678   4.102
10727SOL     OW33079   2.067   6.412   6.487
10727SOL    HW133080   2.082   6.501   6.445
10727SOL    HW233081   2.099   6.340   6.425
10728SOL     OW33082   5.246   5.713   1.214
10728SOL    HW133083   5.263   5.656   1.294
10728SOL    HW233084   5.227   5.656   1.135
10729SOL     OW33085   6.464   2.273   1.034
10729SOL    HW133086   6.524   2.208   0.989
10729SOL    HW233087   6.517   2.329   1.098
10730SOL     OW33088   4.468   0.360   3.040
10730SOL    HW133089   4.503   0.299   2.969
10730SOL    HW233090   4.524   0.443   3.043
10731SOL     OW33091   3.903   0.171   1.141
10731SOL    HW133092   4.002   0.181   1.152
10731SOL    HW233093   3.876   0.206   1.052
10732SOL     OW33094   0.767   3.326   6.230
10732SOL    HW133095   0.777   3.254   6.298
10732SOL    HW233096   0.832   3.311   6.155
10733SOL     OW33097   5.608   1.220   0.385
10733SOL    HW133098   5.613   1.129   0.345
10733SOL    HW233099   5.671   1.227   0.463
10734SOL     OW33100   6.497   2.922   1.922
10734SOL    HW133101   6.515   2.868   2.005
10734SOL    HW233102   6.562   2.999   1.919
10735SOL     OW33103   0.266   5.388   3.181
10735SOL    HW133104   0.302   5.296   3.197
10735SOL    HW233105   0.335   5.456   3.206
10736SOL     OW33106   2.144   1.174   4.486
10736SOL    HW133107   2.241   1.168   4.511
10736SOL    HW233108   2.095   1.226   4.555
10737SOL     OW33109   6.792   2.027   0.550
10737SOL    HW133110   6.783   2.056   0.454
10737SOL    HW233111   6.772   2.104   0.610
10738SOL     OW33112   3.867   0.368   3.749
10738SOL    HW133113   3.815   0.283   3.754
10738SOL    HW233114   3.956   0.350   3.708
10739SOL     OW33115   2.712   1.741   1.966
10739SOL    HW133116   2.805   1.718   1.939
10739SOL    HW233117   2.649   1.721   1.891
10740SOL     OW33118   4.756   6.179   3.216
10740SOL    HW133119   4.719   6.137   3.133
10740SOL    HW233120   4.777   6.275   3.199
10741SOL     OW33121   2.646   0.791   2.948
10741SOL    HW133122   2.698   0.872   2.925
10741SOL    HW233123   2.588   0.810   3.027
10742SOL     OW33124   6.536   5.451   0.752
10742SOL    HW133125   6.554   5.549   0.758
10742SOL    HW233126   6.590   5.403   0.820
10743SOL     OW33127   2.624   2.017   5.200
10743SOL    HW133128   2.683   2.098   5.197
10743SOL    HW233129   2.673   1.939   5.161
10744SOL     OW33130   5.948   1.752   0.205
10744SOL    HW133131   5.946   1.676   0.270
10744SOL    HW233132   5.913   1.722   0.117
10745SOL     OW33133   0.406   5.966   6.397
10745SOL    HW133134   0.451   6.053   6.377
10745SOL    HW233135   0.475   5.895   6.409
10746SOL     OW33136   1.948   4.365   5.820
10746SOL    HW133137   1.985   4.458   5.825
10746SOL    HW233138   1.919   4.346   5.726
10747SOL     OW33139   3.356   2.139   4.647
10747SOL    HW133140   3.363   2.092   4.559
10747SOL    HW233141   3.447   2.159   4.682
10748SOL     OW33142   5.377   1.261   2.293
10748SOL    HW133143   5.298   1.320   2.282
10748SOL    HW233144   5.455   1.300   2.243
10749SOL     OW33145   3.009   6.533   0.216
10749SOL    HW133146   2.974   6.626   0.203
10749SOL    HW233147   3.000   6.482   0.130
10750SOL     OW33148   4.029   6.408   6.211
10750SOL    HW133149   4.081   6.491   6.233
10750SOL    HW233150   4.081   6.351   6.148
10751SOL     OW33151   2.404   5.414   3.648
10751SOL    HW133152   2.495   5.425   3.689
10751SOL    HW233153   2.367   5.324   3.672
10752SOL     OW33154   4.882   5.000   3.951
10752SOL    HW133155   4.861   4.920   4.007
10752SOL    HW233156   4.961   4.979   3.893
10753SOL     OW33157   6.365   4.100   4.595
10753SOL    HW133158   6.271   4.088   4.629
10753SOL    HW233159   6.408   4.011   4.583
10754SOL     OW33160   1.349   0.015   2.301
10754SOL    HW133161   1.438   0.036   2.343
10754SOL    HW233162   1.361   6.972   2.230
10755SOL     OW33163   6.138   5.689   1.461
10755SOL    HW133164   6.116   5.743   1.543
10755SOL    HW233165   6.192   5.609   1.487
10756SOL     OW33166   0.414   0.029   4.961
10756SOL    HW133167   0.331   0.069   4.999
10756SOL    HW233168   0.465   7.011   5.035
10757SOL     OW33169   2.709   2.872   1.061
10757SOL    HW133170   2.803   2.845   1.037
10757SOL    HW233171   2.674   2.934   0.990
10758SOL     OW33172   6.997   5.464   4.201
10758SOL    HW133173   6.974   5.375   4.240
10758SOL    HW233174   0.053   5.455   4.145
10759SOL     OW33175   6.813   1.386   6.654
10759SOL    HW133176   6.882   1.321   6.685
10759SOL    HW233177   6.856   1.457   6.597
10760SOL     OW33178   5.969   1.655   4.802
10760SOL    HW133179   6.044   1.598   4.768
10760SOL    HW233180   5.882   1.607   4.789
10761SOL     OW33181   2.774   5.075   5.551
10761SOL    HW133182   2.724   5.161   5.543
10761SOL    HW233183   2.791   5.055   5.648
10762SOL     OW33184   2.976   1.682   5.564
10762SOL    HW133185   3.021   1.598   5.593
10762SOL    HW233186   2.879   1.665   5.548
10763SOL     OW33187   4.479   6.499   4.095
10763SOL    HW133188   4.507   6.510   4.191
10763SOL    HW233189   4.534   6.428   4.052
10764SOL     OW33190   4.337   6.937   4.997
10764SOL    HW133191   4.366   6.881   5.074
10764SOL    HW233192   4.294   6.878   4.928
10765SOL     OW33193   6.507   3.732   6.988
10765SOL    HW133194   6.469   3.788   6.914
10765SOL    HW233195   6.583   3.781   0.004
10766SOL     OW33196   3.517   3.593   1.373
10766SOL    HW133197   3.603   3.612   1.327
10766SOL    HW233198   3.522   3.505   1.420
10767SOL     OW33199   4.688   1.718   2.369
10767SOL    HW133200   4.650   1.636   2.327
10767SOL    HW233201   4.732   1.774   2.299
10768SOL     OW33202   6.270   4.693   6.491
10768SOL    HW133203   6.367   4.670   6.492
10768SOL    HW233204   6.222   4.633   6.427
10769SOL     OW33205   1.834   3.365   4.810
10769SOL    HW133206   1.789   3.380   4.898
10769SOL    HW233207   1.826   3.447   4.754
10770SOL     OW33208   4.256   6.305   3.985
10770SOL    HW133209   4.214   6.313   4.075
10770SOL    HW233210   4.186   6.282   3.917
10771SOL     OW33211   2.213   1.220   4.202
10771SOL    HW133212   2.141   1.274   4.158
10771SOL    HW233213   2.196   1.215   4.301
10772SOL     OW33214   5.347   5.640   3.856
10772SOL    HW133215   5.288   5.564   3.884
10772SOL    HW233216   5.292   5.710   3.811
10773SOL     OW33217   5.966   4.636   2.842
10773SOL    HW133218   5.908   4.589   2.776
10773SOL    HW233219   5.920   4.719   2.873
10774SOL     OW33220   0.132   6.839   3.013
10774SOL    HW133221   0.132   6.804   2.919
10774SOL    HW233222   0.154   6.765   3.076
10775SOL     OW33223   0.188   3.294   1.343
10775SOL    HW133224   0.174   3.209   1.292
10775SOL    HW233225   0.256   3.350   1.297
10776SOL     OW33226   1.227   0.637   5.803
10776SOL    HW133227   1.213   0.542   5.832
10776SOL    HW233228   1.315   0.644   5.757
10777SOL     OW33229   2.659   5.498   1.449
10777SOL    HW133230   2.693   5.567   1.514
10777SOL    HW233231   2.722   5.420   1.448
10778SOL     OW33232   5.783   5.887   2.296
10778SOL    HW133233   5.761   5.985   2.291
10778SOL    HW233234   5.699   5.834   2.285
10779SOL     OW33235   4.852   3.239   3.632
10779SOL    HW133236   4.827   3.273   3.723
10779SOL    HW233237   4.832   3.142   3.626
10780SOL     OW33238   6.781   0.392   2.112
10780SOL    HW133239   6.697   0.360   2.157
10780SOL    HW233240   6.769   0.487   2.083
10781SOL     OW33241   3.350   0.146   4.379
10781SOL    HW133242   3.329   0.188   4.467
10781SOL    HW233243   3.297   0.192   4.307
10782SOL     OW33244   6.011   5.086   3.727
10782SOL    HW133245   6.067   5.034   3.662
10782SOL    HW233246   6.070   5.119   3.802
10783SOL     OW33247   6.855   2.187   3.167
10783SOL    HW133248   6.799   2.245   3.226
10783SOL    HW233249   6.809   2.099   3.154
10784SOL     OW33250   2.499   1.685   5.026
10784SOL    HW133251   2.493   1.701   4.928
10784SOL    HW233252   2.592   1.704   5.057
10785SOL     OW33253   1.093   3.510   5.850
10785SOL    HW133254   1.172   3.538   5.797
10785SOL    HW233255   1.122   3.485   5.943
10786SOL     OW33256   6.963   4.329   3.962
10786SOL    HW133257   7.008   4.345   4.050
10786SOL    HW233258   6.888   4.265   3.974
10787SOL     OW33259   2.459   2.074   6.776
10787SOL    HW133260   2.550   2.106   6.802
10787SOL    HW233261   2.430   2.121   6.693
10788SOL     OW33262   5.725   3.648   6.053
10788SOL    HW133263   5.668   3.612   6.127
10788SOL    HW233264   5.791   3.579   6.026
10789SOL     OW33265   5.352   1.331   0.468
10789SOL    HW133266   5.350   1.431   0.462
10789SOL    HW233267   5.424   1.295   0.408
10790SOL     OW33268   5.927   6.157   2.955
10790SOL    HW133269   5.956   6.205   2.872
10790SOL    HW233270   5.858   6.090   2.931
10791SOL     OW33271   0.611   6.532   2.710
10791SOL    HW133272   0.601   6.597   2.634
10791SOL    HW233273   0.540   6.462   2.704
10792SOL     OW33274   3.958   4.237   6.074
10792SOL    HW133275   3.967   4.262   6.170
10792SOL    HW233276   3.945   4.139   6.065
10793SOL     OW33277   6.178   4.034   4.013
10793SOL    HW133278   6.128   3.987   3.940
10793SOL    HW233279   6.243   3.970   4.054
10794SOL     OW33280   3.538   3.860   4.479
10794SOL    HW133281   3.542   3.951   4.518
10794SOL    HW233282   3.555   3.792   4.551
10795SOL     OW33283   0.195   5.051   2.714
10795SOL    HW133284   0.119   5.109   2.688
10795SOL    HW233285   0.265   5.052   2.642
10796SOL     OW33286   0.972   6.290   5.664
10796SOL    HW133287   1.024   6.268   5.581
10796SOL    HW233288   0.955   6.388   5.669
10797SOL     OW33289   3.659   2.916   0.219
10797SOL    HW133290   3.718   2.965   0.282
10797SOL    HW233291   3.567   2.954   0.222
10798SOL     OW33292   6.335   1.495   0.785
10798SOL    HW133293   6.412   1.454   0.834
10798SOL    HW233294   6.291   1.425   0.728
10799SOL     OW33295   4.989   1.574   0.998
10799SOL    HW133296   5.058   1.597   0.930
10799SOL    HW233297   4.909   1.634   0.988
10800SOL     OW33298   6.414   6.862   1.504
10800SOL    HW133299   6.423   6.908   1.415
10800SOL    HW233300   6.336   6.900   1.553
10801SOL     OW33301   1.963   0.728   1.188
10801SOL    HW133302   1.943   0.632   1.169
10801SOL    HW233303   2.048   0.754   1.142
10802SOL     OW33304   5.696   1.482   3.616
10802SOL    HW133305   5.780   1.452   3.571
10802SOL    HW233306   5.676   1.576   3.590
10803SOL     OW33307   2.289   5.220   6.034
10803SOL    HW133308   2.363   5.285   6.023
10803SOL    HW233309   2.307   5.138   5.979
10804SOL     OW33310   7.014   3.690   4.284
10804SOL    HW133311   0.085   3.708   4.290
10804SOL    HW233312   6.999   3.600   4.242
10805SOL     OW33313   6.449   0.336   6.488
10805SOL    HW133314   6.350   0.349   6.483
10805SOL    HW233315   6.492   0.379   6.408
10806SOL     OW33316   1.552   5.493   0.152
10806SOL    HW133317   1.461   5.457   0.135
10806SOL    HW233318   1.555   5.538   0.242
10807SOL     OW33319   3.481   5.639   4.441
10807SOL    HW133320   3.538   5.668   4.518
10807SOL    HW233321   3.502   5.696   4.361
10808SOL     OW33322   1.203   3.415   6.075
10808SOL    HW133323   1.266   3.394   6.000
10808SOL    HW233324   1.252   3.466   6.146
10809SOL     OW33325   1.304   6.955   4.741
10809SOL    HW133326   1.260   6.976   4.653
10809SOL    HW233327   1.335   0.013   4.784
10810SOL     OW33328   6.264   0.736   4.190
10810SOL    HW133329   6.347   0.782   4.222
10810SOL    HW233330   6.252   0.650   4.241
10811SOL     OW33331   5.379   6.162   4.999
10811SOL    HW133332   5.368   6.185   4.902
10811SOL    HW233333   5.289   6.147   5.041
10812SOL     OW33334   0.295   3.032   0.458
10812SOL    HW133335   0.283   3.131   0.447
10812SOL    HW233336   0.208   2.986   0.442
10813SOL     OW33337   1.391   3.763   6.552
10813SOL    HW133338   1.291   3.759   6.545
10813SOL    HW233339   1.419   3.746   6.647
10814SOL     OW33340   3.166   1.667   1.083
10814SOL    HW133341   3.101   1.657   1.159
10814SOL    HW233342   3.202   1.578   1.059
10815SOL     OW33343   5.146   1.043   4.822
10815SOL    HW133344   5.178   1.112   4.757
10815SOL    HW233345   5.047   1.035   4.816
10816SOL     OW33346   3.213   3.014   4.775
10816SOL    HW133347   3.226   3.088   4.710
10816SOL    HW233348   3.140   3.038   4.840
10817SOL     OW33349   1.407   5.823   4.383
10817SOL    HW133350   1.415   5.856   4.477
10817SOL    HW233351   1.313   5.832   4.352
10818SOL     OW33352   4.025   4.086   0.029
10818SOL    HW133353   4.028   4.007   0.091
10818SOL    HW233354   4.043   4.056   6.962
10819SOL     OW33355   5.922   6.283   5.597
10819SOL    HW133356   6.019   6.301   5.616
10819SOL    HW233357   5.910   6.187   5.570
10820SOL     OW33358   2.639   4.591   6.240
10820SOL    HW133359   2.692   4.599   6.156
10820SOL    HW233360   2.561   4.530   6.224
10821SOL     OW33361   4.472   6.001   3.933
10821SOL    HW133362   4.553   5.946   3.954
10821SOL    HW233363   4.398   5.942   3.901
10822SOL     OW33364   5.958   1.095   2.205
10822SOL    HW133365   5.924   1.189   2.207
10822SOL    HW233366   5.885   1.034   2.173
10823SOL     OW33367   5.247   6.587   1.927
10823SOL    HW133368   5.310   6.584   2.004
10823SOL    HW233369   5.298   6.593   1.841
10824SOL     OW33370   0.819   3.187   3.068
10824SOL    HW133371   0.851   3.130   2.993
10824SOL    HW233372   0.842   3.283   3.050
10825SOL     OW33373   0.148   2.203   0.600
10825SOL    HW133374   0.148   2.104   0.581
10825SOL    HW233375   0.103   2.219   0.688
10826SOL     OW33376   6.475   3.380   2.475
10826SOL    HW133377   6.397   3.443   2.484
10826SOL    HW233378   6.478   3.319   2.553
10827SOL     OW33379   0.095   3.549   4.636
10827SOL    HW133380   0.036   3.514   4.564
10827SOL    HW233381   0.191   3.533   4.612
10828SOL     OW33382   0.037   4.284   5.450
10828SOL    HW133383   6.978   4.240   5.424
10828SOL    HW233384   0.052   4.275   5.548
10829SOL     OW33385   3.737   2.949   5.458
10829SOL    HW133386   3.778   2.963   5.548
10829SOL    HW233387   3.655   2.892   5.467
10830SOL     OW33388   5.425   2.127   3.199
10830SOL    HW133389   5.354   2.057   3.204
10830SOL    HW233390   5.488   2.115   3.276
10831SOL     OW33391   3.768   0.101   3.792
10831SOL    HW133392   3.823   0.034   3.842
10831SOL    HW233393   3.671   0.079   3.802
10832SOL     OW33394   6.632   2.578   6.881
10832SOL    HW133395   6.543   2.616   6.853
10832SOL    HW233396   6.650   2.495   6.828
10833SOL     OW33397   0.336   1.108   6.716
10833SOL    HW133398   0.422   1.124   6.667
10833SOL    HW233399   0.309   1.192   6.763
10834SOL     OW33400   6.131   6.183   1.714
10834SOL    HW133401   6.125   6.126   1.796
10834SOL    HW233402   6.127   6.124   1.633
10835SOL     OW33403   0.012   2.888   5.501
10835SOL    HW133404   0.102   2.853   5.474
10835SOL    HW233405   6.968   2.833   5.457
10836SOL     OW33406   0.423   1.510   3.429
10836SOL    HW133407   0.340   1.505   3.374
10836SOL    HW233408   0.503   1.504   3.368
10837SOL     OW33409   7.011   3.358   4.424
10837SOL    HW133410   0.065   3.363   4.366
10837SOL    HW233411   6.959   3.276   4.402
10838SOL     OW33412   0.791   6.104   2.365
10838SOL    HW133413   0.716   6.114   2.300
10838SOL    HW233414   0.757   6.058   2.447
10839SOL     OW33415   4.345   2.805   0.159
10839SOL    HW133416   4.409   2.857   0.215
10839SOL    HW233417   4.251   2.829   0.183
10840SOL     OW33418   2.716   0.394   2.136
10840SOL    HW133419   2.657   0.469   2.163
10840SOL    HW233420   2.808   0.408   2.173
10841SOL     OW33421   2.464   5.021   4.979
10841SOL    HW133422   2.508   5.028   4.890
10841SOL    HW233423   2.511   4.952   5.034
10842SOL     OW33424   6.392   4.235   1.828
10842SOL    HW133425   6.402   4.242   1.927
10842SOL    HW233426   6.311   4.286   1.798
10843SOL     OW33427   2.824   1.460   1.313
10843SOL    HW133428   2.765   1.506   1.380
10843SOL    HW233429   2.789   1.476   1.221
10844SOL     OW33430   2.076   5.841   4.919
10844SOL    HW133431   2.080   5.800   4.828
10844SOL    HW233432   2.166   5.879   4.942
10845SOL     OW33433   4.635   0.685   4.731
10845SOL    HW133434   4.650   0.728   4.820
10845SOL    HW233435   4.605   0.591   4.743
10846SOL     OW33436   5.731   0.333   5.903
10846SOL    HW133437   5.720   0.237   5.928
10846SOL    HW233438   5.736   0.389   5.985
10847SOL     OW33439   2.849   0.032   6.989
10847SOL    HW133440   2.808   0.122   7.002
10847SOL    HW233441   2.870   0.018   6.892
10848SOL     OW33442   1.877   3.587   1.783
10848SOL    HW133443   1.835   3.650   1.849
10848SOL    HW233444   1.808   3.524   1.749
10849SOL     OW33445   1.803   6.645   3.454
10849SOL    HW133446   1.881   6.692   3.414
10849SOL    HW233447   1.834   6.574   3.517
10850SOL     OW33448   4.655   4.890   0.775
10850SOL    HW133449   4.734   4.869   0.833
10850SOL    HW233450   4.637   4.813   0.714
10851SOL     OW33451   1.595   4.307   0.739
10851SOL    HW133452   1.517   4.349   0.784
10851SOL    HW233453   1.583   4.311   0.639
10852SOL     OW33454   2.720   1.425   2.208
10852SOL    HW133455   2.796   1.488   2.222
10852SOL    HW233456   2.637   1.476   2.188
10853SOL     OW33457   3.222   0.930   6.338
10853SOL    HW133458   3.284   1.000   6.302
10853SOL    HW233459   3.134   0.935   6.291
10854SOL     OW33460   3.025   6.117   5.782
10854SOL    HW133461   3.034   6.032   5.731
10854SOL    HW233462   3.116   6.151   5.807
10855SOL     OW33463   4.161   1.008   6.998
10855SOL    HW133464   4.137   0.911   7.002
10855SOL    HW233465   4.141   1.044   6.907
10856SOL     OW33466   0.662   1.275   0.586
10856SOL    HW133467   0.580   1.331   0.574
10856SOL    HW233468   0.743   1.334   0.586
10857SOL     OW33469   0.014   2.728   1.594
10857SOL    HW133470   6.943   2.730   1.572
10857SOL    HW233471   0.025   2.715   1.692
10858SOL     OW33472   2.227   6.216   2.016
10858SOL    HW133473   2.252   6.268   2.097
10858SOL    HW233474   2.147   6.257   1.973
10859SOL     OW33475   1.560   5.045   3.595
10859SOL    HW133476   1.659   5.048   3.608
10859SOL    HW233477   1.534   4.961   3.547
10860SOL     OW33478   0.177   3.885   3.180
10860SOL    HW133479   0.213   3.804   3.226
10860SOL    HW233480   0.147   3.952   3.249
10861SOL     OW33481   4.273   2.901   5.547
10861SOL    HW133482   4.259   2.998   5.567
10861SOL    HW233483   4.217   2.875   5.468
10862SOL     OW33484   0.850   0.686   5.002
10862SOL    HW133485   0.885   0.779   5.007
10862SOL    HW233486   0.751   0.687   4.989
10863SOL     OW33487   2.098   6.345   4.040
10863SOL    HW133488   2.054   6.280   4.102
10863SOL    HW233489   2.177   6.387   4.085
10864SOL     OW33490   3.567   6.571   3.061
10864SOL    HW133491   3.555   6.596   3.157
10864SOL    HW233492   3.524   6.482   3.044
10865SOL     OW33493   6.876   1.280   6.129
10865SOL    HW133494   6.892   1.189   6.091
10865SOL    HW233495   6.948   1.343   6.098
10866SOL     OW33496   5.812   5.058   6.676
10866SOL    HW133497   5.820   4.990   6.750
10866SOL    HW233498   5.863   5.140   6.700
10867SOL     OW33499   2.948   1.236   6.872
10867SOL    HW133500   2.867   1.273   6.918
10867SOL    HW233501   2.954   1.138   6.891
10868SOL     OW33502   1.841   2.179   3.188
10868SOL    HW133503   1.780   2.184   3.267
10868SOL    HW233504   1.839   2.265   3.138
10869NA      NA33505   6.425   2.286   5.617
10870NA      NA33506   4.393   4.583   5.250
10871NA      NA33507   2.128   3.477   1.775
10872NA      NA33508   4.905   3.651   5.196
10873NA      NA33509   4.297   2.425   5.341
10874NA      NA33510   3.636   4.750   1.678
10875NA      NA33511   6.909   6.067   4.706
10876NA      NA33512   3.574   3.401   5.010
10877NA      NA33513   4.930   6.605   6.079
10878NA      NA33514   2.736   0.447   5.254
10879NA      NA33515   0.759   5.020   2.507
10880NA      NA33516   2.206   0.321   2.426
10881NA      NA33517   3.463   4.363   1.300
10882NA      NA33518   3.810   3.290   2.939
   7.02692   7.02692   7.02692
