Generated by trjconv : CNT in water t=  34.00000
33518
    1C        C    1   2.841   2.767   4.745
    1C        C    2   2.895   2.714   4.864
    1C        C    3   2.843   2.770   4.981
    1C        C    4   2.843   2.768   4.256
    1C        C    5   2.896   2.721   4.378
    1C        C    6   2.846   2.773   4.500
    1C        C    7   3.019   2.651   4.625
    1C        C    8   2.900   2.728   4.623
    1C        C    9   3.076   2.600   4.743
    1C        C   10   3.005   2.625   4.863
    1C        C   11   3.179   2.485   4.973
    1C        C   12   3.057   2.554   4.971
    1C        C   13   2.841   2.763   3.769
    1C        C   14   2.895   2.720   3.892
    1C        C   15   2.844   2.768   4.015
    1C        C   16   3.013   2.637   4.138
    1C        C   17   2.896   2.717   4.136
    1C        C   18   3.076   2.603   4.260
    1C        C   19   3.013   2.642   4.380
    1C        C   20   3.205   2.553   4.504
    1C        C   21   3.078   2.613   4.502
    1C        C   22   3.277   2.531   4.623
    1C        C   23   3.205   2.541   4.744
    1C        C   24   3.411   2.477   4.864
    1C        C   25   3.269   2.493   4.862
    1C        C   26   3.485   2.480   4.983
    1C        C   27   2.842   2.761   3.282
    1C        C   28   2.901   2.720   3.403
    1C        C   29   2.849   2.768   3.526
    1C        C   30   3.018   2.642   3.648
    1C        C   31   2.899   2.718   3.648
    1C        C   32   3.075   2.604   3.771
    1C        C   33   3.009   2.636   3.892
    1C        C   34   3.203   2.551   4.013
    1C        C   35   3.070   2.601   4.014
    1C        C   36   3.273   2.536   4.135
    1C        C   37   3.209   2.555   4.259
    1C        C   38   3.414   2.507   4.379
    1C        C   39   3.275   2.536   4.382
    1C        C   40   3.485   2.497   4.500
    1C        C   41   3.415   2.498   4.623
    1C        C   42   3.628   2.476   4.742
    1C        C   43   3.486   2.478   4.743
    1C        C   44   3.702   2.482   4.862
    1C        C   45   3.624   2.479   4.978
    1C        C   46   2.835   2.751   2.792
    1C        C   47   2.892   2.709   2.915
    1C        C   48   2.836   2.756   3.036
    1C        C   49   3.012   2.638   3.159
    1C        C   50   2.895   2.717   3.158
    1C        C   51   3.074   2.601   3.281
    1C        C   52   3.012   2.633   3.404
    1C        C   53   3.204   2.542   3.523
    1C        C   54   3.075   2.600   3.526
    1C        C   55   3.272   2.525   3.646
    1C        C   56   3.206   2.551   3.769
    1C        C   57   3.411   2.506   3.892
    1C        C   58   3.272   2.532   3.892
    1C        C   59   3.483   2.502   4.014
    1C        C   60   3.412   2.512   4.136
    1C        C   61   3.626   2.498   4.257
    1C        C   62   3.485   2.500   4.257
    1C        C   63   3.699   2.503   4.378
    1C        C   64   3.626   2.494   4.499
    1C        C   65   3.831   2.543   4.620
    1C        C   66   3.697   2.499   4.621
    1C        C   67   3.899   2.559   4.742
    1C        C   68   3.838   2.522   4.864
    1C        C   69   4.051   2.578   4.972
    1C        C   70   3.920   2.532   4.977
    1C        C   71   2.822   2.730   2.306
    1C        C   72   2.883   2.692   2.428
    1C        C   73   2.831   2.744   2.549
    1C        C   74   3.003   2.620   2.672
    1C        C   75   2.889   2.703   2.671
    1C        C   76   3.067   2.592   2.794
    1C        C   77   3.006   2.626   2.917
    1C        C   78   3.202   2.540   3.034
    1C        C   79   3.072   2.597   3.038
    1C        C   80   3.271   2.526   3.157
    1C        C   81   3.204   2.547   3.280
    1C        C   82   3.411   2.502   3.402
    1C        C   83   3.271   2.519   3.401
    1C        C   84   3.481   2.493   3.524
    1C        C   85   3.411   2.499   3.647
    1C        C   86   3.621   2.505   3.767
    1C        C   87   3.481   2.493   3.770
    1C        C   88   3.692   2.515   3.889
    1C        C   89   3.624   2.510   4.012
    1C        C   90   3.832   2.546   4.135
    1C        C   91   3.694   2.513   4.134
    1C        C   92   3.900   2.568   4.257
    1C        C   93   3.834   2.542   4.379
    1C        C   94   4.030   2.627   4.496
    1C        C   95   3.903   2.565   4.500
    1C        C   96   4.091   2.663   4.618
    1C        C   97   4.026   2.623   4.738
    1C        C   98   4.183   2.767   4.858
    1C        C   99   4.093   2.655   4.859
    1C        C  100   4.210   2.840   4.974
    1C        C  101   2.815   2.726   2.069
    1C        C  102   2.988   2.591   2.186
    1C        C  103   2.868   2.670   2.186
    1C        C  104   3.059   2.569   2.307
    1C        C  105   2.997   2.609   2.428
    1C        C  106   3.196   2.534   2.545
    1C        C  107   3.063   2.582   2.550
    1C        C  108   3.264   2.516   2.667
    1C        C  109   3.198   2.539   2.790
    1C        C  110   3.406   2.496   2.913
    1C        C  111   3.266   2.515   2.911
    1C        C  112   3.478   2.495   3.034
    1C        C  113   3.410   2.501   3.158
    1C        C  114   3.623   2.497   3.275
    1C        C  115   3.481   2.494   3.279
    1C        C  116   3.689   2.509   3.399
    1C        C  117   3.622   2.502   3.523
    1C        C  118   3.831   2.542   3.646
    1C        C  119   3.693   2.512   3.645
    1C        C  120   3.896   2.572   3.768
    1C        C  121   3.829   2.549   3.890
    1C        C  122   4.022   2.635   4.008
    1C        C  123   3.897   2.569   4.012
    1C        C  124   4.084   2.671   4.130
    1C        C  125   4.024   2.636   4.253
    1C        C  126   4.193   2.763   4.374
    1C        C  127   4.089   2.668   4.375
    1C        C  128   4.239   2.818   4.496
    1C        C  129   4.190   2.763   4.617
    1C        C  130   4.320   2.936   4.737
    1C        C  131   4.237   2.820   4.737
    1C        C  132   4.351   3.003   4.857
    1C        C  133   4.287   2.955   4.972
    1C        C  134   3.168   2.466   2.077
    1C        C  135   3.033   2.504   2.083
    1C        C  136   3.255   2.474   2.186
    1C        C  137   3.190   2.515   2.305
    1C        C  138   3.403   2.477   2.425
    1C        C  139   3.264   2.503   2.425
    1C        C  140   3.474   2.480   2.547
    1C        C  141   3.403   2.491   2.669
    1C        C  142   3.617   2.495   2.787
    1C        C  143   3.476   2.490   2.790
    1C        C  144   3.688   2.508   2.909
    1C        C  145   3.620   2.499   3.032
    1C        C  146   3.829   2.542   3.153
    1C        C  147   3.692   2.507   3.153
    1C        C  148   3.895   2.562   3.277
    1C        C  149   3.827   2.541   3.399
    1C        C  150   4.018   2.629   3.519
    1C        C  151   3.894   2.563   3.521
    1C        C  152   4.081   2.669   3.639
    1C        C  153   4.021   2.638   3.763
    1C        C  154   4.190   2.765   3.884
    1C        C  155   4.080   2.677   3.885
    1C        C  156   4.242   2.811   4.007
    1C        C  157   4.194   2.759   4.129
    1C        C  158   4.335   2.919   4.248
    1C        C  159   4.243   2.811   4.251
    1C        C  160   4.370   2.982   4.370
    1C        C  161   4.324   2.931   4.493
    1C        C  162   4.436   3.112   4.616
    1C        C  163   4.364   2.991   4.615
    1C        C  164   4.467   3.182   4.735
    1C        C  165   4.426   3.123   4.856
    1C        C  166   4.508   3.321   4.971
    1C        C  167   4.474   3.186   4.972
    1C        C  168   3.470   2.439   2.070
    1C        C  169   3.394   2.452   2.187
    1C        C  170   3.615   2.467   2.303
    1C        C  171   3.473   2.464   2.304
    1C        C  172   3.689   2.486   2.423
    1C        C  173   3.616   2.484   2.544
    1C        C  174   3.822   2.543   2.663
    1C        C  175   3.686   2.505   2.664
    1C        C  176   3.886   2.573   2.785
    1C        C  177   3.823   2.550   2.910
    1C        C  178   4.022   2.627   3.030
    1C        C  179   3.894   2.569   3.030
    1C        C  180   4.083   2.661   3.153
    1C        C  181   4.023   2.621   3.275
    1C        C  182   4.192   2.751   3.394
    1C        C  183   4.082   2.662   3.397
    1C        C  184   4.245   2.800   3.516
    1C        C  185   4.195   2.753   3.639
    1C        C  186   4.336   2.915   3.761
    1C        C  187   4.243   2.808   3.760
    1C        C  188   4.378   2.972   3.883
    1C        C  189   4.339   2.914   4.005
    1C        C  190   4.444   3.100   4.126
    1C        C  191   4.380   2.974   4.126
    1C        C  192   4.464   3.170   4.247
    1C        C  193   4.434   3.108   4.371
    1C        C  194   4.505   3.308   4.488
    1C        C  195   4.468   3.172   4.492
    1C        C  196   4.518   3.382   4.607
    1C        C  197   4.508   3.318   4.733
    1C        C  198   4.553   3.532   4.846
    1C        C  199   4.533   3.391   4.852
    1C        C  200   4.582   3.619   4.956
    1C        C  201   3.609   2.423   2.071
    1C        C  202   3.826   2.507   2.178
    1C        C  203   3.689   2.464   2.182
    1C        C  204   3.893   2.540   2.298
    1C        C  205   3.826   2.517   2.421
    1C        C  206   4.018   2.617   2.539
    1C        C  207   3.893   2.551   2.541
    1C        C  208   4.078   2.655   2.661
    1C        C  209   4.017   2.626   2.785
    1C        C  210   4.195   2.743   2.903
    1C        C  211   4.084   2.656   2.906
    1C        C  212   4.248   2.792   3.024
    1C        C  213   4.195   2.748   3.148
    1C        C  214   4.331   2.907   3.269
    1C        C  215   4.243   2.797   3.271
    1C        C  216   4.366   2.970   3.391
    1C        C  217   4.330   2.913   3.515
    1C        C  218   4.429   3.101   3.636
    1C        C  219   4.369   2.973   3.636
    1C        C  220   4.458   3.167   3.757
    1C        C  221   4.437   3.101   3.880
    1C        C  222   4.501   3.302   4.001
    1C        C  223   4.466   3.165   4.003
    1C        C  224   4.510   3.375   4.121
    1C        C  225   4.501   3.306   4.245
    1C        C  226   4.515   3.520   4.364
    1C        C  227   4.516   3.378   4.366
    1C        C  228   4.516   3.595   4.483
    1C        C  229   4.521   3.523   4.605
    1C        C  230   4.494   3.738   4.722
    1C        C  231   4.527   3.600   4.723
    1C        C  232   4.494   3.818   4.838
    1C        C  233   4.545   3.754   4.952
    1C        C  234   4.019   2.603   2.061
    1C        C  235   3.895   2.541   2.061
    1C        C  236   4.082   2.649   2.178
    1C        C  237   4.018   2.609   2.297
    1C        C  238   4.195   2.734   2.419
    1C        C  239   4.080   2.650   2.417
    1C        C  240   4.251   2.779   2.541
    1C        C  241   4.195   2.734   2.663
    1C        C  242   4.335   2.902   2.779
    1C        C  243   4.247   2.792   2.781
    1C        C  244   4.378   2.958   2.901
    1C        C  245   4.333   2.905   3.024
    1C        C  246   4.437   3.090   3.147
    1C        C  247   4.371   2.965   3.146
    1C        C  248   4.450   3.161   3.268
    1C        C  249   4.421   3.100   3.392
    1C        C  250   4.490   3.303   3.514
    1C        C  251   4.447   3.168   3.513
    1C        C  252   4.511   3.372   3.635
    1C        C  253   4.498   3.303   3.758
    1C        C  254   4.512   3.514   3.877
    1C        C  255   4.512   3.373   3.880
    1C        C  256   4.508   3.587   3.999
    1C        C  257   4.509   3.516   4.121
    1C        C  258   4.482   3.729   4.237
    1C        C  259   4.505   3.590   4.241
    1C        C  260   4.463   3.801   4.357
    1C        C  261   4.486   3.733   4.479
    1C        C  262   4.428   3.939   4.598
    1C        C  263   4.474   3.806   4.599
    1C        C  264   4.401   4.010   4.717
    1C        C  265   4.432   3.945   4.839
    1C        C  266   4.318   4.126   4.953
    1C        C  267   4.391   4.008   4.957
    1C        C  268   4.255   2.779   2.059
    1C        C  269   4.199   2.729   2.177
    1C        C  270   4.345   2.886   2.294
    1C        C  271   4.252   2.779   2.298
    1C        C  272   4.380   2.950   2.415
    1C        C  273   4.341   2.888   2.536
    1C        C  274   4.445   3.079   2.656
    1C        C  275   4.374   2.957   2.655
    1C        C  276   4.469   3.148   2.777
    1C        C  277   4.440   3.085   2.900
    1C        C  278   4.504   3.287   3.022
    1C        C  279   4.465   3.151   3.023
    1C        C  280   4.510   3.359   3.143
    1C        C  281   4.487   3.297   3.267
    1C        C  282   4.509   3.509   3.386
    1C        C  283   4.502   3.368   3.389
    1C        C  284   4.509   3.579   3.509
    1C        C  285   4.518   3.513   3.633
    1C        C  286   4.487   3.723   3.749
    1C        C  287   4.512   3.584   3.755
    1C        C  288   4.468   3.790   3.872
    1C        C  289   4.483   3.726   3.997
    1C        C  290   4.429   3.936   4.110
    1C        C  291   4.468   3.800   4.116
    1C        C  292   4.398   4.002   4.232
    1C        C  293   4.423   3.937   4.355
    1C        C  294   4.327   4.126   4.477
    1C        C  295   4.399   4.005   4.476
    1C        C  296   4.280   4.183   4.597
    1C        C  297   4.322   4.128   4.720
    1C        C  298   4.194   4.310   4.838
    1C        C  299   4.280   4.195   4.837
    1C        C  300   4.169   4.401   4.945
    1C        C  301   4.352   2.878   2.053
    1C        C  302   4.464   3.065   2.174
    1C        C  303   4.392   2.941   2.172
    1C        C  304   4.479   3.141   2.293
    1C        C  305   4.446   3.075   2.413
    1C        C  306   4.511   3.279   2.533
    1C        C  307   4.477   3.142   2.534
    1C        C  308   4.515   3.352   2.654
    1C        C  309   4.501   3.286   2.778
    1C        C  310   4.519   3.497   2.895
    1C        C  311   4.515   3.356   2.899
    1C        C  312   4.506   3.570   3.016
    1C        C  313   4.510   3.501   3.139
    1C        C  314   4.480   3.712   3.261
    1C        C  315   4.504   3.573   3.260
    1C        C  316   4.466   3.782   3.383
    1C        C  317   4.487   3.719   3.508
    1C        C  318   4.419   3.925   3.625
    1C        C  319   4.466   3.792   3.627
    1C        C  320   4.394   3.991   3.747
    1C        C  321   4.423   3.924   3.868
    1C        C  322   4.315   4.112   3.988
    1C        C  323   4.391   3.994   3.987
    1C        C  324   4.277   4.171   4.111
    1C        C  325   4.322   4.121   4.235
    1C        C  326   4.182   4.282   4.350
    1C        C  327   4.283   4.183   4.355
    1C        C  328   4.130   4.332   4.471
    1C        C  329   4.185   4.288   4.594
    1C        C  330   4.023   4.432   4.711
    1C        C  331   4.132   4.340   4.714
    1C        C  332   3.970   4.492   4.828
    1C        C  333   4.051   4.476   4.941
    1C        C  334   4.549   3.265   2.055
    1C        C  335   4.530   3.126   2.063
    1C        C  336   4.534   3.348   2.167
    1C        C  337   4.517   3.278   2.289
    1C        C  338   4.519   3.490   2.408
    1C        C  339   4.522   3.349   2.411
    1C        C  340   4.519   3.563   2.529
    1C        C  341   4.524   3.493   2.652
    1C        C  342   4.490   3.705   2.772
    1C        C  343   4.520   3.566   2.772
    1C        C  344   4.473   3.777   2.892
    1C        C  345   4.485   3.710   3.015
    1C        C  346   4.419   3.911   3.135
    1C        C  347   4.469   3.779   3.137
    1C        C  348   4.387   3.977   3.255
    1C        C  349   4.419   3.915   3.378
    1C        C  350   4.317   4.103   3.499
    1C        C  351   4.390   3.982   3.499
    1C        C  352   4.274   4.164   3.620
    1C        C  353   4.319   4.111   3.743
    1C        C  354   4.174   4.267   3.861
    1C        C  355   4.272   4.165   3.864
    1C        C  356   4.123   4.317   3.983
    1C        C  357   4.179   4.273   4.104
    1C        C  358   4.014   4.405   4.225
    1C        C  359   4.131   4.326   4.226
    1C        C  360   3.951   4.443   4.346
    1C        C  361   4.014   4.414   4.468
    1C        C  362   3.827   4.511   4.592
    1C        C  363   3.958   4.460   4.589
    1C        C  364   3.761   4.540   4.713
    1C        C  365   3.836   4.534   4.833
    1C        C  366   3.626   4.583   4.948
    1C        C  367   3.764   4.566   4.949
    1C        C  368   4.513   3.564   2.051
    1C        C  369   4.528   3.489   2.168
    1C        C  370   4.501   3.704   2.285
    1C        C  371   4.519   3.564   2.288
    1C        C  372   4.482   3.775   2.406
    1C        C  373   4.496   3.702   2.526
    1C        C  374   4.419   3.901   2.648
    1C        C  375   4.473   3.770   2.648
    1C        C  376   4.387   3.969   2.767
    1C        C  377   4.425   3.910   2.890
    1C        C  378   4.316   4.093   3.008
    1C        C  379   4.392   3.974   3.011
    1C        C  380   4.273   4.153   3.129
    1C        C  381   4.313   4.097   3.253
    1C        C  382   4.177   4.259   3.376
    1C        C  383   4.273   4.155   3.376
    1C        C  384   4.123   4.312   3.495
    1C        C  385   4.179   4.268   3.617
    1C        C  386   4.002   4.390   3.739
    1C        C  387   4.120   4.312   3.738
    1C        C  388   3.940   4.425   3.861
    1C        C  389   4.002   4.390   3.983
    1C        C  390   3.815   4.488   4.108
    1C        C  391   3.944   4.429   4.105
    1C        C  392   3.745   4.506   4.229
    1C        C  393   3.821   4.500   4.348
    1C        C  394   3.615   4.545   4.473
    1C        C  395   3.755   4.523   4.470
    1C        C  396   3.543   4.563   4.593
    1C        C  397   3.621   4.559   4.711
    1C        C  398   3.409   4.543   4.835
    1C        C  399   3.549   4.564   4.832
    1C        C  400   3.338   4.514   4.952
    1C        C  401   4.511   3.703   2.054
    1C        C  402   4.456   3.918   2.164
    1C        C  403   4.495   3.783   2.168
    1C        C  404   4.413   3.978   2.284
    1C        C  405   4.434   3.908   2.405
    1C        C  406   4.320   4.089   2.522
    1C        C  407   4.395   3.969   2.527
    1C        C  408   4.274   4.147   2.642
    1C        C  409   4.311   4.088   2.765
    1C        C  410   4.169   4.248   2.885
    1C        C  411   4.267   4.146   2.886
    1C        C  412   4.122   4.296   3.009
    1C        C  413   4.176   4.255   3.133
    1C        C  414   3.999   4.374   3.251
    1C        C  415   4.123   4.304   3.254
    1C        C  416   3.935   4.408   3.372
    1C        C  417   4.000   4.380   3.494
    1C        C  418   3.813   4.483   3.616
    1C        C  419   3.941   4.422   3.616
    1C        C  420   3.744   4.502   3.738
    1C        C  421   3.811   4.483   3.861
    1C        C  422   3.610   4.533   3.983
    1C        C  423   3.749   4.511   3.985
    1C        C  424   3.539   4.535   4.105
    1C        C  425   3.607   4.534   4.229
    1C        C  426   3.399   4.539   4.354
    1C        C  427   3.540   4.546   4.353
    1C        C  428   3.331   4.536   4.477
    1C        C  429   3.402   4.556   4.598
    1C        C  430   3.190   4.516   4.719
    1C        C  431   3.330   4.544   4.718
    1C        C  432   3.118   4.490   4.839
    1C        C  433   3.201   4.491   4.953
    1C        C  434   4.375   4.118   2.046
    1C        C  435   4.439   3.994   2.047
    1C        C  436   4.299   4.161   2.160
    1C        C  437   4.332   4.094   2.282
    1C        C  438   4.180   4.249   2.401
    1C        C  439   4.279   4.149   2.401
    1C        C  440   4.121   4.299   2.519
    1C        C  441   4.176   4.249   2.639
    1C        C  442   4.001   4.370   2.763
    1C        C  443   4.118   4.291   2.761
    1C        C  444   3.943   4.406   2.887
    1C        C  445   4.004   4.374   3.010
    1C        C  446   3.805   4.459   3.127
    1C        C  447   3.936   4.408   3.129
    1C        C  448   3.739   4.487   3.249
    1C        C  449   3.806   4.465   3.372
    1C        C  450   3.605   4.526   3.495
    1C        C  451   3.744   4.500   3.494
    1C        C  452   3.536   4.534   3.618
    1C        C  453   3.606   4.531   3.740
    1C        C  454   3.395   4.538   3.862
    1C        C  455   3.536   4.542   3.863
    1C        C  456   3.327   4.526   3.986
    1C        C  457   3.398   4.535   4.108
    1C        C  458   3.192   4.501   4.236
    1C        C  459   3.329   4.534   4.231
    1C        C  460   3.126   4.479   4.358
    1C        C  461   3.194   4.503   4.480
    1C        C  462   2.993   4.431   4.601
    1C        C  463   3.119   4.496   4.599
    1C        C  464   2.924   4.396   4.718
    1C        C  465   2.984   4.442   4.839
    1C        C  466   2.798   4.338   4.957
    1C        C  467   2.900   4.434   4.955
    1C        C  468   4.120   4.282   2.039
    1C        C  469   4.186   4.249   2.158
    1C        C  470   4.003   4.367   2.277
    1C        C  471   4.123   4.291   2.278
    1C        C  472   3.937   4.402   2.397
    1C        C  473   4.004   4.377   2.519
    1C        C  474   3.810   4.459   2.642
    1C        C  475   3.943   4.413   2.641
    1C        C  476   3.742   4.482   2.764
    1C        C  477   3.813   4.463   2.884
    1C        C  478   3.602   4.513   3.005
    1C        C  479   3.740   4.482   3.004
    1C        C  480   3.531   4.519   3.127
    1C        C  481   3.601   4.514   3.250
    1C        C  482   3.392   4.529   3.374
    1C        C  483   3.534   4.531   3.373
    1C        C  484   3.323   4.526   3.497
    1C        C  485   3.394   4.531   3.619
    1C        C  486   3.184   4.505   3.743
    1C        C  487   3.323   4.533   3.741
    1C        C  488   3.121   4.478   3.867
    1C        C  489   3.190   4.494   3.989
    1C        C  490   2.999   4.412   4.116
    1C        C  491   3.127   4.472   4.114
    1C        C  492   2.939   4.375   4.239
    1C        C  493   2.998   4.419   4.359
    1C        C  494   2.823   4.298   4.482
    1C        C  495   2.934   4.385   4.481
    1C        C  496   2.766   4.251   4.602
    1C        C  497   2.810   4.310   4.723
    1C        C  498   2.661   4.162   4.841
    1C        C  499   2.744   4.277   4.843
    1C        C  500   2.597   4.112   4.954
    1C        C  501   4.003   4.357   2.038
    1C        C  502   3.813   4.462   2.152
    1C        C  503   3.941   4.401   2.155
    1C        C  504   3.742   4.479   2.273
    1C        C  505   3.806   4.455   2.396
    1C        C  506   3.603   4.506   2.517
    1C        C  507   3.740   4.472   2.520
    1C        C  508   3.532   4.509   2.639
    1C        C  509   3.602   4.505   2.761
    1C        C  510   3.390   4.522   2.882
    1C        C  511   3.531   4.520   2.883
    1C        C  512   3.321   4.521   3.005
    1C        C  513   3.390   4.532   3.127
    1C        C  514   3.186   4.490   3.251
    1C        C  515   3.323   4.526   3.251
    1C        C  516   3.121   4.466   3.374
    1C        C  517   3.186   4.491   3.497
    1C        C  518   2.994   4.412   3.624
    1C        C  519   3.121   4.474   3.621
    1C        C  520   2.939   4.375   3.749
    1C        C  521   2.997   4.410   3.872
    1C        C  522   2.832   4.279   3.991
    1C        C  523   2.939   4.371   3.995
    1C        C  524   2.782   4.234   4.116
    1C        C  525   2.824   4.292   4.238
    1C        C  526   2.697   4.126   4.361
    1C        C  527   2.774   4.244   4.361
    1C        C  528   2.648   4.072   4.482
    1C        C  529   2.679   4.140   4.602
    1C        C  530   2.581   3.955   4.729
    1C        C  531   2.631   4.089   4.724
    1C        C  532   2.539   3.897   4.852
    1C        C  533   2.527   3.991   4.959
    1C        C  534   3.614   4.554   2.038
    1C        C  535   3.748   4.514   2.039
    1C        C  536   3.533   4.531   2.154
    1C        C  537   3.603   4.508   2.276
    1C        C  538   3.389   4.520   2.396
    1C        C  539   3.530   4.517   2.396
    1C        C  540   3.320   4.506   2.519
    1C        C  541   3.391   4.508   2.641
    1C        C  542   3.179   4.481   2.763
    1C        C  543   3.317   4.511   2.761
    1C        C  544   3.117   4.460   2.888
    1C        C  545   3.185   4.481   3.010
    1C        C  546   2.990   4.398   3.135
    1C        C  547   3.117   4.460   3.132
    1C        C  548   2.932   4.362   3.259
    1C        C  549   2.993   4.407   3.379
    1C        C  550   2.832   4.274   3.503
    1C        C  551   2.934   4.371   3.502
    1C        C  552   2.784   4.223   3.626
    1C        C  553   2.835   4.280   3.746
    1C        C  554   2.696   4.119   3.870
    1C        C  555   2.785   4.229   3.868
    1C        C  556   2.656   4.062   3.993
    1C        C  557   2.696   4.123   4.114
    1C        C  558   2.599   3.939   4.243
    1C        C  559   2.661   4.066   4.239
    1C        C  560   2.562   3.877   4.364
    1C        C  561   2.585   3.945   4.486
    1C        C  562   2.526   3.745   4.611
    1C        C  563   2.561   3.882   4.610
    1C        C  564   2.508   3.678   4.734
    1C        C  565   2.513   3.756   4.852
    1C        C  566   2.527   3.548   4.973
    1C        C  567   2.513   3.686   4.974
    1C        C  568   3.324   4.484   2.034
    1C        C  569   3.393   4.508   2.154
    1C        C  570   3.182   4.464   2.274
    1C        C  571   3.318   4.505   2.275
    1C        C  572   3.115   4.449   2.398
    1C        C  573   3.181   4.479   2.519
    1C        C  574   2.986   4.397   2.646
    1C        C  575   3.110   4.463   2.640
    1C        C  576   2.925   4.363   2.769
    1C        C  577   2.989   4.400   2.889
    1C        C  578   2.821   4.272   3.013
    1C        C  579   2.931   4.360   3.012
    1C        C  580   2.771   4.223   3.136
    1C        C  581   2.825   4.271   3.258
    1C        C  582   2.692   4.111   3.383
    1C        C  583   2.778   4.223   3.383
    1C        C  584   2.654   4.056   3.507
    1C        C  585   2.697   4.113   3.629
    1C        C  586   2.599   3.925   3.752
    1C        C  587   2.658   4.053   3.751
    1C        C  588   2.575   3.864   3.877
    1C        C  589   2.598   3.933   3.997
    1C        C  590   2.534   3.735   4.125
    1C        C  591   2.574   3.870   4.122
    1C        C  592   2.521   3.667   4.249
    1C        C  593   2.529   3.740   4.370
    1C        C  594   2.509   3.529   4.494
    1C        C  595   2.516   3.670   4.492
    1C        C  596   2.511   3.459   4.617
    1C        C  597   2.514   3.536   4.735
    1C        C  598   2.528   3.326   4.858
    1C        C  599   2.521   3.467   4.858
    1C        C  600   2.533   3.249   4.975
    1C        C  601   3.192   4.444   2.038
    1C        C  602   2.978   4.390   2.157
    1C        C  603   3.115   4.430   2.154
    1C        C  604   2.922   4.358   2.284
    1C        C  605   2.984   4.397   2.405
    1C        C  606   2.817   4.264   2.528
    1C        C  607   2.921   4.360   2.526
    1C        C  608   2.765   4.215   2.650
    1C        C  609   2.816   4.273   2.769
    1C        C  610   2.684   4.108   2.892
    1C        C  611   2.772   4.219   2.892
    1C        C  612   2.648   4.052   3.016
    1C        C  613   2.685   4.111   3.139
    1C        C  614   2.594   3.920   3.263
    1C        C  615   2.655   4.047   3.262
    1C        C  616   2.567   3.859   3.387
    1C        C  617   2.595   3.927   3.507
    1C        C  618   2.525   3.726   3.636
    1C        C  619   2.572   3.860   3.629
    1C        C  620   2.509   3.659   3.759
    1C        C  621   2.527   3.731   3.880
    1C        C  622   2.503   3.524   4.007
    1C        C  623   2.515   3.665   4.004
    1C        C  624   2.507   3.453   4.129
    1C        C  625   2.509   3.527   4.249
    1C        C  626   2.533   3.317   4.376
    1C        C  627   2.511   3.457   4.372
    1C        C  628   2.552   3.250   4.498
    1C        C  629   2.537   3.320   4.619
    1C        C  630   2.590   3.114   4.740
    1C        C  631   2.547   3.249   4.741
    1C        C  632   2.616   3.048   4.863
    1C        C  633   2.562   3.112   4.980
    1C        C  634   2.781   4.300   2.053
    1C        C  635   2.890   4.388   2.044
    1C        C  636   2.745   4.228   2.168
    1C        C  637   2.808   4.273   2.287
    1C        C  638   2.675   4.104   2.408
    1C        C  639   2.767   4.211   2.407
    1C        C  640   2.630   4.046   2.529
    1C        C  641   2.674   4.107   2.648
    1C        C  642   2.579   3.920   2.775
    1C        C  643   2.642   4.047   2.772
    1C        C  644   2.559   3.854   2.898
    1C        C  645   2.590   3.923   3.017
    1C        C  646   2.529   3.720   3.144
    1C        C  647   2.566   3.857   3.139
    1C        C  648   2.515   3.653   3.268
    1C        C  649   2.524   3.724   3.389
    1C        C  650   2.507   3.517   3.517
    1C        C  651   2.510   3.658   3.513
    1C        C  652   2.504   3.448   3.640
    1C        C  653   2.501   3.518   3.763
    1C        C  654   2.533   3.312   3.886
    1C        C  655   2.504   3.450   3.887
    1C        C  656   2.555   3.248   4.010
    1C        C  657   2.533   3.314   4.133
    1C        C  658   2.604   3.115   4.254
    1C        C  659   2.550   3.245   4.256
    1C        C  660   2.631   3.051   4.377
    1C        C  661   2.604   3.118   4.499
    1C        C  662   2.707   2.933   4.625
    1C        C  663   2.626   3.049   4.620
    1C        C  664   2.749   2.875   4.746
    1C        C  665   2.695   2.928   4.867
    1C        C  666   2.746   2.870   4.983
    1C        C  667   2.677   4.024   2.051
    1C        C  668   2.681   4.103   2.167
    1C        C  669   2.581   3.911   2.288
    1C        C  670   2.637   4.042   2.287
    1C        C  671   2.549   3.848   2.410
    1C        C  672   2.573   3.916   2.532
    1C        C  673   2.515   3.714   2.657
    1C        C  674   2.555   3.850   2.655
    1C        C  675   2.503   3.645   2.780
    1C        C  676   2.522   3.718   2.900
    1C        C  677   2.497   3.510   3.027
    1C        C  678   2.509   3.650   3.023
    1C        C  679   2.504   3.438   3.149
    1C        C  680   2.506   3.512   3.270
    1C        C  681   2.532   3.306   3.399
    1C        C  682   2.510   3.446   3.395
    1C        C  683   2.555   3.240   3.522
    1C        C  684   2.533   3.310   3.643
    1C        C  685   2.596   3.108   3.768
    1C        C  686   2.547   3.241   3.765
    1C        C  687   2.632   3.047   3.890
    1C        C  688   2.600   3.114   4.010
    1C        C  689   2.714   2.935   4.136
    1C        C  690   2.635   3.052   4.132
    1C        C  691   2.753   2.877   4.259
    1C        C  692   2.706   2.931   4.381
    1C        C  693   2.748   2.874   4.504
    1C        C  694   2.627   3.893   2.052
    1C        C  695   2.528   3.703   2.171
    1C        C  696   2.577   3.835   2.169
    1C        C  697   2.500   3.637   2.293
    1C        C  698   2.522   3.710   2.412
    1C        C  699   2.490   3.503   2.539
    1C        C  700   2.501   3.644   2.535
    1C        C  701   2.495   3.431   2.660
    1C        C  702   2.489   3.504   2.781
    1C        C  703   2.524   3.299   2.908
    1C        C  704   2.498   3.438   2.905
    1C        C  705   2.541   3.232   3.031
    1C        C  706   2.524   3.299   3.154
    1C        C  707   2.595   3.102   3.274
    1C        C  708   2.546   3.234   3.278
    1C        C  709   2.630   3.044   3.398
    1C        C  710   2.606   3.108   3.522
    1C        C  711   2.710   2.928   3.644
    1C        C  712   2.633   3.047   3.646
    1C        C  713   2.749   2.870   3.767
    1C        C  714   2.710   2.929   3.890
    1C        C  715   2.755   2.878   4.014
    1C        C  716   2.451   3.493   2.060
    1C        C  717   2.488   3.629   2.059
    1C        C  718   2.464   3.417   2.180
    1C        C  719   2.483   3.496   2.296
    1C        C  720   2.519   3.289   2.420
    1C        C  721   2.487   3.427   2.420
    1C        C  722   2.539   3.221   2.542
    1C        C  723   2.526   3.293   2.663
    1C        C  724   2.587   3.094   2.788
    1C        C  725   2.538   3.227   2.787
    1C        C  726   2.617   3.033   2.912
    1C        C  727   2.589   3.099   3.033
    1C        C  728   2.702   2.916   3.155
    1C        C  729   2.625   3.035   3.154
    1C        C  730   2.749   2.867   3.279
    1C        C  731   2.707   2.926   3.400
    1C        C  732   2.750   2.869   3.522
    1C        C  733   2.487   3.194   2.066
    1C        C  734   2.485   3.275   2.180
    1C        C  735   2.590   3.086   2.299
    1C        C  736   2.526   3.213   2.302
    1C        C  737   2.616   3.024   2.423
    1C        C  738   2.586   3.089   2.545
    1C        C  739   2.695   2.907   2.668
    1C        C  740   2.621   3.028   2.668
    1C        C  741   2.733   2.849   2.791
    1C        C  742   2.689   2.911   2.910
    1C        C  743   2.739   2.858   3.031
    1C        C  744   2.542   3.066   2.067
    1C        C  745   2.687   2.897   2.185
    1C        C  746   2.610   3.016   2.179
    1C        C  747   2.731   2.840   2.306
    1C        C  748   2.691   2.904   2.425
    1C        C  749   2.735   2.848   2.547
    1C        C  750   2.729   2.836   2.066
    1C        C  751   3.661   2.318   1.979
    1C        O  752   3.698   2.204   2.019
    1C        O  753   3.629   2.320   1.843
    1C        C  754   4.648   3.059   2.004
    1C        O  755   4.651   3.002   1.891
    1C        O  756   4.758   3.022   2.083
    1C        C  757   4.436   4.211   1.947
    1C        O  758   4.542   4.269   1.982
    1C        O  759   4.410   4.215   1.810
    1C        C  760   3.580   4.653   1.932
    1C        O  761   3.602   4.771   1.971
    1C        O  762   3.579   4.627   1.795
    1C        C  763   2.866   4.499   1.949
    1C        O  764   2.905   4.495   1.829
    1C        O  765   2.790   4.611   1.984
    1C        C  766   2.334   3.477   1.970
    1C        O  767   2.352   3.474   1.846
    1C        O  768   2.202   3.505   2.007
    1C        C  769   4.712   3.590   5.020
    1C        O  770   4.714   3.521   5.125
    1C        O  771   4.831   3.663   5.007
    1C        C  772   4.277   4.487   4.999
    1C        O  773   4.356   4.444   5.087
    1C        O  774   4.338   4.598   4.939
    1C        C  775   4.153   2.482   5.019
    1C        O  776   4.204   2.378   4.969
    1C        O  777   4.216   2.491   5.144
    1C        C  778   2.880   4.552   5.042
    1C        O  779   2.823   4.646   4.981
    1C        O  780   2.932   4.562   5.171
    1C        C  781   2.470   3.029   5.061
    1C        O  782   2.371   2.967   5.015
    1C        O  783   2.451   3.051   5.197
    1C        C  784   2.399   3.999   5.032
    1C        O  785   2.285   4.000   4.978
    1C        O  786   2.406   4.017   5.171
    1C        C  787   2.940   2.413   2.012
    1C        O  788   2.897   2.440   1.897
    1C        O  789   2.871   2.316   2.083
    1C        C  790   3.172   2.363   5.056
    1C        O  791   3.196   2.248   5.010
    1C        O  792   3.107   2.368   5.180
    1C        H  793   4.252   3.028   5.042
    1C        H  794   4.208   2.786   5.067
    1C        H  795   4.496   3.123   5.056
    1C        H  796   4.531   3.370   5.064
    1C        H  797   4.568   3.814   5.037
    1C        H  798   4.388   3.957   5.051
    1C        H  799   4.280   4.166   5.044
    1C        H  800   4.040   4.555   5.012
    1C        H  801   3.815   4.575   5.042
    1C        H  802   3.579   4.633   5.030
    1C        H  803   3.389   4.481   5.040
    1C        H  804   3.152   4.476   5.047
    1C        H  805   3.874   2.555   5.071
    1C        H  806   3.675   2.445   5.066
    1C        H  807   2.991   2.537   5.053
    1C        H  808   3.432   2.450   5.071
    1C        H  809   2.909   2.775   5.065
    1C        H  810   2.711   2.901   5.080
    1C        H  811   2.502   3.297   5.065
    1C        H  812   2.568   3.498   5.059
    1C        H  813   2.462   3.726   5.059
    1C        H  814   2.576   4.179   5.036
    1C        H  815   2.812   4.271   5.039
    1C        H  816   2.710   2.877   1.969
    1C        H  817   2.856   2.692   1.976
    1C        H  818   3.218   2.474   1.983
    1C        H  819   3.420   2.399   1.984
    1C        H  820   3.856   2.527   1.962
    1C        H  821   4.081   2.555   1.989
    1C        H  822   4.205   2.762   1.967
    1C        H  823   4.351   2.943   1.967
    1C        H  824   4.593   3.304   1.965
    1C        H  825   4.468   3.520   1.964
    1C        H  826   4.510   3.752   1.959
    1C        H  827   3.803   4.546   1.952
    1C        H  828   3.946   4.351   1.947
    1C        H  829   4.172   4.275   1.946
    1C        H  830   4.514   3.976   1.973
    1C        H  831   2.664   3.823   1.980
    1C        H  832   2.723   4.058   1.961
    1C        H  833   2.737   4.266   1.962
    1C        H  834   3.376   4.469   1.942
    1C        H  835   3.156   4.394   1.950
    1C        H  836   2.494   3.005   1.993
    1C        H  837   2.434   3.224   1.979
    1C        H  838   2.495   3.677   1.964
    2V3OU   H29  839   2.790   3.548   0.961
    2V3OU   C27  840   2.772   3.501   1.062
    2V3OU   H27  841   2.725   3.566   1.140
    2V3OU   H28  842   2.725   3.400   1.050
    2V3OU   O11  843   2.902   3.470   1.111
    2V3OU   C15  844   2.915   3.399   1.229
    2V3OU   C13  845   3.047   3.374   1.273
    2V3OU   C14  846   3.071   3.264   1.356
    2V3OU   C16  847   2.970   3.186   1.412
    2V3OU    H6  848   2.990   3.094   1.469
    2V3OU   C12  849   3.212   3.228   1.381
    2V3OU    O2  850   3.237   3.122   1.443
    2V3OU   C10  851   3.324   3.303   1.323
    2V3OU    C8  852   3.457   3.271   1.350
    2V3OU   O10  853   3.490   3.153   1.411
    2V3OU   H26  854   3.402   3.120   1.434
    2V3OU    C6  855   3.565   3.354   1.308
    2V3OU    C5  856   3.533   3.466   1.234
    2V3OU    C4  857   3.702   3.295   1.305
    2V3OU    H4  858   3.727   3.223   1.389
    2V3OU    H5  859   3.709   3.226   1.215
    2V3OU    C2  860   3.818   3.395   1.299
    2V3OU    O6  861   3.808   3.476   1.417
    2V3OU   H21  862   3.758   3.555   1.389
    2V3OU    C3  863   3.777   3.491   1.187
    2V3OU    H2  864   3.861   3.563   1.169
    2V3OU    H3  865   3.778   3.432   1.092
    2V3OU   C25  866   3.949   3.322   1.271
    2V3OU    O7  867   3.997   3.296   1.161
    2V3OU   C26  868   4.027   3.286   1.396
    2V3OU   H22  869   4.055   3.382   1.446
    2V3OU   H23  870   4.115   3.221   1.370
    2V3OU    O8  871   3.953   3.208   1.488
    2V3OU   H24  872   3.920   3.266   1.559
    2V3OU    C1  873   3.644   3.563   1.206
    2V3OU    H1  874   3.621   3.617   1.110
    2V3OU    O3  875   3.656   3.653   1.316
    2V3OU   C19  876   3.618   3.791   1.308
    2V3OU    H9  877   3.522   3.806   1.251
    2V3OU    O4  878   3.714   3.851   1.224
    2V3OU   C20  879   3.843   3.868   1.281
    2V3OU   H10  880   3.897   3.769   1.291
    2V3OU   C24  881   3.607   3.852   1.448
    2V3OU   H16  882   3.543   3.783   1.510
    2V3OU   H17  883   3.556   3.952   1.443
    2V3OU   C23  884   3.746   3.871   1.508
    2V3OU   H15  885   3.789   3.767   1.529
    2V3OU    N1  886   3.737   3.952   1.628
    2V3OU   H19  887   3.810   3.922   1.689
    2V3OU   H20  888   3.649   3.934   1.673
    2V3OU   C21  889   3.847   3.944   1.414
    2V3OU   H11  890   3.947   3.923   1.462
    2V3OU    O5  891   3.825   4.084   1.406
    2V3OU   H18  892   3.782   4.103   1.491
    2V3OU   C22  893   3.908   3.941   1.164
    2V3OU   H12  894   3.863   4.044   1.159
    2V3OU   H13  895   3.898   3.882   1.070
    2V3OU   H14  896   4.018   3.950   1.180
    2V3OU   C11  897   3.154   3.472   1.249
    2V3OU    O1  898   3.134   3.584   1.198
    2V3OU    C9  899   3.291   3.417   1.245
    2V3OU    C7  900   3.397   3.496   1.201
    2V3OU    O9  901   3.378   3.614   1.131
    2V3OU   H25  902   3.284   3.636   1.143
    2V3OU   C17  903   2.816   3.312   1.278
    2V3OU    H7  904   2.713   3.332   1.248
    2V3OU   C18  905   2.841   3.207   1.366
    2V3OU    H8  906   2.755   3.149   1.403
    3SOL     OW  907   0.534   4.142   0.683
    3SOL    HW1  908   0.577   4.057   0.711
    3SOL    HW2  909   0.463   4.167   0.748
    4SOL     OW  910   5.513   1.444   2.118
    4SOL    HW1  911   5.505   1.363   2.061
    4SOL    HW2  912   5.562   1.421   2.202
    5SOL     OW  913   3.544   2.861   1.430
    5SOL    HW1  914   3.503   2.886   1.517
    5SOL    HW2  915   3.624   2.919   1.413
    6SOL     OW  916   2.640   2.307   0.246
    6SOL    HW1  917   2.723   2.257   0.224
    6SOL    HW2  918   2.561   2.261   0.205
    7SOL     OW  919   5.903   1.117   1.757
    7SOL    HW1  920   5.811   1.147   1.734
    7SOL    HW2  921   5.928   1.038   1.701
    8SOL     OW  922   3.031   1.854   3.434
    8SOL    HW1  923   3.046   1.776   3.495
    8SOL    HW2  924   2.937   1.850   3.399
    9SOL     OW  925   0.110   4.160   5.531
    9SOL    HW1  926   0.052   4.191   5.607
    9SOL    HW2  927   0.121   4.235   5.465
   10SOL     OW  928   0.339   4.353   0.768
   10SOL    HW1  929   0.242   4.378   0.777
   10SOL    HW2  930   0.365   4.355   0.672
   11SOL     OW  931   4.364   6.576   6.711
   11SOL    HW1  932   4.290   6.608   6.772
   11SOL    HW2  933   4.452   6.604   6.749
   12SOL     OW  934   5.493   6.618   1.970
   12SOL    HW1  935   5.450   6.707   1.954
   12SOL    HW2  936   5.487   6.596   2.068
   13SOL     OW  937   1.580   0.417   2.876
   13SOL    HW1  938   1.609   0.513   2.876
   13SOL    HW2  939   1.583   0.382   2.970
   14SOL     OW  940   3.046   0.000   2.965
   14SOL    HW1  941   3.144   7.011   2.985
   14SOL    HW2  942   3.033   0.036   2.873
   15SOL     OW  943   2.649   6.575   6.548
   15SOL    HW1  944   2.649   6.599   6.451
   15SOL    HW2  945   2.600   6.488   6.561
   16SOL     OW  946   6.417   2.009   6.922
   16SOL    HW1  947   6.363   2.040   6.844
   16SOL    HW2  948   6.356   1.982   6.996
   17SOL     OW  949   4.512   5.940   3.148
   17SOL    HW1  950   4.540   5.943   3.244
   17SOL    HW2  951   4.417   5.908   3.141
   18SOL     OW  952   1.738   1.235   0.196
   18SOL    HW1  953   1.672   1.179   0.146
   18SOL    HW2  954   1.743   1.204   0.291
   19SOL     OW  955   0.867   6.985   1.213
   19SOL    HW1  956   0.905   6.906   1.166
   19SOL    HW2  957   0.941   0.025   1.246
   20SOL     OW  958   3.376   0.946   3.978
   20SOL    HW1  959   3.348   0.876   4.044
   20SOL    HW2  960   3.472   0.968   3.991
   21SOL     OW  961   3.166   2.969   1.699
   21SOL    HW1  962   3.114   2.884   1.714
   21SOL    HW2  963   3.155   3.028   1.779
   22SOL     OW  964   0.928   1.039   5.538
   22SOL    HW1  965   1.009   1.046   5.479
   22SOL    HW2  966   0.884   0.950   5.523
   23SOL     OW  967   2.836   5.930   4.765
   23SOL    HW1  968   2.868   5.838   4.744
   23SOL    HW2  969   2.817   5.979   4.680
   24SOL     OW  970   3.975   1.346   4.990
   24SOL    HW1  971   3.953   1.251   4.970
   24SOL    HW2  972   3.905   1.384   5.050
   25SOL     OW  973   2.304   5.357   1.005
   25SOL    HW1  974   2.320   5.266   0.969
   25SOL    HW2  975   2.385   5.414   0.989
   26SOL     OW  976   5.973   0.976   3.002
   26SOL    HW1  977   5.935   0.943   2.915
   26SOL    HW2  978   5.935   0.923   3.077
   27SOL     OW  979   6.177   0.039   2.331
   27SOL    HW1  980   6.216   6.968   2.306
   27SOL    HW2  981   6.216   0.110   2.273
   28SOL     OW  982   2.860   0.260   0.559
   28SOL    HW1  983   2.917   0.343   0.550
   28SOL    HW2  984   2.915   0.180   0.537
   29SOL     OW  985   4.451   2.977   1.711
   29SOL    HW1  986   4.518   2.985   1.785
   29SOL    HW2  987   4.467   2.892   1.661
   30SOL     OW  988   4.153   1.436   5.217
   30SOL    HW1  989   4.233   1.379   5.229
   30SOL    HW2  990   4.100   1.405   5.138
   31SOL     OW  991   0.624   1.149   5.173
   31SOL    HW1  992   0.556   1.163   5.101
   31SOL    HW2  993   0.578   1.146   5.262
   32SOL     OW  994   6.954   2.082   2.057
   32SOL    HW1  995   7.010   2.160   2.032
   32SOL    HW2  996   6.982   2.002   2.005
   33SOL     OW  997   1.620   1.842   5.739
   33SOL    HW1  998   1.600   1.782   5.661
   33SOL    HW2  999   1.714   1.827   5.769
   34SOL     OW 1000   0.691   0.368   5.068
   34SOL    HW1 1001   0.711   0.453   5.117
   34SOL    HW2 1002   0.603   0.376   5.021
   35SOL     OW 1003   3.916   2.042   6.208
   35SOL    HW1 1004   3.965   2.128   6.197
   35SOL    HW2 1005   3.853   2.049   6.285
   36SOL     OW 1006   1.440   1.745   5.953
   36SOL    HW1 1007   1.352   1.708   5.924
   36SOL    HW2 1008   1.475   1.807   5.883
   37SOL     OW 1009   2.420   6.425   0.764
   37SOL    HW1 1010   2.335   6.392   0.807
   37SOL    HW2 1011   2.488   6.353   0.766
   38SOL     OW 1012   0.148   6.188   1.953
   38SOL    HW1 1013   0.051   6.213   1.946
   38SOL    HW2 1014   0.159   6.092   1.927
   39SOL     OW 1015   6.857   2.680   6.225
   39SOL    HW1 1016   6.891   2.741   6.298
   39SOL    HW2 1017   6.790   2.730   6.170
   40SOL     OW 1018   0.023   1.058   1.180
   40SOL    HW1 1019   0.056   1.110   1.102
   40SOL    HW2 1020   0.095   1.050   1.249
   41SOL     OW 1021   1.058   1.066   5.991
   41SOL    HW1 1022   1.048   1.135   5.920
   41SOL    HW2 1023   0.981   1.003   5.988
   42SOL     OW 1024   3.930   0.082   0.917
   42SOL    HW1 1025   3.983   0.137   0.852
   42SOL    HW2 1026   3.989   0.058   0.994
   43SOL     OW 1027   4.508   5.717   5.254
   43SOL    HW1 1028   4.582   5.767   5.300
   43SOL    HW2 1029   4.542   5.628   5.222
   44SOL     OW 1030   0.792   3.522   6.768
   44SOL    HW1 1031   0.708   3.471   6.783
   44SOL    HW2 1032   0.772   3.620   6.762
   45SOL     OW 1033   2.522   0.502   1.283
   45SOL    HW1 1034   2.520   0.530   1.188
   45SOL    HW2 1035   2.515   0.582   1.342
   46SOL     OW 1036   1.187   4.987   4.209
   46SOL    HW1 1037   1.110   5.049   4.193
   46SOL    HW2 1038   1.246   5.025   4.281
   47SOL     OW 1039   5.638   4.366   2.570
   47SOL    HW1 1040   5.657   4.441   2.507
   47SOL    HW2 1041   5.539   4.352   2.577
   48SOL     OW 1042   0.610   0.894   5.548
   48SOL    HW1 1043   0.690   0.835   5.552
   48SOL    HW2 1044   0.530   0.845   5.584
   49SOL     OW 1045   5.608   3.351   0.218
   49SOL    HW1 1046   5.654   3.380   0.133
   49SOL    HW2 1047   5.638   3.409   0.293
   50SOL     OW 1048   6.982   3.601   4.927
   50SOL    HW1 1049   6.962   3.692   4.890
   50SOL    HW2 1050   0.050   3.604   4.978
   51SOL     OW 1051   3.174   5.744   2.362
   51SOL    HW1 1052   3.081   5.746   2.401
   51SOL    HW2 1053   3.169   5.716   2.266
   52SOL     OW 1054   0.780   2.210   1.762
   52SOL    HW1 1055   0.853   2.175   1.702
   52SOL    HW2 1056   0.784   2.310   1.762
   53SOL     OW 1057   5.167   6.333   4.283
   53SOL    HW1 1058   5.203   6.280   4.207
   53SOL    HW2 1059   5.224   6.414   4.297
   54SOL     OW 1060   4.900   5.000   5.851
   54SOL    HW1 1061   4.838   5.079   5.852
   54SOL    HW2 1062   4.992   5.030   5.829
   55SOL     OW 1063   3.594   1.707   0.919
   55SOL    HW1 1064   3.630   1.653   0.996
   55SOL    HW2 1065   3.545   1.787   0.955
   56SOL     OW 1066   0.309   6.770   1.689
   56SOL    HW1 1067   0.231   6.708   1.680
   56SOL    HW2 1068   0.364   6.742   1.768
   57SOL     OW 1069   5.472   1.171   1.379
   57SOL    HW1 1070   5.561   1.138   1.411
   57SOL    HW2 1071   5.475   1.185   1.280
   58SOL     OW 1072   6.895   0.226   6.625
   58SOL    HW1 1073   6.898   0.152   6.691
   58SOL    HW2 1074   6.812   0.218   6.570
   59SOL     OW 1075   1.197   6.960   4.972
   59SOL    HW1 1076   1.187   6.945   5.071
   59SOL    HW2 1077   1.141   6.894   4.922
   60SOL     OW 1078   5.115   0.081   5.076
   60SOL    HW1 1079   5.095   0.078   4.978
   60SOL    HW2 1080   5.081   7.016   5.120
   61SOL     OW 1081   4.237   0.085   5.132
   61SOL    HW1 1082   4.289   0.080   5.046
   61SOL    HW2 1083   4.220   0.181   5.154
   62SOL     OW 1084   3.120   0.749   5.053
   62SOL    HW1 1085   3.214   0.766   5.023
   62SOL    HW2 1086   3.056   0.786   4.985
   63SOL     OW 1087   7.009   3.285   3.543
   63SOL    HW1 1088   6.953   3.267   3.463
   63SOL    HW2 1089   0.084   3.253   3.528
   64SOL     OW 1090   0.007   2.174   5.479
   64SOL    HW1 1091   7.004   2.270   5.499
   64SOL    HW2 1092   6.977   2.115   5.545
   65SOL     OW 1093   0.920   3.528   5.618
   65SOL    HW1 1094   0.986   3.476   5.672
   65SOL    HW2 1095   0.859   3.464   5.571
   66SOL     OW 1096   2.602   0.757   0.977
   66SOL    HW1 1097   2.562   0.780   0.889
   66SOL    HW2 1098   2.645   0.838   1.017
   67SOL     OW 1099   4.632   5.622   4.015
   67SOL    HW1 1100   4.711   5.647   3.958
   67SOL    HW2 1101   4.654   5.637   4.111
   68SOL     OW 1102   5.199   2.686   6.631
   68SOL    HW1 1103   5.163   2.683   6.724
   68SOL    HW2 1104   5.263   2.610   6.618
   69SOL     OW 1105   2.312   2.876   5.864
   69SOL    HW1 1106   2.226   2.870   5.815
   69SOL    HW2 1107   2.363   2.791   5.853
   70SOL     OW 1108   6.214   6.326   2.319
   70SOL    HW1 1109   6.266   6.253   2.362
   70SOL    HW2 1110   6.145   6.286   2.258
   71SOL     OW 1111   2.142   3.531   2.588
   71SOL    HW1 1112   2.160   3.612   2.533
   71SOL    HW2 1113   2.091   3.557   2.670
   72SOL     OW 1114   3.348   5.570   3.782
   72SOL    HW1 1115   3.279   5.626   3.736
   72SOL    HW2 1116   3.305   5.486   3.816
   73SOL     OW 1117   3.603   2.465   6.551
   73SOL    HW1 1118   3.669   2.480   6.478
   73SOL    HW2 1119   3.584   2.553   6.596
   74SOL     OW 1120   5.279   6.529   6.289
   74SOL    HW1 1121   5.206   6.574   6.236
   74SOL    HW2 1122   5.257   6.433   6.301
   75SOL     OW 1123   3.310   5.032   5.364
   75SOL    HW1 1124   3.240   4.976   5.320
   75SOL    HW2 1125   3.269   5.083   5.440
   76SOL     OW 1126   2.614   2.989   1.188
   76SOL    HW1 1127   2.676   3.038   1.126
   76SOL    HW2 1128   2.568   3.055   1.247
   77SOL     OW 1129   5.336   4.579   6.496
   77SOL    HW1 1130   5.421   4.579   6.549
   77SOL    HW2 1131   5.310   4.485   6.476
   78SOL     OW 1132   6.393   6.388   6.173
   78SOL    HW1 1133   6.441   6.343   6.249
   78SOL    HW2 1134   6.379   6.485   6.195
   79SOL     OW 1135   3.438   6.729   0.265
   79SOL    HW1 1136   3.481   6.735   0.175
   79SOL    HW2 1137   3.458   6.640   0.306
   80SOL     OW 1138   0.187   0.825   4.535
   80SOL    HW1 1139   0.236   0.742   4.508
   80SOL    HW2 1140   0.250   0.888   4.581
   81SOL     OW 1141   1.709   0.239   3.892
   81SOL    HW1 1142   1.622   0.199   3.866
   81SOL    HW2 1143   1.738   0.306   3.823
   82SOL     OW 1144   6.739   4.540   5.711
   82SOL    HW1 1145   6.807   4.575   5.647
   82SOL    HW2 1146   6.650   4.535   5.666
   83SOL     OW 1147   6.495   6.697   6.293
   83SOL    HW1 1148   6.562   6.686   6.219
   83SOL    HW2 1149   6.476   6.794   6.306
   84SOL     OW 1150   6.061   3.797   1.400
   84SOL    HW1 1151   6.149   3.790   1.354
   84SOL    HW2 1152   6.075   3.804   1.499
   85SOL     OW 1153   1.127   1.297   5.544
   85SOL    HW1 1154   1.205   1.239   5.519
   85SOL    HW2 1155   1.062   1.300   5.467
   86SOL     OW 1156   2.435   1.078   4.744
   86SOL    HW1 1157   2.361   1.030   4.698
   86SOL    HW2 1158   2.463   1.026   4.825
   87SOL     OW 1159   4.807   6.950   1.868
   87SOL    HW1 1160   4.734   7.002   1.826
   87SOL    HW2 1161   4.891   7.005   1.869
   88SOL     OW 1162   5.887   0.653   0.704
   88SOL    HW1 1163   5.802   0.627   0.750
   88SOL    HW2 1164   5.907   0.587   0.631
   89SOL     OW 1165   2.332   1.640   5.368
   89SOL    HW1 1166   2.413   1.693   5.394
   89SOL    HW2 1167   2.326   1.559   5.426
   90SOL     OW 1168   6.561   5.952   3.401
   90SOL    HW1 1169   6.608   5.867   3.378
   90SOL    HW2 1170   6.612   6.029   3.364
   91SOL     OW 1171   4.266   4.983   4.680
   91SOL    HW1 1172   4.305   4.893   4.662
   91SOL    HW2 1173   4.235   5.023   4.594
   92SOL     OW 1174   3.225   6.190   1.564
   92SOL    HW1 1175   3.232   6.249   1.483
   92SOL    HW2 1176   3.213   6.095   1.535
   93SOL     OW 1177   3.444   4.645   5.957
   93SOL    HW1 1178   3.484   4.554   5.956
   93SOL    HW2 1179   3.505   4.710   5.912
   94SOL     OW 1180   2.449   6.652   1.977
   94SOL    HW1 1181   2.441   6.682   2.072
   94SOL    HW2 1182   2.489   6.560   1.975
   95SOL     OW 1183   6.730   0.094   5.123
   95SOL    HW1 1184   6.828   0.096   5.142
   95SOL    HW2 1185   6.708   0.164   5.055
   96SOL     OW 1186   1.676   6.814   4.904
   96SOL    HW1 1187   1.732   6.820   4.822
   96SOL    HW2 1188   1.710   6.742   4.964
   97SOL     OW 1189   5.823   2.808   4.671
   97SOL    HW1 1190   5.790   2.730   4.617
   97SOL    HW2 1191   5.910   2.840   4.633
   98SOL     OW 1192   5.744   1.772   6.049
   98SOL    HW1 1193   5.772   1.731   6.135
   98SOL    HW2 1194   5.649   1.804   6.056
   99SOL     OW 1195   4.624   1.952   1.026
   99SOL    HW1 1196   4.615   1.915   0.934
   99SOL    HW2 1197   4.590   2.046   1.029
  100SOL     OW 1198   6.186   5.286   6.655
  100SOL    HW1 1199   6.264   5.329   6.609
  100SOL    HW2 1200   6.189   5.306   6.753
  101SOL     OW 1201   0.952   6.555   4.338
  101SOL    HW1 1202   0.884   6.565   4.265
  101SOL    HW2 1203   0.956   6.640   4.392
  102SOL     OW 1204   4.395   0.305   3.017
  102SOL    HW1 1205   4.460   0.270   3.084
  102SOL    HW2 1206   4.374   0.401   3.038
  103SOL     OW 1207   3.521   1.993   1.610
  103SOL    HW1 1208   3.490   1.898   1.615
  103SOL    HW2 1209   3.446   2.055   1.632
  104SOL     OW 1210   0.163   6.132   2.303
  104SOL    HW1 1211   0.219   6.191   2.245
  104SOL    HW2 1212   0.203   6.041   2.307
  105SOL     OW 1213   5.402   1.357   5.848
  105SOL    HW1 1214   5.404   1.412   5.764
  105SOL    HW2 1215   5.323   1.296   5.847
  106SOL     OW 1216   3.358   6.422   1.150
  106SOL    HW1 1217   3.291   6.403   1.221
  106SOL    HW2 1218   3.334   6.370   1.067
  107SOL     OW 1219   2.381   3.058   0.972
  107SOL    HW1 1220   2.416   3.096   0.887
  107SOL    HW2 1221   2.458   3.025   1.028
  108SOL     OW 1222   4.813   4.200   5.116
  108SOL    HW1 1223   4.800   4.101   5.115
  108SOL    HW2 1224   4.727   4.244   5.139
  109SOL     OW 1225   6.279   0.689   1.308
  109SOL    HW1 1226   6.340   0.708   1.385
  109SOL    HW2 1227   6.324   0.718   1.223
  110SOL     OW 1228   3.409   5.952   4.433
  110SOL    HW1 1229   3.322   6.000   4.423
  110SOL    HW2 1230   3.469   6.003   4.495
  111SOL     OW 1231   2.978   1.043   3.495
  111SOL    HW1 1232   3.019   0.964   3.540
  111SOL    HW2 1233   3.036   1.072   3.419
  112SOL     OW 1234   6.743   1.211   6.635
  112SOL    HW1 1235   6.752   1.240   6.539
  112SOL    HW2 1236   6.669   1.264   6.678
  113SOL     OW 1237   6.906   6.377   3.695
  113SOL    HW1 1238   6.928   6.465   3.652
  113SOL    HW2 1239   6.873   6.313   3.626
  114SOL     OW 1240   1.374   6.641   0.005
  114SOL    HW1 1241   1.444   6.569   0.006
  114SOL    HW2 1242   1.285   6.600   7.006
  115SOL     OW 1243   5.538   0.958   5.711
  115SOL    HW1 1244   5.580   0.939   5.622
  115SOL    HW2 1245   5.587   0.908   5.782
  116SOL     OW 1246   6.227   4.338   2.400
  116SOL    HW1 1247   6.170   4.336   2.483
  116SOL    HW2 1248   6.256   4.245   2.377
  117SOL     OW 1249   1.471   6.643   6.223
  117SOL    HW1 1250   1.511   6.607   6.139
  117SOL    HW2 1251   1.426   6.730   6.204
  118SOL     OW 1252   2.047   1.008   2.852
  118SOL    HW1 1253   2.092   0.959   2.926
  118SOL    HW2 1254   2.116   1.037   2.785
  119SOL     OW 1255   6.727   2.469   6.382
  119SOL    HW1 1256   6.775   2.530   6.318
  119SOL    HW2 1257   6.794   2.409   6.427
  120SOL     OW 1258   5.474   6.504   1.462
  120SOL    HW1 1259   5.547   6.474   1.401
  120SOL    HW2 1260   5.512   6.562   1.534
  121SOL     OW 1261   2.842   2.972   5.910
  121SOL    HW1 1262   2.846   2.918   5.826
  121SOL    HW2 1263   2.761   3.031   5.908
  122SOL     OW 1264   0.254   3.291   4.852
  122SOL    HW1 1265   0.195   3.329   4.782
  122SOL    HW2 1266   0.305   3.365   4.897
  123SOL     OW 1267   0.534   2.024   1.740
  123SOL    HW1 1268   0.598   2.052   1.669
  123SOL    HW2 1269   0.470   2.099   1.759
  124SOL     OW 1270   4.834   3.541   1.010
  124SOL    HW1 1271   4.841   3.553   1.109
  124SOL    HW2 1272   4.863   3.625   0.965
  125SOL     OW 1273   2.245   3.624   1.668
  125SOL    HW1 1274   2.287   3.565   1.738
  125SOL    HW2 1275   2.148   3.634   1.688
  126SOL     OW 1276   3.754   4.528   0.526
  126SOL    HW1 1277   3.669   4.530   0.579
  126SOL    HW2 1278   3.736   4.560   0.433
  127SOL     OW 1279   1.170   5.048   5.737
  127SOL    HW1 1280   1.193   4.963   5.689
  127SOL    HW2 1281   1.161   5.122   5.671
  128SOL     OW 1282   4.354   2.778   1.056
  128SOL    HW1 1283   4.437   2.832   1.046
  128SOL    HW2 1284   4.338   2.724   0.974
  129SOL     OW 1285   2.363   3.981   6.940
  129SOL    HW1 1286   2.447   4.024   6.907
  129SOL    HW2 1287   2.373   3.956   0.018
  130SOL     OW 1288   1.785   2.579   5.115
  130SOL    HW1 1289   1.740   2.593   5.203
  130SOL    HW2 1290   1.872   2.532   5.129
  131SOL     OW 1291   5.602   1.381   2.371
  131SOL    HW1 1292   5.558   1.343   2.453
  131SOL    HW2 1293   5.685   1.430   2.397
  132SOL     OW 1294   0.678   2.197   2.465
  132SOL    HW1 1295   0.708   2.125   2.402
  132SOL    HW2 1296   0.647   2.276   2.413
  133SOL     OW 1297   0.103   5.549   2.801
  133SOL    HW1 1298   0.186   5.601   2.821
  133SOL    HW2 1299   0.115   5.501   2.715
  134SOL     OW 1300   1.293   3.487   2.281
  134SOL    HW1 1301   1.385   3.511   2.310
  134SOL    HW2 1302   1.231   3.564   2.300
  135SOL     OW 1303   4.083   1.293   4.170
  135SOL    HW1 1304   4.124   1.379   4.139
  135SOL    HW2 1305   4.149   1.219   4.161
  136SOL     OW 1306   4.653   4.721   5.556
  136SOL    HW1 1307   4.681   4.702   5.462
  136SOL    HW2 1308   4.609   4.640   5.595
  137SOL     OW 1309   3.410   1.017   5.863
  137SOL    HW1 1310   3.343   0.951   5.826
  137SOL    HW2 1311   3.464   0.972   5.934
  138SOL     OW 1312   6.126   4.755   5.356
  138SOL    HW1 1313   6.095   4.772   5.449
  138SOL    HW2 1314   6.053   4.778   5.291
  139SOL     OW 1315   2.959   6.044   5.715
  139SOL    HW1 1316   2.866   6.077   5.703
  139SOL    HW2 1317   3.024   6.119   5.698
  140SOL     OW 1318   6.429   4.381   4.319
  140SOL    HW1 1319   6.410   4.366   4.417
  140SOL    HW2 1320   6.397   4.473   4.293
  141SOL     OW 1321   1.264   1.884   2.382
  141SOL    HW1 1322   1.285   1.967   2.434
  141SOL    HW2 1323   1.246   1.909   2.287
  142SOL     OW 1324   1.587   5.217   1.614
  142SOL    HW1 1325   1.525   5.183   1.543
  142SOL    HW2 1326   1.545   5.294   1.662
  143SOL     OW 1327   5.220   4.513   2.167
  143SOL    HW1 1328   5.256   4.426   2.200
  143SOL    HW2 1329   5.290   4.559   2.112
  144SOL     OW 1330   2.420   6.174   1.016
  144SOL    HW1 1331   2.506   6.199   0.971
  144SOL    HW2 1332   2.435   6.168   1.115
  145SOL     OW 1333   6.773   5.160   0.533
  145SOL    HW1 1334   6.728   5.186   0.618
  145SOL    HW2 1335   6.760   5.062   0.517
  146SOL     OW 1336   6.615   5.199   0.749
  146SOL    HW1 1337   6.585   5.104   0.736
  146SOL    HW2 1338   6.660   5.207   0.838
  147SOL     OW 1339   5.433   2.762   0.914
  147SOL    HW1 1340   5.417   2.749   1.012
  147SOL    HW2 1341   5.528   2.792   0.900
  148SOL     OW 1342   1.153   5.180   5.334
  148SOL    HW1 1343   1.172   5.267   5.379
  148SOL    HW2 1344   1.068   5.188   5.282
  149SOL     OW 1345   2.954   1.158   6.164
  149SOL    HW1 1346   2.979   1.181   6.258
  149SOL    HW2 1347   3.036   1.152   6.108
  150SOL     OW 1348   0.328   5.909   5.756
  150SOL    HW1 1349   0.375   5.932   5.671
  150SOL    HW2 1350   0.231   5.897   5.738
  151SOL     OW 1351   3.577   0.498   2.170
  151SOL    HW1 1352   3.563   0.590   2.134
  151SOL    HW2 1353   3.567   0.499   2.270
  152SOL     OW 1354   3.442   1.062   4.842
  152SOL    HW1 1355   3.489   1.093   4.924
  152SOL    HW2 1356   3.387   1.137   4.804
  153SOL     OW 1357   1.306   0.490   2.672
  153SOL    HW1 1358   1.244   0.454   2.742
  153SOL    HW2 1359   1.294   0.437   2.588
  154SOL     OW 1360   6.459   1.943   2.951
  154SOL    HW1 1361   6.446   2.040   2.971
  154SOL    HW2 1362   6.556   1.920   2.961
  155SOL     OW 1363   0.446   1.159   2.803
  155SOL    HW1 1364   0.518   1.180   2.869
  155SOL    HW2 1365   0.380   1.096   2.844
  156SOL     OW 1366   0.585   2.535   1.521
  156SOL    HW1 1367   0.643   2.494   1.590
  156SOL    HW2 1368   0.582   2.634   1.534
  157SOL     OW 1369   5.911   3.317   2.749
  157SOL    HW1 1370   5.907   3.291   2.653
  157SOL    HW2 1371   5.857   3.252   2.803
  158SOL     OW 1372   1.890   1.880   4.110
  158SOL    HW1 1373   1.963   1.894   4.178
  158SOL    HW2 1374   1.866   1.968   4.069
  159SOL     OW 1375   4.910   3.229   2.139
  159SOL    HW1 1376   4.848   3.150   2.140
  159SOL    HW2 1377   4.949   3.238   2.047
  160SOL     OW 1378   6.314   4.482   5.887
  160SOL    HW1 1379   6.260   4.555   5.928
  160SOL    HW2 1380   6.385   4.454   5.952
  161SOL     OW 1381   3.162   4.697   5.733
  161SOL    HW1 1382   3.194   4.701   5.639
  161SOL    HW2 1383   3.104   4.616   5.746
  162SOL     OW 1384   4.897   6.007   2.093
  162SOL    HW1 1385   4.947   6.052   2.167
  162SOL    HW2 1386   4.871   5.915   2.120
  163SOL     OW 1387   5.575   1.052   2.169
  163SOL    HW1 1388   5.656   1.072   2.224
  163SOL    HW2 1389   5.527   0.973   2.207
  164SOL     OW 1390   6.522   3.269   1.371
  164SOL    HW1 1391   6.521   3.186   1.316
  164SOL    HW2 1392   6.615   3.306   1.375
  165SOL     OW 1393   6.359   3.940   6.620
  165SOL    HW1 1394   6.368   3.987   6.532
  165SOL    HW2 1395   6.321   3.849   6.606
  166SOL     OW 1396   1.400   0.409   1.017
  166SOL    HW1 1397   1.419   0.319   1.059
  166SOL    HW2 1398   1.425   0.481   1.082
  167SOL     OW 1399   6.671   3.208   0.758
  167SOL    HW1 1400   6.603   3.172   0.695
  167SOL    HW2 1401   6.667   3.157   0.844
  168SOL     OW 1402   2.591   5.661   1.504
  168SOL    HW1 1403   2.500   5.625   1.485
  168SOL    HW2 1404   2.660   5.601   1.465
  169SOL     OW 1405   1.224   0.073   1.522
  169SOL    HW1 1406   1.131   0.077   1.559
  169SOL    HW2 1407   1.286   0.040   1.594
  170SOL     OW 1408   0.648   1.221   2.980
  170SOL    HW1 1409   0.662   1.270   3.066
  170SOL    HW2 1410   0.716   1.148   2.973
  171SOL     OW 1411   3.587   4.001   0.620
  171SOL    HW1 1412   3.510   3.956   0.666
  171SOL    HW2 1413   3.552   4.065   0.552
  172SOL     OW 1414   6.800   2.936   1.671
  172SOL    HW1 1415   6.752   2.976   1.748
  172SOL    HW2 1416   6.897   2.924   1.694
  173SOL     OW 1417   0.405   6.262   5.560
  173SOL    HW1 1418   0.327   6.312   5.598
  173SOL    HW2 1419   0.381   6.165   5.553
  174SOL     OW 1420   2.565   5.804   3.974
  174SOL    HW1 1421   2.659   5.822   3.947
  174SOL    HW2 1422   2.561   5.719   4.026
  175SOL     OW 1423   0.485   5.356   3.329
  175SOL    HW1 1424   0.404   5.414   3.333
  175SOL    HW2 1425   0.555   5.393   3.391
  176SOL     OW 1426   2.940   5.328   0.244
  176SOL    HW1 1427   3.020   5.279   0.277
  176SOL    HW2 1428   2.881   5.266   0.192
  177SOL     OW 1429   4.587   2.155   3.146
  177SOL    HW1 1430   4.576   2.065   3.103
  177SOL    HW2 1431   4.619   2.143   3.240
  178SOL     OW 1432   5.537   4.484   5.674
  178SOL    HW1 1433   5.549   4.392   5.712
  178SOL    HW2 1434   5.458   4.484   5.613
  179SOL     OW 1435   3.082   0.197   0.897
  179SOL    HW1 1436   2.992   0.163   0.873
  179SOL    HW2 1437   3.081   0.230   0.992
  180SOL     OW 1438   1.277   2.272   0.162
  180SOL    HW1 1439   1.189   2.227   0.153
  180SOL    HW2 1440   1.346   2.221   0.111
  181SOL     OW 1441   2.895   3.739   4.769
  181SOL    HW1 1442   2.980   3.762   4.723
  181SOL    HW2 1443   2.826   3.808   4.749
  182SOL     OW 1444   4.972   2.438   4.832
  182SOL    HW1 1445   4.986   2.376   4.755
  182SOL    HW2 1446   4.899   2.502   4.810
  183SOL     OW 1447   5.947   1.835   2.514
  183SOL    HW1 1448   5.940   1.856   2.417
  183SOL    HW2 1449   5.970   1.918   2.564
  184SOL     OW 1450   0.167   4.422   2.758
  184SOL    HW1 1451   0.229   4.391   2.830
  184SOL    HW2 1452   0.119   4.504   2.788
  185SOL     OW 1453   2.813   3.181   6.479
  185SOL    HW1 1454   2.844   3.100   6.530
  185SOL    HW2 1455   2.874   3.197   6.401
  186SOL     OW 1456   5.954   6.287   3.617
  186SOL    HW1 1457   6.001   6.365   3.576
  186SOL    HW2 1458   5.956   6.296   3.717
  187SOL     OW 1459   5.712   0.182   3.853
  187SOL    HW1 1460   5.655   0.208   3.775
  187SOL    HW2 1461   5.723   0.083   3.855
  188SOL     OW 1462   5.933   2.206   4.438
  188SOL    HW1 1463   6.012   2.258   4.472
  188SOL    HW2 1464   5.910   2.238   4.346
  189SOL     OW 1465   1.597   4.447   3.031
  189SOL    HW1 1466   1.660   4.480   3.101
  189SOL    HW2 1467   1.617   4.493   2.944
  190SOL     OW 1468   3.104   1.294   6.405
  190SOL    HW1 1469   3.133   1.357   6.333
  190SOL    HW2 1470   3.065   1.345   6.481
  191SOL     OW 1471   4.605   6.260   5.850
  191SOL    HW1 1472   4.616   6.312   5.935
  191SOL    HW2 1473   4.523   6.203   5.857
  192SOL     OW 1474   6.578   0.849   0.585
  192SOL    HW1 1475   6.601   0.766   0.637
  192SOL    HW2 1476   6.648   0.865   0.515
  193SOL     OW 1477   5.700   4.326   6.846
  193SOL    HW1 1478   5.682   4.353   6.751
  193SOL    HW2 1479   5.799   4.323   6.861
  194SOL     OW 1480   4.350   6.872   4.433
  194SOL    HW1 1481   4.447   6.898   4.436
  194SOL    HW2 1482   4.296   6.940   4.482
  195SOL     OW 1483   6.894   5.431   3.279
  195SOL    HW1 1484   6.920   5.340   3.311
  195SOL    HW2 1485   6.925   5.444   3.185
  196SOL     OW 1486   0.790   1.231   1.125
  196SOL    HW1 1487   0.759   1.137   1.112
  196SOL    HW2 1488   0.845   1.260   1.046
  197SOL     OW 1489   1.872   0.720   0.771
  197SOL    HW1 1490   1.858   0.752   0.677
  197SOL    HW2 1491   1.861   0.797   0.834
  198SOL     OW 1492   2.698   1.399   4.148
  198SOL    HW1 1493   2.610   1.425   4.189
  198SOL    HW2 1494   2.763   1.474   4.157
  199SOL     OW 1495   1.054   1.809   4.650
  199SOL    HW1 1496   1.143   1.763   4.661
  199SOL    HW2 1497   1.027   1.806   4.554
  200SOL     OW 1498   6.161   2.135   0.041
  200SOL    HW1 1499   6.163   2.157   0.139
  200SOL    HW2 1500   6.185   2.216   7.006
  201SOL     OW 1501   0.127   1.225   6.402
  201SOL    HW1 1502   0.226   1.217   6.406
  201SOL    HW2 1503   0.093   1.269   6.484
  202SOL     OW 1504   5.035   0.302   0.336
  202SOL    HW1 1505   5.121   0.338   0.302
  202SOL    HW2 1506   5.032   0.203   0.323
  203SOL     OW 1507   6.424   2.959   6.574
  203SOL    HW1 1508   6.500   2.960   6.509
  203SOL    HW2 1509   6.346   2.910   6.533
  204SOL     OW 1510   6.106   0.500   5.126
  204SOL    HW1 1511   6.175   0.442   5.170
  204SOL    HW2 1512   6.140   0.594   5.122
  205SOL     OW 1513   1.788   3.944   2.538
  205SOL    HW1 1514   1.757   4.029   2.581
  205SOL    HW2 1515   1.888   3.945   2.531
  206SOL     OW 1516   0.346   3.776   0.735
  206SOL    HW1 1517   0.321   3.751   0.828
  206SOL    HW2 1518   0.441   3.807   0.734
  207SOL     OW 1519   6.168   2.544   4.806
  207SOL    HW1 1520   6.077   2.511   4.830
  207SOL    HW2 1521   6.174   2.642   4.828
  208SOL     OW 1522   1.012   3.503   5.243
  208SOL    HW1 1523   1.073   3.428   5.270
  208SOL    HW2 1524   1.055   3.590   5.264
  209SOL     OW 1525   6.619   4.721   2.971
  209SOL    HW1 1526   6.563   4.741   3.052
  209SOL    HW2 1527   6.562   4.727   2.889
  210SOL     OW 1528   4.621   3.052   0.709
  210SOL    HW1 1529   4.609   3.123   0.779
  210SOL    HW2 1530   4.717   3.049   0.681
  211SOL     OW 1531   1.445   1.428   2.084
  211SOL    HW1 1532   1.416   1.443   2.178
  211SOL    HW2 1533   1.384   1.362   2.040
  212SOL     OW 1534   1.939   3.960   1.669
  212SOL    HW1 1535   2.022   3.924   1.713
  212SOL    HW2 1536   1.867   3.891   1.673
  213SOL     OW 1537   1.151   4.767   0.989
  213SOL    HW1 1538   1.233   4.807   1.031
  213SOL    HW2 1539   1.098   4.840   0.945
  214SOL     OW 1540   5.714   6.984   2.109
  214SOL    HW1 1541   5.788   0.024   2.144
  214SOL    HW2 1542   5.627   7.013   2.150
  215SOL     OW 1543   1.974   5.157   3.054
  215SOL    HW1 1544   1.959   5.232   2.990
  215SOL    HW2 1545   2.024   5.083   3.008
  216SOL     OW 1546   1.685   6.226   3.130
  216SOL    HW1 1547   1.736   6.227   3.216
  216SOL    HW2 1548   1.746   6.250   3.055
  217SOL     OW 1549   1.178   4.815   5.606
  217SOL    HW1 1550   1.084   4.781   5.597
  217SOL    HW2 1551   1.242   4.739   5.598
  218SOL     OW 1552   2.616   2.072   5.528
  218SOL    HW1 1553   2.528   2.034   5.555
  218SOL    HW2 1554   2.669   2.095   5.610
  219SOL     OW 1555   4.244   2.289   1.548
  219SOL    HW1 1556   4.192   2.320   1.469
  219SOL    HW2 1557   4.211   2.336   1.630
  220SOL     OW 1558   3.022   6.719   1.027
  220SOL    HW1 1559   3.093   6.742   1.093
  220SOL    HW2 1560   3.063   6.702   0.937
  221SOL     OW 1561   5.103   4.919   1.922
  221SOL    HW1 1562   5.159   4.883   1.996
  221SOL    HW2 1563   5.132   4.878   1.835
  222SOL     OW 1564   2.006   4.717   6.803
  222SOL    HW1 1565   2.057   4.758   6.879
  222SOL    HW2 1566   2.065   4.652   6.754
  223SOL     OW 1567   6.402   2.633   4.987
  223SOL    HW1 1568   6.314   2.631   5.034
  223SOL    HW2 1569   6.469   2.580   5.039
  224SOL     OW 1570   3.669   2.140   5.757
  224SOL    HW1 1571   3.668   2.069   5.827
  224SOL    HW2 1572   3.654   2.229   5.800
  225SOL     OW 1573   4.050   6.183   6.392
  225SOL    HW1 1574   4.119   6.249   6.421
  225SOL    HW2 1575   4.047   6.107   6.458
  226SOL     OW 1576   1.778   2.647   6.879
  226SOL    HW1 1577   1.717   2.626   6.803
  226SOL    HW2 1578   1.786   2.747   6.889
  227SOL     OW 1579   1.621   3.760   0.880
  227SOL    HW1 1580   1.619   3.660   0.873
  227SOL    HW2 1581   1.656   3.798   0.794
  228SOL     OW 1582   0.734   0.497   2.173
  228SOL    HW1 1583   0.755   0.417   2.118
  228SOL    HW2 1584   0.761   0.481   2.268
  229SOL     OW 1585   3.940   6.966   6.033
  229SOL    HW1 1586   3.882   6.919   6.100
  229SOL    HW2 1587   4.006   6.901   5.995
  230SOL     OW 1588   5.393   5.284   5.460
  230SOL    HW1 1589   5.317   5.256   5.401
  230SOL    HW2 1590   5.475   5.296   5.404
  231SOL     OW 1591   5.258   1.626   6.953
  231SOL    HW1 1592   5.340   1.651   6.901
  231SOL    HW2 1593   5.195   1.577   6.894
  232SOL     OW 1594   0.977   1.858   5.822
  232SOL    HW1 1595   0.883   1.886   5.800
  232SOL    HW2 1596   1.004   1.899   5.909
  233SOL     OW 1597   3.295   1.776   2.925
  233SOL    HW1 1598   3.205   1.787   2.967
  233SOL    HW2 1599   3.358   1.736   2.992
  234SOL     OW 1600   5.287   0.692   0.966
  234SOL    HW1 1601   5.364   0.633   0.989
  234SOL    HW2 1602   5.319   0.769   0.911
  235SOL     OW 1603   4.953   2.735   2.678
  235SOL    HW1 1604   4.862   2.727   2.636
  235SOL    HW2 1605   4.984   2.644   2.706
  236SOL     OW 1606   4.206   3.622   6.247
  236SOL    HW1 1607   4.146   3.703   6.244
  236SOL    HW2 1608   4.160   3.548   6.295
  237SOL     OW 1609   6.146   3.486   2.766
  237SOL    HW1 1610   6.152   3.472   2.667
  237SOL    HW2 1611   6.054   3.462   2.797
  238SOL     OW 1612   5.957   2.171   0.837
  238SOL    HW1 1613   5.913   2.243   0.784
  238SOL    HW2 1614   6.056   2.175   0.823
  239SOL     OW 1615   1.132   3.495   0.616
  239SOL    HW1 1616   1.096   3.444   0.694
  239SOL    HW2 1617   1.070   3.484   0.537
  240SOL     OW 1618   4.937   3.409   4.224
  240SOL    HW1 1619   5.000   3.429   4.149
  240SOL    HW2 1620   4.923   3.311   4.231
  241SOL     OW 1621   2.646   1.908   4.294
  241SOL    HW1 1622   2.715   1.858   4.347
  241SOL    HW2 1623   2.565   1.850   4.282
  242SOL     OW 1624   3.847   3.442   2.738
  242SOL    HW1 1625   3.801   3.354   2.728
  242SOL    HW2 1626   3.793   3.501   2.799
  243SOL     OW 1627   4.068   2.468   6.900
  243SOL    HW1 1628   3.996   2.404   6.927
  243SOL    HW2 1629   4.153   2.418   6.883
  244SOL     OW 1630   5.062   3.233   4.799
  244SOL    HW1 1631   4.999   3.183   4.859
  244SOL    HW2 1632   5.038   3.214   4.704
  245SOL     OW 1633   3.198   1.161   3.358
  245SOL    HW1 1634   3.217   1.246   3.308
  245SOL    HW2 1635   3.284   1.123   3.393
  246SOL     OW 1636   6.305   1.292   2.317
  246SOL    HW1 1637   6.295   1.382   2.273
  246SOL    HW2 1638   6.272   1.221   2.254
  247SOL     OW 1639   1.823   1.443   1.744
  247SOL    HW1 1640   1.837   1.541   1.729
  247SOL    HW2 1641   1.729   1.419   1.722
  248SOL     OW 1642   2.999   3.402   1.652
  248SOL    HW1 1643   3.081   3.413   1.708
  248SOL    HW2 1644   2.965   3.308   1.660
  249SOL     OW 1645   4.912   6.725   4.879
  249SOL    HW1 1646   4.918   6.824   4.884
  249SOL    HW2 1647   4.859   6.691   4.957
  250SOL     OW 1648   4.385   2.308   0.454
  250SOL    HW1 1649   4.353   2.379   0.392
  250SOL    HW2 1650   4.392   2.345   0.547
  251SOL     OW 1651   3.896   4.843   5.228
  251SOL    HW1 1652   3.905   4.885   5.318
  251SOL    HW2 1653   3.909   4.744   5.237
  252SOL     OW 1654   6.271   6.563   5.339
  252SOL    HW1 1655   6.186   6.509   5.343
  252SOL    HW2 1656   6.332   6.523   5.271
  253SOL     OW 1657   4.446   6.237   6.164
  253SOL    HW1 1658   4.399   6.302   6.224
  253SOL    HW2 1659   4.392   6.223   6.081
  254SOL     OW 1660   6.312   2.090   5.726
  254SOL    HW1 1661   6.275   2.022   5.664
  254SOL    HW2 1662   6.268   2.083   5.815
  255SOL     OW 1663   0.937   4.116   6.809
  255SOL    HW1 1664   0.983   4.032   6.839
  255SOL    HW2 1665   0.908   4.168   6.890
  256SOL     OW 1666   5.359   2.287   5.061
  256SOL    HW1 1667   5.324   2.369   5.016
  256SOL    HW2 1668   5.442   2.309   5.111
  257SOL     OW 1669   4.732   6.200   2.245
  257SOL    HW1 1670   4.801   6.189   2.174
  257SOL    HW2 1671   4.699   6.109   2.273
  258SOL     OW 1672   1.799   3.180   6.119
  258SOL    HW1 1673   1.849   3.102   6.082
  258SOL    HW2 1674   1.710   3.149   6.153
  259SOL     OW 1675   2.976   6.569   3.642
  259SOL    HW1 1676   2.983   6.656   3.691
  259SOL    HW2 1677   2.921   6.504   3.695
  260SOL     OW 1678   4.241   5.511   3.082
  260SOL    HW1 1679   4.283   5.544   3.166
  260SOL    HW2 1680   4.311   5.504   3.010
  261SOL     OW 1681   4.546   5.045   0.007
  261SOL    HW1 1682   4.599   5.121   6.988
  261SOL    HW2 1683   4.457   5.079   0.040
  262SOL     OW 1684   0.930   4.144   6.280
  262SOL    HW1 1685   0.944   4.214   6.210
  262SOL    HW2 1686   0.932   4.187   6.371
  263SOL     OW 1687   0.961   6.806   4.091
  263SOL    HW1 1688   1.045   6.860   4.094
  263SOL    HW2 1689   0.907   6.824   4.173
  264SOL     OW 1690   6.593   3.423   6.593
  264SOL    HW1 1691   6.510   3.449   6.640
  264SOL    HW2 1692   6.657   3.500   6.593
  265SOL     OW 1693   0.052   0.510   3.215
  265SOL    HW1 1694   7.010   0.452   3.160
  265SOL    HW2 1695   0.044   0.605   3.185
  266SOL     OW 1696   3.569   0.812   6.018
  266SOL    HW1 1697   3.603   0.719   6.008
  266SOL    HW2 1698   3.589   0.846   6.110
  267SOL     OW 1699   2.088   0.489   3.428
  267SOL    HW1 1700   2.034   0.489   3.344
  267SOL    HW2 1701   2.047   0.427   3.495
  268SOL     OW 1702   3.308   2.618   1.118
  268SOL    HW1 1703   3.272   2.641   1.028
  268SOL    HW2 1704   3.347   2.700   1.161
  269SOL     OW 1705   4.666   1.940   0.266
  269SOL    HW1 1706   4.746   1.882   0.281
  269SOL    HW2 1707   4.608   1.939   0.348
  270SOL     OW 1708   5.809   0.728   6.922
  270SOL    HW1 1709   5.887   0.789   6.909
  270SOL    HW2 1710   5.744   0.740   6.846
  271SOL     OW 1711   0.584   4.128   6.488
  271SOL    HW1 1712   0.506   4.115   6.427
  271SOL    HW2 1713   0.638   4.045   6.492
  272SOL     OW 1714   3.417   5.878   3.200
  272SOL    HW1 1715   3.371   5.939   3.134
  272SOL    HW2 1716   3.480   5.932   3.256
  273SOL     OW 1717   1.784   4.727   6.093
  273SOL    HW1 1718   1.719   4.666   6.139
  273SOL    HW2 1719   1.790   4.702   5.996
  274SOL     OW 1720   5.185   2.268   3.570
  274SOL    HW1 1721   5.142   2.218   3.494
  274SOL    HW2 1722   5.284   2.254   3.567
  275SOL     OW 1723   6.479   6.618   1.133
  275SOL    HW1 1724   6.523   6.650   1.050
  275SOL    HW2 1725   6.483   6.518   1.137
  276SOL     OW 1726   0.963   0.443   4.978
  276SOL    HW1 1727   0.877   0.404   5.009
  276SOL    HW2 1728   0.998   0.389   4.900
  277SOL     OW 1729   1.936   4.254   0.802
  277SOL    HW1 1730   1.900   4.332   0.752
  277SOL    HW2 1731   1.866   4.220   0.866
  278SOL     OW 1732   0.797   3.119   2.759
  278SOL    HW1 1733   0.880   3.068   2.736
  278SOL    HW2 1734   0.790   3.128   2.858
  279SOL     OW 1735   6.597   1.030   3.811
  279SOL    HW1 1736   6.551   0.974   3.880
  279SOL    HW2 1737   6.544   1.028   3.726
  280SOL     OW 1738   1.414   4.794   2.491
  280SOL    HW1 1739   1.382   4.763   2.401
  280SOL    HW2 1740   1.480   4.868   2.479
  281SOL     OW 1741   2.477   4.686   1.170
  281SOL    HW1 1742   2.479   4.685   1.070
  281SOL    HW2 1743   2.542   4.619   1.205
  282SOL     OW 1744   2.670   1.613   5.883
  282SOL    HW1 1745   2.745   1.568   5.931
  282SOL    HW2 1746   2.603   1.645   5.950
  283SOL     OW 1747   3.529   2.575   5.828
  283SOL    HW1 1748   3.561   2.620   5.745
  283SOL    HW2 1749   3.603   2.523   5.869
  284SOL     OW 1750   0.566   3.583   3.811
  284SOL    HW1 1751   0.477   3.629   3.803
  284SOL    HW2 1752   0.562   3.497   3.761
  285SOL     OW 1753   4.769   5.018   4.158
  285SOL    HW1 1754   4.677   5.056   4.152
  285SOL    HW2 1755   4.815   5.053   4.240
  286SOL     OW 1756   3.011   3.887   0.395
  286SOL    HW1 1757   2.962   3.967   0.360
  286SOL    HW2 1758   3.007   3.887   0.495
  287SOL     OW 1759   1.272   2.773   0.354
  287SOL    HW1 1760   1.178   2.805   0.346
  287SOL    HW2 1761   1.331   2.830   0.297
  288SOL     OW 1762   4.851   3.202   1.010
  288SOL    HW1 1763   4.917   3.277   1.008
  288SOL    HW2 1764   4.898   3.115   0.997
  289SOL     OW 1765   4.067   5.638   6.696
  289SOL    HW1 1766   4.031   5.710   6.756
  289SOL    HW2 1767   4.016   5.553   6.711
  290SOL     OW 1768   1.517   1.279   4.718
  290SOL    HW1 1769   1.575   1.294   4.638
  290SOL    HW2 1770   1.444   1.347   4.720
  291SOL     OW 1771   6.331   2.370   2.782
  291SOL    HW1 1772   6.422   2.349   2.817
  291SOL    HW2 1773   6.299   2.457   2.820
  292SOL     OW 1774   3.378   0.612   3.802
  292SOL    HW1 1775   3.322   0.685   3.764
  292SOL    HW2 1776   3.438   0.649   3.873
  293SOL     OW 1777   3.663   4.885   3.683
  293SOL    HW1 1778   3.652   4.894   3.782
  293SOL    HW2 1779   3.700   4.970   3.646
  294SOL     OW 1780   4.900   0.996   0.768
  294SOL    HW1 1781   4.979   1.004   0.707
  294SOL    HW2 1782   4.899   0.905   0.810
  295SOL     OW 1783   5.978   6.973   3.387
  295SOL    HW1 1784   5.913   0.027   3.362
  295SOL    HW2 1785   6.062   7.015   3.421
  296SOL     OW 1786   2.299   2.051   3.696
  296SOL    HW1 1787   2.392   2.069   3.665
  296SOL    HW2 1788   2.264   2.130   3.746
  297SOL     OW 1789   1.500   5.369   2.266
  297SOL    HW1 1790   1.449   5.327   2.342
  297SOL    HW2 1791   1.437   5.393   2.193
  298SOL     OW 1792   6.552   4.754   1.047
  298SOL    HW1 1793   6.644   4.748   1.008
  298SOL    HW2 1794   6.551   4.822   1.120
  299SOL     OW 1795   5.993   2.496   4.049
  299SOL    HW1 1796   6.059   2.563   4.084
  299SOL    HW2 1797   5.913   2.544   4.013
  300SOL     OW 1798   6.619   6.656   1.932
  300SOL    HW1 1799   6.571   6.662   2.020
  300SOL    HW2 1800   6.568   6.596   1.871
  301SOL     OW 1801   4.333   2.709   5.494
  301SOL    HW1 1802   4.405   2.776   5.511
  301SOL    HW2 1803   4.350   2.662   5.408
  302SOL     OW 1804   0.733   5.700   4.135
  302SOL    HW1 1805   0.668   5.728   4.064
  302SOL    HW2 1806   0.682   5.669   4.216
  303SOL     OW 1807   6.151   6.964   3.129
  303SOL    HW1 1808   6.090   7.012   3.067
  303SOL    HW2 1809   6.107   6.880   3.160
  304SOL     OW 1810   3.577   0.182   3.305
  304SOL    HW1 1811   3.612   0.109   3.247
  304SOL    HW2 1812   3.569   0.150   3.399
  305SOL     OW 1813   1.304   4.481   1.314
  305SOL    HW1 1814   1.397   4.519   1.314
  305SOL    HW2 1815   1.241   4.547   1.356
  306SOL     OW 1816   1.743   0.756   3.762
  306SOL    HW1 1817   1.772   0.723   3.851
  306SOL    HW2 1818   1.717   0.852   3.769
  307SOL     OW 1819   3.100   0.390   1.733
  307SOL    HW1 1820   3.114   0.313   1.672
  307SOL    HW2 1821   3.148   0.374   1.819
  308SOL     OW 1822   0.952   4.578   3.908
  308SOL    HW1 1823   1.002   4.661   3.932
  308SOL    HW2 1824   0.855   4.590   3.930
  309SOL     OW 1825   3.255   4.954   5.023
  309SOL    HW1 1826   3.231   4.893   4.947
  309SOL    HW2 1827   3.185   5.025   5.032
  310SOL     OW 1828   1.455   5.640   6.102
  310SOL    HW1 1829   1.414   5.564   6.153
  310SOL    HW2 1830   1.547   5.615   6.074
  311SOL     OW 1831   0.171   0.979   1.387
  311SOL    HW1 1832   0.225   0.898   1.363
  311SOL    HW2 1833   0.164   0.986   1.486
  312SOL     OW 1834   3.880   1.190   5.848
  312SOL    HW1 1835   3.829   1.169   5.765
  312SOL    HW2 1836   3.934   1.273   5.834
  313SOL     OW 1837   0.265   4.649   0.890
  313SOL    HW1 1838   0.273   4.619   0.985
  313SOL    HW2 1839   0.197   4.592   0.843
  314SOL     OW 1840   3.418   5.744   1.780
  314SOL    HW1 1841   3.347   5.812   1.760
  314SOL    HW2 1842   3.436   5.741   1.878
  315SOL     OW 1843   1.168   3.772   2.820
  315SOL    HW1 1844   1.079   3.813   2.838
  315SOL    HW2 1845   1.157   3.677   2.792
  316SOL     OW 1846   2.021   3.151   4.883
  316SOL    HW1 1847   2.088   3.089   4.842
  316SOL    HW2 1848   2.057   3.188   4.969
  317SOL     OW 1849   6.473   1.248   0.258
  317SOL    HW1 1850   6.483   1.337   0.302
  317SOL    HW2 1851   6.545   1.236   0.190
  318SOL     OW 1852   2.813   4.407   1.084
  318SOL    HW1 1853   2.714   4.420   1.081
  318SOL    HW2 1854   2.846   4.417   1.178
  319SOL     OW 1855   1.415   0.007   6.539
  319SOL    HW1 1856   1.494   0.034   6.484
  319SOL    HW2 1857   1.441   0.000   6.635
  320SOL     OW 1858   5.613   3.357   0.617
  320SOL    HW1 1859   5.701   3.348   0.663
  320SOL    HW2 1860   5.550   3.409   0.675
  321SOL     OW 1861   1.971   1.507   2.360
  321SOL    HW1 1862   2.035   1.536   2.290
  321SOL    HW2 1863   1.938   1.415   2.339
  322SOL     OW 1864   3.430   2.527   5.476
  322SOL    HW1 1865   3.514   2.572   5.505
  322SOL    HW2 1866   3.360   2.539   5.546
  323SOL     OW 1867   0.787   4.461   1.607
  323SOL    HW1 1868   0.816   4.439   1.700
  323SOL    HW2 1869   0.865   4.456   1.545
  324SOL     OW 1870   0.495   2.783   4.238
  324SOL    HW1 1871   0.581   2.834   4.237
  324SOL    HW2 1872   0.475   2.751   4.145
  325SOL     OW 1873   2.432   1.786   2.961
  325SOL    HW1 1874   2.443   1.869   3.016
  325SOL    HW2 1875   2.447   1.809   2.864
  326SOL     OW 1876   1.563   4.189   4.548
  326SOL    HW1 1877   1.568   4.188   4.648
  326SOL    HW2 1878   1.606   4.273   4.514
  327SOL     OW 1879   6.324   4.158   6.084
  327SOL    HW1 1880   6.326   4.144   6.182
  327SOL    HW2 1881   6.373   4.243   6.061
  328SOL     OW 1882   4.058   5.892   2.808
  328SOL    HW1 1883   3.985   5.826   2.824
  328SOL    HW2 1884   4.020   5.984   2.804
  329SOL     OW 1885   3.548   4.063   2.321
  329SOL    HW1 1886   3.637   4.067   2.367
  329SOL    HW2 1887   3.475   4.073   2.389
  330SOL     OW 1888   2.514   2.080   1.888
  330SOL    HW1 1889   2.612   2.099   1.878
  330SOL    HW2 1890   2.464   2.166   1.899
  331SOL     OW 1891   5.886   4.214   5.553
  331SOL    HW1 1892   5.861   4.311   5.562
  331SOL    HW2 1893   5.965   4.205   5.493
  332SOL     OW 1894   4.116   1.961   3.339
  332SOL    HW1 1895   4.216   1.965   3.343
  332SOL    HW2 1896   4.087   1.917   3.255
  333SOL     OW 1897   4.691   6.545   0.635
  333SOL    HW1 1898   4.601   6.503   0.630
  333SOL    HW2 1899   4.696   6.621   0.571
  334SOL     OW 1900   4.918   6.129   2.605
  334SOL    HW1 1901   4.991   6.171   2.659
  334SOL    HW2 1902   4.888   6.193   2.535
  335SOL     OW 1903   3.380   0.154   2.834
  335SOL    HW1 1904   3.328   0.231   2.871
  335SOL    HW2 1905   3.440   0.187   2.761
  336SOL     OW 1906   3.319   0.403   4.512
  336SOL    HW1 1907   3.403   0.457   4.518
  336SOL    HW2 1908   3.250   0.454   4.461
  337SOL     OW 1909   0.063   4.016   2.177
  337SOL    HW1 1910   0.080   3.979   2.268
  337SOL    HW2 1911   0.133   4.084   2.155
  338SOL     OW 1912   2.578   2.238   1.439
  338SOL    HW1 1913   2.658   2.187   1.407
  338SOL    HW2 1914   2.500   2.177   1.447
  339SOL     OW 1915   4.280   1.362   3.213
  339SOL    HW1 1916   4.258   1.321   3.124
  339SOL    HW2 1917   4.292   1.290   3.281
  340SOL     OW 1918   4.783   4.086   4.832
  340SOL    HW1 1919   4.803   3.988   4.839
  340SOL    HW2 1920   4.698   4.106   4.880
  341SOL     OW 1921   4.504   4.501   5.637
  341SOL    HW1 1922   4.464   4.488   5.546
  341SOL    HW2 1923   4.442   4.462   5.705
  342SOL     OW 1924   5.756   3.904   0.414
  342SOL    HW1 1925   5.706   3.944   0.337
  342SOL    HW2 1926   5.852   3.933   0.410
  343SOL     OW 1927   2.291   0.880   2.279
  343SOL    HW1 1928   2.202   0.855   2.318
  343SOL    HW2 1929   2.361   0.872   2.350
  344SOL     OW 1930   4.161   6.555   0.367
  344SOL    HW1 1931   4.174   6.491   0.291
  344SOL    HW2 1932   4.244   6.609   0.379
  345SOL     OW 1933   1.645   1.175   5.678
  345SOL    HW1 1934   1.652   1.079   5.651
  345SOL    HW2 1935   1.688   1.233   5.609
  346SOL     OW 1936   3.362   0.846   4.971
  346SOL    HW1 1937   3.434   0.835   5.039
  346SOL    HW2 1938   3.382   0.927   4.915
  347SOL     OW 1939   4.939   6.441   5.723
  347SOL    HW1 1940   4.935   6.383   5.805
  347SOL    HW2 1941   4.857   6.424   5.667
  348SOL     OW 1942   2.569   6.501   2.556
  348SOL    HW1 1943   2.558   6.415   2.606
  348SOL    HW2 1944   2.650   6.549   2.591
  349SOL     OW 1945   2.932   5.082   2.362
  349SOL    HW1 1946   2.869   5.055   2.290
  349SOL    HW2 1947   2.970   5.000   2.406
  350SOL     OW 1948   4.584   3.194   0.937
  350SOL    HW1 1949   4.520   3.147   0.999
  350SOL    HW2 1950   4.675   3.194   0.978
  351SOL     OW 1951   3.376   1.717   0.633
  351SOL    HW1 1952   3.304   1.688   0.570
  351SOL    HW2 1953   3.334   1.765   0.710
  352SOL     OW 1954   3.205   1.995   6.159
  352SOL    HW1 1955   3.152   2.061   6.212
  352SOL    HW2 1956   3.229   1.917   6.218
  353SOL     OW 1957   1.904   6.948   1.383
  353SOL    HW1 1958   1.974   6.982   1.320
  353SOL    HW2 1959   1.912   6.996   1.470
  354SOL     OW 1960   5.088   0.281   2.153
  354SOL    HW1 1961   5.039   0.320   2.075
  354SOL    HW2 1962   5.089   0.346   2.229
  355SOL     OW 1963   1.065   0.992   2.267
  355SOL    HW1 1964   1.157   1.024   2.292
  355SOL    HW2 1965   1.017   0.962   2.349
  356SOL     OW 1966   3.282   0.329   2.987
  356SOL    HW1 1967   3.338   0.310   3.068
  356SOL    HW2 1968   3.193   0.364   3.015
  357SOL     OW 1969   1.204   4.908   5.224
  357SOL    HW1 1970   1.280   4.896   5.161
  357SOL    HW2 1971   1.223   4.986   5.284
  358SOL     OW 1972   4.512   1.136   3.046
  358SOL    HW1 1973   4.545   1.071   3.115
  358SOL    HW2 1974   4.420   1.110   3.017
  359SOL     OW 1975   0.183   1.716   0.544
  359SOL    HW1 1976   0.274   1.719   0.584
  359SOL    HW2 1977   0.163   1.803   0.500
  360SOL     OW 1978   5.035   0.025   0.280
  360SOL    HW1 1979   5.049   6.971   0.348
  360SOL    HW2 1980   5.035   7.003   0.189
  361SOL     OW 1981   3.342   0.573   2.602
  361SOL    HW1 1982   3.383   0.572   2.693
  361SOL    HW2 1983   3.290   0.658   2.590
  362SOL     OW 1984   2.866   4.131   0.992
  362SOL    HW1 1985   2.830   4.115   0.900
  362SOL    HW2 1986   2.840   4.222   1.023
  363SOL     OW 1987   4.714   4.689   3.366
  363SOL    HW1 1988   4.706   4.763   3.434
  363SOL    HW2 1989   4.669   4.718   3.282
  364SOL     OW 1990   2.429   5.705   6.156
  364SOL    HW1 1991   2.488   5.739   6.229
  364SOL    HW2 1992   2.442   5.761   6.074
  365SOL     OW 1993   4.634   0.139   3.123
  365SOL    HW1 1994   4.701   0.099   3.060
  365SOL    HW2 1995   4.623   0.079   3.202
  366SOL     OW 1996   5.239   1.287   0.476
  366SOL    HW1 1997   5.243   1.282   0.576
  366SOL    HW2 1998   5.232   1.383   0.448
  367SOL     OW 1999   5.205   1.998   2.413
  367SOL    HW1 2000   5.300   1.995   2.380
  367SOL    HW2 2001   5.145   2.023   2.338
  368SOL     OW 2002   0.876   5.220   5.537
  368SOL    HW1 2003   0.897   5.289   5.467
  368SOL    HW2 2004   0.910   5.251   5.626
  369SOL     OW 2005   0.736   3.406   1.869
  369SOL    HW1 2006   0.830   3.373   1.865
  369SOL    HW2 2007   0.681   3.358   1.801
  370SOL     OW 2008   4.001   1.776   6.580
  370SOL    HW1 2009   4.015   1.873   6.600
  370SOL    HW2 2010   3.919   1.743   6.628
  371SOL     OW 2011   3.822   2.697   6.486
  371SOL    HW1 2012   3.878   2.697   6.404
  371SOL    HW2 2013   3.869   2.647   6.559
  372SOL     OW 2014   2.315   5.503   0.216
  372SOL    HW1 2015   2.249   5.533   0.285
  372SOL    HW2 2016   2.407   5.529   0.244
  373SOL     OW 2017   6.099   0.001   6.297
  373SOL    HW1 2018   6.034   6.974   6.236
  373SOL    HW2 2019   6.102   6.971   6.384
  374SOL     OW 2020   4.838   0.764   0.891
  374SOL    HW1 2021   4.767   0.725   0.833
  374SOL    HW2 2022   4.928   0.733   0.859
  375SOL     OW 2023   6.731   4.371   1.210
  375SOL    HW1 2024   6.737   4.469   1.192
  375SOL    HW2 2025   6.658   4.354   1.277
  376SOL     OW 2026   2.113   3.772   4.883
  376SOL    HW1 2027   2.021   3.799   4.909
  376SOL    HW2 2028   2.176   3.849   4.894
  377SOL     OW 2029   5.067   1.136   4.295
  377SOL    HW1 2030   5.143   1.190   4.259
  377SOL    HW2 2031   5.035   1.176   4.381
  378SOL     OW 2032   5.564   2.141   5.295
  378SOL    HW1 2033   5.533   2.235   5.277
  378SOL    HW2 2034   5.650   2.125   5.246
  379SOL     OW 2035   6.368   2.879   1.424
  379SOL    HW1 2036   6.425   2.812   1.472
  379SOL    HW2 2037   6.389   2.877   1.326
  380SOL     OW 2038   1.252   2.186   0.433
  380SOL    HW1 2039   1.175   2.247   0.453
  380SOL    HW2 2040   1.281   2.200   0.338
  381SOL     OW 2041   4.714   5.257   6.948
  381SOL    HW1 2042   4.703   5.347   6.905
  381SOL    HW2 2043   4.783   5.205   6.897
  382SOL     OW 2044   2.426   5.365   6.846
  382SOL    HW1 2045   2.393   5.369   6.940
  382SOL    HW2 2046   2.376   5.432   6.790
  383SOL     OW 2047   6.288   1.465   0.211
  383SOL    HW1 2048   6.296   1.559   0.177
  383SOL    HW2 2049   6.205   1.423   0.174
  384SOL     OW 2050   0.851   5.289   4.911
  384SOL    HW1 2051   0.860   5.251   4.819
  384SOL    HW2 2052   0.796   5.373   4.906
  385SOL     OW 2053   4.488   5.236   1.503
  385SOL    HW1 2054   4.560   5.300   1.476
  385SOL    HW2 2055   4.403   5.260   1.456
  386SOL     OW 2056   2.202   5.833   4.239
  386SOL    HW1 2057   2.152   5.883   4.310
  386SOL    HW2 2058   2.165   5.857   4.149
  387SOL     OW 2059   6.863   0.497   5.799
  387SOL    HW1 2060   6.906   0.422   5.850
  387SOL    HW2 2061   6.927   0.530   5.729
  388SOL     OW 2062   0.436   1.498   4.446
  388SOL    HW1 2063   0.368   1.547   4.391
  388SOL    HW2 2064   0.500   1.565   4.485
  389SOL     OW 2065   4.960   3.790   2.294
  389SOL    HW1 2066   4.942   3.696   2.264
  389SOL    HW2 2067   5.009   3.838   2.222
  390SOL     OW 2068   3.459   2.658   0.670
  390SOL    HW1 2069   3.465   2.741   0.726
  390SOL    HW2 2070   3.546   2.643   0.623
  391SOL     OW 2071   4.051   3.817   3.835
  391SOL    HW1 2072   4.116   3.779   3.901
  391SOL    HW2 2073   3.998   3.890   3.879
  392SOL     OW 2074   1.831   3.900   1.229
  392SOL    HW1 2075   1.828   3.938   1.137
  392SOL    HW2 2076   1.905   3.944   1.280
  393SOL     OW 2077   1.203   5.969   1.451
  393SOL    HW1 2078   1.282   6.029   1.435
  393SOL    HW2 2079   1.236   5.880   1.484
  394SOL     OW 2080   6.113   1.367   6.230
  394SOL    HW1 2081   6.080   1.298   6.166
  394SOL    HW2 2082   6.045   1.440   6.237
  395SOL     OW 2083   6.178   4.797   6.569
  395SOL    HW1 2084   6.149   4.821   6.476
  395SOL    HW2 2085   6.198   4.881   6.619
  396SOL     OW 2086   0.763   0.918   1.392
  396SOL    HW1 2087   0.738   1.011   1.416
  396SOL    HW2 2088   0.847   0.918   1.337
  397SOL     OW 2089   4.905   2.214   4.678
  397SOL    HW1 2090   4.859   2.132   4.713
  397SOL    HW2 2091   4.844   2.263   4.616
  398SOL     OW 2092   6.817   1.561   2.979
  398SOL    HW1 2093   6.771   1.647   3.000
  398SOL    HW2 2094   6.886   1.542   3.050
  399SOL     OW 2095   5.718   5.502   3.676
  399SOL    HW1 2096   5.712   5.449   3.760
  399SOL    HW2 2097   5.671   5.452   3.602
  400SOL     OW 2098   0.126   6.405   2.924
  400SOL    HW1 2099   0.223   6.422   2.939
  400SOL    HW2 2100   0.107   6.407   2.825
  401SOL     OW 2101   1.078   5.906   5.136
  401SOL    HW1 2102   1.020   5.867   5.064
  401SOL    HW2 2103   1.108   5.833   5.197
  402SOL     OW 2104   5.902   0.832   4.085
  402SOL    HW1 2105   5.917   0.747   4.136
  402SOL    HW2 2106   5.921   0.816   3.988
  403SOL     OW 2107   2.457   1.692   5.042
  403SOL    HW1 2108   2.413   1.679   4.953
  403SOL    HW2 2109   2.396   1.745   5.101
  404SOL     OW 2110   3.023   5.284   3.533
  404SOL    HW1 2111   3.004   5.349   3.459
  404SOL    HW2 2112   2.937   5.251   3.571
  405SOL     OW 2113   2.788   4.676   3.875
  405SOL    HW1 2114   2.813   4.611   3.947
  405SOL    HW2 2115   2.866   4.736   3.856
  406SOL     OW 2116   0.561   6.820   6.497
  406SOL    HW1 2117   0.599   6.802   6.406
  406SOL    HW2 2118   0.468   6.855   6.488
  407SOL     OW 2119   1.871   3.771   4.273
  407SOL    HW1 2120   1.807   3.842   4.242
  407SOL    HW2 2121   1.868   3.765   4.373
  408SOL     OW 2122   2.603   2.429   2.146
  408SOL    HW1 2123   2.691   2.382   2.145
  408SOL    HW2 2124   2.596   2.487   2.064
  409SOL     OW 2125   0.567   2.388   2.297
  409SOL    HW1 2126   0.497   2.414   2.365
  409SOL    HW2 2127   0.523   2.344   2.219
  410SOL     OW 2128   1.903   3.272   1.627
  410SOL    HW1 2129   1.830   3.338   1.644
  410SOL    HW2 2130   1.940   3.240   1.714
  411SOL     OW 2131   6.823   1.747   1.173
  411SOL    HW1 2132   6.885   1.712   1.103
  411SOL    HW2 2133   6.872   1.809   1.233
  412SOL     OW 2134   1.767   4.560   2.805
  412SOL    HW1 2135   1.796   4.491   2.739
  412SOL    HW2 2136   1.677   4.596   2.778
  413SOL     OW 2137   6.502   5.443   2.446
  413SOL    HW1 2138   6.430   5.435   2.377
  413SOL    HW2 2139   6.558   5.361   2.446
  414SOL     OW 2140   2.156   0.310   2.988
  414SOL    HW1 2141   2.061   0.335   2.973
  414SOL    HW2 2142   2.206   0.314   2.902
  415SOL     OW 2143   5.515   2.948   0.145
  415SOL    HW1 2144   5.501   2.871   0.208
  415SOL    HW2 2145   5.591   2.926   0.084
  416SOL     OW 2146   6.036   3.398   6.943
  416SOL    HW1 2147   6.029   3.498   6.944
  416SOL    HW2 2148   6.075   3.369   6.855
  417SOL     OW 2149   2.253   2.704   5.501
  417SOL    HW1 2150   2.312   2.763   5.445
  417SOL    HW2 2151   2.189   2.762   5.553
  418SOL     OW 2152   3.792   5.882   6.684
  418SOL    HW1 2153   3.817   5.846   6.774
  418SOL    HW2 2154   3.873   5.923   6.641
  419SOL     OW 2155   5.781   0.525   0.254
  419SOL    HW1 2156   5.815   0.522   0.347
  419SOL    HW2 2157   5.857   0.536   0.190
  420SOL     OW 2158   3.303   6.695   1.000
  420SOL    HW1 2159   3.332   6.620   1.058
  420SOL    HW2 2160   3.310   6.781   1.050
  421SOL     OW 2161   5.354   4.701   3.043
  421SOL    HW1 2162   5.290   4.640   2.996
  421SOL    HW2 2163   5.448   4.679   3.016
  422SOL     OW 2164   4.029   1.601   2.152
  422SOL    HW1 2165   4.020   1.574   2.248
  422SOL    HW2 2166   4.076   1.689   2.147
  423SOL     OW 2167   3.175   1.395   5.873
  423SOL    HW1 2168   3.260   1.399   5.822
  423SOL    HW2 2169   3.141   1.488   5.888
  424SOL     OW 2170   1.641   3.984   4.730
  424SOL    HW1 2171   1.680   3.951   4.644
  424SOL    HW2 2172   1.542   3.971   4.730
  425SOL     OW 2173   3.294   1.631   0.304
  425SOL    HW1 2174   3.243   1.545   0.302
  425SOL    HW2 2175   3.237   1.703   0.344
  426SOL     OW 2176   2.225   2.286   3.865
  426SOL    HW1 2177   2.233   2.346   3.945
  426SOL    HW2 2178   2.194   2.339   3.786
  427SOL     OW 2179   4.344   1.536   4.218
  427SOL    HW1 2180   4.265   1.540   4.157
  427SOL    HW2 2181   4.401   1.617   4.205
  428SOL     OW 2182   2.573   2.269   5.929
  428SOL    HW1 2183   2.641   2.215   5.880
  428SOL    HW2 2184   2.507   2.306   5.865
  429SOL     OW 2185   6.802   6.667   3.089
  429SOL    HW1 2186   6.800   6.600   3.164
  429SOL    HW2 2187   6.836   6.754   3.124
  430SOL     OW 2188   2.218   1.451   3.490
  430SOL    HW1 2189   2.165   1.433   3.574
  430SOL    HW2 2190   2.167   1.415   3.411
  431SOL     OW 2191   2.597   1.276   1.641
  431SOL    HW1 2192   2.587   1.344   1.569
  431SOL    HW2 2193   2.691   1.242   1.642
  432SOL     OW 2194   4.921   1.743   1.309
  432SOL    HW1 2195   4.901   1.796   1.227
  432SOL    HW2 2196   4.996   1.680   1.291
  433SOL     OW 2197   2.241   4.684   0.228
  433SOL    HW1 2198   2.230   4.667   0.130
  433SOL    HW2 2199   2.224   4.600   0.279
  434SOL     OW 2200   3.765   5.817   2.565
  434SOL    HW1 2201   3.784   5.719   2.565
  434SOL    HW2 2202   3.713   5.841   2.647
  435SOL     OW 2203   2.758   2.551   6.377
  435SOL    HW1 2204   2.769   2.466   6.326
  435SOL    HW2 2205   2.796   2.541   6.469
  436SOL     OW 2206   4.963   6.780   2.569
  436SOL    HW1 2207   5.042   6.735   2.611
  436SOL    HW2 2208   4.928   6.723   2.495
  437SOL     OW 2209   6.743   0.878   5.665
  437SOL    HW1 2210   6.780   0.882   5.758
  437SOL    HW2 2211   6.644   0.871   5.669
  438SOL     OW 2212   0.630   3.788   2.153
  438SOL    HW1 2213   0.714   3.826   2.192
  438SOL    HW2 2214   0.651   3.702   2.106
  439SOL     OW 2215   0.491   0.748   6.080
  439SOL    HW1 2216   0.534   0.828   6.038
  439SOL    HW2 2217   0.543   0.721   6.161
  440SOL     OW 2218   3.383   1.546   1.230
  440SOL    HW1 2219   3.463   1.526   1.174
  440SOL    HW2 2220   3.356   1.641   1.216
  441SOL     OW 2221   1.179   4.395   2.559
  441SOL    HW1 2222   1.164   4.296   2.556
  441SOL    HW2 2223   1.133   4.434   2.639
  442SOL     OW 2224   2.938   3.328   4.934
  442SOL    HW1 2225   2.908   3.330   4.839
  442SOL    HW2 2226   2.970   3.419   4.961
  443SOL     OW 2227   4.644   2.685   3.060
  443SOL    HW1 2228   4.696   2.692   3.145
  443SOL    HW2 2229   4.674   2.755   2.996
  444SOL     OW 2230   3.969   2.400   1.441
  444SOL    HW1 2231   3.962   2.493   1.404
  444SOL    HW2 2232   3.883   2.376   1.486
  445SOL     OW 2233   2.591   5.347   3.821
  445SOL    HW1 2234   2.684   5.316   3.841
  445SOL    HW2 2235   2.527   5.270   3.829
  446SOL     OW 2236   6.697   6.898   0.778
  446SOL    HW1 2237   6.795   6.897   0.755
  446SOL    HW2 2238   6.655   6.980   0.740
  447SOL     OW 2239   6.374   3.476   6.759
  447SOL    HW1 2240   6.350   3.507   6.851
  447SOL    HW2 2241   6.358   3.378   6.751
  448SOL     OW 2242   3.425   6.453   4.091
  448SOL    HW1 2243   3.513   6.478   4.050
  448SOL    HW2 2244   3.441   6.394   4.170
  449SOL     OW 2245   0.594   3.800   4.817
  449SOL    HW1 2246   0.663   3.793   4.744
  449SOL    HW2 2247   0.514   3.848   4.782
  450SOL     OW 2248   6.500   3.549   3.091
  450SOL    HW1 2249   6.563   3.474   3.111
  450SOL    HW2 2250   6.483   3.602   3.174
  451SOL     OW 2251   2.536   1.819   6.910
  451SOL    HW1 2252   2.573   1.734   6.874
  451SOL    HW2 2253   2.535   1.889   6.838
  452SOL     OW 2254   4.221   5.396   1.672
  452SOL    HW1 2255   4.207   5.433   1.764
  452SOL    HW2 2256   4.227   5.297   1.677
  453SOL     OW 2257   4.115   0.757   0.042
  453SOL    HW1 2258   4.028   0.707   0.040
  453SOL    HW2 2259   4.169   0.733   6.979
  454SOL     OW 2260   6.892   3.004   3.636
  454SOL    HW1 2261   6.848   3.086   3.672
  454SOL    HW2 2262   6.823   2.942   3.599
  455SOL     OW 2263   5.925   5.240   0.047
  455SOL    HW1 2264   5.871   5.193   6.996
  455SOL    HW2 2265   5.915   5.339   0.037
  456SOL     OW 2266   1.755   0.996   3.272
  456SOL    HW1 2267   1.680   1.004   3.338
  456SOL    HW2 2268   1.759   1.079   3.216
  457SOL     OW 2269   3.049   5.839   0.197
  457SOL    HW1 2270   3.127   5.863   0.255
  457SOL    HW2 2271   3.046   5.740   0.184
  458SOL     OW 2272   3.011   0.950   4.093
  458SOL    HW1 2273   3.000   0.945   4.192
  458SOL    HW2 2274   3.086   1.013   4.071
  459SOL     OW 2275   2.664   1.008   3.404
  459SOL    HW1 2276   2.719   0.930   3.374
  459SOL    HW2 2277   2.725   1.078   3.442
  460SOL     OW 2278   1.010   1.876   0.181
  460SOL    HW1 2279   0.991   1.949   0.247
  460SOL    HW2 2280   1.018   1.916   0.089
  461SOL     OW 2281   1.448   6.892   5.267
  461SOL    HW1 2282   1.472   6.800   5.237
  461SOL    HW2 2283   1.348   6.902   5.267
  462SOL     OW 2284   3.668   4.130   5.022
  462SOL    HW1 2285   3.748   4.134   4.962
  462SOL    HW2 2286   3.616   4.047   5.004
  463SOL     OW 2287   5.121   6.472   2.862
  463SOL    HW1 2288   5.072   6.535   2.922
  463SOL    HW2 2289   5.061   6.397   2.836
  464SOL     OW 2290   4.423   6.373   5.006
  464SOL    HW1 2291   4.471   6.430   4.939
  464SOL    HW2 2292   4.326   6.397   5.005
  465SOL     OW 2293   0.546   5.338   0.652
  465SOL    HW1 2294   0.520   5.245   0.628
  465SOL    HW2 2295   0.637   5.337   0.695
  466SOL     OW 2296   3.742   5.250   4.306
  466SOL    HW1 2297   3.645   5.266   4.319
  466SOL    HW2 2298   3.795   5.315   4.361
  467SOL     OW 2299   6.542   6.939   1.557
  467SOL    HW1 2300   6.524   6.849   1.517
  467SOL    HW2 2301   6.592   6.928   1.643
  468SOL     OW 2302   2.801   5.962   6.439
  468SOL    HW1 2303   2.859   6.010   6.372
  468SOL    HW2 2304   2.816   6.001   6.530
  469SOL     OW 2305   3.617   4.685   5.342
  469SOL    HW1 2306   3.541   4.672   5.405
  469SOL    HW2 2307   3.589   4.748   5.269
  470SOL     OW 2308   2.089   5.066   2.334
  470SOL    HW1 2309   2.109   5.066   2.432
  470SOL    HW2 2310   1.991   5.049   2.320
  471SOL     OW 2311   1.266   1.910   4.449
  471SOL    HW1 2312   1.226   1.892   4.539
  471SOL    HW2 2313   1.192   1.926   4.383
  472SOL     OW 2314   5.329   4.211   6.014
  472SOL    HW1 2315   5.236   4.247   6.010
  472SOL    HW2 2316   5.328   4.122   6.061
  473SOL     OW 2317   5.590   3.158   1.806
  473SOL    HW1 2318   5.525   3.231   1.788
  473SOL    HW2 2319   5.576   3.121   1.897
  474SOL     OW 2320   5.158   5.077   3.591
  474SOL    HW1 2321   5.179   5.173   3.609
  474SOL    HW2 2322   5.066   5.070   3.551
  475SOL     OW 2323   4.627   1.607   0.290
  475SOL    HW1 2324   4.703   1.543   0.297
  475SOL    HW2 2325   4.585   1.600   0.200
  476SOL     OW 2326   1.088   3.046   0.455
  476SOL    HW1 2327   1.187   3.045   0.441
  476SOL    HW2 2328   1.043   2.997   0.380
  477SOL     OW 2329   6.301   5.809   2.975
  477SOL    HW1 2330   6.278   5.852   3.062
  477SOL    HW2 2331   6.230   5.743   2.951
  478SOL     OW 2332   6.505   5.136   2.706
  478SOL    HW1 2333   6.553   5.223   2.711
  478SOL    HW2 2334   6.567   5.062   2.732
  479SOL     OW 2335   3.678   3.754   2.647
  479SOL    HW1 2336   3.729   3.739   2.731
  479SOL    HW2 2337   3.590   3.796   2.668
  480SOL     OW 2338   0.493   0.607   1.734
  480SOL    HW1 2339   0.561   0.627   1.805
  480SOL    HW2 2340   0.528   0.636   1.645
  481SOL     OW 2341   5.921   5.974   0.874
  481SOL    HW1 2342   5.851   6.013   0.934
  481SOL    HW2 2343   5.965   5.897   0.919
  482SOL     OW 2344   3.695   4.927   2.722
  482SOL    HW1 2345   3.628   4.906   2.793
  482SOL    HW2 2346   3.653   4.985   2.652
  483SOL     OW 2347   6.496   1.129   4.768
  483SOL    HW1 2348   6.426   1.080   4.820
  483SOL    HW2 2349   6.466   1.223   4.753
  484SOL     OW 2350   2.440   4.760   3.227
  484SOL    HW1 2351   2.424   4.857   3.207
  484SOL    HW2 2352   2.445   4.747   3.326
  485SOL     OW 2353   4.585   2.717   0.560
  485SOL    HW1 2354   4.651   2.754   0.626
  485SOL    HW2 2355   4.625   2.637   0.515
  486SOL     OW 2356   5.907   6.142   5.235
  486SOL    HW1 2357   5.948   6.054   5.260
  486SOL    HW2 2358   5.874   6.137   5.141
  487SOL     OW 2359   6.937   0.820   0.040
  487SOL    HW1 2360   6.947   0.848   0.136
  487SOL    HW2 2361   6.950   0.722   0.033
  488SOL     OW 2362   1.852   5.989   3.477
  488SOL    HW1 2363   1.771   5.948   3.435
  488SOL    HW2 2364   1.886   6.062   3.418
  489SOL     OW 2365   2.752   4.651   5.324
  489SOL    HW1 2366   2.722   4.744   5.303
  489SOL    HW2 2367   2.817   4.620   5.253
  490SOL     OW 2368   1.547   3.451   5.225
  490SOL    HW1 2369   1.503   3.529   5.270
  490SOL    HW2 2370   1.629   3.483   5.176
  491SOL     OW 2371   6.244   3.832   1.125
  491SOL    HW1 2372   6.194   3.751   1.095
  491SOL    HW2 2373   6.303   3.807   1.202
  492SOL     OW 2374   1.234   2.753   5.449
  492SOL    HW1 2375   1.283   2.746   5.362
  492SOL    HW2 2376   1.232   2.663   5.493
  493SOL     OW 2377   1.468   5.591   3.666
  493SOL    HW1 2378   1.526   5.663   3.626
  493SOL    HW2 2379   1.376   5.627   3.680
  494SOL     OW 2380   2.426   0.236   3.105
  494SOL    HW1 2381   2.353   0.286   3.058
  494SOL    HW2 2382   2.469   0.296   3.172
  495SOL     OW 2383   4.136   4.647   0.089
  495SOL    HW1 2384   4.038   4.633   0.074
  495SOL    HW2 2385   4.150   4.717   0.158
  496SOL     OW 2386   4.948   0.699   3.236
  496SOL    HW1 2387   4.907   0.729   3.322
  496SOL    HW2 2388   4.912   0.754   3.161
  497SOL     OW 2389   4.765   2.838   1.090
  497SOL    HW1 2390   4.671   2.857   1.062
  497SOL    HW2 2391   4.775   2.858   1.188
  498SOL     OW 2392   0.943   0.399   1.016
  498SOL    HW1 2393   0.913   0.484   0.972
  498SOL    HW2 2394   1.018   0.418   1.078
  499SOL     OW 2395   2.866   6.718   6.962
  499SOL    HW1 2396   2.945   6.689   6.909
  499SOL    HW2 2397   2.783   6.704   6.908
  500SOL     OW 2398   6.234   2.067   6.706
  500SOL    HW1 2399   6.149   2.118   6.716
  500SOL    HW2 2400   6.227   2.005   6.628
  501SOL     OW 2401   1.610   2.390   4.994
  501SOL    HW1 2402   1.670   2.470   5.000
  501SOL    HW2 2403   1.615   2.339   5.080
  502SOL     OW 2404   2.210   3.145   6.742
  502SOL    HW1 2405   2.167   3.108   6.660
  502SOL    HW2 2406   2.305   3.114   6.747
  503SOL     OW 2407   4.160   5.114   0.982
  503SOL    HW1 2408   4.158   5.018   1.012
  503SOL    HW2 2409   4.076   5.136   0.934
  504SOL     OW 2410   6.432   0.445   0.117
  504SOL    HW1 2411   6.335   0.420   0.129
  504SOL    HW2 2412   6.488   0.363   0.124
  505SOL     OW 2413   6.473   3.669   5.389
  505SOL    HW1 2414   6.481   3.758   5.433
  505SOL    HW2 2415   6.406   3.614   5.439
  506SOL     OW 2416   2.637   5.601   2.227
  506SOL    HW1 2417   2.632   5.662   2.147
  506SOL    HW2 2418   2.587   5.517   2.208
  507SOL     OW 2419   2.726   6.538   3.326
  507SOL    HW1 2420   2.823   6.544   3.302
  507SOL    HW2 2421   2.698   6.621   3.374
  508SOL     OW 2422   0.522   5.101   3.277
  508SOL    HW1 2423   0.555   5.057   3.193
  508SOL    HW2 2424   0.498   5.197   3.257
  509SOL     OW 2425   4.576   0.209   6.057
  509SOL    HW1 2426   4.552   0.241   5.965
  509SOL    HW2 2427   4.493   0.205   6.113
  510SOL     OW 2428   6.915   4.581   0.350
  510SOL    HW1 2429   7.006   4.619   0.339
  510SOL    HW2 2430   6.904   4.502   0.290
  511SOL     OW 2431   0.622   1.712   0.544
  511SOL    HW1 2432   0.714   1.709   0.505
  511SOL    HW2 2433   0.559   1.753   0.478
  512SOL     OW 2434   1.244   2.231   4.563
  512SOL    HW1 2435   1.170   2.275   4.614
  512SOL    HW2 2436   1.312   2.197   4.628
  513SOL     OW 2437   5.868   5.712   2.795
  513SOL    HW1 2438   5.963   5.681   2.786
  513SOL    HW2 2439   5.861   5.807   2.765
  514SOL     OW 2440   4.925   1.242   4.517
  514SOL    HW1 2441   4.970   1.246   4.606
  514SOL    HW2 2442   4.870   1.158   4.512
  515SOL     OW 2443   3.241   0.765   6.944
  515SOL    HW1 2444   3.191   0.723   0.002
  515SOL    HW2 2445   3.335   0.730   6.942
  516SOL     OW 2446   0.643   5.554   2.453
  516SOL    HW1 2447   0.691   5.467   2.437
  516SOL    HW2 2448   0.706   5.619   2.495
  517SOL     OW 2449   3.600   4.780   1.136
  517SOL    HW1 2450   3.543   4.701   1.159
  517SOL    HW2 2451   3.658   4.758   1.057
  518SOL     OW 2452   2.281   6.791   3.983
  518SOL    HW1 2453   2.276   6.803   3.884
  518SOL    HW2 2454   2.242   6.871   4.028
  519SOL     OW 2455   6.885   0.066   2.599
  519SOL    HW1 2456   6.896   0.059   2.499
  519SOL    HW2 2457   6.804   0.120   2.619
  520SOL     OW 2458   3.311   5.294   0.944
  520SOL    HW1 2459   3.269   5.280   0.854
  520SOL    HW2 2460   3.244   5.276   1.015
  521SOL     OW 2461   6.853   6.555   5.123
  521SOL    HW1 2462   6.929   6.613   5.094
  521SOL    HW2 2463   6.886   6.487   5.189
  522SOL     OW 2464   4.017   4.704   6.533
  522SOL    HW1 2465   4.054   4.611   6.535
  522SOL    HW2 2466   4.050   4.755   6.612
  523SOL     OW 2467   2.114   6.762   5.385
  523SOL    HW1 2468   2.105   6.853   5.426
  523SOL    HW2 2469   2.210   6.742   5.370
  524SOL     OW 2470   6.680   1.290   0.810
  524SOL    HW1 2471   6.760   1.336   0.849
  524SOL    HW2 2472   6.700   1.261   0.717
  525SOL     OW 2473   1.267   3.450   3.723
  525SOL    HW1 2474   1.253   3.480   3.628
  525SOL    HW2 2475   1.178   3.445   3.769
  526SOL     OW 2476   4.057   6.369   4.395
  526SOL    HW1 2477   4.007   6.446   4.436
  526SOL    HW2 2478   4.143   6.402   4.355
  527SOL     OW 2479   0.035   0.923   0.701
  527SOL    HW1 2480   0.005   0.853   0.636
  527SOL    HW2 2481   6.975   0.952   0.756
  528SOL     OW 2482   6.982   1.864   4.172
  528SOL    HW1 2483   6.909   1.932   4.177
  528SOL    HW2 2484   0.006   1.853   4.262
  529SOL     OW 2485   1.162   1.506   6.138
  529SOL    HW1 2486   1.155   1.557   6.223
  529SOL    HW2 2487   1.145   1.568   6.061
  530SOL     OW 2488   3.381   4.540   1.631
  530SOL    HW1 2489   3.457   4.574   1.687
  530SOL    HW2 2490   3.377   4.591   1.545
  531SOL     OW 2491   0.251   1.272   6.030
  531SOL    HW1 2492   0.264   1.319   6.117
  531SOL    HW2 2493   0.268   1.335   5.954
  532SOL     OW 2494   3.719   0.964   0.031
  532SOL    HW1 2495   3.639   0.930   0.081
  532SOL    HW2 2496   3.800   0.954   0.088
  533SOL     OW 2497   4.396   0.116   4.924
  533SOL    HW1 2498   4.473   0.060   4.895
  533SOL    HW2 2499   4.367   0.175   4.849
  534SOL     OW 2500   1.928   4.068   1.428
  534SOL    HW1 2501   1.943   4.039   1.522
  534SOL    HW2 2502   1.935   4.168   1.422
  535SOL     OW 2503   4.492   4.455   3.962
  535SOL    HW1 2504   4.405   4.473   4.007
  535SOL    HW2 2505   4.527   4.539   3.921
  536SOL     OW 2506   6.535   6.270   1.167
  536SOL    HW1 2507   6.526   6.297   1.071
  536SOL    HW2 2508   6.446   6.279   1.212
  537SOL     OW 2509   3.270   1.454   2.886
  537SOL    HW1 2510   3.179   1.414   2.884
  537SOL    HW2 2511   3.274   1.532   2.824
  538SOL     OW 2512   3.956   5.001   5.578
  538SOL    HW1 2513   3.884   4.932   5.584
  538SOL    HW2 2514   4.013   4.997   5.660
  539SOL     OW 2515   2.297   0.416   6.901
  539SOL    HW1 2516   2.388   0.443   6.933
  539SOL    HW2 2517   2.285   0.317   6.915
  540SOL     OW 2518   2.789   1.455   5.420
  540SOL    HW1 2519   2.878   1.410   5.411
  540SOL    HW2 2520   2.779   1.526   5.350
  541SOL     OW 2521   5.469   5.793   2.754
  541SOL    HW1 2522   5.458   5.887   2.723
  541SOL    HW2 2523   5.566   5.769   2.755
  542SOL     OW 2524   3.834   5.937   5.815
  542SOL    HW1 2525   3.814   5.850   5.860
  542SOL    HW2 2526   3.877   5.919   5.726
  543SOL     OW 2527   6.404   2.216   4.726
  543SOL    HW1 2528   6.353   2.134   4.703
  543SOL    HW2 2529   6.380   2.246   4.818
  544SOL     OW 2530   0.625   2.923   0.969
  544SOL    HW1 2531   0.723   2.904   0.977
  544SOL    HW2 2532   0.607   2.979   0.888
  545SOL     OW 2533   6.827   5.204   0.283
  545SOL    HW1 2534   6.835   5.199   0.382
  545SOL    HW2 2535   6.903   5.154   0.241
  546SOL     OW 2536   6.880   5.247   2.648
  546SOL    HW1 2537   6.843   5.205   2.566
  546SOL    HW2 2538   6.842   5.338   2.660
  547SOL     OW 2539   4.366   6.350   6.481
  547SOL    HW1 2540   4.352   6.401   6.396
  547SOL    HW2 2541   4.397   6.412   6.553
  548SOL     OW 2542   4.266   2.530   0.318
  548SOL    HW1 2543   4.188   2.520   0.257
  548SOL    HW2 2544   4.323   2.607   0.288
  549SOL     OW 2545   5.780   2.678   3.974
  549SOL    HW1 2546   5.708   2.634   4.027
  549SOL    HW2 2547   5.749   2.692   3.880
  550SOL     OW 2548   0.177   5.769   3.913
  550SOL    HW1 2549   0.211   5.791   4.005
  550SOL    HW2 2550   0.078   5.761   3.915
  551SOL     OW 2551   5.444   0.660   0.424
  551SOL    HW1 2552   5.466   0.755   0.398
  551SOL    HW2 2553   5.492   0.636   0.508
  552SOL     OW 2554   0.450   0.120   5.026
  552SOL    HW1 2555   0.503   0.148   4.945
  552SOL    HW2 2556   0.461   0.189   5.098
  553SOL     OW 2557   3.702   2.220   5.311
  553SOL    HW1 2558   3.770   2.293   5.302
  553SOL    HW2 2559   3.707   2.159   5.232
  554SOL     OW 2560   0.157   5.161   0.406
  554SOL    HW1 2561   0.084   5.130   0.346
  554SOL    HW2 2562   0.171   5.259   0.392
  555SOL     OW 2563   3.121   4.177   5.926
  555SOL    HW1 2564   3.190   4.226   5.874
  555SOL    HW2 2565   3.135   4.192   6.024
  556SOL     OW 2566   5.910   6.307   2.449
  556SOL    HW1 2567   5.958   6.388   2.480
  556SOL    HW2 2568   5.825   6.334   2.402
  557SOL     OW 2569   6.260   3.611   6.961
  557SOL    HW1 2570   6.168   3.649   6.973
  557SOL    HW2 2571   6.327   3.675   6.999
  558SOL     OW 2572   3.340   3.680   1.997
  558SOL    HW1 2573   3.328   3.611   2.068
  558SOL    HW2 2574   3.360   3.769   2.040
  559SOL     OW 2575   6.099   1.164   6.452
  559SOL    HW1 2576   6.161   1.189   6.527
  559SOL    HW2 2577   6.090   1.241   6.388
  560SOL     OW 2578   1.068   2.112   3.615
  560SOL    HW1 2579   1.144   2.157   3.662
  560SOL    HW2 2580   1.089   2.104   3.517
  561SOL     OW 2581   0.197   4.058   6.998
  561SOL    HW1 2582   0.128   4.006   0.029
  561SOL    HW2 2583   0.276   4.001   6.980
  562SOL     OW 2584   3.898   6.398   3.440
  562SOL    HW1 2585   3.988   6.426   3.406
  562SOL    HW2 2586   3.903   6.305   3.474
  563SOL     OW 2587   0.661   0.796   4.418
  563SOL    HW1 2588   0.690   0.886   4.383
  563SOL    HW2 2589   0.623   0.806   4.510
  564SOL     OW 2590   5.716   1.216   5.115
  564SOL    HW1 2591   5.705   1.291   5.051
  564SOL    HW2 2592   5.681   1.243   5.205
  565SOL     OW 2593   3.380   3.482   4.200
  565SOL    HW1 2594   3.383   3.551   4.272
  565SOL    HW2 2595   3.330   3.402   4.232
  566SOL     OW 2596   1.668   2.839   3.519
  566SOL    HW1 2597   1.599   2.901   3.556
  566SOL    HW2 2598   1.755   2.887   3.509
  567SOL     OW 2599   1.564   3.064   5.439
  567SOL    HW1 2600   1.474   3.072   5.395
  567SOL    HW2 2601   1.615   3.149   5.428
  568SOL     OW 2602   1.061   0.281   6.944
  568SOL    HW1 2603   1.143   0.318   6.901
  568SOL    HW2 2604   1.053   0.183   6.924
  569SOL     OW 2605   5.201   3.724   5.256
  569SOL    HW1 2606   5.229   3.820   5.248
  569SOL    HW2 2607   5.101   3.719   5.263
  570SOL     OW 2608   3.464   0.562   6.441
  570SOL    HW1 2609   3.441   0.581   6.536
  570SOL    HW2 2610   3.412   0.624   6.381
  571SOL     OW 2611   2.601   4.266   1.456
  571SOL    HW1 2612   2.696   4.245   1.433
  571SOL    HW2 2613   2.599   4.320   1.540
  572SOL     OW 2614   2.869   1.460   4.699
  572SOL    HW1 2615   2.791   1.517   4.726
  572SOL    HW2 2616   2.872   1.379   4.757
  573SOL     OW 2617   0.588   0.308   5.526
  573SOL    HW1 2618   0.545   0.398   5.524
  573SOL    HW2 2619   0.555   0.254   5.448
  574SOL     OW 2620   2.651   0.762   5.696
  574SOL    HW1 2621   2.564   0.735   5.655
  574SOL    HW2 2622   2.644   0.756   5.796
  575SOL     OW 2623   3.933   3.594   0.306
  575SOL    HW1 2624   3.988   3.523   0.349
  575SOL    HW2 2625   3.840   3.560   0.291
  576SOL     OW 2626   0.294   1.020   2.974
  576SOL    HW1 2627   0.210   1.034   3.026
  576SOL    HW2 2628   0.351   0.953   3.021
  577SOL     OW 2629   0.302   6.972   2.239
  577SOL    HW1 2630   0.348   6.924   2.164
  577SOL    HW2 2631   0.204   6.950   2.236
  578SOL     OW 2632   3.933   6.971   0.672
  578SOL    HW1 2633   3.861   6.941   0.735
  578SOL    HW2 2634   4.022   6.946   0.708
  579SOL     OW 2635   0.914   3.684   2.019
  579SOL    HW1 2636   0.974   3.637   1.954
  579SOL    HW2 2637   0.859   3.751   1.970
  580SOL     OW 2638   4.858   4.771   4.764
  580SOL    HW1 2639   4.893   4.683   4.794
  580SOL    HW2 2640   4.788   4.757   4.694
  581SOL     OW 2641   1.871   2.534   3.959
  581SOL    HW1 2642   1.812   2.570   4.031
  581SOL    HW2 2643   1.896   2.607   3.896
  582SOL     OW 2644   5.440   4.103   4.656
  582SOL    HW1 2645   5.361   4.098   4.595
  582SOL    HW2 2646   5.524   4.110   4.601
  583SOL     OW 2647   3.358   6.324   5.421
  583SOL    HW1 2648   3.402   6.398   5.371
  583SOL    HW2 2649   3.263   6.316   5.393
  584SOL     OW 2650   4.134   0.930   4.891
  584SOL    HW1 2651   4.175   1.000   4.951
  584SOL    HW2 2652   4.202   0.859   4.872
  585SOL     OW 2653   3.890   6.380   1.374
  585SOL    HW1 2654   3.850   6.328   1.449
  585SOL    HW2 2655   3.926   6.467   1.410
  586SOL     OW 2656   3.693   0.135   0.801
  586SOL    HW1 2657   3.715   0.213   0.741
  586SOL    HW2 2658   3.776   0.105   0.848
  587SOL     OW 2659   4.640   1.366   2.703
  587SOL    HW1 2660   4.652   1.285   2.760
  587SOL    HW2 2661   4.714   1.431   2.723
  588SOL     OW 2662   2.222   4.012   2.942
  588SOL    HW1 2663   2.163   3.941   2.905
  588SOL    HW2 2664   2.245   4.077   2.870
  589SOL     OW 2665   3.572   4.929   6.611
  589SOL    HW1 2666   3.653   4.966   6.565
  589SOL    HW2 2667   3.495   4.991   6.597
  590SOL     OW 2668   2.891   1.809   6.014
  590SOL    HW1 2669   2.846   1.835   5.928
  590SOL    HW2 2670   2.985   1.779   5.994
  591SOL     OW 2671   2.676   0.016   3.940
  591SOL    HW1 2672   2.661   0.077   4.017
  591SOL    HW2 2673   2.706   6.945   3.973
  592SOL     OW 2674   5.023   2.432   4.452
  592SOL    HW1 2675   5.058   2.485   4.530
  592SOL    HW2 2676   4.975   2.492   4.389
  593SOL     OW 2677   1.976   0.403   0.194
  593SOL    HW1 2678   1.990   0.438   0.286
  593SOL    HW2 2679   2.011   0.309   0.188
  594SOL     OW 2680   3.648   0.971   5.047
  594SOL    HW1 2681   3.694   0.890   5.011
  594SOL    HW2 2682   3.667   1.050   4.987
  595SOL     OW 2683   6.188   4.188   2.083
  595SOL    HW1 2684   6.205   4.183   2.181
  595SOL    HW2 2685   6.162   4.282   2.058
  596SOL     OW 2686   5.776   5.038   4.466
  596SOL    HW1 2687   5.822   5.053   4.554
  596SOL    HW2 2688   5.825   5.086   4.394
  597SOL     OW 2689   3.656   1.900   6.372
  597SOL    HW1 2690   3.601   1.960   6.313
  597SOL    HW2 2691   3.649   1.931   6.467
  598SOL     OW 2692   2.929   3.613   3.092
  598SOL    HW1 2693   2.917   3.566   3.004
  598SOL    HW2 2694   2.901   3.552   3.166
  599SOL     OW 2695   1.872   4.730   1.194
  599SOL    HW1 2696   1.906   4.709   1.286
  599SOL    HW2 2697   1.896   4.824   1.170
  600SOL     OW 2698   0.195   3.339   5.648
  600SOL    HW1 2699   0.181   3.260   5.707
  600SOL    HW2 2700   0.217   3.308   5.555
  601SOL     OW 2701   0.058   0.305   5.882
  601SOL    HW1 2702   0.084   0.209   5.888
  601SOL    HW2 2703   0.137   0.360   5.854
  602SOL     OW 2704   1.286   0.875   3.634
  602SOL    HW1 2705   1.358   0.812   3.605
  602SOL    HW2 2706   1.219   0.884   3.561
  603SOL     OW 2707   1.176   1.622   4.230
  603SOL    HW1 2708   1.251   1.682   4.201
  603SOL    HW2 2709   1.138   1.576   4.150
  604SOL     OW 2710   5.308   2.637   1.511
  604SOL    HW1 2711   5.269   2.577   1.580
  604SOL    HW2 2712   5.317   2.730   1.548
  605SOL     OW 2713   5.862   6.611   1.674
  605SOL    HW1 2714   5.921   6.653   1.744
  605SOL    HW2 2715   5.860   6.512   1.686
  606SOL     OW 2716   2.855   6.564   5.098
  606SOL    HW1 2717   2.871   6.466   5.094
  606SOL    HW2 2718   2.901   6.602   5.179
  607SOL     OW 2719   1.184   3.381   6.268
  607SOL    HW1 2720   1.230   3.296   6.293
  607SOL    HW2 2721   1.237   3.429   6.199
  608SOL     OW 2722   3.126   1.808   0.442
  608SOL    HW1 2723   3.041   1.808   0.389
  608SOL    HW2 2724   3.153   1.902   0.462
  609SOL     OW 2725   3.646   2.910   2.557
  609SOL    HW1 2726   3.743   2.930   2.548
  609SOL    HW2 2727   3.623   2.899   2.654
  610SOL     OW 2728   4.949   2.923   1.904
  610SOL    HW1 2729   4.858   2.955   1.930
  610SOL    HW2 2730   5.001   2.901   1.987
  611SOL     OW 2731   3.603   1.732   2.208
  611SOL    HW1 2732   3.511   1.722   2.246
  611SOL    HW2 2733   3.626   1.829   2.202
  612SOL     OW 2734   4.560   4.861   4.338
  612SOL    HW1 2735   4.643   4.897   4.298
  612SOL    HW2 2736   4.570   4.855   4.437
  613SOL     OW 2737   4.021   5.160   6.488
  613SOL    HW1 2738   4.017   5.238   6.425
  613SOL    HW2 2739   3.945   5.098   6.471
  614SOL     OW 2740   3.252   6.024   6.182
  614SOL    HW1 2741   3.210   6.012   6.272
  614SOL    HW2 2742   3.199   5.974   6.113
  615SOL     OW 2743   6.647   4.919   3.795
  615SOL    HW1 2744   6.566   4.976   3.778
  615SOL    HW2 2745   6.668   4.920   3.892
  616SOL     OW 2746   6.254   2.602   3.855
  616SOL    HW1 2747   6.163   2.598   3.813
  616SOL    HW2 2748   6.286   2.509   3.875
  617SOL     OW 2749   2.792   0.511   6.049
  617SOL    HW1 2750   2.858   0.436   6.053
  617SOL    HW2 2751   2.772   0.543   6.141
  618SOL     OW 2752   2.340   0.576   3.398
  618SOL    HW1 2753   2.249   0.534   3.394
  618SOL    HW2 2754   2.350   0.624   3.486
  619SOL     OW 2755   1.055   2.596   7.004
  619SOL    HW1 2756   1.037   2.645   6.919
  619SOL    HW2 2757   1.045   2.497   6.988
  620SOL     OW 2758   4.580   3.752   0.429
  620SOL    HW1 2759   4.481   3.738   0.420
  620SOL    HW2 2760   4.610   3.819   0.361
  621SOL     OW 2761   0.421   5.964   1.261
  621SOL    HW1 2762   0.455   5.925   1.175
  621SOL    HW2 2763   0.328   5.998   1.248
  622SOL     OW 2764   0.485   1.622   0.036
  622SOL    HW1 2765   0.510   1.558   6.981
  622SOL    HW2 2766   0.567   1.646   0.088
  623SOL     OW 2767   6.634   5.732   5.312
  623SOL    HW1 2768   6.689   5.799   5.263
  623SOL    HW2 2769   6.613   5.655   5.252
  624SOL     OW 2770   0.735   1.361   1.629
  624SOL    HW1 2771   0.702   1.428   1.695
  624SOL    HW2 2772   0.783   1.409   1.555
  625SOL     OW 2773   1.437   0.994   2.721
  625SOL    HW1 2774   1.416   1.077   2.670
  625SOL    HW2 2775   1.382   0.918   2.686
  626SOL     OW 2776   3.227   5.631   4.740
  626SOL    HW1 2777   3.171   5.649   4.659
  626SOL    HW2 2778   3.168   5.626   4.821
  627SOL     OW 2779   4.481   5.998   6.740
  627SOL    HW1 2780   4.390   5.959   6.751
  627SOL    HW2 2781   4.546   5.924   6.722
  628SOL     OW 2782   5.169   4.042   2.945
  628SOL    HW1 2783   5.132   4.121   2.896
  628SOL    HW2 2784   5.136   4.043   3.040
  629SOL     OW 2785   1.806   6.871   1.102
  629SOL    HW1 2786   1.813   6.882   1.201
  629SOL    HW2 2787   1.897   6.866   1.062
  630SOL     OW 2788   2.707   1.323   2.113
  630SOL    HW1 2789   2.793   1.325   2.061
  630SOL    HW2 2790   2.630   1.314   2.050
  631SOL     OW 2791   2.415   1.166   4.313
  631SOL    HW1 2792   2.358   1.084   4.309
  631SOL    HW2 2793   2.401   1.221   4.231
  632SOL     OW 2794   2.898   0.495   0.898
  632SOL    HW1 2795   2.966   0.476   0.828
  632SOL    HW2 2796   2.910   0.432   0.974
  633SOL     OW 2797   1.979   0.269   4.943
  633SOL    HW1 2798   1.977   0.369   4.938
  633SOL    HW2 2799   1.886   0.233   4.933
  634SOL     OW 2800   2.771   5.602   1.922
  634SOL    HW1 2801   2.692   5.544   1.943
  634SOL    HW2 2802   2.844   5.546   1.882
  635SOL     OW 2803   3.246   0.088   2.596
  635SOL    HW1 2804   3.288   0.085   2.687
  635SOL    HW2 2805   3.243   0.183   2.564
  636SOL     OW 2806   4.733   4.912   6.155
  636SOL    HW1 2807   4.828   4.881   6.162
  636SOL    HW2 2808   4.677   4.863   6.222
  637SOL     OW 2809   5.790   5.182   6.495
  637SOL    HW1 2810   5.798   5.203   6.593
  637SOL    HW2 2811   5.774   5.267   6.445
  638SOL     OW 2812   5.543   1.604   3.260
  638SOL    HW1 2813   5.522   1.675   3.193
  638SOL    HW2 2814   5.493   1.521   3.236
  639SOL     OW 2815   4.245   3.758   1.825
  639SOL    HW1 2816   4.250   3.663   1.793
  639SOL    HW2 2817   4.185   3.763   1.905
  640SOL     OW 2818   2.870   2.857   5.406
  640SOL    HW1 2819   2.856   2.767   5.365
  640SOL    HW2 2820   2.790   2.914   5.391
  641SOL     OW 2821   0.171   6.232   4.557
  641SOL    HW1 2822   0.248   6.182   4.516
  641SOL    HW2 2823   0.126   6.288   4.487
  642SOL     OW 2824   0.725   4.174   6.043
  642SOL    HW1 2825   0.811   4.166   5.991
  642SOL    HW2 2826   0.716   4.095   6.104
  643SOL     OW 2827   5.719   6.332   4.877
  643SOL    HW1 2828   5.637   6.374   4.915
  643SOL    HW2 2829   5.736   6.369   4.785
  644SOL     OW 2830   3.176   6.364   1.346
  644SOL    HW1 2831   3.103   6.421   1.383
  644SOL    HW2 2832   3.137   6.288   1.295
  645SOL     OW 2833   0.878   2.870   2.969
  645SOL    HW1 2834   0.921   2.869   2.879
  645SOL    HW2 2835   0.786   2.832   2.962
  646SOL     OW 2836   1.411   2.955   4.378
  646SOL    HW1 2837   1.438   3.043   4.416
  646SOL    HW2 2838   1.489   2.892   4.380
  647SOL     OW 2839   5.815   3.801   0.093
  647SOL    HW1 2840   5.728   3.754   0.109
  647SOL    HW2 2841   5.800   3.874   0.026
  648SOL     OW 2842   4.431   2.338   4.228
  648SOL    HW1 2843   4.358   2.320   4.294
  648SOL    HW2 2844   4.412   2.288   4.143
  649SOL     OW 2845   4.363   4.553   1.511
  649SOL    HW1 2846   4.341   4.530   1.416
  649SOL    HW2 2847   4.356   4.652   1.524
  650SOL     OW 2848   5.569   4.939   0.759
  650SOL    HW1 2849   5.526   5.000   0.826
  650SOL    HW2 2850   5.501   4.874   0.724
  651SOL     OW 2851   1.888   5.733   6.647
  651SOL    HW1 2852   1.890   5.776   6.737
  651SOL    HW2 2853   1.921   5.639   6.654
  652SOL     OW 2854   4.969   2.387   2.084
  652SOL    HW1 2855   5.032   2.414   2.012
  652SOL    HW2 2856   4.961   2.462   2.151
  653SOL     OW 2857   3.261   5.088   2.421
  653SOL    HW1 2858   3.201   5.125   2.491
  653SOL    HW2 2859   3.210   5.026   2.362
  654SOL     OW 2860   0.199   5.403   6.794
  654SOL    HW1 2861   0.121   5.415   6.732
  654SOL    HW2 2862   0.178   5.332   6.861
  655SOL     OW 2863   1.634   1.547   6.900
  655SOL    HW1 2864   1.689   1.622   6.863
  655SOL    HW2 2865   1.545   1.544   6.854
  656SOL     OW 2866   1.670   6.598   1.269
  656SOL    HW1 2867   1.577   6.634   1.267
  656SOL    HW2 2868   1.715   6.625   1.354
  657SOL     OW 2869   3.871   0.556   0.245
  657SOL    HW1 2870   3.957   0.523   0.283
  657SOL    HW2 2871   3.882   0.570   0.146
  658SOL     OW 2872   3.879   5.756   6.902
  658SOL    HW1 2873   3.788   5.732   6.936
  658SOL    HW2 2874   3.948   5.730   6.970
  659SOL     OW 2875   3.832   0.551   6.278
  659SOL    HW1 2876   3.839   0.632   6.336
  659SOL    HW2 2877   3.738   0.542   6.245
  660SOL     OW 2878   3.642   6.521   3.083
  660SOL    HW1 2879   3.706   6.594   3.106
  660SOL    HW2 2880   3.666   6.439   3.135
  661SOL     OW 2881   6.060   5.099   2.632
  661SOL    HW1 2882   6.090   5.131   2.542
  661SOL    HW2 2883   6.130   5.123   2.700
  662SOL     OW 2884   4.439   1.750   6.626
  662SOL    HW1 2885   4.490   1.807   6.691
  662SOL    HW2 2886   4.343   1.745   6.655
  663SOL     OW 2887   1.083   4.230   4.476
  663SOL    HW1 2888   1.003   4.280   4.443
  663SOL    HW2 2889   1.159   4.240   4.411
  664SOL     OW 2890   6.008   0.040   6.714
  664SOL    HW1 2891   5.970   0.017   6.804
  664SOL    HW2 2892   5.954   0.113   6.673
  665SOL     OW 2893   1.247   4.046   2.092
  665SOL    HW1 2894   1.252   4.071   2.189
  665SOL    HW2 2895   1.155   4.014   2.070
  666SOL     OW 2896   4.398   0.743   1.867
  666SOL    HW1 2897   4.312   0.790   1.888
  666SOL    HW2 2898   4.384   0.644   1.871
  667SOL     OW 2899   0.318   0.463   1.519
  667SOL    HW1 2900   0.338   0.493   1.612
  667SOL    HW2 2901   0.339   0.537   1.455
  668SOL     OW 2902   5.403   2.968   6.720
  668SOL    HW1 2903   5.369   3.054   6.682
  668SOL    HW2 2904   5.502   2.973   6.731
  669SOL     OW 2905   5.074   1.436   3.176
  669SOL    HW1 2906   5.103   1.530   3.163
  669SOL    HW2 2907   5.014   1.409   3.100
  670SOL     OW 2908   4.197   2.275   2.379
  670SOL    HW1 2909   4.119   2.232   2.332
  670SOL    HW2 2910   4.163   2.336   2.450
  671SOL     OW 2911   1.300   5.715   1.555
  671SOL    HW1 2912   1.288   5.623   1.518
  671SOL    HW2 2913   1.364   5.712   1.632
  672SOL     OW 2914   0.737   0.268   1.371
  672SOL    HW1 2915   0.740   0.179   1.417
  672SOL    HW2 2916   0.729   0.254   1.272
  673SOL     OW 2917   6.155   6.894   6.544
  673SOL    HW1 2918   6.093   6.934   6.611
  673SOL    HW2 2919   6.178   6.800   6.571
  674SOL     OW 2920   5.373   0.321   4.009
  674SOL    HW1 2921   5.426   0.354   3.931
  674SOL    HW2 2922   5.394   0.225   4.025
  675SOL     OW 2923   1.041   4.694   1.819
  675SOL    HW1 2924   0.976   4.636   1.867
  675SOL    HW2 2925   0.993   4.750   1.752
  676SOL     OW 2926   2.674   6.219   6.814
  676SOL    HW1 2927   2.643   6.128   6.839
  676SOL    HW2 2928   2.703   6.268   6.896
  677SOL     OW 2929   5.635   1.150   1.704
  677SOL    HW1 2930   5.565   1.222   1.705
  677SOL    HW2 2931   5.606   1.077   1.642
  678SOL     OW 2932   0.857   5.395   4.033
  678SOL    HW1 2933   0.785   5.412   4.100
  678SOL    HW2 2934   0.876   5.478   3.982
  679SOL     OW 2935   4.754   1.540   5.500
  679SOL    HW1 2936   4.728   1.547   5.404
  679SOL    HW2 2937   4.733   1.626   5.546
  680SOL     OW 2938   5.966   6.381   3.874
  680SOL    HW1 2939   6.054   6.411   3.909
  680SOL    HW2 2940   5.892   6.428   3.924
  681SOL     OW 2941   4.177   4.923   2.714
  681SOL    HW1 2942   4.092   4.971   2.738
  681SOL    HW2 2943   4.241   4.988   2.674
  682SOL     OW 2944   6.854   0.986   2.950
  682SOL    HW1 2945   6.851   0.888   2.970
  682SOL    HW2 2946   6.787   1.034   3.008
  683SOL     OW 2947   3.189   4.484   0.434
  683SOL    HW1 2948   3.253   4.409   0.418
  683SOL    HW2 2949   3.240   4.570   0.444
  684SOL     OW 2950   6.546   1.421   6.437
  684SOL    HW1 2951   6.612   1.384   6.371
  684SOL    HW2 2952   6.576   1.513   6.466
  685SOL     OW 2953   3.161   6.521   3.426
  685SOL    HW1 2954   3.254   6.551   3.447
  685SOL    HW2 2955   3.097   6.562   3.491
  686SOL     OW 2956   3.681   0.130   5.224
  686SOL    HW1 2957   3.781   0.126   5.225
  686SOL    HW2 2958   3.651   0.225   5.239
  687SOL     OW 2959   0.215   0.500   4.745
  687SOL    HW1 2960   0.228   0.403   4.725
  687SOL    HW2 2961   0.134   0.533   4.695
  688SOL     OW 2962   5.155   3.096   0.092
  688SOL    HW1 2963   5.243   3.139   0.111
  688SOL    HW2 2964   5.125   3.045   0.172
  689SOL     OW 2965   2.562   5.590   0.276
  689SOL    HW1 2966   2.536   5.669   0.333
  689SOL    HW2 2967   2.654   5.560   0.302
  690SOL     OW 2968   5.839   3.640   4.151
  690SOL    HW1 2969   5.824   3.573   4.078
  690SOL    HW2 2970   5.761   3.638   4.214
  691SOL     OW 2971   5.535   1.015   2.488
  691SOL    HW1 2972   5.519   1.112   2.504
  691SOL    HW2 2973   5.634   0.997   2.493
  692SOL     OW 2974   1.278   0.275   3.290
  692SOL    HW1 2975   1.350   0.205   3.287
  692SOL    HW2 2976   1.197   0.237   3.335
  693SOL     OW 2977   5.949   4.301   2.497
  693SOL    HW1 2978   5.982   4.238   2.427
  693SOL    HW2 2979   5.851   4.317   2.484
  694SOL     OW 2980   3.937   4.833   4.293
  694SOL    HW1 2981   3.876   4.893   4.241
  694SOL    HW2 2982   3.988   4.774   4.230
  695SOL     OW 2983   4.438   6.882   3.523
  695SOL    HW1 2984   4.410   6.938   3.601
  695SOL    HW2 2985   4.514   6.823   3.551
  696SOL     OW 2986   5.797   4.021   2.009
  696SOL    HW1 2987   5.740   3.942   1.987
  696SOL    HW2 2988   5.819   4.021   2.107
  697SOL     OW 2989   0.481   6.440   2.544
  697SOL    HW1 2990   0.419   6.518   2.545
  697SOL    HW2 2991   0.574   6.471   2.523
  698SOL     OW 2992   5.662   6.430   6.063
  698SOL    HW1 2993   5.738   6.486   6.032
  698SOL    HW2 2994   5.689   6.378   6.144
  699SOL     OW 2995   3.735   3.560   0.830
  699SOL    HW1 2996   3.724   3.655   0.858
  699SOL    HW2 2997   3.814   3.520   0.877
  700SOL     OW 2998   3.452   6.799   5.648
  700SOL    HW1 2999   3.412   6.847   5.571
  700SOL    HW2 3000   3.506   6.863   5.703
  701SOL     OW 3001   4.839   4.602   2.176
  701SOL    HW1 3002   4.780   4.683   2.170
  701SOL    HW2 3003   4.849   4.576   2.272
  702SOL     OW 3004   4.036   0.309   4.556
  702SOL    HW1 3005   4.054   0.405   4.534
  702SOL    HW2 3006   3.984   0.267   4.482
  703SOL     OW 3007   3.559   3.254   0.465
  703SOL    HW1 3008   3.616   3.317   0.516
  703SOL    HW2 3009   3.513   3.191   0.528
  704SOL     OW 3010   3.900   1.416   6.849
  704SOL    HW1 3011   3.984   1.456   6.811
  704SOL    HW2 3012   3.922   1.327   6.890
  705SOL     OW 3013   0.043   6.263   5.506
  705SOL    HW1 3014   0.109   6.193   5.477
  705SOL    HW2 3015   0.082   6.317   5.581
  706SOL     OW 3016   3.887   0.326   4.808
  706SOL    HW1 3017   3.962   0.320   4.741
  706SOL    HW2 3018   3.876   0.238   4.854
  707SOL     OW 3019   3.175   5.003   4.305
  707SOL    HW1 3020   3.119   5.081   4.279
  707SOL    HW2 3021   3.139   4.962   4.389
  708SOL     OW 3022   3.152   5.984   3.483
  708SOL    HW1 3023   3.200   5.898   3.502
  708SOL    HW2 3024   3.062   5.964   3.445
  709SOL     OW 3025   2.179   0.283   2.065
  709SOL    HW1 3026   2.189   0.381   2.051
  709SOL    HW2 3027   2.245   0.252   2.134
  710SOL     OW 3028   4.943   3.296   3.018
  710SOL    HW1 3029   4.947   3.388   2.978
  710SOL    HW2 3030   4.877   3.241   2.967
  711SOL     OW 3031   0.009   1.733   0.991
  711SOL    HW1 3032   6.985   1.770   0.908
  711SOL    HW2 3033   0.090   1.680   0.967
  712SOL     OW 3034   5.554   4.016   0.260
  712SOL    HW1 3035   5.496   4.030   0.180
  712SOL    HW2 3036   5.540   4.092   0.324
  713SOL     OW 3037   4.114   3.125   6.318
  713SOL    HW1 3038   4.142   3.032   6.293
  713SOL    HW2 3039   4.104   3.130   6.418
  714SOL     OW 3040   4.541   6.608   3.193
  714SOL    HW1 3041   4.507   6.515   3.207
  714SOL    HW2 3042   4.467   6.673   3.208
  715SOL     OW 3043   6.272   4.526   5.257
  715SOL    HW1 3044   6.222   4.612   5.246
  715SOL    HW2 3045   6.256   4.489   5.348
  716SOL     OW 3046   3.385   1.818   3.641
  716SOL    HW1 3047   3.303   1.800   3.696
  716SOL    HW2 3048   3.391   1.751   3.567
  717SOL     OW 3049   4.646   5.069   3.811
  717SOL    HW1 3050   4.746   5.074   3.816
  717SOL    HW2 3051   4.614   4.996   3.871
  718SOL     OW 3052   6.367   2.049   5.425
  718SOL    HW1 3053   6.287   2.090   5.381
  718SOL    HW2 3054   6.448   2.102   5.403
  719SOL     OW 3055   4.886   5.645   2.771
  719SOL    HW1 3056   4.889   5.637   2.870
  719SOL    HW2 3057   4.877   5.741   2.745
  720SOL     OW 3058   3.061   1.393   1.513
  720SOL    HW1 3059   3.015   1.478   1.489
  720SOL    HW2 3060   3.018   1.355   1.595
  721SOL     OW 3061   6.939   2.783   1.985
  721SOL    HW1 3062   6.863   2.838   2.020
  721SOL    HW2 3063   7.009   2.774   2.056
  722SOL     OW 3064   5.587   6.245   1.363
  722SOL    HW1 3065   5.681   6.242   1.331
  722SOL    HW2 3066   5.586   6.246   1.463
  723SOL     OW 3067   2.134   0.804   4.383
  723SOL    HW1 3068   2.133   0.710   4.350
  723SOL    HW2 3069   2.042   0.843   4.374
  724SOL     OW 3070   1.351   2.480   4.766
  724SOL    HW1 3071   1.434   2.525   4.732
  724SOL    HW2 3072   1.371   2.385   4.787
  725SOL     OW 3073   1.755   4.184   3.134
  725SOL    HW1 3074   1.683   4.250   3.111
  725SOL    HW2 3075   1.716   4.108   3.186
  726SOL     OW 3076   2.585   3.792   0.475
  726SOL    HW1 3077   2.558   3.885   0.498
  726SOL    HW2 3078   2.505   3.732   0.480
  727SOL     OW 3079   3.992   5.322   4.589
  727SOL    HW1 3080   3.950   5.400   4.541
  727SOL    HW2 3081   3.927   5.286   4.655
  728SOL     OW 3082   5.941   3.105   3.483
  728SOL    HW1 3083   6.000   3.055   3.420
  728SOL    HW2 3084   5.994   3.133   3.563
  729SOL     OW 3085   0.963   4.655   0.286
  729SOL    HW1 3086   0.961   4.735   0.346
  729SOL    HW2 3087   0.885   4.658   0.224
  730SOL     OW 3088   4.095   1.569   3.113
  730SOL    HW1 3089   4.114   1.492   3.174
  730SOL    HW2 3090   4.078   1.535   3.020
  731SOL     OW 3091   4.738   4.895   5.125
  731SOL    HW1 3092   4.678   4.973   5.139
  731SOL    HW2 3093   4.728   4.831   5.202
  732SOL     OW 3094   4.323   0.725   4.242
  732SOL    HW1 3095   4.276   0.712   4.329
  732SOL    HW2 3096   4.407   0.777   4.256
  733SOL     OW 3097   6.947   5.081   4.127
  733SOL    HW1 3098   6.987   5.171   4.109
  733SOL    HW2 3099   7.009   5.010   4.094
  734SOL     OW 3100   6.039   6.085   3.197
  734SOL    HW1 3101   6.131   6.072   3.160
  734SOL    HW2 3102   5.971   6.056   3.130
  735SOL     OW 3103   4.227   0.351   2.527
  735SOL    HW1 3104   4.276   0.418   2.471
  735SOL    HW2 3105   4.213   0.268   2.473
  736SOL     OW 3106   1.548   2.141   4.006
  736SOL    HW1 3107   1.561   2.214   4.073
  736SOL    HW2 3108   1.475   2.080   4.037
  737SOL     OW 3109   3.381   0.863   6.318
  737SOL    HW1 3110   3.474   0.827   6.313
  737SOL    HW2 3111   3.379   0.942   6.379
  738SOL     OW 3112   1.518   5.140   0.653
  738SOL    HW1 3113   1.453   5.141   0.577
  738SOL    HW2 3114   1.594   5.078   0.632
  739SOL     OW 3115   1.492   0.710   3.561
  739SOL    HW1 3116   1.499   0.615   3.529
  739SOL    HW2 3117   1.577   0.758   3.541
  740SOL     OW 3118   5.247   2.927   3.068
  740SOL    HW1 3119   5.193   2.971   2.997
  740SOL    HW2 3120   5.279   2.838   3.036
  741SOL     OW 3121   2.944   1.582   2.993
  741SOL    HW1 3122   2.971   1.615   3.083
  741SOL    HW2 3123   2.861   1.630   2.963
  742SOL     OW 3124   2.169   0.520   2.374
  742SOL    HW1 3125   2.101   0.482   2.437
  742SOL    HW2 3126   2.237   0.450   2.352
  743SOL     OW 3127   0.170   6.576   2.663
  743SOL    HW1 3128   0.164   6.481   2.632
  743SOL    HW2 3129   0.254   6.617   2.628
  744SOL     OW 3130   4.936   1.881   1.059
  744SOL    HW1 3131   4.979   1.821   0.992
  744SOL    HW2 3132   4.842   1.902   1.030
  745SOL     OW 3133   2.369   6.766   5.324
  745SOL    HW1 3134   2.364   6.833   5.250
  745SOL    HW2 3135   2.464   6.760   5.356
  746SOL     OW 3136   6.347   5.881   5.049
  746SOL    HW1 3137   6.404   5.924   4.979
  746SOL    HW2 3138   6.327   5.787   5.023
  747SOL     OW 3139   4.161   5.319   2.585
  747SOL    HW1 3140   4.164   5.382   2.662
  747SOL    HW2 3141   4.239   5.257   2.589
  748SOL     OW 3142   5.987   4.495   1.610
  748SOL    HW1 3143   5.920   4.474   1.540
  748SOL    HW2 3144   6.050   4.565   1.577
  749SOL     OW 3145   4.776   4.300   4.654
  749SOL    HW1 3146   4.737   4.271   4.566
  749SOL    HW2 3147   4.804   4.219   4.706
  750SOL     OW 3148   2.421   1.873   3.442
  750SOL    HW1 3149   2.351   1.802   3.434
  750SOL    HW2 3150   2.401   1.947   3.378
  751SOL     OW 3151   4.674   0.523   0.413
  751SOL    HW1 3152   4.590   0.484   0.450
  751SOL    HW2 3153   4.738   0.540   0.488
  752SOL     OW 3154   2.979   3.288   4.550
  752SOL    HW1 3155   2.991   3.283   4.451
  752SOL    HW2 3156   2.882   3.292   4.572
  753SOL     OW 3157   3.605   4.132   3.391
  753SOL    HW1 3158   3.674   4.175   3.332
  753SOL    HW2 3159   3.638   4.130   3.485
  754SOL     OW 3160   5.022   6.965   7.017
  754SOL    HW1 3161   5.043   6.888   6.958
  754SOL    HW2 3162   4.931   7.000   6.996
  755SOL     OW 3163   4.917   4.601   4.995
  755SOL    HW1 3164   4.958   4.512   4.976
  755SOL    HW2 3165   4.955   4.638   5.080
  756SOL     OW 3166   3.460   5.611   5.713
  756SOL    HW1 3167   3.491   5.687   5.769
  756SOL    HW2 3168   3.452   5.640   5.617
  757SOL     OW 3169   1.406   0.075   1.733
  757SOL    HW1 3170   1.500   0.047   1.716
  757SOL    HW2 3171   1.403   0.172   1.759
  758SOL     OW 3172   3.917   1.342   4.719
  758SOL    HW1 3173   3.966   1.360   4.634
  758SOL    HW2 3174   3.974   1.364   4.797
  759SOL     OW 3175   6.930   2.758   3.399
  759SOL    HW1 3176   7.018   2.805   3.410
  759SOL    HW2 3177   6.946   2.669   3.355
  760SOL     OW 3178   6.788   5.484   3.958
  760SOL    HW1 3179   6.830   5.526   4.039
  760SOL    HW2 3180   6.690   5.472   3.974
  761SOL     OW 3181   4.418   4.987   5.828
  761SOL    HW1 3182   4.424   5.037   5.914
  761SOL    HW2 3183   4.495   4.924   5.820
  762SOL     OW 3184   3.965   5.583   3.513
  762SOL    HW1 3185   3.924   5.598   3.424
  762SOL    HW2 3186   4.059   5.617   3.513
  763SOL     OW 3187   5.626   1.232   0.784
  763SOL    HW1 3188   5.691   1.263   0.715
  763SOL    HW2 3189   5.627   1.295   0.861
  764SOL     OW 3190   5.344   6.535   5.093
  764SOL    HW1 3191   5.286   6.615   5.077
  764SOL    HW2 3192   5.303   6.478   5.165
  765SOL     OW 3193   5.579   6.253   0.531
  765SOL    HW1 3194   5.582   6.170   0.585
  765SOL    HW2 3195   5.663   6.263   0.479
  766SOL     OW 3196   2.528   2.181   3.977
  766SOL    HW1 3197   2.461   2.229   4.035
  766SOL    HW2 3198   2.523   2.216   3.884
  767SOL     OW 3199   6.969   6.072   3.430
  767SOL    HW1 3200   6.995   6.168   3.439
  767SOL    HW2 3201   6.949   6.035   3.521
  768SOL     OW 3202   2.520   5.752   1.993
  768SOL    HW1 3203   2.563   5.804   1.920
  768SOL    HW2 3204   2.445   5.698   1.956
  769SOL     OW 3205   3.864   1.179   5.223
  769SOL    HW1 3206   3.915   1.126   5.291
  769SOL    HW2 3207   3.837   1.119   5.148
  770SOL     OW 3208   0.796   4.970   5.516
  770SOL    HW1 3209   0.867   4.900   5.529
  770SOL    HW2 3210   0.837   5.061   5.527
  771SOL     OW 3211   1.507   4.646   2.730
  771SOL    HW1 3212   1.488   4.689   2.642
  771SOL    HW2 3213   1.437   4.674   2.797
  772SOL     OW 3214   5.831   5.151   0.287
  772SOL    HW1 3215   5.745   5.199   0.299
  772SOL    HW2 3216   5.872   5.176   0.199
  773SOL     OW 3217   1.989   4.922   4.219
  773SOL    HW1 3218   1.905   4.948   4.172
  773SOL    HW2 3219   1.968   4.902   4.315
  774SOL     OW 3220   1.816   2.089   3.927
  774SOL    HW1 3221   1.732   2.118   3.974
  774SOL    HW2 3222   1.847   2.163   3.867
  775SOL     OW 3223   0.755   4.132   2.441
  775SOL    HW1 3224   0.658   4.126   2.417
  775SOL    HW2 3225   0.773   4.221   2.484
  776SOL     OW 3226   3.269   5.491   6.420
  776SOL    HW1 3227   3.252   5.431   6.342
  776SOL    HW2 3228   3.259   5.586   6.391
  777SOL     OW 3229   1.917   3.655   6.663
  777SOL    HW1 3230   2.014   3.675   6.680
  777SOL    HW2 3231   1.873   3.625   6.748
  778SOL     OW 3232   3.602   5.541   6.802
  778SOL    HW1 3233   3.632   5.522   6.709
  778SOL    HW2 3234   3.586   5.639   6.813
  779SOL     OW 3235   5.878   1.491   3.529
  779SOL    HW1 3236   5.802   1.492   3.594
  779SOL    HW2 3237   5.957   1.536   3.570
  780SOL     OW 3238   6.511   1.496   4.455
  780SOL    HW1 3239   6.412   1.493   4.465
  780SOL    HW2 3240   6.550   1.406   4.475
  781SOL     OW 3241   0.798   5.015   6.340
  781SOL    HW1 3242   0.891   5.044   6.361
  781SOL    HW2 3243   0.734   5.061   6.402
  782SOL     OW 3244   2.110   4.196   5.535
  782SOL    HW1 3245   2.129   4.287   5.571
  782SOL    HW2 3246   2.142   4.191   5.440
  783SOL     OW 3247   6.689   4.802   6.486
  783SOL    HW1 3248   6.594   4.792   6.459
  783SOL    HW2 3249   6.734   4.871   6.429
  784SOL     OW 3250   2.058   5.472   6.317
  784SOL    HW1 3251   2.089   5.394   6.372
  784SOL    HW2 3252   2.111   5.475   6.232
  785SOL     OW 3253   0.526   0.272   3.950
  785SOL    HW1 3254   0.589   0.344   3.980
  785SOL    HW2 3255   0.481   0.233   4.030
  786SOL     OW 3256   5.669   0.775   4.907
  786SOL    HW1 3257   5.725   0.709   4.957
  786SOL    HW2 3258   5.588   0.729   4.871
  787SOL     OW 3259   1.966   6.576   0.970
  787SOL    HW1 3260   1.913   6.512   1.026
  787SOL    HW2 3261   1.993   6.654   1.026
  788SOL     OW 3262   2.217   2.894   2.173
  788SOL    HW1 3263   2.221   2.950   2.256
  788SOL    HW2 3264   2.195   2.953   2.095
  789SOL     OW 3265   3.781   5.117   2.332
  789SOL    HW1 3266   3.859   5.055   2.333
  789SOL    HW2 3267   3.697   5.063   2.320
  790SOL     OW 3268   6.776   3.248   2.280
  790SOL    HW1 3269   6.852   3.183   2.273
  790SOL    HW2 3270   6.809   3.332   2.323
  791SOL     OW 3271   3.273   1.430   3.564
  791SOL    HW1 3272   3.349   1.459   3.622
  791SOL    HW2 3273   3.218   1.362   3.612
  792SOL     OW 3274   2.284   0.296   0.734
  792SOL    HW1 3275   2.203   0.353   0.753
  792SOL    HW2 3276   2.365   0.354   0.732
  793SOL     OW 3277   1.711   5.421   5.024
  793SOL    HW1 3278   1.762   5.504   5.047
  793SOL    HW2 3279   1.710   5.360   5.104
  794SOL     OW 3280   3.496   3.626   2.352
  794SOL    HW1 3281   3.575   3.570   2.377
  794SOL    HW2 3282   3.438   3.574   2.289
  795SOL     OW 3283   4.659   6.948   5.205
  795SOL    HW1 3284   4.701   0.001   5.261
  795SOL    HW2 3285   4.679   6.858   5.244
  796SOL     OW 3286   1.031   2.611   6.582
  796SOL    HW1 3287   1.125   2.617   6.615
  796SOL    HW2 3288   1.025   2.650   6.490
  797SOL     OW 3289   3.416   6.936   1.203
  797SOL    HW1 3290   3.481   6.971   1.271
  797SOL    HW2 3291   3.463   6.922   1.116
  798SOL     OW 3292   4.808   4.576   1.316
  798SOL    HW1 3293   4.742   4.576   1.392
  798SOL    HW2 3294   4.897   4.545   1.348
  799SOL     OW 3295   3.683   2.909   5.685
  799SOL    HW1 3296   3.597   2.957   5.704
  799SOL    HW2 3297   3.759   2.973   5.691
  800SOL     OW 3298   5.465   3.065   2.651
  800SOL    HW1 3299   5.536   3.002   2.681
  800SOL    HW2 3300   5.378   3.016   2.642
  801SOL     OW 3301   2.013   5.460   6.649
  801SOL    HW1 3302   2.004   5.360   6.648
  801SOL    HW2 3303   2.109   5.485   6.634
  802SOL     OW 3304   4.268   2.512   6.214
  802SOL    HW1 3305   4.334   2.585   6.232
  802SOL    HW2 3306   4.316   2.424   6.212
  803SOL     OW 3307   2.569   2.511   3.537
  803SOL    HW1 3308   2.498   2.509   3.466
  803SOL    HW2 3309   2.658   2.492   3.496
  804SOL     OW 3310   4.840   0.043   2.937
  804SOL    HW1 3311   4.906   0.117   2.928
  804SOL    HW2 3312   4.887   6.979   2.970
  805SOL     OW 3313   3.465   1.455   4.032
  805SOL    HW1 3314   3.464   1.517   3.953
  805SOL    HW2 3315   3.533   1.487   4.098
  806SOL     OW 3316   3.956   6.135   6.142
  806SOL    HW1 3317   3.975   6.165   6.236
  806SOL    HW2 3318   3.872   6.080   6.142
  807SOL     OW 3319   1.673   6.067   6.338
  807SOL    HW1 3320   1.696   5.969   6.339
  807SOL    HW2 3321   1.632   6.090   6.251
  808SOL     OW 3322   5.392   2.229   6.038
  808SOL    HW1 3323   5.300   2.235   5.998
  808SOL    HW2 3324   5.460   2.234   5.965
  809SOL     OW 3325   3.327   6.581   6.354
  809SOL    HW1 3326   3.240   6.625   6.332
  809SOL    HW2 3327   3.371   6.548   6.270
  810SOL     OW 3328   3.924   3.919   0.160
  810SOL    HW1 3329   3.869   3.885   0.084
  810SOL    HW2 3330   3.877   3.898   0.246
  811SOL     OW 3331   5.589   5.904   4.249
  811SOL    HW1 3332   5.517   5.884   4.183
  811SOL    HW2 3333   5.591   6.002   4.268
  812SOL     OW 3334   1.118   2.935   1.139
  812SOL    HW1 3335   1.180   2.985   1.079
  812SOL    HW2 3336   1.151   2.938   1.233
  813SOL     OW 3337   3.157   1.818   4.838
  813SOL    HW1 3338   3.106   1.901   4.818
  813SOL    HW2 3339   3.213   1.832   4.920
  814SOL     OW 3340   0.354   4.635   1.550
  814SOL    HW1 3341   0.436   4.691   1.559
  814SOL    HW2 3342   0.311   4.624   1.639
  815SOL     OW 3343   4.550   1.070   3.869
  815SOL    HW1 3344   4.529   1.123   3.786
  815SOL    HW2 3345   4.502   0.983   3.866
  816SOL     OW 3346   4.917   3.904   6.217
  816SOL    HW1 3347   4.899   3.814   6.256
  816SOL    HW2 3348   4.831   3.955   6.210
  817SOL     OW 3349   6.751   5.293   6.659
  817SOL    HW1 3350   6.839   5.314   6.701
  817SOL    HW2 3351   6.678   5.340   6.708
  818SOL     OW 3352   6.737   1.131   5.590
  818SOL    HW1 3353   6.741   1.038   5.624
  818SOL    HW2 3354   6.722   1.130   5.491
  819SOL     OW 3355   5.669   3.519   1.390
  819SOL    HW1 3356   5.694   3.603   1.438
  819SOL    HW2 3357   5.639   3.450   1.456
  820SOL     OW 3358   2.368   1.931   5.515
  820SOL    HW1 3359   2.308   1.897   5.586
  820SOL    HW2 3360   2.388   1.858   5.450
  821SOL     OW 3361   5.246   3.335   6.230
  821SOL    HW1 3362   5.173   3.403   6.223
  821SOL    HW2 3363   5.211   3.254   6.276
  822SOL     OW 3364   6.789   4.546   3.217
  822SOL    HW1 3365   6.740   4.505   3.294
  822SOL    HW2 3366   6.796   4.645   3.229
  823SOL     OW 3367   2.205   2.872   4.317
  823SOL    HW1 3368   2.263   2.944   4.353
  823SOL    HW2 3369   2.115   2.910   4.295
  824SOL     OW 3370   5.569   0.555   6.548
  824SOL    HW1 3371   5.566   0.455   6.546
  824SOL    HW2 3372   5.476   0.591   6.555
  825SOL     OW 3373   6.160   5.591   0.808
  825SOL    HW1 3374   6.129   5.497   0.797
  825SOL    HW2 3375   6.223   5.614   0.734
  826SOL     OW 3376   3.795   2.026   0.334
  826SOL    HW1 3377   3.887   2.009   0.299
  826SOL    HW2 3378   3.742   2.076   0.265
  827SOL     OW 3379   3.613   3.323   5.070
  827SOL    HW1 3380   3.599   3.366   4.981
  827SOL    HW2 3381   3.550   3.246   5.080
  828SOL     OW 3382   1.065   6.599   6.157
  828SOL    HW1 3383   1.105   6.612   6.066
  828SOL    HW2 3384   1.080   6.682   6.212
  829SOL     OW 3385   3.851   3.338   1.684
  829SOL    HW1 3386   3.885   3.329   1.777
  829SOL    HW2 3387   3.759   3.377   1.685
  830SOL     OW 3388   6.697   3.988   5.559
  830SOL    HW1 3389   6.791   3.960   5.537
  830SOL    HW2 3390   6.700   4.058   5.631
  831SOL     OW 3391   5.850   1.224   3.027
  831SOL    HW1 3392   5.885   1.132   3.012
  831SOL    HW2 3393   5.820   1.233   3.122
  832SOL     OW 3394   3.064   2.126   4.812
  832SOL    HW1 3395   3.127   2.185   4.863
  832SOL    HW2 3396   2.973   2.131   4.851
  833SOL     OW 3397   4.227   2.869   0.121
  833SOL    HW1 3398   4.169   2.931   0.068
  833SOL    HW2 3399   4.172   2.794   0.156
  834SOL     OW 3400   5.890   3.299   0.762
  834SOL    HW1 3401   5.950   3.377   0.777
  834SOL    HW2 3402   5.900   3.267   0.668
  835SOL     OW 3403   6.633   6.751   5.408
  835SOL    HW1 3404   6.617   6.700   5.323
  835SOL    HW2 3405   6.658   6.687   5.481
  836SOL     OW 3406   5.994   6.791   4.256
  836SOL    HW1 3407   5.978   6.760   4.162
  836SOL    HW2 3408   5.962   6.721   4.320
  837SOL     OW 3409   1.224   0.570   6.486
  837SOL    HW1 3410   1.283   0.560   6.566
  837SOL    HW2 3411   1.255   0.509   6.414
  838SOL     OW 3412   1.549   5.622   3.137
  838SOL    HW1 3413   1.629   5.580   3.094
  838SOL    HW2 3414   1.474   5.556   3.140
  839SOL     OW 3415   0.981   2.601   0.256
  839SOL    HW1 3416   1.043   2.613   0.179
  839SOL    HW2 3417   0.901   2.549   0.226
  840SOL     OW 3418   4.452   5.475   0.149
  840SOL    HW1 3419   4.442   5.377   0.166
  840SOL    HW2 3420   4.508   5.515   0.222
  841SOL     OW 3421   2.858   5.220   6.304
  841SOL    HW1 3422   2.760   5.231   6.321
  841SOL    HW2 3423   2.910   5.271   6.373
  842SOL     OW 3424   4.571   6.679   1.106
  842SOL    HW1 3425   4.514   6.680   1.189
  842SOL    HW2 3426   4.609   6.770   1.091
  843SOL     OW 3427   1.155   0.692   2.101
  843SOL    HW1 3428   1.088   0.755   2.062
  843SOL    HW2 3429   1.218   0.661   2.030
  844SOL     OW 3430   6.670   6.421   1.640
  844SOL    HW1 3431   6.614   6.496   1.603
  844SOL    HW2 3432   6.740   6.459   1.701
  845SOL     OW 3433   3.883   1.293   1.739
  845SOL    HW1 3434   3.890   1.339   1.828
  845SOL    HW2 3435   3.798   1.320   1.694
  846SOL     OW 3436   1.464   1.524   1.530
  846SOL    HW1 3437   1.402   1.445   1.529
  846SOL    HW2 3438   1.542   1.506   1.470
  847SOL     OW 3439   2.477   3.208   1.317
  847SOL    HW1 3440   2.497   3.263   1.398
  847SOL    HW2 3441   2.455   3.268   1.241
  848SOL     OW 3442   6.523   6.090   0.745
  848SOL    HW1 3443   6.516   6.158   0.818
  848SOL    HW2 3444   6.432   6.062   0.716
  849SOL     OW 3445   5.163   3.079   6.320
  849SOL    HW1 3446   5.132   3.027   6.400
  849SOL    HW2 3447   5.099   3.066   6.245
  850SOL     OW 3448   1.771   1.176   4.524
  850SOL    HW1 3449   1.675   1.160   4.503
  850SOL    HW2 3450   1.804   1.256   4.474
  851SOL     OW 3451   5.125   2.273   5.976
  851SOL    HW1 3452   5.132   2.359   5.926
  851SOL    HW2 3453   5.049   2.219   5.941
  852SOL     OW 3454   6.795   5.295   1.683
  852SOL    HW1 3455   6.885   5.338   1.672
  852SOL    HW2 3456   6.726   5.347   1.633
  853SOL     OW 3457   3.340   2.893   0.809
  853SOL    HW1 3458   3.332   2.930   0.716
  853SOL    HW2 3459   3.259   2.839   0.830
  854SOL     OW 3460   0.175   0.038   5.963
  854SOL    HW1 3461   0.268   0.004   5.978
  854SOL    HW2 3462   0.136   0.066   6.051
  855SOL     OW 3463   4.843   1.838   6.836
  855SOL    HW1 3464   4.847   1.752   6.886
  855SOL    HW2 3465   4.935   1.876   6.827
  856SOL     OW 3466   2.044   5.597   1.585
  856SOL    HW1 3467   2.111   5.633   1.520
  856SOL    HW2 3468   2.030   5.664   1.659
  857SOL     OW 3469   6.875   6.138   5.056
  857SOL    HW1 3470   6.910   6.207   5.119
  857SOL    HW2 3471   6.807   6.179   4.996
  858SOL     OW 3472   3.490   4.015   0.058
  858SOL    HW1 3473   3.525   3.930   0.018
  858SOL    HW2 3474   3.391   4.018   0.047
  859SOL     OW 3475   4.494   5.643   5.543
  859SOL    HW1 3476   4.459   5.726   5.499
  859SOL    HW2 3477   4.438   5.565   5.516
  860SOL     OW 3478   4.421   2.730   6.248
  860SOL    HW1 3479   4.495   2.763   6.190
  860SOL    HW2 3480   4.450   2.730   6.343
  861SOL     OW 3481   0.817   5.747   2.543
  861SOL    HW1 3482   0.889   5.735   2.475
  861SOL    HW2 3483   0.845   5.814   2.611
  862SOL     OW 3484   0.832   4.141   4.024
  862SOL    HW1 3485   0.853   4.130   3.927
  862SOL    HW2 3486   0.733   4.139   4.037
  863SOL     OW 3487   5.660   0.906   1.506
  863SOL    HW1 3488   5.623   0.819   1.538
  863SOL    HW2 3489   5.689   0.896   1.410
  864SOL     OW 3490   6.021   5.335   3.018
  864SOL    HW1 3491   6.058   5.301   2.932
  864SOL    HW2 3492   5.952   5.271   3.052
  865SOL     OW 3493   1.092   5.271   4.392
  865SOL    HW1 3494   1.096   5.216   4.475
  865SOL    HW2 3495   1.184   5.280   4.354
  866SOL     OW 3496   3.755   6.892   1.484
  866SOL    HW1 3497   3.823   6.955   1.522
  866SOL    HW2 3498   3.739   6.916   1.388
  867SOL     OW 3499   6.071   3.598   5.289
  867SOL    HW1 3500   5.986   3.563   5.328
  867SOL    HW2 3501   6.084   3.561   5.197
  868SOL     OW 3502   0.844   1.428   2.360
  868SOL    HW1 3503   0.801   1.512   2.393
  868SOL    HW2 3504   0.873   1.441   2.265
  869SOL     OW 3505   0.533   3.087   2.349
  869SOL    HW1 3506   0.556   3.038   2.433
  869SOL    HW2 3507   0.534   3.023   2.272
  870SOL     OW 3508   3.837   4.840   2.072
  870SOL    HW1 3509   3.745   4.801   2.061
  870SOL    HW2 3510   3.870   4.873   1.984
  871SOL     OW 3511   4.369   1.677   3.513
  871SOL    HW1 3512   4.306   1.746   3.547
  871SOL    HW2 3513   4.442   1.662   3.579
  872SOL     OW 3514   1.170   2.249   5.093
  872SOL    HW1 3515   1.140   2.154   5.105
  872SOL    HW2 3516   1.090   2.307   5.076
  873SOL     OW 3517   4.116   6.888   6.406
  873SOL    HW1 3518   4.118   6.988   6.411
  873SOL    HW2 3519   4.196   6.850   6.452
  874SOL     OW 3520   6.093   3.955   1.969
  874SOL    HW1 3521   6.150   4.033   1.994
  874SOL    HW2 3522   5.998   3.984   1.964
  875SOL     OW 3523   5.402   5.937   2.314
  875SOL    HW1 3524   5.379   5.840   2.306
  875SOL    HW2 3525   5.319   5.991   2.307
  876SOL     OW 3526   6.467   1.073   6.507
  876SOL    HW1 3527   6.546   1.101   6.453
  876SOL    HW2 3528   6.476   1.107   6.600
  877SOL     OW 3529   1.368   3.371   6.828
  877SOL    HW1 3530   1.420   3.351   6.745
  877SOL    HW2 3531   1.427   3.418   6.893
  878SOL     OW 3532   4.243   6.482   4.234
  878SOL    HW1 3533   4.237   6.581   4.246
  878SOL    HW2 3534   4.197   6.455   4.150
  879SOL     OW 3535   5.556   6.865   6.118
  879SOL    HW1 3536   5.498   6.946   6.115
  879SOL    HW2 3537   5.499   6.783   6.125
  880SOL     OW 3538   3.217   3.294   2.981
  880SOL    HW1 3539   3.299   3.300   3.039
  880SOL    HW2 3540   3.144   3.351   3.019
  881SOL     OW 3541   4.160   2.096   0.555
  881SOL    HW1 3542   4.230   2.098   0.626
  881SOL    HW2 3543   4.194   2.141   0.473
  882SOL     OW 3544   1.947   2.866   3.538
  882SOL    HW1 3545   1.929   2.813   3.621
  882SOL    HW2 3546   2.046   2.874   3.525
  883SOL     OW 3547   2.420   6.281   2.926
  883SOL    HW1 3548   2.424   6.370   2.972
  883SOL    HW2 3549   2.455   6.210   2.988
  884SOL     OW 3550   2.722   3.429   6.198
  884SOL    HW1 3551   2.639   3.393   6.240
  884SOL    HW2 3552   2.768   3.357   6.147
  885SOL     OW 3553   4.113   2.856   6.629
  885SOL    HW1 3554   4.198   2.843   6.578
  885SOL    HW2 3555   4.089   2.953   6.631
  886SOL     OW 3556   3.735   1.114   6.825
  886SOL    HW1 3557   3.737   1.065   6.913
  886SOL    HW2 3558   3.819   1.097   6.775
  887SOL     OW 3559   4.403   0.919   5.360
  887SOL    HW1 3560   4.489   0.968   5.376
  887SOL    HW2 3561   4.327   0.984   5.361
  888SOL     OW 3562   0.458   6.520   1.615
  888SOL    HW1 3563   0.528   6.566   1.668
  888SOL    HW2 3564   0.369   6.536   1.655
  889SOL     OW 3565   0.193   3.809   0.460
  889SOL    HW1 3566   0.218   3.762   0.544
  889SOL    HW2 3567   0.118   3.761   0.415
  890SOL     OW 3568   2.046   6.125   4.636
  890SOL    HW1 3569   2.071   6.087   4.546
  890SOL    HW2 3570   2.129   6.159   4.681
  891SOL     OW 3571   4.822   4.505   2.446
  891SOL    HW1 3572   4.853   4.421   2.402
  891SOL    HW2 3573   4.731   4.490   2.484
  892SOL     OW 3574   2.488   4.240   0.803
  892SOL    HW1 3575   2.488   4.271   0.708
  892SOL    HW2 3576   2.395   4.214   0.830
  893SOL     OW 3577   1.560   5.405   2.669
  893SOL    HW1 3578   1.495   5.426   2.742
  893SOL    HW2 3579   1.622   5.483   2.656
  894SOL     OW 3580   0.859   4.526   1.133
  894SOL    HW1 3581   0.889   4.440   1.172
  894SOL    HW2 3582   0.929   4.596   1.148
  895SOL     OW 3583   0.085   4.974   3.922
  895SOL    HW1 3584   0.022   4.968   3.844
  895SOL    HW2 3585   0.150   4.898   3.917
  896SOL     OW 3586   0.225   1.048   6.696
  896SOL    HW1 3587   0.126   1.044   6.682
  896SOL    HW2 3588   0.269   0.976   6.641
  897SOL     OW 3589   5.350   1.241   0.762
  897SOL    HW1 3590   5.449   1.225   0.767
  897SOL    HW2 3591   5.319   1.282   0.848
  898SOL     OW 3592   4.037   1.038   2.794
  898SOL    HW1 3593   4.069   0.944   2.810
  898SOL    HW2 3594   3.945   1.036   2.754
  899SOL     OW 3595   6.454   6.323   6.902
  899SOL    HW1 3596   6.542   6.328   6.854
  899SOL    HW2 3597   6.448   6.399   6.967
  900SOL     OW 3598   5.113   5.246   0.309
  900SOL    HW1 3599   5.162   5.187   0.245
  900SOL    HW2 3600   5.164   5.253   0.394
  901SOL     OW 3601   1.248   0.498   3.445
  901SOL    HW1 3602   1.266   0.412   3.397
  901SOL    HW2 3603   1.299   0.501   3.530
  902SOL     OW 3604   6.742   3.254   1.606
  902SOL    HW1 3605   6.747   3.155   1.620
  902SOL    HW2 3606   6.741   3.300   1.694
  903SOL     OW 3607   0.133   1.186   0.961
  903SOL    HW1 3608   0.214   1.220   0.914
  903SOL    HW2 3609   0.064   1.160   0.894
  904SOL     OW 3610   2.522   0.984   3.068
  904SOL    HW1 3611   2.477   0.921   3.132
  904SOL    HW2 3612   2.455   1.051   3.035
  905SOL     OW 3613   6.261   1.929   6.358
  905SOL    HW1 3614   6.256   1.860   6.430
  905SOL    HW2 3615   6.356   1.941   6.329
  906SOL     OW 3616   5.145   3.086   0.356
  906SOL    HW1 3617   5.239   3.062   0.381
  906SOL    HW2 3618   5.113   3.161   0.413
  907SOL     OW 3619   5.535   4.255   6.359
  907SOL    HW1 3620   5.557   4.335   6.303
  907SOL    HW2 3621   5.519   4.177   6.299
  908SOL     OW 3622   0.671   4.283   3.574
  908SOL    HW1 3623   0.639   4.214   3.509
  908SOL    HW2 3624   0.718   4.237   3.650
  909SOL     OW 3625   5.473   5.676   5.944
  909SOL    HW1 3626   5.464   5.754   5.882
  909SOL    HW2 3627   5.552   5.621   5.917
  910SOL     OW 3628   3.386   4.685   0.549
  910SOL    HW1 3629   3.340   4.740   0.619
  910SOL    HW2 3630   3.438   4.612   0.593
  911SOL     OW 3631   1.315   4.539   5.550
  911SOL    HW1 3632   1.414   4.524   5.555
  911SOL    HW2 3633   1.291   4.576   5.461
  912SOL     OW 3634   4.776   1.544   4.968
  912SOL    HW1 3635   4.797   1.470   5.032
  912SOL    HW2 3636   4.843   1.544   4.894
  913SOL     OW 3637   4.695   6.476   2.931
  913SOL    HW1 3638   4.671   6.485   3.028
  913SOL    HW2 3639   4.708   6.567   2.892
  914SOL     OW 3640   3.201   6.560   5.810
  914SOL    HW1 3641   3.110   6.518   5.809
  914SOL    HW2 3642   3.263   6.502   5.862
  915SOL     OW 3643   5.330   5.658   1.514
  915SOL    HW1 3644   5.307   5.573   1.467
  915SOL    HW2 3645   5.369   5.637   1.604
  916SOL     OW 3646   1.282   3.311   3.028
  916SOL    HW1 3647   1.275   3.294   3.126
  916SOL    HW2 3648   1.354   3.253   2.989
  917SOL     OW 3649   0.657   0.012   6.690
  917SOL    HW1 3650   0.611   6.953   6.647
  917SOL    HW2 3651   0.669   0.085   6.623
  918SOL     OW 3652   3.571   6.363   6.925
  918SOL    HW1 3653   3.625   6.409   6.995
  918SOL    HW2 3654   3.498   6.424   6.894
  919SOL     OW 3655   4.505   0.672   6.220
  919SOL    HW1 3656   4.577   0.721   6.170
  919SOL    HW2 3657   4.420   0.675   6.167
  920SOL     OW 3658   3.145   4.856   1.792
  920SOL    HW1 3659   3.127   4.757   1.788
  920SOL    HW2 3660   3.241   4.873   1.772
  921SOL     OW 3661   4.774   5.976   5.173
  921SOL    HW1 3662   4.727   6.065   5.174
  921SOL    HW2 3663   4.755   5.927   5.258
  922SOL     OW 3664   3.291   3.677   3.537
  922SOL    HW1 3665   3.221   3.650   3.471
  922SOL    HW2 3666   3.248   3.719   3.616
  923SOL     OW 3667   2.535   3.499   5.754
  923SOL    HW1 3668   2.541   3.568   5.682
  923SOL    HW2 3669   2.524   3.544   5.842
  924SOL     OW 3670   0.291   3.118   1.308
  924SOL    HW1 3671   0.324   3.208   1.280
  924SOL    HW2 3672   0.258   3.124   1.403
  925SOL     OW 3673   0.634   1.217   6.592
  925SOL    HW1 3674   0.635   1.159   6.510
  925SOL    HW2 3675   0.709   1.283   6.587
  926SOL     OW 3676   2.218   1.695   1.329
  926SOL    HW1 3677   2.206   1.708   1.231
  926SOL    HW2 3678   2.137   1.725   1.378
  927SOL     OW 3679   6.535   3.298   4.649
  927SOL    HW1 3680   6.501   3.255   4.733
  927SOL    HW2 3681   6.632   3.278   4.638
  928SOL     OW 3682   2.921   5.355   5.507
  928SOL    HW1 3683   2.851   5.315   5.566
  928SOL    HW2 3684   2.878   5.394   5.425
  929SOL     OW 3685   0.564   1.910   4.674
  929SOL    HW1 3686   0.546   1.986   4.612
  929SOL    HW2 3687   0.602   1.944   4.760
  930SOL     OW 3688   5.731   5.507   4.626
  930SOL    HW1 3689   5.776   5.512   4.537
  930SOL    HW2 3690   5.632   5.515   4.614
  931SOL     OW 3691   5.944   0.429   3.494
  931SOL    HW1 3692   5.953   0.363   3.568
  931SOL    HW2 3693   5.990   0.395   3.413
  932SOL     OW 3694   3.463   0.183   3.578
  932SOL    HW1 3695   3.441   0.246   3.504
  932SOL    HW2 3696   3.380   0.142   3.613
  933SOL     OW 3697   1.097   5.574   1.694
  933SOL    HW1 3698   1.158   5.640   1.738
  933SOL    HW2 3699   1.052   5.617   1.615
  934SOL     OW 3700   1.782   2.680   0.204
  934SOL    HW1 3701   1.697   2.725   0.231
  934SOL    HW2 3702   1.772   2.640   0.113
  935SOL     OW 3703   5.798   2.700   5.620
  935SOL    HW1 3704   5.753   2.610   5.626
  935SOL    HW2 3705   5.877   2.701   5.682
  936SOL     OW 3706   1.877   0.499   5.998
  936SOL    HW1 3707   1.918   0.426   5.945
  936SOL    HW2 3708   1.942   0.533   6.066
  937SOL     OW 3709   3.388   2.521   6.276
  937SOL    HW1 3710   3.405   2.615   6.306
  937SOL    HW2 3711   3.368   2.520   6.178
  938SOL     OW 3712   5.144   6.585   4.800
  938SOL    HW1 3713   5.076   6.631   4.856
  938SOL    HW2 3714   5.124   6.487   4.798
  939SOL     OW 3715   1.516   0.027   5.036
  939SOL    HW1 3716   1.496   7.008   5.126
  939SOL    HW2 3717   1.554   6.973   4.977
  940SOL     OW 3718   1.910   5.508   0.594
  940SOL    HW1 3719   1.887   5.605   0.585
  940SOL    HW2 3720   1.825   5.455   0.598
  941SOL     OW 3721   3.972   6.710   1.168
  941SOL    HW1 3722   4.040   6.733   1.098
  941SOL    HW2 3723   4.011   6.724   1.259
  942SOL     OW 3724   6.741   5.295   0.036
  942SOL    HW1 3725   6.778   5.387   0.027
  942SOL    HW2 3726   6.788   5.247   0.110
  943SOL     OW 3727   3.583   5.774   0.901
  943SOL    HW1 3728   3.525   5.693   0.890
  943SOL    HW2 3729   3.672   5.758   0.858
  944SOL     OW 3730   6.958   6.039   3.122
  944SOL    HW1 3731   6.962   6.023   3.221
  944SOL    HW2 3732   6.962   5.952   3.073
  945SOL     OW 3733   0.969   5.826   6.715
  945SOL    HW1 3734   0.946   5.924   6.717
  945SOL    HW2 3735   1.058   5.814   6.671
  946SOL     OW 3736   5.604   1.865   4.064
  946SOL    HW1 3737   5.531   1.927   4.094
  946SOL    HW2 3738   5.667   1.847   4.139
  947SOL     OW 3739   3.773   4.000   2.539
  947SOL    HW1 3740   3.744   3.905   2.552
  947SOL    HW2 3741   3.873   4.002   2.526
  948SOL     OW 3742   3.592   1.225   3.848
  948SOL    HW1 3743   3.626   1.269   3.765
  948SOL    HW2 3744   3.556   1.294   3.910
  949SOL     OW 3745   2.993   0.256   5.872
  949SOL    HW1 3746   2.937   0.249   5.955
  949SOL    HW2 3747   2.966   0.338   5.821
  950SOL     OW 3748   6.686   6.912   1.793
  950SOL    HW1 3749   6.780   6.944   1.795
  950SOL    HW2 3750   6.677   6.831   1.852
  951SOL     OW 3751   1.345   0.038   3.056
  951SOL    HW1 3752   1.409   0.054   3.131
  951SOL    HW2 3753   1.374   0.091   2.976
  952SOL     OW 3754   3.744   1.751   3.151
  952SOL    HW1 3755   3.762   1.692   3.230
  952SOL    HW2 3756   3.646   1.765   3.141
  953SOL     OW 3757   0.889   5.596   5.858
  953SOL    HW1 3758   0.798   5.593   5.898
  953SOL    HW2 3759   0.936   5.679   5.888
  954SOL     OW 3760   4.541   6.478   2.370
  954SOL    HW1 3761   4.523   6.386   2.334
  954SOL    HW2 3762   4.507   6.485   2.463
  955SOL     OW 3763   2.603   4.896   0.957
  955SOL    HW1 3764   2.687   4.871   1.006
  955SOL    HW2 3765   2.597   4.844   0.872
  956SOL     OW 3766   3.694   0.424   0.991
  956SOL    HW1 3767   3.709   0.332   1.026
  956SOL    HW2 3768   3.603   0.430   0.948
  957SOL     OW 3769   5.903   6.712   3.412
  957SOL    HW1 3770   5.937   6.804   3.394
  957SOL    HW2 3771   5.819   6.717   3.465
  958SOL     OW 3772   5.642   6.229   2.065
  958SOL    HW1 3773   5.566   6.164   2.060
  958SOL    HW2 3774   5.652   6.262   2.159
  959SOL     OW 3775   5.040   0.249   2.834
  959SOL    HW1 3776   4.947   0.286   2.834
  959SOL    HW2 3777   5.098   0.304   2.774
  960SOL     OW 3778   1.628   5.976   5.746
  960SOL    HW1 3779   1.668   6.066   5.730
  960SOL    HW2 3780   1.672   5.934   5.826
  961SOL     OW 3781   3.965   1.043   3.477
  961SOL    HW1 3782   3.894   0.994   3.427
  961SOL    HW2 3783   3.937   1.139   3.489
  962SOL     OW 3784   0.341   6.919   4.534
  962SOL    HW1 3785   0.315   6.847   4.470
  962SOL    HW2 3786   0.440   6.917   4.548
  963SOL     OW 3787   5.804   2.839   1.277
  963SOL    HW1 3788   5.796   2.938   1.273
  963SOL    HW2 3789   5.881   2.813   1.334
  964SOL     OW 3790   3.491   6.588   4.887
  964SOL    HW1 3791   3.537   6.656   4.945
  964SOL    HW2 3792   3.429   6.534   4.943
  965SOL     OW 3793   4.774   2.113   3.942
  965SOL    HW1 3794   4.805   2.206   3.927
  965SOL    HW2 3795   4.840   2.064   3.999
  966SOL     OW 3796   5.391   0.813   3.340
  966SOL    HW1 3797   5.298   0.851   3.341
  966SOL    HW2 3798   5.413   0.783   3.247
  967SOL     OW 3799   4.138   5.049   5.973
  967SOL    HW1 3800   4.140   4.980   5.900
  967SOL    HW2 3801   4.178   5.134   5.939
  968SOL     OW 3802   3.675   0.616   1.183
  968SOL    HW1 3803   3.697   0.549   1.112
  968SOL    HW2 3804   3.624   0.692   1.143
  969SOL     OW 3805   2.720   3.708   6.869
  969SOL    HW1 3806   2.746   3.756   6.786
  969SOL    HW2 3807   2.757   3.615   6.867
  970SOL     OW 3808   4.543   6.672   5.240
  970SOL    HW1 3809   4.589   6.705   5.322
  970SOL    HW2 3810   4.450   6.644   5.263
  971SOL     OW 3811   5.336   3.369   3.466
  971SOL    HW1 3812   5.423   3.321   3.479
  971SOL    HW2 3813   5.315   3.421   3.549
  972SOL     OW 3814   0.685   1.987   0.873
  972SOL    HW1 3815   0.636   1.938   0.945
  972SOL    HW2 3816   0.765   2.033   0.913
  973SOL     OW 3817   6.766   2.581   4.646
  973SOL    HW1 3818   6.683   2.528   4.636
  973SOL    HW2 3819   6.751   2.655   4.712
  974SOL     OW 3820   0.508   3.129   2.011
  974SOL    HW1 3821   0.576   3.061   1.985
  974SOL    HW2 3822   0.480   3.180   1.930
  975SOL     OW 3823   2.613   0.551   1.869
  975SOL    HW1 3824   2.517   0.560   1.844
  975SOL    HW2 3825   2.653   0.474   1.819
  976SOL     OW 3826   0.218   2.726   3.790
  976SOL    HW1 3827   0.134   2.680   3.819
  976SOL    HW2 3828   0.292   2.703   3.852
  977SOL     OW 3829   6.032   1.236   2.409
  977SOL    HW1 3830   6.113   1.244   2.352
  977SOL    HW2 3831   6.054   1.262   2.503
  978SOL     OW 3832   4.884   2.640   0.946
  978SOL    HW1 3833   4.958   2.592   0.994
  978SOL    HW2 3834   4.834   2.697   1.011
  979SOL     OW 3835   0.142   5.023   6.410
  979SOL    HW1 3836   0.216   4.958   6.394
  979SOL    HW2 3837   0.143   5.052   6.505
  980SOL     OW 3838   4.511   1.325   4.253
  980SOL    HW1 3839   4.446   1.395   4.222
  980SOL    HW2 3840   4.601   1.344   4.212
  981SOL     OW 3841   0.764   6.014   5.563
  981SOL    HW1 3842   0.811   5.995   5.477
  981SOL    HW2 3843   0.832   6.031   5.635
  982SOL     OW 3844   0.153   0.762   6.868
  982SOL    HW1 3845   0.233   0.792   6.921
  982SOL    HW2 3846   0.166   0.667   6.839
  983SOL     OW 3847   0.379   3.559   3.062
  983SOL    HW1 3848   0.382   3.483   2.998
  983SOL    HW2 3849   0.406   3.528   3.153
  984SOL     OW 3850   0.210   3.403   3.750
  984SOL    HW1 3851   0.119   3.370   3.775
  984SOL    HW2 3852   0.217   3.500   3.772
  985SOL     OW 3853   5.567   5.596   4.995
  985SOL    HW1 3854   5.548   5.548   4.909
  985SOL    HW2 3855   5.487   5.589   5.055
  986SOL     OW 3856   3.862   5.660   1.820
  986SOL    HW1 3857   3.817   5.689   1.735
  986SOL    HW2 3858   3.939   5.720   1.839
  987SOL     OW 3859   4.553   4.498   4.585
  987SOL    HW1 3860   4.524   4.437   4.511
  987SOL    HW2 3861   4.600   4.445   4.655
  988SOL     OW 3862   2.976   4.789   2.028
  988SOL    HW1 3863   3.050   4.777   1.962
  988SOL    HW2 3864   2.912   4.712   2.021
  989SOL     OW 3865   0.137   2.517   1.209
  989SOL    HW1 3866   0.163   2.479   1.120
  989SOL    HW2 3867   0.194   2.596   1.230
  990SOL     OW 3868   3.560   0.071   4.938
  990SOL    HW1 3869   3.533   0.158   4.979
  990SOL    HW2 3870   3.659   0.070   4.926
  991SOL     OW 3871   0.939   6.049   4.040
  991SOL    HW1 3872   0.996   6.074   3.962
  991SOL    HW2 3873   0.971   5.961   4.077
  992SOL     OW 3874   6.387   2.812   0.362
  992SOL    HW1 3875   6.396   2.903   0.321
  992SOL    HW2 3876   6.449   2.804   0.440
  993SOL     OW 3877   1.752   5.131   6.500
  993SOL    HW1 3878   1.697   5.059   6.543
  993SOL    HW2 3879   1.844   5.096   6.481
  994SOL     OW 3880   2.572   6.963   1.599
  994SOL    HW1 3881   2.601   0.041   1.605
  994SOL    HW2 3882   2.503   6.945   1.669
  995SOL     OW 3883   5.824   3.988   5.417
  995SOL    HW1 3884   5.822   4.073   5.470
  995SOL    HW2 3885   5.894   3.994   5.346
  996SOL     OW 3886   4.037   6.457   5.324
  996SOL    HW1 3887   4.045   6.431   5.421
  996SOL    HW2 3888   4.037   6.557   5.316
  997SOL     OW 3889   1.365   6.350   3.209
  997SOL    HW1 3890   1.352   6.311   3.300
  997SOL    HW2 3891   1.388   6.277   3.144
  998SOL     OW 3892   4.668   6.773   0.505
  998SOL    HW1 3893   4.708   6.791   0.415
  998SOL    HW2 3894   4.685   6.851   0.565
  999SOL     OW 3895   5.588   2.857   2.353
  999SOL    HW1 3896   5.654   2.803   2.301
  999SOL    HW2 3897   5.580   2.820   2.445
 1000SOL     OW 3898   5.678   1.848   2.385
 1000SOL    HW1 3899   5.755   1.831   2.446
 1000SOL    HW2 3900   5.676   1.778   2.314
 1001SOL     OW 3901   2.840   6.540   2.938
 1001SOL    HW1 3902   2.904   6.610   2.904
 1001SOL    HW2 3903   2.872   6.507   3.026
 1002SOL     OW 3904   3.951   2.314   0.595
 1002SOL    HW1 3905   3.922   2.347   0.685
 1002SOL    HW2 3906   4.009   2.233   0.607
 1003SOL     OW 3907   0.506   0.814   3.684
 1003SOL    HW1 3908   0.413   0.778   3.688
 1003SOL    HW2 3909   0.534   0.822   3.588
 1004SOL     OW 3910   5.225   1.825   4.247
 1004SOL    HW1 3911   5.177   1.763   4.185
 1004SOL    HW2 3912   5.184   1.821   4.338
 1005SOL     OW 3913   0.881   5.405   1.248
 1005SOL    HW1 3914   0.784   5.400   1.272
 1005SOL    HW2 3915   0.931   5.333   1.297
 1006SOL     OW 3916   1.934   4.428   1.582
 1006SOL    HW1 3917   1.975   4.344   1.617
 1006SOL    HW2 3918   1.868   4.405   1.510
 1007SOL     OW 3919   4.793   1.046   6.412
 1007SOL    HW1 3920   4.745   1.043   6.323
 1007SOL    HW2 3921   4.807   0.952   6.445
 1008SOL     OW 3922   0.213   4.852   4.870
 1008SOL    HW1 3923   0.116   4.840   4.850
 1008SOL    HW2 3924   0.267   4.796   4.807
 1009SOL     OW 3925   6.412   6.027   6.536
 1009SOL    HW1 3926   6.412   5.988   6.628
 1009SOL    HW2 3927   6.339   6.095   6.527
 1010SOL     OW 3928   2.790   3.655   0.602
 1010SOL    HW1 3929   2.844   3.714   0.662
 1010SOL    HW2 3930   2.729   3.712   0.546
 1011SOL     OW 3931   0.008   5.081   2.333
 1011SOL    HW1 3932   7.009   5.103   2.237
 1011SOL    HW2 3933   0.041   5.162   2.381
 1012SOL     OW 3934   5.630   6.255   2.675
 1012SOL    HW1 3935   5.725   6.282   2.690
 1012SOL    HW2 3936   5.570   6.310   2.734
 1013SOL     OW 3937   0.751   0.733   6.230
 1013SOL    HW1 3938   0.760   0.783   6.144
 1013SOL    HW2 3939   0.813   0.772   6.298
 1014SOL     OW 3940   0.588   4.665   4.445
 1014SOL    HW1 3941   0.632   4.736   4.391
 1014SOL    HW2 3942   0.581   4.694   4.540
 1015SOL     OW 3943   3.158   6.513   0.111
 1015SOL    HW1 3944   3.178   6.439   0.175
 1015SOL    HW2 3945   3.060   6.512   0.089
 1016SOL     OW 3946   6.929   4.826   0.658
 1016SOL    HW1 3947   6.869   4.836   0.579
 1016SOL    HW2 3948   6.995   4.901   0.659
 1017SOL     OW 3949   1.951   1.214   2.393
 1017SOL    HW1 3950   2.048   1.190   2.400
 1017SOL    HW2 3951   1.912   1.218   2.485
 1018SOL     OW 3952   6.005   6.357   5.022
 1018SOL    HW1 3953   6.031   6.448   4.991
 1018SOL    HW2 3954   5.906   6.352   5.034
 1019SOL     OW 3955   6.198   4.089   1.168
 1019SOL    HW1 3956   6.185   4.104   1.266
 1019SOL    HW2 3957   6.218   3.992   1.152
 1020SOL     OW 3958   5.275   1.586   1.217
 1020SOL    HW1 3959   5.262   1.684   1.235
 1020SOL    HW2 3960   5.237   1.533   1.293
 1021SOL     OW 3961   1.689   6.825   0.698
 1021SOL    HW1 3962   1.673   6.892   0.626
 1021SOL    HW2 3963   1.605   6.811   0.750
 1022SOL     OW 3964   2.020   5.005   6.492
 1022SOL    HW1 3965   2.043   4.935   6.424
 1022SOL    HW2 3966   2.103   5.056   6.517
 1023SOL     OW 3967   0.932   1.543   2.095
 1023SOL    HW1 3968   0.961   1.449   2.081
 1023SOL    HW2 3969   1.004   1.595   2.141
 1024SOL     OW 3970   2.005   2.211   4.691
 1024SOL    HW1 3971   2.028   2.202   4.788
 1024SOL    HW2 3972   2.076   2.264   4.645
 1025SOL     OW 3973   4.464   4.240   1.426
 1025SOL    HW1 3974   4.533   4.292   1.375
 1025SOL    HW2 3975   4.381   4.294   1.437
 1026SOL     OW 3976   3.325   2.929   2.105
 1026SOL    HW1 3977   3.254   2.995   2.132
 1026SOL    HW2 3978   3.364   2.888   2.188
 1027SOL     OW 3979   6.621   6.710   0.405
 1027SOL    HW1 3980   6.596   6.803   0.431
 1027SOL    HW2 3981   6.663   6.711   0.314
 1028SOL     OW 3982   1.019   4.782   3.061
 1028SOL    HW1 3983   1.068   4.866   3.041
 1028SOL    HW2 3984   1.063   4.735   3.137
 1029SOL     OW 3985   0.410   0.670   5.065
 1029SOL    HW1 3986   0.337   0.736   5.083
 1029SOL    HW2 3987   0.496   0.704   5.104
 1030SOL     OW 3988   3.976   3.488   0.943
 1030SOL    HW1 3989   4.063   3.501   0.895
 1030SOL    HW2 3990   3.982   3.405   0.999
 1031SOL     OW 3991   3.919   2.900   0.630
 1031SOL    HW1 3992   3.890   2.880   0.724
 1031SOL    HW2 3993   4.012   2.867   0.616
 1032SOL     OW 3994   1.631   1.254   1.133
 1032SOL    HW1 3995   1.726   1.280   1.114
 1032SOL    HW2 3996   1.582   1.242   1.047
 1033SOL     OW 3997   6.712   0.093   2.082
 1033SOL    HW1 3998   6.758   0.176   2.053
 1033SOL    HW2 3999   6.659   0.055   2.006
 1034SOL     OW 4000   2.691   0.893   5.000
 1034SOL    HW1 4001   2.596   0.919   5.017
 1034SOL    HW2 4002   2.744   0.904   5.085
 1035SOL     OW 4003   1.604   0.550   0.231
 1035SOL    HW1 4004   1.657   0.471   0.201
 1035SOL    HW2 4005   1.534   0.521   0.297
 1036SOL     OW 4006   4.883   1.374   2.303
 1036SOL    HW1 4007   4.797   1.325   2.311
 1036SOL    HW2 4008   4.928   1.349   2.217
 1037SOL     OW 4009   1.749   3.608   3.030
 1037SOL    HW1 4010   1.689   3.673   2.985
 1037SOL    HW2 4011   1.804   3.655   3.100
 1038SOL     OW 4012   2.065   6.081   0.444
 1038SOL    HW1 4013   2.137   6.138   0.483
 1038SOL    HW2 4014   2.079   6.073   0.346
 1039SOL     OW 4015   3.173   3.711   2.996
 1039SOL    HW1 4016   3.098   3.677   3.052
 1039SOL    HW2 4017   3.257   3.662   3.019
 1040SOL     OW 4018   3.712   1.326   2.782
 1040SOL    HW1 4019   3.738   1.296   2.874
 1040SOL    HW2 4020   3.687   1.423   2.785
 1041SOL     OW 4021   6.606   6.527   6.486
 1041SOL    HW1 4022   6.703   6.550   6.494
 1041SOL    HW2 4023   6.562   6.589   6.422
 1042SOL     OW 4024   5.501   3.720   4.148
 1042SOL    HW1 4025   5.461   3.808   4.122
 1042SOL    HW2 4026   5.479   3.652   4.079
 1043SOL     OW 4027   2.491   1.893   3.972
 1043SOL    HW1 4028   2.520   1.865   3.880
 1043SOL    HW2 4029   2.527   1.984   3.992
 1044SOL     OW 4030   5.840   4.580   1.888
 1044SOL    HW1 4031   5.911   4.538   1.946
 1044SOL    HW2 4032   5.875   4.590   1.795
 1045SOL     OW 4033   2.352   0.582   2.578
 1045SOL    HW1 4034   2.429   0.549   2.525
 1045SOL    HW2 4035   2.275   0.601   2.517
 1046SOL     OW 4036   2.986   2.545   0.904
 1046SOL    HW1 4037   2.927   2.550   0.824
 1046SOL    HW2 4038   2.930   2.534   0.986
 1047SOL     OW 4039   3.421   0.988   3.383
 1047SOL    HW1 4040   3.448   0.892   3.396
 1047SOL    HW2 4041   3.446   1.017   3.290
 1048SOL     OW 4042   0.803   6.981   1.963
 1048SOL    HW1 4043   0.889   6.961   1.917
 1048SOL    HW2 4044   0.732   6.998   1.894
 1049SOL     OW 4045   3.562   6.754   0.589
 1049SOL    HW1 4046   3.517   6.840   0.566
 1049SOL    HW2 4047   3.510   6.707   0.660
 1050SOL     OW 4048   2.290   1.441   4.424
 1050SOL    HW1 4049   2.242   1.381   4.360
 1050SOL    HW2 4050   2.262   1.536   4.408
 1051SOL     OW 4051   1.824   2.036   5.507
 1051SOL    HW1 4052   1.726   2.054   5.520
 1051SOL    HW2 4053   1.864   2.006   5.594
 1052SOL     OW 4054   4.284   2.069   6.857
 1052SOL    HW1 4055   4.355   2.064   6.787
 1052SOL    HW2 4056   4.287   2.159   6.901
 1053SOL     OW 4057   5.140   2.894   3.968
 1053SOL    HW1 4058   5.150   2.807   3.920
 1053SOL    HW2 4059   5.045   2.925   3.962
 1054SOL     OW 4060   4.814   5.349   6.592
 1054SOL    HW1 4061   4.854   5.317   6.507
 1054SOL    HW2 4062   4.722   5.311   6.603
 1055SOL     OW 4063   5.518   5.827   6.627
 1055SOL    HW1 4064   5.474   5.753   6.677
 1055SOL    HW2 4065   5.591   5.790   6.569
 1056SOL     OW 4066   3.895   3.855   0.550
 1056SOL    HW1 4067   3.964   3.918   0.516
 1056SOL    HW2 4068   3.825   3.840   0.480
 1057SOL     OW 4069   3.107   3.391   6.527
 1057SOL    HW1 4070   3.026   3.362   6.475
 1057SOL    HW2 4071   3.147   3.472   6.484
 1058SOL     OW 4072   3.012   2.095   2.134
 1058SOL    HW1 4073   2.966   2.184   2.132
 1058SOL    HW2 4074   3.081   2.091   2.061
 1059SOL     OW 4075   2.098   6.248   2.219
 1059SOL    HW1 4076   2.110   6.166   2.163
 1059SOL    HW2 4077   2.180   6.305   2.212
 1060SOL     OW 4078   6.189   0.379   5.765
 1060SOL    HW1 4079   6.140   0.335   5.840
 1060SOL    HW2 4080   6.161   0.475   5.758
 1061SOL     OW 4081   0.003   3.825   6.260
 1061SOL    HW1 4082   6.945   3.766   6.286
 1061SOL    HW2 4083   0.069   3.832   6.335
 1062SOL     OW 4084   2.867   4.846   5.617
 1062SOL    HW1 4085   2.921   4.859   5.534
 1062SOL    HW2 4086   2.890   4.917   5.683
 1063SOL     OW 4087   2.889   6.133   4.026
 1063SOL    HW1 4088   2.845   6.147   3.937
 1063SOL    HW2 4089   2.851   6.196   4.093
 1064SOL     OW 4090   0.836   3.672   0.726
 1064SOL    HW1 4091   0.877   3.646   0.813
 1064SOL    HW2 4092   0.900   3.732   0.677
 1065SOL     OW 4093   6.150   1.204   5.145
 1065SOL    HW1 4094   6.117   1.217   5.051
 1065SOL    HW2 4095   6.245   1.174   5.142
 1066SOL     OW 4096   4.678   6.126   0.988
 1066SOL    HW1 4097   4.755   6.084   0.940
 1066SOL    HW2 4098   4.605   6.058   0.999
 1067SOL     OW 4099   3.098   1.229   0.031
 1067SOL    HW1 4100   3.021   1.166   0.036
 1067SOL    HW2 4101   3.175   1.191   0.083
 1068SOL     OW 4102   5.980   2.795   1.700
 1068SOL    HW1 4103   6.039   2.851   1.642
 1068SOL    HW2 4104   5.886   2.829   1.695
 1069SOL     OW 4105   0.019   2.736   2.601
 1069SOL    HW1 4106   6.978   2.708   2.525
 1069SOL    HW2 4107   6.991   2.717   2.688
 1070SOL     OW 4108   0.473   0.841   2.356
 1070SOL    HW1 4109   0.488   0.746   2.384
 1070SOL    HW2 4110   0.459   0.898   2.437
 1071SOL     OW 4111   0.761   2.881   6.360
 1071SOL    HW1 4112   0.745   2.897   6.263
 1071SOL    HW2 4113   0.803   2.962   6.401
 1072SOL     OW 4114   2.256   1.336   1.973
 1072SOL    HW1 4115   2.351   1.355   1.946
 1072SOL    HW2 4116   2.251   1.242   2.009
 1073SOL     OW 4117   5.692   1.955   3.003
 1073SOL    HW1 4118   5.662   1.866   3.035
 1073SOL    HW2 4119   5.791   1.957   2.997
 1074SOL     OW 4120   3.130   5.493   1.609
 1074SOL    HW1 4121   3.133   5.437   1.526
 1074SOL    HW2 4122   3.217   5.484   1.658
 1075SOL     OW 4123   6.091   3.876   4.786
 1075SOL    HW1 4124   6.095   3.795   4.728
 1075SOL    HW2 4125   6.124   3.955   4.735
 1076SOL     OW 4126   2.207   4.195   5.269
 1076SOL    HW1 4127   2.284   4.136   5.245
 1076SOL    HW2 4128   2.128   4.170   5.214
 1077SOL     OW 4129   6.690   6.255   0.369
 1077SOL    HW1 4130   6.761   6.226   0.304
 1077SOL    HW2 4131   6.733   6.295   0.449
 1078SOL     OW 4132   5.769   6.542   4.344
 1078SOL    HW1 4133   5.812   6.479   4.279
 1078SOL    HW2 4134   5.781   6.507   4.437
 1079SOL     OW 4135   0.996   6.711   1.085
 1079SOL    HW1 4136   0.910   6.660   1.082
 1079SOL    HW2 4137   1.073   6.647   1.086
 1080SOL     OW 4138   4.659   5.785   0.598
 1080SOL    HW1 4139   4.638   5.837   0.516
 1080SOL    HW2 4140   4.609   5.698   0.597
 1081SOL     OW 4141   0.001   6.650   3.338
 1081SOL    HW1 4142   6.997   6.723   3.273
 1081SOL    HW2 4143   6.954   6.574   3.325
 1082SOL     OW 4144   4.508   6.918   6.968
 1082SOL    HW1 4145   4.463   6.971   0.022
 1082SOL    HW2 4146   4.544   6.981   6.899
 1083SOL     OW 4147   5.842   4.106   2.286
 1083SOL    HW1 4148   5.787   4.082   2.366
 1083SOL    HW2 4149   5.813   4.195   2.250
 1084SOL     OW 4150   4.951   0.791   5.297
 1084SOL    HW1 4151   4.859   0.759   5.316
 1084SOL    HW2 4152   4.948   0.886   5.266
 1085SOL     OW 4153   1.606   3.204   5.078
 1085SOL    HW1 4154   1.532   3.183   5.013
 1085SOL    HW2 4155   1.579   3.281   5.136
 1086SOL     OW 4156   5.903   5.041   1.903
 1086SOL    HW1 4157   5.848   5.121   1.924
 1086SOL    HW2 4158   5.870   4.963   1.956
 1087SOL     OW 4159   3.610   0.389   6.193
 1087SOL    HW1 4160   3.673   0.312   6.204
 1087SOL    HW2 4161   3.518   0.362   6.221
 1088SOL     OW 4162   6.667   5.055   4.593
 1088SOL    HW1 4163   6.707   5.017   4.677
 1088SOL    HW2 4164   6.739   5.076   4.528
 1089SOL     OW 4165   5.922   5.166   4.257
 1089SOL    HW1 4166   5.969   5.173   4.169
 1089SOL    HW2 4167   5.875   5.253   4.277
 1090SOL     OW 4168   5.560   2.416   5.183
 1090SOL    HW1 4169   5.556   2.508   5.143
 1090SOL    HW2 4170   5.554   2.423   5.283
 1091SOL     OW 4171   2.103   3.580   2.937
 1091SOL    HW1 4172   2.090   3.550   3.031
 1091SOL    HW2 4173   2.197   3.562   2.909
 1092SOL     OW 4174   0.875   6.358   0.548
 1092SOL    HW1 4175   0.819   6.277   0.561
 1092SOL    HW2 4176   0.909   6.390   0.636
 1093SOL     OW 4177   1.366   0.656   2.966
 1093SOL    HW1 4178   1.418   0.741   2.963
 1093SOL    HW2 4179   1.369   0.618   3.059
 1094SOL     OW 4180   0.569   6.773   3.020
 1094SOL    HW1 4181   0.554   6.746   2.925
 1094SOL    HW2 4182   0.652   6.829   3.026
 1095SOL     OW 4183   6.241   3.883   0.632
 1095SOL    HW1 4184   6.227   3.909   0.537
 1095SOL    HW2 4185   6.280   3.791   0.636
 1096SOL     OW 4186   2.149   6.073   2.025
 1096SOL    HW1 4187   2.113   5.983   2.050
 1096SOL    HW2 4188   2.236   6.063   1.978
 1097SOL     OW 4189   2.785   6.148   4.572
 1097SOL    HW1 4190   2.757   6.174   4.664
 1097SOL    HW2 4191   2.711   6.098   4.527
 1098SOL     OW 4192   6.810   4.148   0.013
 1098SOL    HW1 4193   6.731   4.182   0.065
 1098SOL    HW2 4194   6.784   4.139   6.935
 1099SOL     OW 4195   5.366   0.670   6.244
 1099SOL    HW1 4196   5.323   0.590   6.201
 1099SOL    HW2 4197   5.363   0.660   6.343
 1100SOL     OW 4198   4.660   1.638   4.666
 1100SOL    HW1 4199   4.754   1.629   4.635
 1100SOL    HW2 4200   4.616   1.549   4.668
 1101SOL     OW 4201   4.957   2.663   6.398
 1101SOL    HW1 4202   4.909   2.575   6.407
 1101SOL    HW2 4203   4.985   2.695   6.488
 1102SOL     OW 4204   2.848   0.678   4.000
 1102SOL    HW1 4205   2.780   0.619   3.958
 1102SOL    HW2 4206   2.816   0.772   4.000
 1103SOL     OW 4207   3.316   5.833   1.057
 1103SOL    HW1 4208   3.407   5.874   1.066
 1103SOL    HW2 4209   3.323   5.734   1.066
 1104SOL     OW 4210   6.716   1.734   3.943
 1104SOL    HW1 4211   6.708   1.797   4.020
 1104SOL    HW2 4212   6.744   1.784   3.861
 1105SOL     OW 4213   4.848   0.757   6.487
 1105SOL    HW1 4214   4.872   0.740   6.391
 1105SOL    HW2 4215   4.922   0.727   6.546
 1106SOL     OW 4216   6.050   1.827   1.588
 1106SOL    HW1 4217   6.054   1.745   1.646
 1106SOL    HW2 4218   5.976   1.886   1.620
 1107SOL     OW 4219   1.291   1.896   0.458
 1107SOL    HW1 4220   1.299   1.886   0.358
 1107SOL    HW2 4221   1.254   1.986   0.479
 1108SOL     OW 4222   2.462   1.352   3.566
 1108SOL    HW1 4223   2.485   1.272   3.511
 1108SOL    HW2 4224   2.390   1.404   3.521
 1109SOL     OW 4225   5.115   1.986   5.292
 1109SOL    HW1 4226   5.102   2.077   5.252
 1109SOL    HW2 4227   5.213   1.966   5.297
 1110SOL     OW 4228   1.323   0.759   2.676
 1110SOL    HW1 4229   1.345   0.752   2.773
 1110SOL    HW2 4230   1.298   0.669   2.641
 1111SOL     OW 4231   5.672   2.957   6.053
 1111SOL    HW1 4232   5.618   3.038   6.076
 1111SOL    HW2 4233   5.611   2.879   6.041
 1112SOL     OW 4234   5.941   0.532   2.594
 1112SOL    HW1 4235   5.854   0.511   2.639
 1112SOL    HW2 4236   5.974   0.621   2.625
 1113SOL     OW 4237   6.434   2.617   3.007
 1113SOL    HW1 4238   6.441   2.712   2.978
 1113SOL    HW2 4239   6.497   2.561   2.952
 1114SOL     OW 4240   3.530   3.350   4.817
 1114SOL    HW1 4241   3.476   3.267   4.804
 1114SOL    HW2 4242   3.553   3.389   4.728
 1115SOL     OW 4243   1.930   5.096   5.807
 1115SOL    HW1 4244   1.928   5.061   5.714
 1115SOL    HW2 4245   1.843   5.140   5.828
 1116SOL     OW 4246   4.242   0.059   0.332
 1116SOL    HW1 4247   4.165   0.034   0.274
 1116SOL    HW2 4248   4.324   0.069   0.276
 1117SOL     OW 4249   2.008   2.503   1.705
 1117SOL    HW1 4250   2.086   2.522   1.646
 1117SOL    HW2 4251   1.923   2.513   1.652
 1118SOL     OW 4252   4.792   6.725   0.261
 1118SOL    HW1 4253   4.883   6.725   0.220
 1118SOL    HW2 4254   4.756   6.632   0.262
 1119SOL     OW 4255   2.814   5.244   3.888
 1119SOL    HW1 4256   2.903   5.251   3.933
 1119SOL    HW2 4257   2.827   5.211   3.795
 1120SOL     OW 4258   6.758   3.459   1.432
 1120SOL    HW1 4259   6.821   3.535   1.446
 1120SOL    HW2 4260   6.760   3.399   1.512
 1121SOL     OW 4261   6.079   4.768   5.623
 1121SOL    HW1 4262   5.998   4.823   5.601
 1121SOL    HW2 4263   6.056   4.671   5.616
 1122SOL     OW 4264   6.055   1.361   1.842
 1122SOL    HW1 4265   6.154   1.372   1.842
 1122SOL    HW2 4266   6.031   1.276   1.796
 1123SOL     OW 4267   4.185   1.733   4.531
 1123SOL    HW1 4268   4.151   1.788   4.607
 1123SOL    HW2 4269   4.110   1.706   4.472
 1124SOL     OW 4270   2.199   2.827   3.764
 1124SOL    HW1 4271   2.240   2.737   3.746
 1124SOL    HW2 4272   2.231   2.861   3.853
 1125SOL     OW 4273   1.227   3.151   3.683
 1125SOL    HW1 4274   1.129   3.136   3.679
 1125SOL    HW2 4275   1.246   3.247   3.707
 1126SOL     OW 4276   4.095   4.760   4.015
 1126SOL    HW1 4277   4.166   4.705   4.060
 1126SOL    HW2 4278   4.051   4.706   3.944
 1127SOL     OW 4279   6.362   6.822   1.304
 1127SOL    HW1 4280   6.395   6.749   1.244
 1127SOL    HW2 4281   6.273   6.795   1.342
 1128SOL     OW 4282   4.146   1.496   4.842
 1128SOL    HW1 4283   4.083   1.472   4.916
 1128SOL    HW2 4284   4.237   1.461   4.863
 1129SOL     OW 4285   1.300   0.895   0.231
 1129SOL    HW1 4286   1.383   0.901   0.285
 1129SOL    HW2 4287   1.236   0.967   0.258
 1130SOL     OW 4288   2.020   5.415   2.110
 1130SOL    HW1 4289   2.026   5.365   2.023
 1130SOL    HW2 4290   1.929   5.404   2.149
 1131SOL     OW 4291   1.680   5.200   3.714
 1131SOL    HW1 4292   1.634   5.247   3.639
 1131SOL    HW2 4293   1.779   5.211   3.705
 1132SOL     OW 4294   1.451   1.804   2.832
 1132SOL    HW1 4295   1.386   1.869   2.793
 1132SOL    HW2 4296   1.535   1.853   2.857
 1133SOL     OW 4297   1.315   6.317   6.573
 1133SOL    HW1 4298   1.412   6.332   6.593
 1133SOL    HW2 4299   1.284   6.385   6.507
 1134SOL     OW 4300   4.667   5.563   0.906
 1134SOL    HW1 4301   4.628   5.493   0.966
 1134SOL    HW2 4302   4.673   5.528   0.813
 1135SOL     OW 4303   1.586   0.354   3.137
 1135SOL    HW1 4304   1.514   0.421   3.156
 1135SOL    HW2 4305   1.671   0.381   3.183
 1136SOL     OW 4306   1.587   5.019   2.452
 1136SOL    HW1 4307   1.674   5.010   2.405
 1136SOL    HW2 4308   1.592   5.094   2.518
 1137SOL     OW 4309   0.577   5.511   4.296
 1137SOL    HW1 4310   0.509   5.530   4.367
 1137SOL    HW2 4311   0.583   5.412   4.283
 1138SOL     OW 4312   1.836   3.841   4.886
 1138SOL    HW1 4313   1.796   3.858   4.976
 1138SOL    HW2 4314   1.766   3.804   4.826
 1139SOL     OW 4315   2.693   5.842   5.117
 1139SOL    HW1 4316   2.712   5.750   5.149
 1139SOL    HW2 4317   2.609   5.842   5.063
 1140SOL     OW 4318   2.269   2.276   1.636
 1140SOL    HW1 4319   2.310   2.191   1.603
 1140SOL    HW2 4320   2.225   2.260   1.724
 1141SOL     OW 4321   6.113   5.186   5.297
 1141SOL    HW1 4322   6.133   5.181   5.199
 1141SOL    HW2 4323   6.165   5.114   5.344
 1142SOL     OW 4324   1.020   5.688   2.804
 1142SOL    HW1 4325   1.006   5.613   2.740
 1142SOL    HW2 4326   0.964   5.767   2.775
 1143SOL     OW 4327   0.097   4.393   1.596
 1143SOL    HW1 4328   0.057   4.359   1.682
 1143SOL    HW2 4329   0.078   4.490   1.586
 1144SOL     OW 4330   5.143   4.385   0.628
 1144SOL    HW1 4331   5.088   4.433   0.697
 1144SOL    HW2 4332   5.121   4.421   0.537
 1145SOL     OW 4333   6.271   0.380   0.604
 1145SOL    HW1 4334   6.235   0.424   0.522
 1145SOL    HW2 4335   6.264   0.280   0.595
 1146SOL     OW 4336   1.507   1.193   1.354
 1146SOL    HW1 4337   1.562   1.232   1.280
 1146SOL    HW2 4338   1.567   1.163   1.428
 1147SOL     OW 4339   1.701   6.391   1.080
 1147SOL    HW1 4340   1.760   6.330   1.132
 1147SOL    HW2 4341   1.656   6.455   1.142
 1148SOL     OW 4342   3.759   5.953   2.321
 1148SOL    HW1 4343   3.679   6.014   2.316
 1148SOL    HW2 4344   3.753   5.898   2.405
 1149SOL     OW 4345   5.123   2.431   1.650
 1149SOL    HW1 4346   5.115   2.431   1.750
 1149SOL    HW2 4347   5.034   2.448   1.609
 1150SOL     OW 4348   0.830   2.630   1.040
 1150SOL    HW1 4349   0.888   2.601   1.116
 1150SOL    HW2 4350   0.850   2.725   1.016
 1151SOL     OW 4351   5.381   5.443   4.130
 1151SOL    HW1 4352   5.410   5.348   4.121
 1151SOL    HW2 4353   5.448   5.493   4.184
 1152SOL     OW 4354   3.489   6.532   6.122
 1152SOL    HW1 4355   3.471   6.475   6.041
 1152SOL    HW2 4356   3.539   6.478   6.190
 1153SOL     OW 4357   5.697   6.751   1.269
 1153SOL    HW1 4358   5.792   6.755   1.301
 1153SOL    HW2 4359   5.636   6.782   1.342
 1154SOL     OW 4360   1.690   3.246   0.671
 1154SOL    HW1 4361   1.740   3.166   0.705
 1154SOL    HW2 4362   1.593   3.223   0.664
 1155SOL     OW 4363   3.581   5.989   3.408
 1155SOL    HW1 4364   3.671   6.018   3.376
 1155SOL    HW2 4365   3.592   5.923   3.482
 1156SOL     OW 4366   2.882   1.396   1.892
 1156SOL    HW1 4367   2.895   1.319   1.829
 1156SOL    HW2 4368   2.860   1.478   1.840
 1157SOL     OW 4369   2.752   2.089   0.535
 1157SOL    HW1 4370   2.804   2.037   0.602
 1157SOL    HW2 4371   2.737   2.182   0.568
 1158SOL     OW 4372   5.372   4.577   3.948
 1158SOL    HW1 4373   5.436   4.651   3.968
 1158SOL    HW2 4374   5.279   4.607   3.967
 1159SOL     OW 4375   6.092   4.575   0.723
 1159SOL    HW1 4376   6.015   4.563   0.786
 1159SOL    HW2 4377   6.060   4.622   0.640
 1160SOL     OW 4378   4.744   2.219   0.429
 1160SOL    HW1 4379   4.817   2.151   0.429
 1160SOL    HW2 4380   4.699   2.220   0.518
 1161SOL     OW 4381   6.333   5.280   0.672
 1161SOL    HW1 4382   6.395   5.270   0.751
 1161SOL    HW2 4383   6.387   5.294   0.589
 1162SOL     OW 4384   2.489   2.352   4.754
 1162SOL    HW1 4385   2.498   2.256   4.727
 1162SOL    HW2 4386   2.403   2.364   4.803
 1163SOL     OW 4387   5.351   2.105   1.923
 1163SOL    HW1 4388   5.274   2.088   1.862
 1163SOL    HW2 4389   5.349   2.040   1.999
 1164SOL     OW 4390   4.474   2.112   5.805
 1164SOL    HW1 4391   4.384   2.125   5.764
 1164SOL    HW2 4392   4.463   2.083   5.900
 1165SOL     OW 4393   4.576   0.072   3.384
 1165SOL    HW1 4394   4.594   6.994   3.366
 1165SOL    HW2 4395   4.482   0.084   3.416
 1166SOL     OW 4396   3.482   4.214   6.384
 1166SOL    HW1 4397   3.495   4.220   6.483
 1166SOL    HW2 4398   3.419   4.285   6.353
 1167SOL     OW 4399   4.862   4.584   3.009
 1167SOL    HW1 4400   4.763   4.585   3.017
 1167SOL    HW2 4401   4.902   4.653   3.069
 1168SOL     OW 4402   0.551   0.120   1.160
 1168SOL    HW1 4403   0.528   0.028   1.130
 1168SOL    HW2 4404   0.527   0.186   1.089
 1169SOL     OW 4405   4.636   1.868   5.322
 1169SOL    HW1 4406   4.629   1.796   5.252
 1169SOL    HW2 4407   4.652   1.956   5.277
 1170SOL     OW 4408   5.091   4.716   2.746
 1170SOL    HW1 4409   5.079   4.805   2.791
 1170SOL    HW2 4410   5.002   4.677   2.724
 1171SOL     OW 4411   0.253   6.413   0.978
 1171SOL    HW1 4412   0.292   6.351   1.046
 1171SOL    HW2 4413   0.165   6.447   1.011
 1172SOL     OW 4414   5.920   3.127   6.706
 1172SOL    HW1 4415   5.936   3.214   6.752
 1172SOL    HW2 4416   5.981   3.119   6.627
 1173SOL     OW 4417   4.018   2.658   0.865
 1173SOL    HW1 4418   3.971   2.746   0.873
 1173SOL    HW2 4419   3.951   2.585   0.851
 1174SOL     OW 4420   2.482   4.760   0.283
 1174SOL    HW1 4421   2.389   4.729   0.263
 1174SOL    HW2 4422   2.527   4.788   0.199
 1175SOL     OW 4423   2.951   3.846   4.066
 1175SOL    HW1 4424   2.900   3.892   4.138
 1175SOL    HW2 4425   3.034   3.806   4.105
 1176SOL     OW 4426   5.501   3.023   6.433
 1176SOL    HW1 4427   5.574   2.998   6.497
 1176SOL    HW2 4428   5.542   3.062   6.350
 1177SOL     OW 4429   1.144   1.946   5.087
 1177SOL    HW1 4430   1.198   1.867   5.116
 1177SOL    HW2 4431   1.175   1.976   4.997
 1178SOL     OW 4432   4.480   6.716   0.138
 1178SOL    HW1 4433   4.565   6.666   0.117
 1178SOL    HW2 4434   4.484   6.806   0.096
 1179SOL     OW 4435   0.144   6.066   0.355
 1179SOL    HW1 4436   0.063   6.053   0.298
 1179SOL    HW2 4437   0.200   5.984   0.352
 1180SOL     OW 4438   3.667   5.986   0.532
 1180SOL    HW1 4439   3.745   5.930   0.560
 1180SOL    HW2 4440   3.583   5.931   0.537
 1181SOL     OW 4441   6.579   6.257   6.393
 1181SOL    HW1 4442   6.521   6.193   6.444
 1181SOL    HW2 4443   6.569   6.348   6.432
 1182SOL     OW 4444   4.879   3.933   3.253
 1182SOL    HW1 4445   4.826   3.977   3.180
 1182SOL    HW2 4446   4.829   3.943   3.340
 1183SOL     OW 4447   1.772   4.442   6.921
 1183SOL    HW1 4448   1.820   4.441   6.833
 1183SOL    HW2 4449   1.679   4.406   6.909
 1184SOL     OW 4450   0.039   0.572   5.598
 1184SOL    HW1 4451   6.984   0.575   5.529
 1184SOL    HW2 4452   0.109   0.507   5.569
 1185SOL     OW 4453   6.199   1.559   6.924
 1185SOL    HW1 4454   6.287   1.607   6.920
 1185SOL    HW2 4455   6.175   1.525   6.833
 1186SOL     OW 4456   5.576   0.095   4.656
 1186SOL    HW1 4457   5.511   0.164   4.688
 1186SOL    HW2 4458   5.613   0.045   4.734
 1187SOL     OW 4459   6.507   1.799   6.313
 1187SOL    HW1 4460   6.547   1.848   6.390
 1187SOL    HW2 4461   6.560   1.716   6.296
 1188SOL     OW 4462   3.760   1.631   6.713
 1188SOL    HW1 4463   3.664   1.659   6.701
 1188SOL    HW2 4464   3.771   1.589   6.803
 1189SOL     OW 4465   5.557   3.203   3.471
 1189SOL    HW1 4466   5.606   3.229   3.555
 1189SOL    HW2 4467   5.516   3.113   3.483
 1190SOL     OW 4468   3.009   6.858   3.735
 1190SOL    HW1 4469   2.916   6.888   3.711
 1190SOL    HW2 4470   3.007   6.807   3.821
 1191SOL     OW 4471   3.712   6.628   2.845
 1191SOL    HW1 4472   3.651   6.672   2.779
 1191SOL    HW2 4473   3.659   6.592   2.921
 1192SOL     OW 4474   6.176   5.522   3.740
 1192SOL    HW1 4475   6.232   5.596   3.778
 1192SOL    HW2 4476   6.099   5.561   3.690
 1193SOL     OW 4477   6.660   5.890   4.526
 1193SOL    HW1 4478   6.695   5.983   4.531
 1193SOL    HW2 4479   6.563   5.891   4.504
 1194SOL     OW 4480   3.611   6.930   0.965
 1194SOL    HW1 4481   3.667   6.877   0.901
 1194SOL    HW2 4482   3.581   7.015   0.921
 1195SOL     OW 4483   5.146   2.299   3.254
 1195SOL    HW1 4484   5.232   2.351   3.247
 1195SOL    HW2 4485   5.074   2.346   3.203
 1196SOL     OW 4486   0.008   6.733   5.038
 1196SOL    HW1 4487   0.081   6.672   5.068
 1196SOL    HW2 4488   0.039   6.784   4.958
 1197SOL     OW 4489   1.805   6.030   0.417
 1197SOL    HW1 4490   1.903   6.048   0.429
 1197SOL    HW2 4491   1.754   6.075   0.491
 1198SOL     OW 4492   1.635   2.214   6.889
 1198SOL    HW1 4493   1.725   2.220   6.931
 1198SOL    HW2 4494   1.625   2.126   6.841
 1199SOL     OW 4495   6.297   3.737   1.907
 1199SOL    HW1 4496   6.332   3.708   1.996
 1199SOL    HW2 4497   6.232   3.812   1.920
 1200SOL     OW 4498   3.387   4.095   2.619
 1200SOL    HW1 4499   3.467   4.103   2.678
 1200SOL    HW2 4500   3.304   4.106   2.675
 1201SOL     OW 4501   1.117   2.008   4.815
 1201SOL    HW1 4502   1.058   2.081   4.781
 1201SOL    HW2 4503   1.100   1.925   4.762
 1202SOL     OW 4504   1.152   5.460   5.066
 1202SOL    HW1 4505   1.093   5.522   5.014
 1202SOL    HW2 4506   1.188   5.508   5.146
 1203SOL     OW 4507   3.782   6.250   5.396
 1203SOL    HW1 4508   3.785   6.267   5.297
 1203SOL    HW2 4509   3.862   6.291   5.439
 1204SOL     OW 4510   1.931   6.808   3.097
 1204SOL    HW1 4511   1.881   6.734   3.141
 1204SOL    HW2 4512   1.873   6.849   3.027
 1205SOL     OW 4513   5.691   3.777   2.052
 1205SOL    HW1 4514   5.669   3.706   1.985
 1205SOL    HW2 4515   5.682   3.739   2.144
 1206SOL     OW 4516   3.352   3.590   4.461
 1206SOL    HW1 4517   3.296   3.548   4.532
 1206SOL    HW2 4518   3.371   3.685   4.486
 1207SOL     OW 4519   1.200   5.916   2.738
 1207SOL    HW1 4520   1.166   6.009   2.723
 1207SOL    HW2 4521   1.147   5.873   2.811
 1208SOL     OW 4522   3.250   3.562   6.348
 1208SOL    HW1 4523   3.166   3.615   6.355
 1208SOL    HW2 4524   3.254   3.517   6.259
 1209SOL     OW 4525   3.862   6.533   5.091
 1209SOL    HW1 4526   3.884   6.523   5.188
 1209SOL    HW2 4527   3.803   6.458   5.063
 1210SOL     OW 4528   3.407   0.990   2.726
 1210SOL    HW1 4529   3.483   0.944   2.679
 1210SOL    HW2 4530   3.388   1.077   2.681
 1211SOL     OW 4531   0.733   2.791   0.362
 1211SOL    HW1 4532   0.792   2.811   0.284
 1211SOL    HW2 4533   0.643   2.761   0.330
 1212SOL     OW 4534   1.126   7.006   0.204
 1212SOL    HW1 4535   1.118   7.008   0.104
 1212SOL    HW2 4536   1.144   6.913   0.234
 1213SOL     OW 4537   5.483   3.265   1.459
 1213SOL    HW1 4538   5.433   3.179   1.446
 1213SOL    HW2 4539   5.446   3.313   1.539
 1214SOL     OW 4540   0.093   2.775   2.195
 1214SOL    HW1 4541   0.095   2.870   2.227
 1214SOL    HW2 4542   0.183   2.734   2.208
 1215SOL     OW 4543   1.951   5.948   2.804
 1215SOL    HW1 4544   2.051   5.960   2.799
 1215SOL    HW2 4545   1.915   5.932   2.712
 1216SOL     OW 4546   3.670   0.033   1.802
 1216SOL    HW1 4547   3.667   0.088   1.719
 1216SOL    HW2 4548   3.580   0.033   1.845
 1217SOL     OW 4549   2.967   4.151   6.660
 1217SOL    HW1 4550   2.986   4.189   6.750
 1217SOL    HW2 4551   3.039   4.087   6.635
 1218SOL     OW 4552   2.439   4.817   3.507
 1218SOL    HW1 4553   2.401   4.776   3.590
 1218SOL    HW2 4554   2.478   4.906   3.529
 1219SOL     OW 4555   4.014   6.009   1.938
 1219SOL    HW1 4556   4.077   5.967   1.872
 1219SOL    HW2 4557   3.967   6.086   1.896
 1220SOL     OW 4558   0.736   4.710   1.966
 1220SOL    HW1 4559   0.763   4.648   2.039
 1220SOL    HW2 4560   0.786   4.687   1.882
 1221SOL     OW 4561   4.135   4.467   6.502
 1221SOL    HW1 4562   4.158   4.461   6.405
 1221SOL    HW2 4563   4.129   4.375   6.541
 1222SOL     OW 4564   6.684   0.862   6.645
 1222SOL    HW1 4565   6.632   0.946   6.630
 1222SOL    HW2 4566   6.657   0.821   6.732
 1223SOL     OW 4567   3.782   6.506   1.113
 1223SOL    HW1 4568   3.837   6.584   1.083
 1223SOL    HW2 4569   3.813   6.476   1.203
 1224SOL     OW 4570   3.249   1.130   1.761
 1224SOL    HW1 4571   3.193   1.095   1.836
 1224SOL    HW2 4572   3.327   1.069   1.746
 1225SOL     OW 4573   3.044   3.589   5.976
 1225SOL    HW1 4574   3.133   3.633   5.971
 1225SOL    HW2 4575   3.033   3.525   5.900
 1226SOL     OW 4576   2.235   5.133   0.437
 1226SOL    HW1 4577   2.179   5.188   0.498
 1226SOL    HW2 4578   2.187   5.119   0.350
 1227SOL     OW 4579   1.070   3.709   5.869
 1227SOL    HW1 4580   0.994   3.644   5.872
 1227SOL    HW2 4581   1.074   3.760   5.955
 1228SOL     OW 4582   4.103   1.972   0.202
 1228SOL    HW1 4583   4.189   2.024   0.198
 1228SOL    HW2 4584   4.067   1.961   0.109
 1229SOL     OW 4585   3.141   4.065   6.326
 1229SOL    HW1 4586   3.147   4.157   6.290
 1229SOL    HW2 4587   3.221   4.012   6.299
 1230SOL     OW 4588   4.453   0.510   3.793
 1230SOL    HW1 4589   4.380   0.499   3.860
 1230SOL    HW2 4590   4.467   0.423   3.745
 1231SOL     OW 4591   0.787   3.546   3.935
 1231SOL    HW1 4592   0.704   3.562   3.880
 1231SOL    HW2 4593   0.800   3.623   3.997
 1232SOL     OW 4594   2.309   2.900   2.866
 1232SOL    HW1 4595   2.297   2.942   2.776
 1232SOL    HW2 4596   2.253   2.948   2.933
 1233SOL     OW 4597   0.962   2.573   4.079
 1233SOL    HW1 4598   0.997   2.548   3.989
 1233SOL    HW2 4599   0.913   2.660   4.073
 1234SOL     OW 4600   6.286   4.607   4.209
 1234SOL    HW1 4601   6.324   4.657   4.131
 1234SOL    HW2 4602   6.197   4.569   4.185
 1235SOL     OW 4603   6.716   5.652   3.664
 1235SOL    HW1 4604   6.622   5.662   3.695
 1235SOL    HW2 4605   6.718   5.601   3.578
 1236SOL     OW 4606   5.490   1.005   6.384
 1236SOL    HW1 4607   5.539   0.927   6.344
 1236SOL    HW2 4608   5.419   0.971   6.446
 1237SOL     OW 4609   2.065   4.598   5.871
 1237SOL    HW1 4610   2.108   4.688   5.879
 1237SOL    HW2 4611   1.967   4.609   5.852
 1238SOL     OW 4612   1.849   1.497   0.864
 1238SOL    HW1 4613   1.900   1.572   0.821
 1238SOL    HW2 4614   1.756   1.528   0.886
 1239SOL     OW 4615   1.151   0.495   6.116
 1239SOL    HW1 4616   1.202   0.421   6.159
 1239SOL    HW2 4617   1.112   0.463   6.030
 1240SOL     OW 4618   4.904   5.415   1.215
 1240SOL    HW1 4619   4.826   5.366   1.175
 1240SOL    HW2 4620   4.877   5.455   1.303
 1241SOL     OW 4621   0.203   2.109   4.553
 1241SOL    HW1 4622   0.109   2.129   4.527
 1241SOL    HW2 4623   0.206   2.027   4.610
 1242SOL     OW 4624   2.145   2.051   6.326
 1242SOL    HW1 4625   2.073   2.017   6.387
 1242SOL    HW2 4626   2.121   2.143   6.294
 1243SOL     OW 4627   2.310   4.981   5.044
 1243SOL    HW1 4628   2.378   5.026   4.987
 1243SOL    HW2 4629   2.348   4.967   5.136
 1244SOL     OW 4630   0.278   2.190   2.900
 1244SOL    HW1 4631   0.341   2.260   2.866
 1244SOL    HW2 4632   0.185   2.211   2.871
 1245SOL     OW 4633   2.959   2.872   5.660
 1245SOL    HW1 4634   3.037   2.935   5.668
 1245SOL    HW2 4635   2.927   2.870   5.565
 1246SOL     OW 4636   1.213   6.552   1.024
 1246SOL    HW1 4637   1.278   6.547   0.948
 1246SOL    HW2 4638   1.176   6.461   1.043
 1247SOL     OW 4639   1.277   6.451   6.322
 1247SOL    HW1 4640   1.352   6.516   6.310
 1247SOL    HW2 4641   1.192   6.491   6.288
 1248SOL     OW 4642   2.320   6.801   3.708
 1248SOL    HW1 4643   2.268   6.719   3.684
 1248SOL    HW2 4644   2.416   6.788   3.681
 1249SOL     OW 4645   5.605   2.679   3.110
 1249SOL    HW1 4646   5.659   2.749   3.157
 1249SOL    HW2 4647   5.603   2.595   3.165
 1250SOL     OW 4648   0.086   3.654   4.332
 1250SOL    HW1 4649   0.146   3.575   4.346
 1250SOL    HW2 4650   0.049   3.683   4.420
 1251SOL     OW 4651   3.411   0.694   6.663
 1251SOL    HW1 4652   3.430   0.687   6.761
 1251SOL    HW2 4653   3.454   0.776   6.626
 1252SOL     OW 4654   3.195   4.166   0.303
 1252SOL    HW1 4655   3.214   4.068   0.311
 1252SOL    HW2 4656   3.245   4.203   0.225
 1253SOL     OW 4657   4.571   0.844   2.840
 1253SOL    HW1 4658   4.502   0.907   2.807
 1253SOL    HW2 4659   4.534   0.790   2.916
 1254SOL     OW 4660   5.436   1.072   3.479
 1254SOL    HW1 4661   5.463   0.993   3.423
 1254SOL    HW2 4662   5.439   1.155   3.422
 1255SOL     OW 4663   6.194   0.418   1.456
 1255SOL    HW1 4664   6.211   0.506   1.410
 1255SOL    HW2 4665   6.158   0.352   1.391
 1256SOL     OW 4666   4.828   2.427   3.874
 1256SOL    HW1 4667   4.773   2.448   3.793
 1256SOL    HW2 4668   4.769   2.430   3.955
 1257SOL     OW 4669   5.975   0.839   4.476
 1257SOL    HW1 4670   5.934   0.822   4.566
 1257SOL    HW2 4671   5.918   0.904   4.426
 1258SOL     OW 4672   0.036   5.520   3.556
 1258SOL    HW1 4673   7.016   5.554   3.470
 1258SOL    HW2 4674   7.011   5.432   3.578
 1259SOL     OW 4675   5.099   2.057   4.818
 1259SOL    HW1 4676   5.037   2.130   4.791
 1259SOL    HW2 4677   5.061   2.008   4.897
 1260SOL     OW 4678   0.508   1.657   5.131
 1260SOL    HW1 4679   0.534   1.561   5.137
 1260SOL    HW2 4680   0.590   1.713   5.116
 1261SOL     OW 4681   6.668   3.605   1.121
 1261SOL    HW1 4682   6.669   3.525   1.061
 1261SOL    HW2 4683   6.596   3.668   1.091
 1262SOL     OW 4684   5.077   6.101   2.264
 1262SOL    HW1 4685   5.095   6.097   2.362
 1262SOL    HW2 4686   5.134   6.172   2.222
 1263SOL     OW 4687   0.297   2.260   3.301
 1263SOL    HW1 4688   0.260   2.329   3.237
 1263SOL    HW2 4689   0.291   2.295   3.394
 1264SOL     OW 4690   0.705   2.626   5.201
 1264SOL    HW1 4691   0.781   2.680   5.237
 1264SOL    HW2 4692   0.691   2.546   5.258
 1265SOL     OW 4693   5.741   0.103   5.592
 1265SOL    HW1 4694   5.782   0.194   5.596
 1265SOL    HW2 4695   5.661   0.100   5.652
 1266SOL     OW 4696   3.174   1.296   5.003
 1266SOL    HW1 4697   3.218   1.262   5.086
 1266SOL    HW2 4698   3.075   1.300   5.016
 1267SOL     OW 4699   3.031   0.002   2.241
 1267SOL    HW1 4700   3.005   6.957   2.168
 1267SOL    HW2 4701   2.960   0.071   2.253
 1268SOL     OW 4702   4.059   2.243   5.275
 1268SOL    HW1 4703   4.069   2.205   5.366
 1268SOL    HW2 4704   4.009   2.330   5.280
 1269SOL     OW 4705   5.355   1.740   3.762
 1269SOL    HW1 4706   5.309   1.661   3.804
 1269SOL    HW2 4707   5.396   1.712   3.676
 1270SOL     OW 4708   6.497   5.413   3.129
 1270SOL    HW1 4709   6.422   5.347   3.127
 1270SOL    HW2 4710   6.466   5.496   3.175
 1271SOL     OW 4711   1.585   1.129   1.846
 1271SOL    HW1 4712   1.589   1.224   1.814
 1271SOL    HW2 4713   1.559   1.128   1.943
 1272SOL     OW 4714   5.968   2.877   0.776
 1272SOL    HW1 4715   5.974   2.967   0.819
 1272SOL    HW2 4716   5.949   2.808   0.846
 1273SOL     OW 4717   1.880   4.142   5.719
 1273SOL    HW1 4718   1.965   4.184   5.684
 1273SOL    HW2 4719   1.802   4.180   5.671
 1274SOL     OW 4720   0.217   4.063   3.845
 1274SOL    HW1 4721   0.217   4.144   3.904
 1274SOL    HW2 4722   0.312   4.034   3.831
 1275SOL     OW 4723   1.992   1.700   2.993
 1275SOL    HW1 4724   1.956   1.729   2.904
 1275SOL    HW2 4725   1.946   1.752   3.066
 1276SOL     OW 4726   5.620   4.451   3.821
 1276SOL    HW1 4727   5.550   4.505   3.868
 1276SOL    HW2 4728   5.643   4.495   3.734
 1277SOL     OW 4729   1.530   5.870   6.619
 1277SOL    HW1 4730   1.614   5.885   6.566
 1277SOL    HW2 4731   1.453   5.910   6.570
 1278SOL     OW 4732   0.430   5.789   2.720
 1278SOL    HW1 4733   0.342   5.837   2.722
 1278SOL    HW2 4734   0.431   5.718   2.790
 1279SOL     OW 4735   2.576   3.322   0.713
 1279SOL    HW1 4736   2.673   3.344   0.704
 1279SOL    HW2 4737   2.547   3.267   0.635
 1280SOL     OW 4738   2.367   2.618   3.737
 1280SOL    HW1 4739   2.346   2.549   3.807
 1280SOL    HW2 4740   2.439   2.582   3.677
 1281SOL     OW 4741   5.263   6.426   5.337
 1281SOL    HW1 4742   5.258   6.495   5.408
 1281SOL    HW2 4743   5.275   6.336   5.378
 1282SOL     OW 4744   0.624   2.900   1.245
 1282SOL    HW1 4745   0.545   2.897   1.306
 1282SOL    HW2 4746   0.592   2.899   1.150
 1283SOL     OW 4747   0.367   1.243   4.538
 1283SOL    HW1 4748   0.410   1.195   4.462
 1283SOL    HW2 4749   0.386   1.341   4.531
 1284SOL     OW 4750   3.780   2.026   1.842
 1284SOL    HW1 4751   3.747   2.105   1.892
 1284SOL    HW2 4752   3.842   2.055   1.770
 1285SOL     OW 4753   4.321   1.482   4.505
 1285SOL    HW1 4754   4.274   1.557   4.552
 1285SOL    HW2 4755   4.333   1.505   4.409
 1286SOL     OW 4756   4.626   1.032   2.116
 1286SOL    HW1 4757   4.561   1.096   2.074
 1286SOL    HW2 4758   4.708   1.082   2.144
 1287SOL     OW 4759   5.006   4.892   6.188
 1287SOL    HW1 4760   5.051   4.927   6.270
 1287SOL    HW2 4761   5.030   4.949   6.110
 1288SOL     OW 4762   4.413   4.243   6.525
 1288SOL    HW1 4763   4.462   4.329   6.515
 1288SOL    HW2 4764   4.424   4.209   6.618
 1289SOL     OW 4765   0.567   6.499   0.505
 1289SOL    HW1 4766   0.644   6.547   0.464
 1289SOL    HW2 4767   0.601   6.431   0.570
 1290SOL     OW 4768   1.467   6.667   5.043
 1290SOL    HW1 4769   1.556   6.631   5.073
 1290SOL    HW2 4770   1.471   6.688   4.945
 1291SOL     OW 4771   5.471   5.214   3.719
 1291SOL    HW1 4772   5.563   5.204   3.756
 1291SOL    HW2 4773   5.476   5.236   3.621
 1292SOL     OW 4774   0.628   6.577   2.752
 1292SOL    HW1 4775   0.659   6.665   2.715
 1292SOL    HW2 4776   0.554   6.541   2.696
 1293SOL     OW 4777   5.337   0.137   1.092
 1293SOL    HW1 4778   5.259   0.199   1.099
 1293SOL    HW2 4779   5.310   0.046   1.124
 1294SOL     OW 4780   2.272   4.466   5.380
 1294SOL    HW1 4781   2.271   4.371   5.347
 1294SOL    HW2 4782   2.253   4.528   5.304
 1295SOL     OW 4783   0.201   4.645   0.223
 1295SOL    HW1 4784   0.165   4.702   0.297
 1295SOL    HW2 4785   0.129   4.627   0.156
 1296SOL     OW 4786   4.549   0.475   5.679
 1296SOL    HW1 4787   4.554   0.516   5.770
 1296SOL    HW2 4788   4.511   0.542   5.615
 1297SOL     OW 4789   6.319   6.833   6.931
 1297SOL    HW1 4790   6.318   6.932   6.919
 1297SOL    HW2 4791   6.307   6.811   0.010
 1298SOL     OW 4792   5.353   0.306   3.140
 1298SOL    HW1 4793   5.372   0.269   3.049
 1298SOL    HW2 4794   5.255   0.305   3.157
 1299SOL     OW 4795   0.949   4.084   4.661
 1299SOL    HW1 4796   0.973   3.989   4.683
 1299SOL    HW2 4797   1.018   4.123   4.601
 1300SOL     OW 4798   1.391   5.442   0.161
 1300SOL    HW1 4799   1.421   5.520   0.107
 1300SOL    HW2 4800   1.361   5.369   0.100
 1301SOL     OW 4801   6.200   1.143   0.314
 1301SOL    HW1 4802   6.132   1.210   0.284
 1301SOL    HW2 4803   6.291   1.184   0.311
 1302SOL     OW 4804   7.004   0.041   5.077
 1302SOL    HW1 4805   0.030   0.002   4.997
 1302SOL    HW2 4806   7.007   6.994   5.153
 1303SOL     OW 4807   3.275   6.659   1.508
 1303SOL    HW1 4808   3.208   6.640   1.436
 1303SOL    HW2 4809   3.312   6.751   1.496
 1304SOL     OW 4810   0.166   0.368   0.387
 1304SOL    HW1 4811   0.171   0.463   0.420
 1304SOL    HW2 4812   0.147   0.368   0.289
 1305SOL     OW 4813   4.251   3.908   6.122
 1305SOL    HW1 4814   4.351   3.916   6.129
 1305SOL    HW2 4815   4.213   3.881   6.210
 1306SOL     OW 4816   2.970   6.397   4.280
 1306SOL    HW1 4817   3.068   6.407   4.300
 1306SOL    HW2 4818   2.956   6.394   4.181
 1307SOL     OW 4819   2.214   3.172   4.299
 1307SOL    HW1 4820   2.249   3.263   4.280
 1307SOL    HW2 4821   2.202   3.160   4.398
 1308SOL     OW 4822   6.724   3.478   6.124
 1308SOL    HW1 4823   6.710   3.392   6.171
 1308SOL    HW2 4824   6.636   3.515   6.092
 1309SOL     OW 4825   5.771   4.142   6.472
 1309SOL    HW1 4826   5.676   4.162   6.450
 1309SOL    HW2 4827   5.778   4.047   6.505
 1310SOL     OW 4828   2.142   3.217   3.285
 1310SOL    HW1 4829   2.156   3.200   3.382
 1310SOL    HW2 4830   2.057   3.268   3.272
 1311SOL     OW 4831   5.603   5.285   0.276
 1311SOL    HW1 4832   5.571   5.310   0.184
 1311SOL    HW2 4833   5.532   5.307   0.342
 1312SOL     OW 4834   2.529   1.444   6.497
 1312SOL    HW1 4835   2.484   1.370   6.546
 1312SOL    HW2 4836   2.581   1.406   6.421
 1313SOL     OW 4837   5.707   5.222   1.977
 1313SOL    HW1 4838   5.658   5.258   2.057
 1313SOL    HW2 4839   5.757   5.296   1.932
 1314SOL     OW 4840   2.116   1.235   3.606
 1314SOL    HW1 4841   2.120   1.211   3.509
 1314SOL    HW2 4842   2.021   1.237   3.637
 1315SOL     OW 4843   6.160   0.573   3.221
 1315SOL    HW1 4844   6.120   0.490   3.259
 1315SOL    HW2 4845   6.239   0.550   3.164
 1316SOL     OW 4846   5.347   7.012   6.241
 1316SOL    HW1 4847   5.349   6.955   6.323
 1316SOL    HW2 4848   5.256   7.009   6.200
 1317SOL     OW 4849   3.819   2.924   4.714
 1317SOL    HW1 4850   3.806   2.999   4.779
 1317SOL    HW2 4851   3.860   2.846   4.762
 1318SOL     OW 4852   1.741   1.585   6.256
 1318SOL    HW1 4853   1.733   1.642   6.338
 1318SOL    HW2 4854   1.682   1.505   6.266
 1319SOL     OW 4855   6.922   1.580   0.628
 1319SOL    HW1 4856   6.960   1.552   0.540
 1319SOL    HW2 4857   6.957   1.670   0.653
 1320SOL     OW 4858   2.961   3.035   6.164
 1320SOL    HW1 4859   3.018   2.959   6.198
 1320SOL    HW2 4860   2.905   3.003   6.088
 1321SOL     OW 4861   6.750   2.482   1.337
 1321SOL    HW1 4862   6.724   2.503   1.243
 1321SOL    HW2 4863   6.843   2.446   1.339
 1322SOL     OW 4864   2.552   2.746   6.930
 1322SOL    HW1 4865   2.601   2.757   6.844
 1322SOL    HW2 4866   2.612   2.702   6.997
 1323SOL     OW 4867   4.017   0.594   1.474
 1323SOL    HW1 4868   4.022   0.552   1.383
 1323SOL    HW2 4869   3.991   0.525   1.541
 1324SOL     OW 4870   2.206   4.154   6.055
 1324SOL    HW1 4871   2.150   4.236   6.072
 1324SOL    HW2 4872   2.196   4.125   5.960
 1325SOL     OW 4873   4.168   6.531   4.618
 1325SOL    HW1 4874   4.174   6.495   4.711
 1325SOL    HW2 4875   4.249   6.587   4.599
 1326SOL     OW 4876   4.992   1.500   4.759
 1326SOL    HW1 4877   4.985   1.445   4.676
 1326SOL    HW2 4878   5.032   1.445   4.833
 1327SOL     OW 4879   5.071   5.795   2.386
 1327SOL    HW1 4880   4.972   5.793   2.375
 1327SOL    HW2 4881   5.098   5.882   2.429
 1328SOL     OW 4882   2.478   1.892   6.003
 1328SOL    HW1 4883   2.499   1.820   6.069
 1328SOL    HW2 4884   2.438   1.970   6.052
 1329SOL     OW 4885   1.452   3.072   3.868
 1329SOL    HW1 4886   1.461   3.123   3.953
 1329SOL    HW2 4887   1.365   3.095   3.824
 1330SOL     OW 4888   6.349   3.378   2.902
 1330SOL    HW1 4889   6.411   3.454   2.921
 1330SOL    HW2 4890   6.270   3.412   2.851
 1331SOL     OW 4891   4.146   2.264   3.185
 1331SOL    HW1 4892   4.155   2.169   3.154
 1331SOL    HW2 4893   4.227   2.316   3.158
 1332SOL     OW 4894   2.331   5.951   7.003
 1332SOL    HW1 4895   2.263   5.888   0.022
 1332SOL    HW2 4896   2.285   6.026   6.956
 1333SOL     OW 4897   3.483   3.450   2.854
 1333SOL    HW1 4898   3.409   3.454   2.787
 1333SOL    HW2 4899   3.466   3.516   2.927
 1334SOL     OW 4900   6.742   4.301   1.787
 1334SOL    HW1 4901   6.672   4.323   1.855
 1334SOL    HW2 4902   6.701   4.297   1.696
 1335SOL     OW 4903   6.983   3.423   3.217
 1335SOL    HW1 4904   6.903   3.370   3.187
 1335SOL    HW2 4905   0.046   3.365   3.214
 1336SOL     OW 4906   2.537   6.941   5.640
 1336SOL    HW1 4907   2.514   0.001   5.583
 1336SOL    HW2 4908   2.470   6.932   5.713
 1337SOL     OW 4909   0.342   0.148   1.890
 1337SOL    HW1 4910   0.244   0.129   1.889
 1337SOL    HW2 4911   0.356   0.247   1.890
 1338SOL     OW 4912   6.978   4.043   4.858
 1338SOL    HW1 4913   6.889   4.026   4.817
 1338SOL    HW2 4914   0.020   3.964   4.842
 1339SOL     OW 4915   5.612   1.433   6.741
 1339SOL    HW1 4916   5.681   1.374   6.785
 1339SOL    HW2 4917   5.609   1.412   6.643
 1340SOL     OW 4918   3.346   2.865   1.229
 1340SOL    HW1 4919   3.257   2.854   1.274
 1340SOL    HW2 4920   3.419   2.862   1.297
 1341SOL     OW 4921   5.381   5.703   6.242
 1341SOL    HW1 4922   5.388   5.698   6.143
 1341SOL    HW2 4923   5.468   5.675   6.283
 1342SOL     OW 4924   1.964   5.878   1.290
 1342SOL    HW1 4925   1.934   5.923   1.206
 1342SOL    HW2 4926   2.063   5.864   1.287
 1343SOL     OW 4927   4.815   5.920   2.753
 1343SOL    HW1 4928   4.841   5.994   2.691
 1343SOL    HW2 4929   4.781   5.959   2.839
 1344SOL     OW 4930   1.029   0.877   4.403
 1344SOL    HW1 4931   1.017   0.884   4.304
 1344SOL    HW2 4932   0.995   0.960   4.447
 1345SOL     OW 4933   1.628   6.595   5.692
 1345SOL    HW1 4934   1.647   6.516   5.633
 1345SOL    HW2 4935   1.652   6.679   5.644
 1346SOL     OW 4936   3.050   5.240   4.285
 1346SOL    HW1 4937   2.955   5.261   4.309
 1346SOL    HW2 4938   3.111   5.269   4.359
 1347SOL     OW 4939   1.789   0.608   6.294
 1347SOL    HW1 4940   1.886   0.583   6.288
 1347SOL    HW2 4941   1.740   0.537   6.345
 1348SOL     OW 4942   1.471   6.679   4.777
 1348SOL    HW1 4943   1.505   6.586   4.767
 1348SOL    HW2 4944   1.549   6.743   4.777
 1349SOL     OW 4945   5.375   3.968   4.093
 1349SOL    HW1 4946   5.320   4.008   4.166
 1349SOL    HW2 4947   5.439   4.036   4.058
 1350SOL     OW 4948   4.746   4.636   6.443
 1350SOL    HW1 4949   4.809   4.653   6.519
 1350SOL    HW2 4950   4.798   4.634   6.357
 1351SOL     OW 4951   0.214   2.204   6.286
 1351SOL    HW1 4952   0.146   2.253   6.231
 1351SOL    HW2 4953   0.306   2.229   6.255
 1352SOL     OW 4954   0.158   0.571   2.413
 1352SOL    HW1 4955   0.077   0.517   2.435
 1352SOL    HW2 4956   0.178   0.634   2.488
 1353SOL     OW 4957   6.440   1.720   6.841
 1353SOL    HW1 4958   6.422   1.818   6.839
 1353SOL    HW2 4959   6.496   1.695   6.762
 1354SOL     OW 4960   5.023   5.142   3.057
 1354SOL    HW1 4961   4.952   5.198   3.015
 1354SOL    HW2 4962   5.013   5.047   3.027
 1355SOL     OW 4963   4.282   3.430   5.226
 1355SOL    HW1 4964   4.188   3.400   5.246
 1355SOL    HW2 4965   4.346   3.374   5.278
 1356SOL     OW 4966   2.864   3.023   6.819
 1356SOL    HW1 4967   2.860   3.096   6.887
 1356SOL    HW2 4968   2.939   3.042   6.755
 1357SOL     OW 4969   0.993   3.063   5.456
 1357SOL    HW1 4970   0.926   3.057   5.382
 1357SOL    HW2 4971   0.990   2.980   5.511
 1358SOL     OW 4972   2.498   7.002   6.488
 1358SOL    HW1 4973   2.506   0.070   6.438
 1358SOL    HW2 4974   2.423   6.947   6.450
 1359SOL     OW 4975   6.332   4.845   0.107
 1359SOL    HW1 4976   6.269   4.917   0.075
 1359SOL    HW2 4977   6.424   4.884   0.118
 1360SOL     OW 4978   2.842   1.770   6.483
 1360SOL    HW1 4979   2.759   1.715   6.491
 1360SOL    HW2 4980   2.845   1.836   6.557
 1361SOL     OW 4981   6.568   5.503   5.175
 1361SOL    HW1 4982   6.643   5.437   5.169
 1361SOL    HW2 4983   6.526   5.513   5.085
 1362SOL     OW 4984   3.664   3.829   4.252
 1362SOL    HW1 4985   3.700   3.809   4.161
 1362SOL    HW2 4986   3.671   3.748   4.309
 1363SOL     OW 4987   0.698   6.366   3.480
 1363SOL    HW1 4988   0.653   6.381   3.392
 1363SOL    HW2 4989   0.761   6.289   3.473
 1364SOL     OW 4990   3.701   4.317   0.266
 1364SOL    HW1 4991   3.645   4.273   0.195
 1364SOL    HW2 4992   3.706   4.415   0.248
 1365SOL     OW 4993   6.166   2.334   6.513
 1365SOL    HW1 4994   6.124   2.395   6.580
 1365SOL    HW2 4995   6.097   2.274   6.473
 1366SOL     OW 4996   2.213   0.148   5.165
 1366SOL    HW1 4997   2.139   0.200   5.124
 1366SOL    HW2 4998   2.213   0.055   5.130
 1367SOL     OW 4999   2.675   1.877   2.707
 1367SOL    HW1 5000   2.769   1.886   2.673
 1367SOL    HW2 5001   2.611   1.908   2.636
 1368SOL     OW 5002   6.840   0.563   2.768
 1368SOL    HW1 5003   6.827   0.660   2.787
 1368SOL    HW2 5004   6.835   0.510   2.853
 1369SOL     OW 5005   0.289   0.368   2.268
 1369SOL    HW1 5006   0.248   0.437   2.327
 1369SOL    HW2 5007   0.349   0.413   2.202
 1370SOL     OW 5008   1.838   0.820   2.122
 1370SOL    HW1 5009   1.844   0.763   2.204
 1370SOL    HW2 5010   1.820   0.915   2.149
 1371SOL     OW 5011   3.137   0.272   6.601
 1371SOL    HW1 5012   3.100   0.332   6.530
 1371SOL    HW2 5013   3.067   0.206   6.628
 1372SOL     OW 5014   2.653   1.841   1.822
 1372SOL    HW1 5015   2.630   1.810   1.729
 1372SOL    HW2 5016   2.625   1.937   1.833
 1373SOL     OW 5017   1.938   5.828   6.897
 1373SOL    HW1 5018   2.014   5.817   6.962
 1373SOL    HW2 5019   1.870   5.890   6.936
 1374SOL     OW 5020   4.939   3.842   5.541
 1374SOL    HW1 5021   4.931   3.743   5.541
 1374SOL    HW2 5022   5.036   3.868   5.542
 1375SOL     OW 5023   0.700   3.816   4.361
 1375SOL    HW1 5024   0.676   3.821   4.264
 1375SOL    HW2 5025   0.711   3.909   4.397
 1376SOL     OW 5026   5.270   0.591   1.923
 1376SOL    HW1 5027   5.332   0.580   2.000
 1376SOL    HW2 5028   5.186   0.635   1.955
 1377SOL     OW 5029   0.627   4.326   4.795
 1377SOL    HW1 5030   0.676   4.344   4.709
 1377SOL    HW2 5031   0.530   4.345   4.782
 1378SOL     OW 5032   1.998   2.084   0.196
 1378SOL    HW1 5033   1.945   2.150   0.143
 1378SOL    HW2 5034   1.973   2.092   0.293
 1379SOL     OW 5035   4.219   5.758   1.800
 1379SOL    HW1 5036   4.286   5.830   1.814
 1379SOL    HW2 5037   4.170   5.773   1.714
 1380SOL     OW 5038   5.923   4.904   2.758
 1380SOL    HW1 5039   5.963   4.974   2.699
 1380SOL    HW2 5040   5.995   4.848   2.799
 1381SOL     OW 5041   4.729   6.944   2.315
 1381SOL    HW1 5042   4.688   0.010   2.278
 1381SOL    HW2 5043   4.785   6.967   2.394
 1382SOL     OW 5044   0.424   4.140   0.243
 1382SOL    HW1 5045   0.356   4.142   0.169
 1382SOL    HW2 5046   0.404   4.064   0.304
 1383SOL     OW 5047   2.586   0.218   0.964
 1383SOL    HW1 5048   2.672   0.182   0.928
 1383SOL    HW2 5049   2.592   0.318   0.972
 1384SOL     OW 5050   1.522   1.804   2.167
 1384SOL    HW1 5051   1.554   1.749   2.244
 1384SOL    HW2 5052   1.507   1.745   2.088
 1385SOL     OW 5053   4.926   3.633   4.092
 1385SOL    HW1 5054   4.912   3.552   4.148
 1385SOL    HW2 5055   5.016   3.673   4.112
 1386SOL     OW 5056   2.518   2.134   3.594
 1386SOL    HW1 5057   2.558   2.202   3.655
 1386SOL    HW2 5058   2.494   2.177   3.507
 1387SOL     OW 5059   3.180   0.812   3.436
 1387SOL    HW1 5060   3.229   0.887   3.393
 1387SOL    HW2 5061   3.236   0.771   3.508
 1388SOL     OW 5062   5.073   1.791   3.736
 1388SOL    HW1 5063   5.037   1.801   3.829
 1388SOL    HW2 5064   5.172   1.788   3.738
 1389SOL     OW 5065   0.156   0.285   3.490
 1389SOL    HW1 5066   0.226   0.315   3.555
 1389SOL    HW2 5067   0.201   0.254   3.406
 1390SOL     OW 5068   5.401   1.618   2.422
 1390SOL    HW1 5069   5.469   1.688   2.399
 1390SOL    HW2 5070   5.444   1.528   2.417
 1391SOL     OW 5071   5.677   0.942   5.176
 1391SOL    HW1 5072   5.684   1.039   5.152
 1391SOL    HW2 5073   5.670   0.888   5.092
 1392SOL     OW 5074   3.582   6.893   5.317
 1392SOL    HW1 5075   3.618   6.982   5.288
 1392SOL    HW2 5076   3.484   6.901   5.335
 1393SOL     OW 5077   5.330   0.603   6.966
 1393SOL    HW1 5078   5.256   0.544   6.933
 1393SOL    HW2 5079   5.308   0.634   0.040
 1394SOL     OW 5080   4.169   0.852   4.044
 1394SOL    HW1 5081   4.078   0.861   4.083
 1394SOL    HW2 5082   4.231   0.809   4.110
 1395SOL     OW 5083   0.782   4.943   2.594
 1395SOL    HW1 5084   0.827   4.890   2.521
 1395SOL    HW2 5085   0.712   5.002   2.553
 1396SOL     OW 5086   1.358   1.304   3.602
 1396SOL    HW1 5087   1.434   1.367   3.621
 1396SOL    HW2 5088   1.323   1.322   3.510
 1397SOL     OW 5089   2.383   4.557   5.619
 1397SOL    HW1 5090   2.474   4.523   5.641
 1397SOL    HW2 5091   2.373   4.565   5.520
 1398SOL     OW 5092   3.147   6.943   6.599
 1398SOL    HW1 5093   3.212   6.965   6.672
 1398SOL    HW2 5094   3.150   6.844   6.581
 1399SOL     OW 5095   3.957   0.146   0.084
 1399SOL    HW1 5096   4.029   0.213   0.101
 1399SOL    HW2 5097   3.996   0.054   0.087
 1400SOL     OW 5098   0.798   1.153   5.729
 1400SOL    HW1 5099   0.732   1.081   5.749
 1400SOL    HW2 5100   0.865   1.120   5.662
 1401SOL     OW 5101   4.981   0.345   1.896
 1401SOL    HW1 5102   4.900   0.402   1.880
 1401SOL    HW2 5103   5.053   0.371   1.832
 1402SOL     OW 5104   5.170   4.331   1.902
 1402SOL    HW1 5105   5.155   4.238   1.937
 1402SOL    HW2 5106   5.122   4.397   1.960
 1403SOL     OW 5107   3.060   3.192   0.061
 1403SOL    HW1 5108   3.064   3.291   0.077
 1403SOL    HW2 5109   3.139   3.149   0.104
 1404SOL     OW 5110   3.843   6.202   0.299
 1404SOL    HW1 5111   3.811   6.278   0.354
 1404SOL    HW2 5112   3.874   6.236   0.210
 1405SOL     OW 5113   0.830   3.796   6.732
 1405SOL    HW1 5114   0.769   3.818   6.809
 1405SOL    HW2 5115   0.923   3.822   6.756
 1406SOL     OW 5116   2.132   2.592   6.526
 1406SOL    HW1 5117   2.108   2.608   6.430
 1406SOL    HW2 5118   2.163   2.677   6.567
 1407SOL     OW 5119   6.842   2.491   2.010
 1407SOL    HW1 5120   6.782   2.441   2.073
 1407SOL    HW2 5121   6.787   2.553   1.955
 1408SOL     OW 5122   6.008   6.351   0.875
 1408SOL    HW1 5123   6.068   6.278   0.843
 1408SOL    HW2 5124   5.914   6.332   0.846
 1409SOL     OW 5125   5.819   1.847   5.797
 1409SOL    HW1 5126   5.777   1.851   5.887
 1409SOL    HW2 5127   5.910   1.806   5.804
 1410SOL     OW 5128   2.825   0.672   0.693
 1410SOL    HW1 5129   2.840   0.601   0.761
 1410SOL    HW2 5130   2.812   0.630   0.603
 1411SOL     OW 5131   3.688   6.502   0.150
 1411SOL    HW1 5132   3.646   6.491   0.239
 1411SOL    HW2 5133   3.767   6.442   0.143
 1412SOL     OW 5134   2.337   1.458   0.153
 1412SOL    HW1 5135   2.345   1.452   0.252
 1412SOL    HW2 5136   2.296   1.546   0.128
 1413SOL     OW 5137   2.493   1.432   5.207
 1413SOL    HW1 5138   2.453   1.519   5.176
 1413SOL    HW2 5139   2.473   1.419   5.304
 1414SOL     OW 5140   0.446   4.763   1.972
 1414SOL    HW1 5141   0.543   4.752   1.949
 1414SOL    HW2 5142   0.390   4.725   1.899
 1415SOL     OW 5143   3.715   1.797   5.221
 1415SOL    HW1 5144   3.682   1.881   5.178
 1415SOL    HW2 5145   3.638   1.742   5.253
 1416SOL     OW 5146   4.850   0.292   4.944
 1416SOL    HW1 5147   4.882   0.280   5.038
 1416SOL    HW2 5148   4.922   0.334   4.889
 1417SOL     OW 5149   3.717   3.597   4.405
 1417SOL    HW1 5150   3.811   3.565   4.391
 1417SOL    HW2 5151   3.671   3.537   4.471
 1418SOL     OW 5152   3.369   3.915   5.501
 1418SOL    HW1 5153   3.325   3.826   5.490
 1418SOL    HW2 5154   3.377   3.936   5.598
 1419SOL     OW 5155   0.162   5.126   1.993
 1419SOL    HW1 5156   0.075   5.081   2.011
 1419SOL    HW2 5157   0.164   5.215   2.038
 1420SOL     OW 5158   2.976   6.298   3.336
 1420SOL    HW1 5159   2.994   6.333   3.244
 1420SOL    HW2 5160   3.047   6.330   3.398
 1421SOL     OW 5161   1.696   5.358   0.600
 1421SOL    HW1 5162   1.654   5.282   0.649
 1421SOL    HW2 5163   1.632   5.435   0.597
 1422SOL     OW 5164   1.447   3.927   6.755
 1422SOL    HW1 5165   1.390   3.983   6.695
 1422SOL    HW2 5166   1.520   3.885   6.702
 1423SOL     OW 5167   4.487   1.030   4.722
 1423SOL    HW1 5168   4.444   1.111   4.762
 1423SOL    HW2 5169   4.468   1.027   4.624
 1424SOL     OW 5170   6.313   3.467   1.413
 1424SOL    HW1 5171   6.381   3.395   1.400
 1424SOL    HW2 5172   6.358   3.556   1.409
 1425SOL     OW 5173   5.836   6.566   3.186
 1425SOL    HW1 5174   5.785   6.486   3.217
 1425SOL    HW2 5175   5.875   6.613   3.266
 1426SOL     OW 5176   3.619   1.358   0.623
 1426SOL    HW1 5177   3.592   1.384   0.531
 1426SOL    HW2 5178   3.553   1.291   0.659
 1427SOL     OW 5179   0.961   0.853   4.095
 1427SOL    HW1 5180   1.012   0.856   4.009
 1427SOL    HW2 5181   0.876   0.803   4.082
 1428SOL     OW 5182   1.882   4.015   3.941
 1428SOL    HW1 5183   1.938   3.933   3.957
 1428SOL    HW2 5184   1.859   4.056   4.029
 1429SOL     OW 5185   6.494   0.452   1.540
 1429SOL    HW1 5186   6.395   0.444   1.549
 1429SOL    HW2 5187   6.528   0.520   1.605
 1430SOL     OW 5188   2.144   4.017   4.376
 1430SOL    HW1 5189   2.130   4.062   4.288
 1430SOL    HW2 5190   2.066   4.037   4.436
 1431SOL     OW 5191   3.610   2.322   0.579
 1431SOL    HW1 5192   3.550   2.340   0.501
 1431SOL    HW2 5193   3.623   2.224   0.590
 1432SOL     OW 5194   3.646   0.354   2.878
 1432SOL    HW1 5195   3.627   0.293   2.801
 1432SOL    HW2 5196   3.573   0.422   2.885
 1433SOL     OW 5197   3.048   2.170   4.470
 1433SOL    HW1 5198   3.146   2.174   4.493
 1433SOL    HW2 5199   2.999   2.119   4.540
 1434SOL     OW 5200   5.216   3.481   0.600
 1434SOL    HW1 5201   5.279   3.488   0.678
 1434SOL    HW2 5202   5.269   3.475   0.515
 1435SOL     OW 5203   0.327   6.150   4.285
 1435SOL    HW1 5204   0.295   6.056   4.295
 1435SOL    HW2 5205   0.270   6.198   4.218
 1436SOL     OW 5206   5.498   0.993   0.079
 1436SOL    HW1 5207   5.465   1.037   0.162
 1436SOL    HW2 5208   5.523   0.898   0.098
 1437SOL     OW 5209   4.466   1.341   0.889
 1437SOL    HW1 5210   4.473   1.400   0.808
 1437SOL    HW2 5211   4.439   1.396   0.968
 1438SOL     OW 5212   2.174   6.938   3.094
 1438SOL    HW1 5213   2.159   0.017   3.073
 1438SOL    HW2 5214   2.086   6.891   3.098
 1439SOL     OW 5215   0.205   5.341   4.809
 1439SOL    HW1 5216   0.139   5.341   4.733
 1439SOL    HW2 5217   0.188   5.261   4.867
 1440SOL     OW 5218   3.426   3.080   2.491
 1440SOL    HW1 5219   3.353   3.025   2.449
 1440SOL    HW2 5220   3.483   3.021   2.548
 1441SOL     OW 5221   0.421   1.698   5.811
 1441SOL    HW1 5222   0.413   1.602   5.786
 1441SOL    HW2 5223   0.431   1.707   5.910
 1442SOL     OW 5224   5.316   6.140   0.381
 1442SOL    HW1 5225   5.353   6.088   0.304
 1442SOL    HW2 5226   5.387   6.201   0.418
 1443SOL     OW 5227   1.410   3.256   4.090
 1443SOL    HW1 5228   1.465   3.317   4.033
 1443SOL    HW2 5229   1.454   3.243   4.179
 1444SOL     OW 5230   5.223   0.026   4.470
 1444SOL    HW1 5231   5.310   6.995   4.475
 1444SOL    HW2 5232   5.150   6.980   4.447
 1445SOL     OW 5233   6.915   2.350   0.670
 1445SOL    HW1 5234   6.956   2.309   0.751
 1445SOL    HW2 5235   6.876   2.278   0.612
 1446SOL     OW 5236   2.891   5.551   2.370
 1446SOL    HW1 5237   2.794   5.542   2.346
 1446SOL    HW2 5238   2.940   5.469   2.339
 1447SOL     OW 5239   6.743   0.840   4.673
 1447SOL    HW1 5240   6.794   0.833   4.587
 1447SOL    HW2 5241   6.761   0.929   4.715
 1448SOL     OW 5242   5.377   0.932   0.863
 1448SOL    HW1 5243   5.435   0.944   0.782
 1448SOL    HW2 5244   5.289   0.976   0.848
 1449SOL     OW 5245   4.661   5.361   0.395
 1449SOL    HW1 5246   4.683   5.292   0.326
 1449SOL    HW2 5247   4.669   5.452   0.356
 1450SOL     OW 5248   5.329   1.279   3.791
 1450SOL    HW1 5249   5.303   1.329   3.709
 1450SOL    HW2 5250   5.417   1.234   3.776
 1451SOL     OW 5251   0.993   6.873   1.806
 1451SOL    HW1 5252   0.956   6.782   1.786
 1451SOL    HW2 5253   1.093   6.866   1.815
 1452SOL     OW 5254   2.074   0.022   6.269
 1452SOL    HW1 5255   2.124   0.007   6.184
 1452SOL    HW2 5256   2.077   0.119   6.292
 1453SOL     OW 5257   5.755   4.705   4.309
 1453SOL    HW1 5258   5.763   4.634   4.240
 1453SOL    HW2 5259   5.796   4.790   4.275
 1454SOL     OW 5260   5.467   3.776   0.914
 1454SOL    HW1 5261   5.386   3.822   0.877
 1454SOL    HW2 5262   5.547   3.799   0.859
 1455SOL     OW 5263   2.022   1.953   1.754
 1455SOL    HW1 5264   1.979   2.034   1.714
 1455SOL    HW2 5265   2.121   1.966   1.757
 1456SOL     OW 5266   5.449   5.442   4.776
 1456SOL    HW1 5267   5.365   5.454   4.828
 1456SOL    HW2 5268   5.464   5.345   4.757
 1457SOL     OW 5269   2.175   0.986   4.696
 1457SOL    HW1 5270   2.124   0.900   4.690
 1457SOL    HW2 5271   2.112   1.063   4.703
 1458SOL     OW 5272   0.049   5.392   0.162
 1458SOL    HW1 5273   0.114   5.331   0.118
 1458SOL    HW2 5274   0.095   5.446   0.232
 1459SOL     OW 5275   2.589   6.889   1.937
 1459SOL    HW1 5276   2.573   6.791   1.926
 1459SOL    HW2 5277   2.664   6.917   1.876
 1460SOL     OW 5278   0.561   0.734   6.659
 1460SOL    HW1 5279   0.517   0.775   6.579
 1460SOL    HW2 5280   0.614   0.803   6.707
 1461SOL     OW 5281   4.755   4.220   2.761
 1461SOL    HW1 5282   4.787   4.201   2.854
 1461SOL    HW2 5283   4.743   4.134   2.712
 1462SOL     OW 5284   5.508   0.247   5.187
 1462SOL    HW1 5285   5.485   0.213   5.278
 1462SOL    HW2 5286   5.563   0.179   5.139
 1463SOL     OW 5287   0.671   2.229   5.529
 1463SOL    HW1 5288   0.590   2.187   5.570
 1463SOL    HW2 5289   0.659   2.236   5.430
 1464SOL     OW 5290   0.659   1.035   0.966
 1464SOL    HW1 5291   0.565   1.062   0.946
 1464SOL    HW2 5292   0.722   1.084   0.904
 1465SOL     OW 5293   1.816   1.315   3.539
 1465SOL    HW1 5294   1.845   1.410   3.528
 1465SOL    HW2 5295   1.746   1.294   3.471
 1466SOL     OW 5296   5.975   5.726   4.018
 1466SOL    HW1 5297   5.960   5.642   4.071
 1466SOL    HW2 5298   5.924   5.801   4.059
 1467SOL     OW 5299   7.009   3.720   4.589
 1467SOL    HW1 5300   6.931   3.662   4.615
 1467SOL    HW2 5301   6.974   3.803   4.545
 1468SOL     OW 5302   4.693   0.022   2.721
 1468SOL    HW1 5303   4.606   6.992   2.728
 1468SOL    HW2 5304   4.738   0.025   2.811
 1469SOL     OW 5305   0.185   0.675   2.137
 1469SOL    HW1 5306   0.283   0.671   2.113
 1469SOL    HW2 5307   0.172   0.636   2.228
 1470SOL     OW 5308   0.402   0.341   2.912
 1470SOL    HW1 5309   0.465   0.372   2.841
 1470SOL    HW2 5310   0.438   0.367   3.002
 1471SOL     OW 5311   6.078   1.312   1.202
 1471SOL    HW1 5312   6.104   1.333   1.296
 1471SOL    HW2 5313   5.984   1.278   1.201
 1472SOL     OW 5314   4.881   5.154   5.177
 1472SOL    HW1 5315   4.783   5.144   5.198
 1472SOL    HW2 5316   4.923   5.063   5.177
 1473SOL     OW 5317   6.634   3.336   3.987
 1473SOL    HW1 5318   6.675   3.367   4.073
 1473SOL    HW2 5319   6.677   3.251   3.958
 1474SOL     OW 5320   4.547   5.868   2.740
 1474SOL    HW1 5321   4.554   5.928   2.660
 1474SOL    HW2 5322   4.638   5.837   2.767
 1475SOL     OW 5323   5.936   6.803   2.778
 1475SOL    HW1 5324   6.036   6.801   2.776
 1475SOL    HW2 5325   5.904   6.845   2.863
 1476SOL     OW 5326   0.765   2.349   1.414
 1476SOL    HW1 5327   0.707   2.423   1.447
 1476SOL    HW2 5328   0.858   2.383   1.398
 1477SOL     OW 5329   2.689   6.434   4.667
 1477SOL    HW1 5330   2.739   6.519   4.682
 1477SOL    HW2 5331   2.629   6.415   4.744
 1478SOL     OW 5332   0.085   3.418   1.356
 1478SOL    HW1 5333   0.010   3.448   1.297
 1478SOL    HW2 5334   0.100   3.486   1.427
 1479SOL     OW 5335   1.553   5.156   0.232
 1479SOL    HW1 5336   1.537   5.118   0.141
 1479SOL    HW2 5337   1.593   5.087   0.291
 1480SOL     OW 5338   3.169   0.864   0.450
 1480SOL    HW1 5339   3.178   0.948   0.503
 1480SOL    HW2 5340   3.085   0.869   0.395
 1481SOL     OW 5341   7.004   3.717   0.325
 1481SOL    HW1 5342   6.928   3.782   0.334
 1481SOL    HW2 5343   0.045   3.744   0.249
 1482SOL     OW 5344   5.709   0.447   6.119
 1482SOL    HW1 5345   5.721   0.484   6.211
 1482SOL    HW2 5346   5.673   0.354   6.124
 1483SOL     OW 5347   6.935   2.836   0.094
 1483SOL    HW1 5348   6.853   2.781   0.074
 1483SOL    HW2 5349   6.907   2.929   0.117
 1484SOL     OW 5350   6.363   6.878   3.532
 1484SOL    HW1 5351   6.413   6.952   3.577
 1484SOL    HW2 5352   6.417   6.794   3.536
 1485SOL     OW 5353   5.245   3.438   4.121
 1485SOL    HW1 5354   5.335   3.424   4.163
 1485SOL    HW2 5355   5.224   3.536   4.121
 1486SOL     OW 5356   5.099   2.906   1.383
 1486SOL    HW1 5357   5.004   2.877   1.393
 1486SOL    HW2 5358   5.151   2.834   1.337
 1487SOL     OW 5359   0.699   0.009   5.658
 1487SOL    HW1 5360   0.625   0.073   5.676
 1487SOL    HW2 5361   0.736   0.024   5.567
 1488SOL     OW 5362   5.142   1.992   4.562
 1488SOL    HW1 5363   5.122   2.074   4.509
 1488SOL    HW2 5364   5.127   2.010   4.659
 1489SOL     OW 5365   3.115   4.889   4.765
 1489SOL    HW1 5366   3.166   4.971   4.739
 1489SOL    HW2 5367   3.127   4.819   4.694
 1490SOL     OW 5368   2.459   2.713   0.454
 1490SOL    HW1 5369   2.397   2.752   0.522
 1490SOL    HW2 5370   2.414   2.636   0.408
 1491SOL     OW 5371   0.638   2.034   4.340
 1491SOL    HW1 5372   0.545   2.061   4.316
 1491SOL    HW2 5373   0.695   2.037   4.258
 1492SOL     OW 5374   0.348   2.222   1.722
 1492SOL    HW1 5375   0.408   2.250   1.646
 1492SOL    HW2 5376   0.271   2.169   1.686
 1493SOL     OW 5377   6.109   2.974   4.905
 1493SOL    HW1 5378   6.208   2.969   4.913
 1493SOL    HW2 5379   6.084   3.013   4.817
 1494SOL     OW 5380   5.254   1.518   3.880
 1494SOL    HW1 5381   5.260   1.437   3.822
 1494SOL    HW2 5382   5.255   1.490   3.976
 1495SOL     OW 5383   1.570   3.930   1.627
 1495SOL    HW1 5384   1.570   3.950   1.529
 1495SOL    HW2 5385   1.628   3.851   1.645
 1496SOL     OW 5386   1.040   0.571   2.433
 1496SOL    HW1 5387   1.079   0.483   2.461
 1496SOL    HW2 5388   1.111   0.628   2.393
 1497SOL     OW 5389   5.834   5.321   6.185
 1497SOL    HW1 5390   5.749   5.335   6.235
 1497SOL    HW2 5391   5.827   5.237   6.130
 1498SOL     OW 5392   3.077   5.554   0.194
 1498SOL    HW1 5393   3.015   5.498   0.249
 1498SOL    HW2 5394   3.115   5.499   0.120
 1499SOL     OW 5395   0.727   4.063   4.471
 1499SOL    HW1 5396   0.719   4.138   4.405
 1499SOL    HW2 5397   0.788   4.092   4.546
 1500SOL     OW 5398   3.876   6.607   5.887
 1500SOL    HW1 5399   3.792   6.661   5.888
 1500SOL    HW2 5400   3.857   6.518   5.845
 1501SOL     OW 5401   3.760   0.175   1.155
 1501SOL    HW1 5402   3.839   0.150   1.098
 1501SOL    HW2 5403   3.709   0.092   1.179
 1502SOL     OW 5404   0.416   0.877   6.458
 1502SOL    HW1 5405   0.470   0.943   6.406
 1502SOL    HW2 5406   0.356   0.826   6.396
 1503SOL     OW 5407   3.759   3.790   5.035
 1503SOL    HW1 5408   3.687   3.777   5.104
 1503SOL    HW2 5409   3.716   3.803   4.945
 1504SOL     OW 5410   2.569   6.722   3.634
 1504SOL    HW1 5411   2.654   6.775   3.637
 1504SOL    HW2 5412   2.545   6.704   3.538
 1505SOL     OW 5413   5.439   6.650   2.859
 1505SOL    HW1 5414   5.399   6.694   2.939
 1505SOL    HW2 5415   5.411   6.554   2.856
 1506SOL     OW 5416   0.436   6.021   3.988
 1506SOL    HW1 5417   0.502   6.062   3.925
 1506SOL    HW2 5418   0.405   6.090   4.053
 1507SOL     OW 5419   2.026   1.299   0.056
 1507SOL    HW1 5420   2.113   1.248   0.053
 1507SOL    HW2 5421   2.030   1.375   7.010
 1508SOL     OW 5422   4.787   6.293   1.185
 1508SOL    HW1 5423   4.737   6.231   1.126
 1508SOL    HW2 5424   4.739   6.301   1.273
 1509SOL     OW 5425   5.530   1.707   6.719
 1509SOL    HW1 5426   5.582   1.755   6.648
 1509SOL    HW2 5427   5.553   1.609   6.717
 1510SOL     OW 5428   6.424   1.631   2.504
 1510SOL    HW1 5429   6.438   1.534   2.519
 1510SOL    HW2 5430   6.495   1.683   2.552
 1511SOL     OW 5431   0.356   2.964   0.143
 1511SOL    HW1 5432   0.329   2.932   0.234
 1511SOL    HW2 5433   0.299   2.919   0.074
 1512SOL     OW 5434   6.240   1.102   2.122
 1512SOL    HW1 5435   6.333   1.106   2.086
 1512SOL    HW2 5436   6.185   1.039   2.066
 1513SOL     OW 5437   2.309   0.946   2.679
 1513SOL    HW1 5438   2.292   1.044   2.678
 1513SOL    HW2 5439   2.337   0.916   2.588
 1514SOL     OW 5440   4.630   0.927   5.871
 1514SOL    HW1 5441   4.579   0.896   5.791
 1514SOL    HW2 5442   4.660   1.021   5.857
 1515SOL     OW 5443   5.683   5.546   5.865
 1515SOL    HW1 5444   5.734   5.597   5.796
 1515SOL    HW2 5445   5.700   5.448   5.853
 1516SOL     OW 5446   6.113   1.681   1.996
 1516SOL    HW1 5447   6.080   1.589   1.977
 1516SOL    HW2 5448   6.035   1.745   1.995
 1517SOL     OW 5449   3.484   5.279   2.334
 1517SOL    HW1 5450   3.434   5.195   2.355
 1517SOL    HW2 5451   3.514   5.277   2.238
 1518SOL     OW 5452   0.599   4.941   1.266
 1518SOL    HW1 5453   0.533   5.002   1.223
 1518SOL    HW2 5454   0.599   4.853   1.219
 1519SOL     OW 5455   0.199   3.931   1.067
 1519SOL    HW1 5456   0.252   3.846   1.065
 1519SOL    HW2 5457   0.245   4.001   1.012
 1520SOL     OW 5458   1.533   3.838   2.465
 1520SOL    HW1 5459   1.499   3.847   2.559
 1520SOL    HW2 5460   1.632   3.847   2.464
 1521SOL     OW 5461   2.371   5.550   5.187
 1521SOL    HW1 5462   2.449   5.565   5.249
 1521SOL    HW2 5463   2.397   5.484   5.117
 1522SOL     OW 5464   1.891   1.966   6.146
 1522SOL    HW1 5465   1.907   2.064   6.152
 1522SOL    HW2 5466   1.806   1.943   6.194
 1523SOL     OW 5467   5.903   0.776   1.513
 1523SOL    HW1 5468   5.890   0.683   1.547
 1523SOL    HW2 5469   5.827   0.833   1.544
 1524SOL     OW 5470   0.729   1.989   1.359
 1524SOL    HW1 5471   0.778   1.968   1.275
 1524SOL    HW2 5472   0.707   1.904   1.407
 1525SOL     OW 5473   5.119   1.305   5.458
 1525SOL    HW1 5474   5.155   1.271   5.371
 1525SOL    HW2 5475   5.181   1.281   5.532
 1526SOL     OW 5476   5.558   2.568   6.959
 1526SOL    HW1 5477   5.494   2.524   6.896
 1526SOL    HW2 5478   5.507   2.613   0.015
 1527SOL     OW 5479   3.043   1.023   5.563
 1527SOL    HW1 5480   3.084   0.952   5.621
 1527SOL    HW2 5481   3.050   0.996   5.467
 1528SOL     OW 5482   5.262   5.904   3.656
 1528SOL    HW1 5483   5.329   5.831   3.650
 1528SOL    HW2 5484   5.252   5.949   3.567
 1529SOL     OW 5485   2.208   6.904   5.045
 1529SOL    HW1 5486   2.173   6.964   4.973
 1529SOL    HW2 5487   2.163   6.815   5.039
 1530SOL     OW 5488   2.965   6.539   1.451
 1530SOL    HW1 5489   2.936   6.529   1.546
 1530SOL    HW2 5490   2.887   6.571   1.396
 1531SOL     OW 5491   5.787   1.214   6.347
 1531SOL    HW1 5492   5.865   1.152   6.361
 1531SOL    HW2 5493   5.724   1.173   6.280
 1532SOL     OW 5494   3.040   1.577   5.232
 1532SOL    HW1 5495   3.006   1.484   5.216
 1532SOL    HW2 5496   3.078   1.582   5.324
 1533SOL     OW 5497   4.543   3.249   0.383
 1533SOL    HW1 5498   4.598   3.186   0.438
 1533SOL    HW2 5499   4.479   3.299   0.441
 1534SOL     OW 5500   0.330   0.112   0.065
 1534SOL    HW1 5501   0.317   0.211   0.068
 1534SOL    HW2 5502   0.420   0.092   0.026
 1535SOL     OW 5503   5.320   4.323   4.391
 1535SOL    HW1 5504   5.397   4.369   4.348
 1535SOL    HW2 5505   5.310   4.355   4.485
 1536SOL     OW 5506   3.269   6.027   3.032
 1536SOL    HW1 5507   3.334   6.011   2.958
 1536SOL    HW2 5508   3.177   6.039   2.995
 1537SOL     OW 5509   2.094   5.688   4.497
 1537SOL    HW1 5510   2.008   5.714   4.451
 1537SOL    HW2 5511   2.078   5.608   4.554
 1538SOL     OW 5512   3.278   5.986   0.292
 1538SOL    HW1 5513   3.233   6.024   0.373
 1538SOL    HW2 5514   3.367   5.949   0.318
 1539SOL     OW 5515   2.213   6.742   2.629
 1539SOL    HW1 5516   2.248   6.682   2.557
 1539SOL    HW2 5517   2.289   6.772   2.687
 1540SOL     OW 5518   5.913   0.354   4.984
 1540SOL    HW1 5519   5.982   0.411   5.028
 1540SOL    HW2 5520   5.888   0.279   5.045
 1541SOL     OW 5521   5.119   1.694   1.815
 1541SOL    HW1 5522   5.137   1.598   1.832
 1541SOL    HW2 5523   5.173   1.751   1.877
 1542SOL     OW 5524   6.978   5.408   1.232
 1542SOL    HW1 5525   7.011   5.314   1.241
 1542SOL    HW2 5526   0.013   5.467   1.294
 1543SOL     OW 5527   3.172   3.422   3.271
 1543SOL    HW1 5528   3.259   3.412   3.223
 1543SOL    HW2 5529   3.150   3.519   3.281
 1544SOL     OW 5530   3.554   3.771   1.808
 1544SOL    HW1 5531   3.518   3.772   1.901
 1544SOL    HW2 5532   3.478   3.771   1.742
 1545SOL     OW 5533   0.477   6.712   5.478
 1545SOL    HW1 5534   0.559   6.690   5.532
 1545SOL    HW2 5535   0.434   6.794   5.514
 1546SOL     OW 5536   0.077   6.695   6.628
 1546SOL    HW1 5537   0.127   6.777   6.599
 1546SOL    HW2 5538   0.020   6.716   6.707
 1547SOL     OW 5539   3.307   6.082   6.978
 1547SOL    HW1 5540   3.403   6.054   6.982
 1547SOL    HW2 5541   3.268   6.083   0.052
 1548SOL     OW 5542   6.388   4.181   3.098
 1548SOL    HW1 5543   6.314   4.129   3.054
 1548SOL    HW2 5544   6.421   4.131   3.178
 1549SOL     OW 5545   6.210   1.992   1.086
 1549SOL    HW1 5546   6.186   2.004   1.183
 1549SOL    HW2 5547   6.126   1.996   1.031
 1550SOL     OW 5548   2.444   5.031   2.457
 1550SOL    HW1 5549   2.427   5.119   2.502
 1550SOL    HW2 5550   2.426   4.957   2.522
 1551SOL     OW 5551   0.596   2.846   1.626
 1551SOL    HW1 5552   0.680   2.877   1.582
 1551SOL    HW2 5553   0.518   2.897   1.591
 1552SOL     OW 5554   1.713   6.855   1.979
 1552SOL    HW1 5555   1.790   6.824   2.035
 1552SOL    HW2 5556   1.635   6.875   2.038
 1553SOL     OW 5557   6.002   1.693   5.521
 1553SOL    HW1 5558   5.963   1.651   5.603
 1553SOL    HW2 5559   6.055   1.773   5.546
 1554SOL     OW 5560   2.714   3.144   0.999
 1554SOL    HW1 5561   2.813   3.142   0.989
 1554SOL    HW2 5562   2.671   3.101   0.919
 1555SOL     OW 5563   4.456   1.123   1.104
 1555SOL    HW1 5564   4.486   1.170   1.021
 1555SOL    HW2 5565   4.358   1.138   1.117
 1556SOL     OW 5566   3.199   2.575   0.609
 1556SOL    HW1 5567   3.284   2.606   0.651
 1556SOL    HW2 5568   3.210   2.482   0.574
 1557SOL     OW 5569   1.924   2.865   1.297
 1557SOL    HW1 5570   1.900   2.946   1.351
 1557SOL    HW2 5571   2.013   2.830   1.328
 1558SOL     OW 5572   4.727   2.412   6.595
 1558SOL    HW1 5573   4.796   2.363   6.648
 1558SOL    HW2 5574   4.748   2.403   6.497
 1559SOL     OW 5575   2.573   6.177   3.568
 1559SOL    HW1 5576   2.526   6.089   3.559
 1559SOL    HW2 5577   2.577   6.222   3.479
 1560SOL     OW 5578   4.337   2.963   1.361
 1560SOL    HW1 5579   4.248   2.926   1.332
 1560SOL    HW2 5580   4.390   2.890   1.403
 1561SOL     OW 5581   6.340   6.354   0.566
 1561SOL    HW1 5582   6.302   6.403   0.488
 1561SOL    HW2 5583   6.440   6.360   0.564
 1562SOL     OW 5584   2.717   7.008   2.823
 1562SOL    HW1 5585   2.667   0.070   2.857
 1562SOL    HW2 5586   2.797   0.020   2.771
 1563SOL     OW 5587   2.111   3.640   3.950
 1563SOL    HW1 5588   2.177   3.621   3.876
 1563SOL    HW2 5589   2.160   3.648   4.037
 1564SOL     OW 5590   1.432   1.819   3.200
 1564SOL    HW1 5591   1.383   1.830   3.113
 1564SOL    HW2 5592   1.376   1.856   3.275
 1565SOL     OW 5593   5.112   1.571   5.339
 1565SOL    HW1 5594   5.072   1.570   5.248
 1565SOL    HW2 5595   5.110   1.480   5.378
 1566SOL     OW 5596   0.968   3.111   3.711
 1566SOL    HW1 5597   0.994   3.120   3.807
 1566SOL    HW2 5598   0.873   3.079   3.705
 1567SOL     OW 5599   5.368   0.574   4.658
 1567SOL    HW1 5600   5.317   0.497   4.619
 1567SOL    HW2 5601   5.316   0.658   4.645
 1568SOL     OW 5602   2.191   4.199   0.888
 1568SOL    HW1 5603   2.092   4.206   0.872
 1568SOL    HW2 5604   2.207   4.137   0.965
 1569SOL     OW 5605   2.186   1.107   2.155
 1569SOL    HW1 5606   2.237   1.031   2.196
 1569SOL    HW2 5607   2.227   1.194   2.184
 1570SOL     OW 5608   2.932   6.203   6.387
 1570SOL    HW1 5609   3.031   6.188   6.390
 1570SOL    HW2 5610   2.894   6.196   6.479
 1571SOL     OW 5611   0.697   1.399   4.510
 1571SOL    HW1 5612   0.606   1.382   4.473
 1571SOL    HW2 5613   0.704   1.496   4.536
 1572SOL     OW 5614   1.859   6.251   3.363
 1572SOL    HW1 5615   1.805   6.273   3.444
 1572SOL    HW2 5616   1.947   6.299   3.369
 1573SOL     OW 5617   5.480   6.477   0.407
 1573SOL    HW1 5618   5.381   6.488   0.413
 1573SOL    HW2 5619   5.509   6.400   0.464
 1574SOL     OW 5620   6.879   3.847   3.343
 1574SOL    HW1 5621   6.918   3.875   3.255
 1574SOL    HW2 5622   6.907   3.754   3.365
 1575SOL     OW 5623   6.769   2.632   0.358
 1575SOL    HW1 5624   6.708   2.698   0.403
 1575SOL    HW2 5625   6.843   2.607   0.421
 1576SOL     OW 5626   1.685   6.120   2.529
 1576SOL    HW1 5627   1.771   6.154   2.491
 1576SOL    HW2 5628   1.649   6.047   2.471
 1577SOL     OW 5629   4.211   5.709   4.233
 1577SOL    HW1 5630   4.133   5.712   4.171
 1577SOL    HW2 5631   4.232   5.614   4.256
 1578SOL     OW 5632   5.127   1.819   1.510
 1578SOL    HW1 5633   5.214   1.850   1.549
 1578SOL    HW2 5634   5.120   1.849   1.415
 1579SOL     OW 5635   1.412   3.239   2.185
 1579SOL    HW1 5636   1.377   3.230   2.092
 1579SOL    HW2 5637   1.380   3.325   2.225
 1580SOL     OW 5638   3.387   3.985   4.025
 1580SOL    HW1 5639   3.288   3.978   4.037
 1580SOL    HW2 5640   3.408   4.000   3.929
 1581SOL     OW 5641   5.082   4.719   5.291
 1581SOL    HW1 5642   5.012   4.654   5.320
 1581SOL    HW2 5643   5.153   4.726   5.362
 1582SOL     OW 5644   4.233   6.022   4.076
 1582SOL    HW1 5645   4.326   6.057   4.067
 1582SOL    HW2 5646   4.235   5.937   4.129
 1583SOL     OW 5647   0.499   5.342   4.708
 1583SOL    HW1 5648   0.529   5.403   4.781
 1583SOL    HW2 5649   0.409   5.304   4.731
 1584SOL     OW 5650   0.017   4.268   0.070
 1584SOL    HW1 5651   0.099   4.215   0.047
 1584SOL    HW2 5652   6.954   4.215   0.048
 1585SOL     OW 5653   4.913   6.286   4.427
 1585SOL    HW1 5654   4.999   6.280   4.377
 1585SOL    HW2 5655   4.844   6.331   4.370
 1586SOL     OW 5656   2.339   5.830   3.827
 1586SOL    HW1 5657   2.374   5.874   3.743
 1586SOL    HW2 5658   2.414   5.819   3.892
 1587SOL     OW 5659   3.781   6.414   0.439
 1587SOL    HW1 5660   3.826   6.493   0.398
 1587SOL    HW2 5661   3.716   6.445   0.508
 1588SOL     OW 5662   6.459   1.993   3.703
 1588SOL    HW1 5663   6.458   1.894   3.690
 1588SOL    HW2 5664   6.436   2.014   3.799
 1589SOL     OW 5665   0.202   1.595   4.298
 1589SOL    HW1 5666   0.217   1.624   4.203
 1589SOL    HW2 5667   0.146   1.662   4.345
 1590SOL     OW 5668   5.508   0.418   3.798
 1590SOL    HW1 5669   5.597   0.458   3.821
 1590SOL    HW2 5670   5.512   0.376   3.708
 1591SOL     OW 5671   0.278   5.921   0.609
 1591SOL    HW1 5672   0.215   5.987   0.650
 1591SOL    HW2 5673   0.357   5.969   0.572
 1592SOL     OW 5674   6.606   4.041   4.900
 1592SOL    HW1 5675   6.669   3.978   4.857
 1592SOL    HW2 5676   6.529   4.059   4.839
 1593SOL     OW 5677   3.644   5.726   1.633
 1593SOL    HW1 5678   3.566   5.748   1.691
 1593SOL    HW2 5679   3.670   5.807   1.580
 1594SOL     OW 5680   5.157   1.623   2.697
 1594SOL    HW1 5681   5.137   1.619   2.599
 1594SOL    HW2 5682   5.073   1.646   2.746
 1595SOL     OW 5683   0.054   3.909   6.617
 1595SOL    HW1 5684   0.073   3.999   6.579
 1595SOL    HW2 5685   0.110   3.841   6.570
 1596SOL     OW 5686   5.078   4.508   4.060
 1596SOL    HW1 5687   5.033   4.490   3.973
 1596SOL    HW2 5688   5.094   4.422   4.108
 1597SOL     OW 5689   4.190   7.001   1.374
 1597SOL    HW1 5690   4.251   6.967   1.444
 1597SOL    HW2 5691   4.100   0.003   1.414
 1598SOL     OW 5692   0.917   5.051   5.873
 1598SOL    HW1 5693   0.991   5.067   5.808
 1598SOL    HW2 5694   0.862   4.974   5.843
 1599SOL     OW 5695   5.082   5.321   3.700
 1599SOL    HW1 5696   4.988   5.320   3.667
 1599SOL    HW2 5697   5.083   5.345   3.798
 1600SOL     OW 5698   4.313   0.913   1.270
 1600SOL    HW1 5699   4.316   0.814   1.284
 1600SOL    HW2 5700   4.389   0.956   1.320
 1601SOL     OW 5701   6.270   0.520   4.184
 1601SOL    HW1 5702   6.344   0.585   4.167
 1601SOL    HW2 5703   6.194   0.567   4.228
 1602SOL     OW 5704   4.272   5.829   3.108
 1602SOL    HW1 5705   4.306   5.751   3.160
 1602SOL    HW2 5706   4.271   5.806   3.010
 1603SOL     OW 5707   3.419   4.841   1.724
 1603SOL    HW1 5708   3.487   4.778   1.761
 1603SOL    HW2 5709   3.464   4.908   1.664
 1604SOL     OW 5710   4.565   5.250   2.141
 1604SOL    HW1 5711   4.577   5.192   2.061
 1604SOL    HW2 5712   4.599   5.342   2.121
 1605SOL     OW 5713   4.804   4.717   0.461
 1605SOL    HW1 5714   4.863   4.796   0.447
 1605SOL    HW2 5715   4.778   4.679   0.372
 1606SOL     OW 5716   4.049   6.084   4.954
 1606SOL    HW1 5717   4.063   6.158   5.020
 1606SOL    HW2 5718   4.012   6.121   4.869
 1607SOL     OW 5719   4.891   3.740   3.818
 1607SOL    HW1 5720   4.856   3.831   3.798
 1607SOL    HW2 5721   4.870   3.716   3.912
 1608SOL     OW 5722   6.297   3.013   3.305
 1608SOL    HW1 5723   6.261   2.922   3.327
 1608SOL    HW2 5724   6.232   3.060   3.245
 1609SOL     OW 5725   1.909   0.120   0.802
 1609SOL    HW1 5726   1.823   0.070   0.787
 1609SOL    HW2 5727   1.889   0.212   0.834
 1610SOL     OW 5728   5.846   6.229   1.267
 1610SOL    HW1 5729   5.891   6.303   1.218
 1610SOL    HW2 5730   5.850   6.145   1.213
 1611SOL     OW 5731   0.438   4.355   6.753
 1611SOL    HW1 5732   0.519   4.297   6.741
 1611SOL    HW2 5733   0.467   4.448   6.774
 1612SOL     OW 5734   5.124   1.080   1.710
 1612SOL    HW1 5735   5.159   1.044   1.623
 1612SOL    HW2 5736   5.157   1.023   1.785
 1613SOL     OW 5737   0.372   6.180   2.588
 1613SOL    HW1 5738   0.389   6.275   2.562
 1613SOL    HW2 5739   0.400   6.119   2.513
 1614SOL     OW 5740   5.771   1.548   5.378
 1614SOL    HW1 5741   5.730   1.621   5.433
 1614SOL    HW2 5742   5.871   1.557   5.381
 1615SOL     OW 5743   6.662   3.308   5.343
 1615SOL    HW1 5744   6.598   3.347   5.277
 1615SOL    HW2 5745   6.755   3.339   5.323
 1616SOL     OW 5746   0.764   1.363   3.457
 1616SOL    HW1 5747   0.855   1.373   3.497
 1616SOL    HW2 5748   0.721   1.280   3.491
 1617SOL     OW 5749   6.867   5.581   4.211
 1617SOL    HW1 5750   6.855   5.678   4.230
 1617SOL    HW2 5751   6.900   5.535   4.294
 1618SOL     OW 5752   2.928   5.422   3.302
 1618SOL    HW1 5753   2.886   5.338   3.267
 1618SOL    HW2 5754   2.857   5.485   3.333
 1619SOL     OW 5755   0.670   3.290   6.325
 1619SOL    HW1 5756   0.658   3.328   6.234
 1619SOL    HW2 5757   0.716   3.357   6.384
 1620SOL     OW 5758   2.698   6.866   4.528
 1620SOL    HW1 5759   2.667   6.936   4.464
 1620SOL    HW2 5760   2.620   6.833   4.581
 1621SOL     OW 5761   5.496   4.925   1.107
 1621SOL    HW1 5762   5.551   5.007   1.122
 1621SOL    HW2 5763   5.427   4.917   1.178
 1622SOL     OW 5764   6.529   3.072   3.145
 1622SOL    HW1 5765   6.443   3.034   3.178
 1622SOL    HW2 5766   6.589   2.998   3.114
 1623SOL     OW 5767   0.584   2.525   3.906
 1623SOL    HW1 5768   0.581   2.471   3.822
 1623SOL    HW2 5769   0.620   2.468   3.981
 1624SOL     OW 5770   4.417   2.956   0.553
 1624SOL    HW1 5771   4.467   3.031   0.596
 1624SOL    HW2 5772   4.476   2.876   0.546
 1625SOL     OW 5773   0.990   6.131   0.414
 1625SOL    HW1 5774   0.992   6.221   0.458
 1625SOL    HW2 5775   0.945   6.139   0.325
 1626SOL     OW 5776   2.495   1.915   2.175
 1626SOL    HW1 5777   2.492   1.973   2.093
 1626SOL    HW2 5778   2.453   1.827   2.155
 1627SOL     OW 5779   4.614   1.441   5.937
 1627SOL    HW1 5780   4.650   1.523   5.892
 1627SOL    HW2 5781   4.690   1.385   5.970
 1628SOL     OW 5782   5.215   6.044   1.110
 1628SOL    HW1 5783   5.158   5.977   1.159
 1628SOL    HW2 5784   5.185   6.136   1.134
 1629SOL     OW 5785   1.741   6.941   3.355
 1629SOL    HW1 5786   1.801   7.009   3.397
 1629SOL    HW2 5787   1.783   6.907   3.271
 1630SOL     OW 5788   0.340   4.839   6.380
 1630SOL    HW1 5789   0.380   4.749   6.400
 1630SOL    HW2 5790   0.383   4.877   6.298
 1631SOL     OW 5791   5.189   3.880   0.373
 1631SOL    HW1 5792   5.094   3.861   0.398
 1631SOL    HW2 5793   5.202   3.979   0.364
 1632SOL     OW 5794   6.240   6.591   2.318
 1632SOL    HW1 5795   6.259   6.493   2.316
 1632SOL    HW2 5796   6.168   6.610   2.385
 1633SOL     OW 5797   6.020   3.900   4.297
 1633SOL    HW1 5798   5.995   3.828   4.232
 1633SOL    HW2 5799   6.090   3.959   4.256
 1634SOL     OW 5800   1.559   3.700   6.410
 1634SOL    HW1 5801   1.533   3.669   6.502
 1634SOL    HW2 5802   1.477   3.717   6.356
 1635SOL     OW 5803   2.795   0.437   4.156
 1635SOL    HW1 5804   2.736   0.447   4.236
 1635SOL    HW2 5805   2.802   0.524   4.108
 1636SOL     OW 5806   0.507   6.293   1.418
 1636SOL    HW1 5807   0.505   6.203   1.461
 1636SOL    HW2 5808   0.462   6.359   1.478
 1637SOL     OW 5809   1.282   1.244   1.935
 1637SOL    HW1 5810   1.194   1.279   1.903
 1637SOL    HW2 5811   1.275   1.145   1.948
 1638SOL     OW 5812   5.457   2.291   3.523
 1638SOL    HW1 5813   5.438   2.194   3.514
 1638SOL    HW2 5814   5.503   2.309   3.610
 1639SOL     OW 5815   4.872   2.536   1.304
 1639SOL    HW1 5816   4.857   2.483   1.388
 1639SOL    HW2 5817   4.825   2.491   1.228
 1640SOL     OW 5818   6.415   0.982   0.207
 1640SOL    HW1 5819   6.471   1.053   0.251
 1640SOL    HW2 5820   6.319   1.012   0.205
 1641SOL     OW 5821   5.630   0.975   3.078
 1641SOL    HW1 5822   5.590   1.048   3.134
 1641SOL    HW2 5823   5.558   0.913   3.047
 1642SOL     OW 5824   6.965   3.114   5.736
 1642SOL    HW1 5825   6.918   3.200   5.756
 1642SOL    HW2 5826   6.966   3.098   5.637
 1643SOL     OW 5827   2.460   5.171   4.183
 1643SOL    HW1 5828   2.460   5.208   4.276
 1643SOL    HW2 5829   2.386   5.104   4.174
 1644SOL     OW 5830   5.682   1.830   1.383
 1644SOL    HW1 5831   5.605   1.787   1.336
 1644SOL    HW2 5832   5.765   1.818   1.329
 1645SOL     OW 5833   2.594   0.877   4.490
 1645SOL    HW1 5834   2.646   0.934   4.427
 1645SOL    HW2 5835   2.522   0.829   4.440
 1646SOL     OW 5836   0.517   5.417   1.624
 1646SOL    HW1 5837   0.508   5.451   1.530
 1646SOL    HW2 5838   0.613   5.410   1.648
 1647SOL     OW 5839   6.157   3.252   4.755
 1647SOL    HW1 5840   6.064   3.265   4.791
 1647SOL    HW2 5841   6.158   3.276   4.657
 1648SOL     OW 5842   5.263   6.301   2.144
 1648SOL    HW1 5843   5.320   6.380   2.167
 1648SOL    HW2 5844   5.320   6.227   2.110
 1649SOL     OW 5845   3.722   0.730   2.780
 1649SOL    HW1 5846   3.697   0.725   2.684
 1649SOL    HW2 5847   3.643   0.758   2.835
 1650SOL     OW 5848   2.505   2.587   5.024
 1650SOL    HW1 5849   2.431   2.649   4.996
 1650SOL    HW2 5850   2.482   2.494   4.998
 1651SOL     OW 5851   1.293   2.096   4.137
 1651SOL    HW1 5852   1.270   2.175   4.194
 1651SOL    HW2 5853   1.343   2.030   4.191
 1652SOL     OW 5854   0.097   4.437   1.907
 1652SOL    HW1 5855   0.016   4.494   1.923
 1652SOL    HW2 5856   0.068   4.344   1.884
 1653SOL     OW 5857   6.794   4.534   2.165
 1653SOL    HW1 5858   6.701   4.500   2.181
 1653SOL    HW2 5859   6.857   4.491   2.230
 1654SOL     OW 5860   0.220   3.687   2.014
 1654SOL    HW1 5861   0.252   3.643   2.098
 1654SOL    HW2 5862   0.121   3.700   2.019
 1655SOL     OW 5863   6.944   0.739   6.215
 1655SOL    HW1 5864   6.885   0.730   6.296
 1655SOL    HW2 5865   6.975   0.649   6.186
 1656SOL     OW 5866   2.222   4.042   2.551
 1656SOL    HW1 5867   2.268   4.074   2.634
 1656SOL    HW2 5868   2.254   4.097   2.473
 1657SOL     OW 5869   0.530   1.169   6.021
 1657SOL    HW1 5870   0.578   1.228   6.086
 1657SOL    HW2 5871   0.434   1.197   6.015
 1658SOL     OW 5872   5.378   6.881   5.724
 1658SOL    HW1 5873   5.411   6.923   5.639
 1658SOL    HW2 5874   5.314   6.943   5.769
 1659SOL     OW 5875   3.564   0.309   6.582
 1659SOL    HW1 5876   3.525   0.223   6.550
 1659SOL    HW2 5877   3.535   0.383   6.520
 1660SOL     OW 5878   2.543   0.851   1.917
 1660SOL    HW1 5879   2.477   0.789   1.959
 1660SOL    HW2 5880   2.615   0.874   1.983
 1661SOL     OW 5881   4.694   4.887   3.551
 1661SOL    HW1 5882   4.712   4.862   3.646
 1661SOL    HW2 5883   4.613   4.946   3.546
 1662SOL     OW 5884   0.088   1.589   3.798
 1662SOL    HW1 5885   0.111   1.618   3.705
 1662SOL    HW2 5886   0.106   1.491   3.808
 1663SOL     OW 5887   5.567   4.245   0.909
 1663SOL    HW1 5888   5.616   4.267   0.824
 1663SOL    HW2 5889   5.629   4.199   0.972
 1664SOL     OW 5890   1.392   1.751   6.240
 1664SOL    HW1 5891   1.423   1.721   6.150
 1664SOL    HW2 5892   1.302   1.795   6.231
 1665SOL     OW 5893   2.107   4.202   6.954
 1665SOL    HW1 5894   2.197   4.185   6.915
 1665SOL    HW2 5895   2.037   4.181   6.886
 1666SOL     OW 5896   5.438   6.288   5.527
 1666SOL    HW1 5897   5.515   6.279   5.464
 1666SOL    HW2 5898   5.360   6.235   5.493
 1667SOL     OW 5899   6.769   5.172   0.983
 1667SOL    HW1 5900   6.746   5.181   1.080
 1667SOL    HW2 5901   6.830   5.093   0.970
 1668SOL     OW 5902   6.568   3.360   1.820
 1668SOL    HW1 5903   6.568   3.323   1.913
 1668SOL    HW2 5904   6.486   3.328   1.772
 1669SOL     OW 5905   6.158   2.680   5.125
 1669SOL    HW1 5906   6.127   2.635   5.209
 1669SOL    HW2 5907   6.085   2.681   5.058
 1670SOL     OW 5908   3.095   4.414   5.299
 1670SOL    HW1 5909   3.029   4.475   5.256
 1670SOL    HW2 5910   3.105   4.331   5.245
 1671SOL     OW 5911   5.823   2.349   0.684
 1671SOL    HW1 5912   5.890   2.391   0.623
 1671SOL    HW2 5913   5.777   2.420   0.738
 1672SOL     OW 5914   0.146   2.021   1.624
 1672SOL    HW1 5915   0.170   1.925   1.610
 1672SOL    HW2 5916   0.148   2.070   1.537
 1673SOL     OW 5917   1.408   0.627   5.390
 1673SOL    HW1 5918   1.355   0.672   5.462
 1673SOL    HW2 5919   1.388   0.529   5.390
 1674SOL     OW 5920   4.946   2.109   3.342
 1674SOL    HW1 5921   5.011   2.171   3.297
 1674SOL    HW2 5922   4.988   2.072   3.426
 1675SOL     OW 5923   5.211   0.952   2.219
 1675SOL    HW1 5924   5.118   0.942   2.254
 1675SOL    HW2 5925   5.271   0.886   2.264
 1676SOL     OW 5926   1.145   2.581   4.259
 1676SOL    HW1 5927   1.131   2.669   4.305
 1676SOL    HW2 5928   1.088   2.578   4.177
 1677SOL     OW 5929   3.175   4.099   2.385
 1677SOL    HW1 5930   3.179   4.199   2.382
 1677SOL    HW2 5931   3.240   4.065   2.454
 1678SOL     OW 5932   0.383   6.619   7.007
 1678SOL    HW1 5933   0.325   6.679   0.044
 1678SOL    HW2 5934   0.398   6.661   6.917
 1679SOL     OW 5935   6.135   1.818   0.322
 1679SOL    HW1 5936   6.138   1.815   0.222
 1679SOL    HW2 5937   6.223   1.849   0.357
 1680SOL     OW 5938   6.024   2.378   2.968
 1680SOL    HW1 5939   6.050   2.472   2.992
 1680SOL    HW2 5940   5.954   2.381   2.896
 1681SOL     OW 5941   3.966   6.686   4.662
 1681SOL    HW1 5942   4.050   6.649   4.621
 1681SOL    HW2 5943   3.895   6.693   4.592
 1682SOL     OW 5944   3.920   1.091   4.904
 1682SOL    HW1 5945   3.966   1.008   4.875
 1682SOL    HW2 5946   3.864   1.127   4.829
 1683SOL     OW 5947   1.232   2.997   2.947
 1683SOL    HW1 5948   1.275   3.074   2.901
 1683SOL    HW2 5949   1.182   3.030   3.027
 1684SOL     OW 5950   2.884   5.210   1.549
 1684SOL    HW1 5951   2.950   5.209   1.474
 1684SOL    HW2 5952   2.910   5.140   1.616
 1685SOL     OW 5953   0.188   1.645   5.570
 1685SOL    HW1 5954   0.115   1.588   5.607
 1685SOL    HW2 5955   0.174   1.740   5.597
 1686SOL     OW 5956   3.378   5.449   1.731
 1686SOL    HW1 5957   3.385   5.511   1.809
 1686SOL    HW2 5958   3.459   5.389   1.728
 1687SOL     OW 5959   4.463   4.297   0.370
 1687SOL    HW1 5960   4.490   4.340   0.456
 1687SOL    HW2 5961   4.419   4.209   0.388
 1688SOL     OW 5962   2.853   0.390   2.937
 1688SOL    HW1 5963   2.930   0.407   2.997
 1688SOL    HW2 5964   2.786   0.464   2.947
 1689SOL     OW 5965   4.010   0.408   1.783
 1689SOL    HW1 5966   3.914   0.408   1.756
 1689SOL    HW2 5967   4.029   0.491   1.836
 1690SOL     OW 5968   6.674   4.862   4.071
 1690SOL    HW1 5969   6.650   4.843   4.166
 1690SOL    HW2 5970   6.771   4.840   4.056
 1691SOL     OW 5971   4.102   2.622   5.406
 1691SOL    HW1 5972   4.177   2.670   5.451
 1691SOL    HW2 5973   4.140   2.552   5.345
 1692SOL     OW 5974   6.261   5.152   2.810
 1692SOL    HW1 5975   6.355   5.149   2.775
 1692SOL    HW2 5976   6.263   5.170   2.908
 1693SOL     OW 5977   5.414   7.012   5.470
 1693SOL    HW1 5978   5.450   0.087   5.483
 1693SOL    HW2 5979   5.402   6.994   5.373
 1694SOL     OW 5980   4.511   1.012   6.698
 1694SOL    HW1 5981   4.439   1.057   6.751
 1694SOL    HW2 5982   4.495   1.027   6.600
 1695SOL     OW 5983   4.676   0.149   4.710
 1695SOL    HW1 5984   4.724   0.226   4.752
 1695SOL    HW2 5985   4.653   0.171   4.616
 1696SOL     OW 5986   5.105   6.687   1.028
 1696SOL    HW1 5987   5.160   6.667   0.946
 1696SOL    HW2 5988   5.061   6.603   1.059
 1697SOL     OW 5989   4.328   3.248   1.566
 1697SOL    HW1 5990   4.363   3.198   1.644
 1697SOL    HW2 5991   4.397   3.250   1.493
 1698SOL     OW 5992   4.239   0.989   1.923
 1698SOL    HW1 5993   4.248   1.088   1.928
 1698SOL    HW2 5994   4.150   0.965   1.884
 1699SOL     OW 5995   1.614   0.753   1.081
 1699SOL    HW1 5996   1.609   0.777   1.178
 1699SOL    HW2 5997   1.699   0.703   1.063
 1700SOL     OW 5998   5.478   3.441   2.435
 1700SOL    HW1 5999   5.542   3.517   2.434
 1700SOL    HW2 6000   5.528   3.355   2.419
 1701SOL     OW 6001   1.135   5.462   5.438
 1701SOL    HW1 6002   1.153   5.560   5.442
 1701SOL    HW2 6003   1.041   5.446   5.408
 1702SOL     OW 6004   2.010   2.478   6.786
 1702SOL    HW1 6005   2.056   2.543   6.846
 1702SOL    HW2 6006   2.027   2.503   6.690
 1703SOL     OW 6007   1.338   2.375   2.380
 1703SOL    HW1 6008   1.355   2.468   2.412
 1703SOL    HW2 6009   1.287   2.378   2.295
 1704SOL     OW 6010   3.141   3.103   6.629
 1704SOL    HW1 6011   3.100   3.195   6.626
 1704SOL    HW2 6012   3.188   3.090   6.716
 1705SOL     OW 6013   5.323   2.881   0.681
 1705SOL    HW1 6014   5.367   2.832   0.756
 1705SOL    HW2 6015   5.288   2.969   0.715
 1706SOL     OW 6016   5.667   0.894   5.946
 1706SOL    HW1 6017   5.680   0.797   5.927
 1706SOL    HW2 6018   5.647   0.907   6.044
 1707SOL     OW 6019   3.511   1.447   2.277
 1707SOL    HW1 6020   3.552   1.538   2.265
 1707SOL    HW2 6021   3.495   1.431   2.375
 1708SOL     OW 6022   2.531   4.539   1.974
 1708SOL    HW1 6023   2.625   4.561   1.996
 1708SOL    HW2 6024   2.528   4.487   1.888
 1709SOL     OW 6025   5.195   4.606   1.452
 1709SOL    HW1 6026   5.156   4.514   1.446
 1709SOL    HW2 6027   5.255   4.622   1.374
 1710SOL     OW 6028   4.827   2.757   2.158
 1710SOL    HW1 6029   4.747   2.706   2.189
 1710SOL    HW2 6030   4.800   2.850   2.135
 1711SOL     OW 6031   4.494   5.498   6.893
 1711SOL    HW1 6032   4.492   5.494   6.993
 1711SOL    HW2 6033   4.485   5.405   6.856
 1712SOL     OW 6034   0.621   2.023   2.264
 1712SOL    HW1 6035   0.524   2.027   2.286
 1712SOL    HW2 6036   0.632   2.020   2.165
 1713SOL     OW 6037   2.896   1.744   2.311
 1713SOL    HW1 6038   2.875   1.744   2.213
 1713SOL    HW2 6039   2.828   1.798   2.360
 1714SOL     OW 6040   2.969   4.462   1.325
 1714SOL    HW1 6041   3.044   4.404   1.357
 1714SOL    HW2 6042   2.932   4.514   1.403
 1715SOL     OW 6043   1.606   6.060   1.095
 1715SOL    HW1 6044   1.700   6.083   1.120
 1715SOL    HW2 6045   1.580   5.974   1.138
 1716SOL     OW 6046   4.930   1.350   2.950
 1716SOL    HW1 6047   4.860   1.283   2.925
 1716SOL    HW2 6048   4.920   1.431   2.892
 1717SOL     OW 6049   3.701   5.976   4.087
 1717SOL    HW1 6050   3.609   5.945   4.107
 1717SOL    HW2 6051   3.768   5.918   4.134
 1718SOL     OW 6052   1.992   3.572   1.734
 1718SOL    HW1 6053   2.024   3.480   1.713
 1718SOL    HW2 6054   1.974   3.580   1.832
 1719SOL     OW 6055   1.165   4.935   3.489
 1719SOL    HW1 6056   1.075   4.914   3.527
 1719SOL    HW2 6057   1.223   4.853   3.495
 1720SOL     OW 6058   1.410   2.859   5.147
 1720SOL    HW1 6059   1.479   2.875   5.077
 1720SOL    HW2 6060   1.397   2.761   5.160
 1721SOL     OW 6061   2.304   2.575   0.202
 1721SOL    HW1 6062   2.293   2.668   0.239
 1721SOL    HW2 6063   2.276   2.508   0.270
 1722SOL     OW 6064   3.101   2.114   3.510
 1722SOL    HW1 6065   3.059   2.030   3.474
 1722SOL    HW2 6066   3.198   2.116   3.484
 1723SOL     OW 6067   6.546   4.901   1.277
 1723SOL    HW1 6068   6.611   4.972   1.307
 1723SOL    HW2 6069   6.455   4.923   1.311
 1724SOL     OW 6070   6.013   3.523   0.770
 1724SOL    HW1 6071   5.959   3.605   0.791
 1724SOL    HW2 6072   6.078   3.544   0.698
 1725SOL     OW 6073   1.815   6.622   5.932
 1725SOL    HW1 6074   1.757   6.626   5.851
 1725SOL    HW2 6075   1.787   6.544   5.989
 1726SOL     OW 6076   4.900   4.993   3.827
 1726SOL    HW1 6077   4.912   5.024   3.921
 1726SOL    HW2 6078   4.987   4.960   3.791
 1727SOL     OW 6079   2.946   3.239   3.916
 1727SOL    HW1 6080   2.874   3.292   3.962
 1727SOL    HW2 6081   2.903   3.173   3.854
 1728SOL     OW 6082   5.569   1.920   4.962
 1728SOL    HW1 6083   5.517   1.998   4.928
 1728SOL    HW2 6084   5.645   1.952   5.018
 1729SOL     OW 6085   1.924   3.164   2.857
 1729SOL    HW1 6086   1.986   3.229   2.814
 1729SOL    HW2 6087   1.902   3.091   2.792
 1730SOL     OW 6088   2.691   0.520   4.617
 1730SOL    HW1 6089   2.676   0.578   4.697
 1730SOL    HW2 6090   2.789   0.505   4.605
 1731SOL     OW 6091   5.814   4.576   3.663
 1731SOL    HW1 6092   5.907   4.567   3.628
 1731SOL    HW2 6093   5.758   4.624   3.596
 1732SOL     OW 6094   4.028   3.353   5.262
 1732SOL    HW1 6095   3.972   3.409   5.201
 1732SOL    HW2 6096   3.993   3.259   5.264
 1733SOL     OW 6097   1.243   2.200   6.872
 1733SOL    HW1 6098   1.308   2.179   6.945
 1733SOL    HW2 6099   1.291   2.233   6.791
 1734SOL     OW 6100   0.658   4.297   1.778
 1734SOL    HW1 6101   0.704   4.218   1.737
 1734SOL    HW2 6102   0.635   4.363   1.706
 1735SOL     OW 6103   3.208   5.632   5.847
 1735SOL    HW1 6104   3.296   5.642   5.800
 1735SOL    HW2 6105   3.139   5.602   5.782
 1736SOL     OW 6106   4.768   1.846   5.562
 1736SOL    HW1 6107   4.863   1.824   5.544
 1736SOL    HW2 6108   4.721   1.868   5.476
 1737SOL     OW 6109   2.670   1.169   6.364
 1737SOL    HW1 6110   2.689   1.082   6.320
 1737SOL    HW2 6111   2.690   1.244   6.301
 1738SOL     OW 6112   1.323   3.797   1.889
 1738SOL    HW1 6113   1.342   3.825   1.983
 1738SOL    HW2 6114   1.280   3.873   1.840
 1739SOL     OW 6115   4.667   5.117   2.367
 1739SOL    HW1 6116   4.601   5.142   2.297
 1739SOL    HW2 6117   4.755   5.096   2.324
 1740SOL     OW 6118   6.779   2.245   4.604
 1740SOL    HW1 6119   6.681   2.259   4.622
 1740SOL    HW2 6120   6.812   2.167   4.657
 1741SOL     OW 6121   1.024   3.218   4.327
 1741SOL    HW1 6122   1.106   3.251   4.373
 1741SOL    HW2 6123   1.023   3.118   4.327
 1742SOL     OW 6124   5.861   0.047   6.938
 1742SOL    HW1 6125   5.779   0.004   6.902
 1742SOL    HW2 6126   5.847   0.069   0.017
 1743SOL     OW 6127   1.129   2.302   1.544
 1743SOL    HW1 6128   1.076   2.316   1.461
 1743SOL    HW2 6129   1.139   2.204   1.562
 1744SOL     OW 6130   3.286   1.864   5.079
 1744SOL    HW1 6131   3.286   1.781   5.134
 1744SOL    HW2 6132   3.286   1.944   5.140
 1745SOL     OW 6133   6.530   6.375   0.922
 1745SOL    HW1 6134   6.568   6.417   0.840
 1745SOL    HW2 6135   6.431   6.390   0.925
 1746SOL     OW 6136   2.573   5.471   2.550
 1746SOL    HW1 6137   2.667   5.446   2.525
 1746SOL    HW2 6138   2.511   5.399   2.519
 1747SOL     OW 6139   2.659   6.964   2.209
 1747SOL    HW1 6140   2.687   6.900   2.280
 1747SOL    HW2 6141   2.669   6.921   2.119
 1748SOL     OW 6142   6.729   1.444   4.023
 1748SOL    HW1 6143   6.783   1.527   4.038
 1748SOL    HW2 6144   6.779   1.382   3.963
 1749SOL     OW 6145   6.682   4.919   2.768
 1749SOL    HW1 6146   6.689   4.847   2.837
 1749SOL    HW2 6147   6.764   4.920   2.712
 1750SOL     OW 6148   2.998   1.181   0.956
 1750SOL    HW1 6149   3.089   1.145   0.978
 1750SOL    HW2 6150   2.981   1.263   1.011
 1751SOL     OW 6151   6.411   4.407   4.594
 1751SOL    HW1 6152   6.341   4.402   4.665
 1751SOL    HW2 6153   6.470   4.486   4.611
 1752SOL     OW 6154   6.237   0.870   2.433
 1752SOL    HW1 6155   6.168   0.878   2.361
 1752SOL    HW2 6156   6.192   0.863   2.522
 1753SOL     OW 6157   6.287   1.440   1.458
 1753SOL    HW1 6158   6.303   1.414   1.362
 1753SOL    HW2 6159   6.304   1.538   1.469
 1754SOL     OW 6160   2.436   5.151   3.417
 1754SOL    HW1 6161   2.518   5.194   3.379
 1754SOL    HW2 6162   2.447   5.140   3.516
 1755SOL     OW 6163   6.265   6.247   5.374
 1755SOL    HW1 6164   6.264   6.167   5.315
 1755SOL    HW2 6165   6.185   6.304   5.355
 1756SOL     OW 6166   4.415   6.191   1.632
 1756SOL    HW1 6167   4.363   6.196   1.547
 1756SOL    HW2 6168   4.480   6.267   1.636
 1757SOL     OW 6169   2.883   5.146   4.795
 1757SOL    HW1 6170   2.901   5.084   4.871
 1757SOL    HW2 6171   2.938   5.229   4.806
 1758SOL     OW 6172   0.561   6.264   4.238
 1758SOL    HW1 6173   0.601   6.180   4.202
 1758SOL    HW2 6174   0.471   6.244   4.276
 1759SOL     OW 6175   1.851   5.382   6.152
 1759SOL    HW1 6176   1.819   5.457   6.094
 1759SOL    HW2 6177   1.931   5.413   6.204
 1760SOL     OW 6178   5.948   1.499   3.977
 1760SOL    HW1 6179   5.899   1.531   4.058
 1760SOL    HW2 6180   6.046   1.503   3.994
 1761SOL     OW 6181   5.570   2.243   3.827
 1761SOL    HW1 6182   5.602   2.149   3.836
 1761SOL    HW2 6183   5.490   2.257   3.885
 1762SOL     OW 6184   0.723   1.869   5.754
 1762SOL    HW1 6185   0.656   1.899   5.687
 1762SOL    HW2 6186   0.735   1.770   5.746
 1763SOL     OW 6187   1.558   4.538   3.649
 1763SOL    HW1 6188   1.591   4.477   3.577
 1763SOL    HW2 6189   1.520   4.484   3.724
 1764SOL     OW 6190   1.020   5.636   3.565
 1764SOL    HW1 6191   1.070   5.704   3.619
 1764SOL    HW2 6192   1.042   5.648   3.468
 1765SOL     OW 6193   5.526   4.095   1.895
 1765SOL    HW1 6194   5.570   4.028   1.836
 1765SOL    HW2 6195   5.529   4.185   1.852
 1766SOL     OW 6196   4.111   5.055   3.708
 1766SOL    HW1 6197   4.062   4.989   3.652
 1766SOL    HW2 6198   4.172   5.006   3.771
 1767SOL     OW 6199   1.253   4.213   1.526
 1767SOL    HW1 6200   1.303   4.192   1.442
 1767SOL    HW2 6201   1.304   4.178   1.605
 1768SOL     OW 6202   3.680   4.965   3.138
 1768SOL    HW1 6203   3.769   4.951   3.094
 1768SOL    HW2 6204   3.682   4.927   3.231
 1769SOL     OW 6205   5.447   0.490   1.004
 1769SOL    HW1 6206   5.352   0.458   1.007
 1769SOL    HW2 6207   5.491   0.471   1.092
 1770SOL     OW 6208   2.170   4.525   0.675
 1770SOL    HW1 6209   2.151   4.623   0.676
 1770SOL    HW2 6210   2.211   4.498   0.763
 1771SOL     OW 6211   1.124   3.212   5.974
 1771SOL    HW1 6212   1.066   3.197   5.894
 1771SOL    HW2 6213   1.210   3.254   5.944
 1772SOL     OW 6214   2.730   4.756   2.498
 1772SOL    HW1 6215   2.761   4.739   2.404
 1772SOL    HW2 6216   2.807   4.748   2.560
 1773SOL     OW 6217   2.230   6.621   4.536
 1773SOL    HW1 6218   2.189   6.585   4.620
 1773SOL    HW2 6219   2.245   6.719   4.547
 1774SOL     OW 6220   5.464   5.666   2.017
 1774SOL    HW1 6221   5.391   5.630   2.075
 1774SOL    HW2 6222   5.546   5.682   2.073
 1775SOL     OW 6223   1.650   6.210   0.854
 1775SOL    HW1 6224   1.638   6.126   0.905
 1775SOL    HW2 6225   1.665   6.286   0.917
 1776SOL     OW 6226   4.594   3.107   6.260
 1776SOL    HW1 6227   4.584   3.018   6.216
 1776SOL    HW2 6228   4.624   3.175   6.192
 1777SOL     OW 6229   5.058   5.316   6.991
 1777SOL    HW1 6230   5.026   5.225   6.964
 1777SOL    HW2 6231   5.071   5.372   6.909
 1778SOL     OW 6232   6.962   0.348   3.024
 1778SOL    HW1 6233   0.013   0.352   2.952
 1778SOL    HW2 6234   6.871   0.334   2.984
 1779SOL     OW 6235   6.754   0.193   4.675
 1779SOL    HW1 6236   6.712   0.137   4.747
 1779SOL    HW2 6237   6.833   0.146   4.637
 1780SOL     OW 6238   2.881   6.691   4.399
 1780SOL    HW1 6239   2.950   6.736   4.343
 1780SOL    HW2 6240   2.825   6.760   4.445
 1781SOL     OW 6241   5.066   1.026   6.150
 1781SOL    HW1 6242   5.159   1.048   6.179
 1781SOL    HW2 6243   5.065   1.009   6.051
 1782SOL     OW 6244   5.032   0.476   2.371
 1782SOL    HW1 6245   4.962   0.520   2.315
 1782SOL    HW2 6246   5.088   0.546   2.415
 1783SOL     OW 6247   1.717   3.356   0.161
 1783SOL    HW1 6248   1.627   3.390   0.189
 1783SOL    HW2 6249   1.771   3.335   0.242
 1784SOL     OW 6250   2.248   5.716   1.437
 1784SOL    HW1 6251   2.276   5.642   1.375
 1784SOL    HW2 6252   2.257   5.804   1.390
 1785SOL     OW 6253   1.923   5.248   4.298
 1785SOL    HW1 6254   1.880   5.282   4.215
 1785SOL    HW2 6255   1.946   5.325   4.358
 1786SOL     OW 6256   0.382   5.624   1.799
 1786SOL    HW1 6257   0.453   5.580   1.744
 1786SOL    HW2 6258   0.306   5.652   1.740
 1787SOL     OW 6259   2.508   2.596   6.143
 1787SOL    HW1 6260   2.530   2.502   6.170
 1787SOL    HW2 6261   2.498   2.601   6.044
 1788SOL     OW 6262   3.521   4.439   0.658
 1788SOL    HW1 6263   3.534   4.363   0.594
 1788SOL    HW2 6264   3.428   4.435   0.695
 1789SOL     OW 6265   5.633   2.419   2.300
 1789SOL    HW1 6266   5.617   2.516   2.317
 1789SOL    HW2 6267   5.705   2.408   2.231
 1790SOL     OW 6268   2.491   2.088   4.920
 1790SOL    HW1 6269   2.514   2.176   4.960
 1790SOL    HW2 6270   2.408   2.052   4.962
 1791SOL     OW 6271   6.388   0.278   3.461
 1791SOL    HW1 6272   6.478   0.294   3.421
 1791SOL    HW2 6273   6.354   0.189   3.432
 1792SOL     OW 6274   6.729   2.556   5.931
 1792SOL    HW1 6275   6.810   2.576   5.876
 1792SOL    HW2 6276   6.715   2.628   5.999
 1793SOL     OW 6277   0.580   1.648   4.838
 1793SOL    HW1 6278   0.602   1.719   4.772
 1793SOL    HW2 6279   0.486   1.660   4.871
 1794SOL     OW 6280   6.629   1.651   6.655
 1794SOL    HW1 6281   6.704   1.647   6.720
 1794SOL    HW2 6282   6.654   1.712   6.579
 1795SOL     OW 6283   5.463   4.600   0.461
 1795SOL    HW1 6284   5.403   4.674   0.490
 1795SOL    HW2 6285   5.418   4.547   0.389
 1796SOL     OW 6286   6.211   0.071   6.872
 1796SOL    HW1 6287   6.168   0.144   6.925
 1796SOL    HW2 6288   6.160   0.058   6.786
 1797SOL     OW 6289   3.192   6.292   5.175
 1797SOL    HW1 6290   3.092   6.296   5.168
 1797SOL    HW2 6291   3.232   6.371   5.129
 1798SOL     OW 6292   2.334   3.896   6.672
 1798SOL    HW1 6293   2.381   3.957   6.606
 1798SOL    HW2 6294   2.334   3.939   6.762
 1799SOL     OW 6295   3.337   1.745   2.374
 1799SOL    HW1 6296   3.336   1.832   2.324
 1799SOL    HW2 6297   3.296   1.673   2.317
 1800SOL     OW 6298   5.776   2.104   5.686
 1800SOL    HW1 6299   5.684   2.122   5.652
 1800SOL    HW2 6300   5.776   2.019   5.738
 1801SOL     OW 6301   0.667   1.657   2.264
 1801SOL    HW1 6302   0.602   1.733   2.269
 1801SOL    HW2 6303   0.648   1.602   2.183
 1802SOL     OW 6304   6.346   4.761   4.474
 1802SOL    HW1 6305   6.320   4.727   4.384
 1802SOL    HW2 6306   6.266   4.799   4.520
 1803SOL     OW 6307   0.140   6.362   3.836
 1803SOL    HW1 6308   0.050   6.376   3.795
 1803SOL    HW2 6309   0.211   6.386   3.770
 1804SOL     OW 6310   0.926   3.204   6.553
 1804SOL    HW1 6311   0.945   3.189   6.650
 1804SOL    HW2 6312   0.877   3.291   6.542
 1805SOL     OW 6313   6.531   4.877   5.708
 1805SOL    HW1 6314   6.603   4.862   5.640
 1805SOL    HW2 6315   6.543   4.966   5.751
 1806SOL     OW 6316   0.420   1.187   1.553
 1806SOL    HW1 6317   0.493   1.133   1.596
 1806SOL    HW2 6318   0.386   1.255   1.618
 1807SOL     OW 6319   6.611   2.407   2.166
 1807SOL    HW1 6320   6.524   2.421   2.118
 1807SOL    HW2 6321   6.592   2.386   2.262
 1808SOL     OW 6322   6.485   0.556   6.655
 1808SOL    HW1 6323   6.403   0.550   6.711
 1808SOL    HW2 6324   6.547   0.624   6.693
 1809SOL     OW 6325   4.599   0.292   5.054
 1809SOL    HW1 6326   4.693   0.283   5.023
 1809SOL    HW2 6327   4.540   0.236   4.995
 1810SOL     OW 6328   0.934   1.759   5.110
 1810SOL    HW1 6329   1.006   1.828   5.103
 1810SOL    HW2 6330   0.850   1.802   5.143
 1811SOL     OW 6331   3.580   5.769   2.054
 1811SOL    HW1 6332   3.667   5.775   2.006
 1811SOL    HW2 6333   3.596   5.765   2.153
 1812SOL     OW 6334   4.184   0.860   6.601
 1812SOL    HW1 6335   4.220   0.951   6.624
 1812SOL    HW2 6336   4.209   0.795   6.672
 1813SOL     OW 6337   5.829   3.276   1.770
 1813SOL    HW1 6338   5.745   3.240   1.731
 1813SOL    HW2 6339   5.808   3.339   1.845
 1814SOL     OW 6340   6.486   5.731   0.968
 1814SOL    HW1 6341   6.502   5.792   0.891
 1814SOL    HW2 6342   6.511   5.638   0.942
 1815SOL     OW 6343   6.256   5.362   1.216
 1815SOL    HW1 6344   6.231   5.453   1.250
 1815SOL    HW2 6345   6.251   5.296   1.291
 1816SOL     OW 6346   3.594   4.939   4.421
 1816SOL    HW1 6347   3.645   4.925   4.506
 1816SOL    HW2 6348   3.658   4.947   4.345
 1817SOL     OW 6349   6.949   2.476   3.286
 1817SOL    HW1 6350   6.928   2.427   3.370
 1817SOL    HW2 6351   7.016   2.425   3.233
 1818SOL     OW 6352   2.472   1.880   0.634
 1818SOL    HW1 6353   2.509   1.795   0.672
 1818SOL    HW2 6354   2.507   1.958   0.686
 1819SOL     OW 6355   0.755   3.411   1.281
 1819SOL    HW1 6356   0.854   3.424   1.276
 1819SOL    HW2 6357   0.734   3.314   1.268
 1820SOL     OW 6358   4.047   6.906   5.150
 1820SOL    HW1 6359   4.126   6.964   5.130
 1820SOL    HW2 6360   4.032   6.843   5.073
 1821SOL     OW 6361   3.761   1.054   2.716
 1821SOL    HW1 6362   3.735   1.151   2.716
 1821SOL    HW2 6363   3.738   1.013   2.804
 1822SOL     OW 6364   1.961   4.092   4.560
 1822SOL    HW1 6365   1.991   4.135   4.645
 1822SOL    HW2 6366   1.922   4.002   4.580
 1823SOL     OW 6367   3.932   6.914   3.859
 1823SOL    HW1 6368   4.014   6.893   3.913
 1823SOL    HW2 6369   3.935   7.008   3.827
 1824SOL     OW 6370   4.613   2.728   1.851
 1824SOL    HW1 6371   4.634   2.825   1.867
 1824SOL    HW2 6372   4.515   2.718   1.833
 1825SOL     OW 6373   1.249   3.869   0.376
 1825SOL    HW1 6374   1.156   3.867   0.414
 1825SOL    HW2 6375   1.279   3.776   0.357
 1826SOL     OW 6376   3.402   3.356   0.257
 1826SOL    HW1 6377   3.488   3.326   0.298
 1826SOL    HW2 6378   3.343   3.394   0.328
 1827SOL     OW 6379   5.356   4.759   0.930
 1827SOL    HW1 6380   5.399   4.834   0.981
 1827SOL    HW2 6381   5.420   4.682   0.924
 1828SOL     OW 6382   2.576   5.062   4.976
 1828SOL    HW1 6383   2.616   4.989   4.921
 1828SOL    HW2 6384   2.588   5.149   4.929
 1829SOL     OW 6385   1.826   6.308   2.170
 1829SOL    HW1 6386   1.781   6.353   2.248
 1829SOL    HW2 6387   1.921   6.288   2.193
 1830SOL     OW 6388   4.480   1.267   6.545
 1830SOL    HW1 6389   4.539   1.330   6.494
 1830SOL    HW2 6390   4.405   1.318   6.586
 1831SOL     OW 6391   3.330   4.699   6.983
 1831SOL    HW1 6392   3.253   4.645   6.948
 1831SOL    HW2 6393   3.296   4.776   0.019
 1832SOL     OW 6394   2.085   3.108   5.859
 1832SOL    HW1 6395   2.138   3.182   5.900
 1832SOL    HW2 6396   2.033   3.061   5.930
 1833SOL     OW 6397   5.816   1.274   0.613
 1833SOL    HW1 6398   5.774   1.360   0.584
 1833SOL    HW2 6399   5.883   1.245   0.544
 1834SOL     OW 6400   1.969   4.013   6.398
 1834SOL    HW1 6401   1.988   3.996   6.301
 1834SOL    HW2 6402   1.870   4.008   6.413
 1835SOL     OW 6403   6.573   0.199   0.107
 1835SOL    HW1 6404   6.489   0.163   0.148
 1835SOL    HW2 6405   6.638   0.222   0.180
 1836SOL     OW 6406   5.806   1.466   4.220
 1836SOL    HW1 6407   5.723   1.425   4.184
 1836SOL    HW2 6408   5.874   1.395   4.237
 1837SOL     OW 6409   1.126   2.096   0.738
 1837SOL    HW1 6410   1.085   2.071   0.825
 1837SOL    HW2 6411   1.072   2.167   0.694
 1838SOL     OW 6412   5.179   0.366   1.012
 1838SOL    HW1 6413   5.093   0.412   1.034
 1838SOL    HW2 6414   5.183   0.349   0.913
 1839SOL     OW 6415   7.015   1.625   6.195
 1839SOL    HW1 6416   6.939   1.653   6.138
 1839SOL    HW2 6417   7.016   1.525   6.203
 1840SOL     OW 6418   2.845   0.325   5.231
 1840SOL    HW1 6419   2.896   0.242   5.206
 1840SOL    HW2 6420   2.870   0.399   5.168
 1841SOL     OW 6421   2.345   0.014   1.898
 1841SOL    HW1 6422   2.380   0.108   1.898
 1841SOL    HW2 6423   2.422   6.969   1.910
 1842SOL     OW 6424   0.066   4.663   1.563
 1842SOL    HW1 6425   0.001   4.687   1.491
 1842SOL    HW2 6426   0.159   4.679   1.531
 1843SOL     OW 6427   3.077   0.774   6.732
 1843SOL    HW1 6428   3.136   0.742   6.805
 1843SOL    HW2 6429   3.046   0.867   6.751
 1844SOL     OW 6430   4.879   3.439   0.738
 1844SOL    HW1 6431   4.841   3.425   0.829
 1844SOL    HW2 6432   4.849   3.527   0.702
 1845SOL     OW 6433   0.926   2.579   4.756
 1845SOL    HW1 6434   0.847   2.607   4.811
 1845SOL    HW2 6435   1.006   2.630   4.786
 1846SOL     OW 6436   3.827   1.665   2.468
 1846SOL    HW1 6437   3.761   1.650   2.541
 1846SOL    HW2 6438   3.780   1.696   2.386
 1847SOL     OW 6439   3.258   6.065   6.671
 1847SOL    HW1 6440   3.256   6.041   6.768
 1847SOL    HW2 6441   3.353   6.079   6.642
 1848SOL     OW 6442   3.062   6.032   4.578
 1848SOL    HW1 6443   3.068   5.942   4.536
 1848SOL    HW2 6444   2.966   6.059   4.586
 1849SOL     OW 6445   4.700   2.791   2.546
 1849SOL    HW1 6446   4.714   2.874   2.491
 1849SOL    HW2 6447   4.647   2.725   2.495
 1850SOL     OW 6448   4.984   1.353   1.014
 1850SOL    HW1 6449   5.036   1.312   1.090
 1850SOL    HW2 6450   4.886   1.336   1.029
 1851SOL     OW 6451   0.764   4.966   4.003
 1851SOL    HW1 6452   0.822   4.917   3.938
 1851SOL    HW2 6453   0.818   5.038   4.048
 1852SOL     OW 6454   0.849   6.876   3.432
 1852SOL    HW1 6455   0.756   6.912   3.439
 1852SOL    HW2 6456   0.858   6.824   3.347
 1853SOL     OW 6457   0.698   1.738   5.439
 1853SOL    HW1 6458   0.701   1.656   5.496
 1853SOL    HW2 6459   0.617   1.792   5.462
 1854SOL     OW 6460   0.443   6.990   4.191
 1854SOL    HW1 6461   0.494   0.058   4.191
 1854SOL    HW2 6462   0.507   6.914   4.202
 1855SOL     OW 6463   6.687   1.337   5.157
 1855SOL    HW1 6464   6.682   1.398   5.236
 1855SOL    HW2 6465   6.746   1.378   5.087
 1856SOL     OW 6466   5.173   3.968   6.372
 1856SOL    HW1 6467   5.247   3.983   6.306
 1856SOL    HW2 6468   5.085   3.967   6.323
 1857SOL     OW 6469   4.641   0.783   6.674
 1857SOL    HW1 6470   4.610   0.877   6.686
 1857SOL    HW2 6471   4.731   0.782   6.631
 1858SOL     OW 6472   5.606   2.199   4.333
 1858SOL    HW1 6473   5.552   2.138   4.275
 1858SOL    HW2 6474   5.545   2.257   4.386
 1859SOL     OW 6475   6.133   6.491   2.666
 1859SOL    HW1 6476   6.101   6.531   2.580
 1859SOL    HW2 6477   6.153   6.394   2.653
 1860SOL     OW 6478   2.224   0.821   6.989
 1860SOL    HW1 6479   2.322   0.839   6.989
 1860SOL    HW2 6480   2.208   0.722   6.983
 1861SOL     OW 6481   6.602   6.592   5.183
 1861SOL    HW1 6482   6.584   6.494   5.192
 1861SOL    HW2 6483   6.682   6.607   5.124
 1862SOL     OW 6484   3.868   5.242   5.421
 1862SOL    HW1 6485   3.774   5.245   5.456
 1862SOL    HW2 6486   3.914   5.160   5.457
 1863SOL     OW 6487   6.808   1.230   1.542
 1863SOL    HW1 6488   6.818   1.252   1.445
 1863SOL    HW2 6489   6.890   1.258   1.592
 1864SOL     OW 6490   2.206   5.998   2.733
 1864SOL    HW1 6491   2.215   6.097   2.721
 1864SOL    HW2 6492   2.269   5.967   2.804
 1865SOL     OW 6493   6.481   2.709   5.699
 1865SOL    HW1 6494   6.483   2.648   5.620
 1865SOL    HW2 6495   6.543   2.786   5.683
 1866SOL     OW 6496   0.481   4.004   5.251
 1866SOL    HW1 6497   0.511   4.036   5.342
 1866SOL    HW2 6498   0.386   4.032   5.237
 1867SOL     OW 6499   1.265   0.884   1.424
 1867SOL    HW1 6500   1.252   0.924   1.333
 1867SOL    HW2 6501   1.180   0.840   1.453
 1868SOL     OW 6502   5.697   3.315   5.739
 1868SOL    HW1 6503   5.761   3.252   5.784
 1868SOL    HW2 6504   5.749   3.384   5.689
 1869SOL     OW 6505   5.101   0.308   5.461
 1869SOL    HW1 6506   5.023   0.370   5.460
 1869SOL    HW2 6507   5.174   0.344   5.404
 1870SOL     OW 6508   5.713   0.698   5.563
 1870SOL    HW1 6509   5.756   0.767   5.503
 1870SOL    HW2 6510   5.784   0.649   5.613
 1871SOL     OW 6511   2.584   4.952   6.816
 1871SOL    HW1 6512   2.584   5.038   6.765
 1871SOL    HW2 6513   2.507   4.896   6.788
 1872SOL     OW 6514   2.442   3.513   0.862
 1872SOL    HW1 6515   2.437   3.498   0.961
 1872SOL    HW2 6516   2.456   3.425   0.816
 1873SOL     OW 6517   6.192   1.891   2.235
 1873SOL    HW1 6518   6.247   1.970   2.206
 1873SOL    HW2 6519   6.095   1.915   2.232
 1874SOL     OW 6520   2.258   5.143   6.200
 1874SOL    HW1 6521   2.168   5.136   6.157
 1874SOL    HW2 6522   2.318   5.072   6.163
 1875SOL     OW 6523   1.217   6.405   2.272
 1875SOL    HW1 6524   1.246   6.476   2.337
 1875SOL    HW2 6525   1.237   6.315   2.310
 1876SOL     OW 6526   0.949   4.763   6.070
 1876SOL    HW1 6527   0.866   4.815   6.052
 1876SOL    HW2 6528   0.973   4.709   5.989
 1877SOL     OW 6529   0.646   0.888   3.436
 1877SOL    HW1 6530   0.674   0.793   3.420
 1877SOL    HW2 6531   0.684   0.947   3.366
 1878SOL     OW 6532   5.933   4.239   4.280
 1878SOL    HW1 6533   6.024   4.200   4.297
 1878SOL    HW2 6534   5.868   4.165   4.264
 1879SOL     OW 6535   4.013   6.318   5.572
 1879SOL    HW1 6536   4.088   6.381   5.593
 1879SOL    HW2 6537   3.930   6.347   5.619
 1880SOL     OW 6538   1.746   3.195   4.523
 1880SOL    HW1 6539   1.756   3.288   4.559
 1880SOL    HW2 6540   1.777   3.193   4.428
 1881SOL     OW 6541   2.149   2.140   3.482
 1881SOL    HW1 6542   2.193   2.119   3.394
 1881SOL    HW2 6543   2.185   2.079   3.552
 1882SOL     OW 6544   3.936   6.225   0.746
 1882SOL    HW1 6545   3.947   6.172   0.662
 1882SOL    HW2 6546   3.953   6.322   0.728
 1883SOL     OW 6547   2.150   3.296   2.439
 1883SOL    HW1 6548   2.152   3.377   2.497
 1883SOL    HW2 6549   2.119   3.322   2.348
 1884SOL     OW 6550   4.892   0.808   6.883
 1884SOL    HW1 6551   4.878   0.714   6.915
 1884SOL    HW2 6552   4.832   0.870   6.932
 1885SOL     OW 6553   0.259   1.617   0.926
 1885SOL    HW1 6554   0.316   1.670   0.864
 1885SOL    HW2 6555   0.316   1.552   0.976
 1886SOL     OW 6556   3.451   2.898   4.777
 1886SOL    HW1 6557   3.530   2.952   4.806
 1886SOL    HW2 6558   3.400   2.868   4.857
 1887SOL     OW 6559   0.741   6.032   5.239
 1887SOL    HW1 6560   0.729   5.937   5.269
 1887SOL    HW2 6561   0.699   6.094   5.305
 1888SOL     OW 6562   2.186   1.572   6.043
 1888SOL    HW1 6563   2.227   1.516   6.115
 1888SOL    HW2 6564   2.106   1.620   6.080
 1889SOL     OW 6565   3.594   3.796   6.936
 1889SOL    HW1 6566   3.660   3.738   6.983
 1889SOL    HW2 6567   3.519   3.740   6.900
 1890SOL     OW 6568   6.199   6.219   6.548
 1890SOL    HW1 6569   6.125   6.214   6.481
 1890SOL    HW2 6570   6.235   6.312   6.551
 1891SOL     OW 6571   5.334   3.558   6.436
 1891SOL    HW1 6572   5.261   3.577   6.371
 1891SOL    HW2 6573   5.417   3.606   6.409
 1892SOL     OW 6574   4.245   0.550   3.027
 1892SOL    HW1 6575   4.182   0.559   3.104
 1892SOL    HW2 6576   4.196   0.514   2.948
 1893SOL     OW 6577   2.898   1.905   6.744
 1893SOL    HW1 6578   2.879   1.973   6.674
 1893SOL    HW2 6579   2.812   1.862   6.773
 1894SOL     OW 6580   4.886   3.002   0.665
 1894SOL    HW1 6581   4.940   3.049   0.735
 1894SOL    HW2 6582   4.945   2.940   0.613
 1895SOL     OW 6583   5.126   5.553   3.312
 1895SOL    HW1 6584   5.173   5.522   3.395
 1895SOL    HW2 6585   5.065   5.480   3.280
 1896SOL     OW 6586   6.628   1.462   4.820
 1896SOL    HW1 6587   6.635   1.561   4.835
 1896SOL    HW2 6588   6.533   1.438   4.802
 1897SOL     OW 6589   5.617   5.464   3.174
 1897SOL    HW1 6590   5.517   5.456   3.170
 1897SOL    HW2 6591   5.649   5.518   3.096
 1898SOL     OW 6592   5.609   6.537   6.967
 1898SOL    HW1 6593   5.580   6.494   0.034
 1898SOL    HW2 6594   5.685   6.598   6.984
 1899SOL     OW 6595   2.213   2.925   3.495
 1899SOL    HW1 6596   2.222   2.895   3.590
 1899SOL    HW2 6597   2.274   2.869   3.437
 1900SOL     OW 6598   2.768   5.440   1.477
 1900SOL    HW1 6599   2.816   5.355   1.498
 1900SOL    HW2 6600   2.821   5.517   1.512
 1901SOL     OW 6601   0.736   1.378   5.905
 1901SOL    HW1 6602   0.718   1.281   5.917
 1901SOL    HW2 6603   0.697   1.409   5.818
 1902SOL     OW 6604   1.592   2.592   4.692
 1902SOL    HW1 6605   1.639   2.677   4.712
 1902SOL    HW2 6606   1.656   2.515   4.698
 1903SOL     OW 6607   6.449   5.752   3.698
 1903SOL    HW1 6608   6.362   5.767   3.745
 1903SOL    HW2 6609   6.491   5.840   3.678
 1904SOL     OW 6610   0.704   0.435   4.081
 1904SOL    HW1 6611   0.726   0.532   4.093
 1904SOL    HW2 6612   0.779   0.380   4.117
 1905SOL     OW 6613   6.169   3.158   5.687
 1905SOL    HW1 6614   6.201   3.252   5.697
 1905SOL    HW2 6615   6.145   3.142   5.591
 1906SOL     OW 6616   2.640   6.772   5.424
 1906SOL    HW1 6617   2.611   6.818   5.507
 1906SOL    HW2 6618   2.727   6.726   5.441
 1907SOL     OW 6619   4.350   6.816   3.256
 1907SOL    HW1 6620   4.401   6.843   3.338
 1907SOL    HW2 6621   4.252   6.817   3.275
 1908SOL     OW 6622   5.078   4.740   0.342
 1908SOL    HW1 6623   5.045   4.654   0.382
 1908SOL    HW2 6624   5.148   4.780   0.402
 1909SOL     OW 6625   5.286   5.445   3.552
 1909SOL    HW1 6626   5.342   5.379   3.501
 1909SOL    HW2 6627   5.235   5.397   3.623
 1910SOL     OW 6628   4.836   3.976   4.296
 1910SOL    HW1 6629   4.847   3.921   4.379
 1910SOL    HW2 6630   4.855   3.920   4.216
 1911SOL     OW 6631   0.778   2.455   5.614
 1911SOL    HW1 6632   0.862   2.434   5.564
 1911SOL    HW2 6633   0.706   2.391   5.589
 1912SOL     OW 6634   2.941   6.460   2.459
 1912SOL    HW1 6635   2.902   6.401   2.530
 1912SOL    HW2 6636   2.996   6.404   2.396
 1913SOL     OW 6637   2.599   4.068   6.804
 1913SOL    HW1 6638   2.607   4.029   6.712
 1913SOL    HW2 6639   2.690   4.076   6.845
 1914SOL     OW 6640   4.425   1.387   4.917
 1914SOL    HW1 6641   4.473   1.371   4.830
 1914SOL    HW2 6642   4.437   1.482   4.944
 1915SOL     OW 6643   3.034   6.493   5.520
 1915SOL    HW1 6644   3.093   6.572   5.502
 1915SOL    HW2 6645   2.952   6.523   5.569
 1916SOL     OW 6646   3.308   6.405   2.367
 1916SOL    HW1 6647   3.331   6.460   2.448
 1916SOL    HW2 6648   3.213   6.375   2.373
 1917SOL     OW 6649   3.478   4.086   3.767
 1917SOL    HW1 6650   3.546   4.042   3.709
 1917SOL    HW2 6651   3.523   4.150   3.829
 1918SOL     OW 6652   0.812   6.390   5.571
 1918SOL    HW1 6653   0.903   6.352   5.556
 1918SOL    HW2 6654   0.763   6.335   5.638
 1919SOL     OW 6655   5.774   0.748   1.944
 1919SOL    HW1 6656   5.855   0.802   1.923
 1919SOL    HW2 6657   5.760   0.746   2.043
 1920SOL     OW 6658   6.732   6.146   4.566
 1920SOL    HW1 6659   6.821   6.137   4.611
 1920SOL    HW2 6660   6.712   6.243   4.552
 1921SOL     OW 6661   2.523   6.274   0.130
 1921SOL    HW1 6662   2.487   6.310   0.216
 1921SOL    HW2 6663   2.531   6.348   0.064
 1922SOL     OW 6664   3.881   4.604   0.048
 1922SOL    HW1 6665   3.874   4.518   7.015
 1922SOL    HW2 6666   3.848   4.679   7.009
 1923SOL     OW 6667   1.920   3.149   0.964
 1923SOL    HW1 6668   1.966   3.113   0.882
 1923SOL    HW2 6669   1.840   3.093   0.984
 1924SOL     OW 6670   0.421   3.556   1.516
 1924SOL    HW1 6671   0.379   3.563   1.607
 1924SOL    HW2 6672   0.465   3.643   1.493
 1925SOL     OW 6673   3.078   4.261   0.534
 1925SOL    HW1 6674   3.091   4.360   0.539
 1925SOL    HW2 6675   3.119   4.227   0.449
 1926SOL     OW 6676   0.709   0.673   3.838
 1926SOL    HW1 6677   0.623   0.645   3.880
 1926SOL    HW2 6678   0.694   0.758   3.786
 1927SOL     OW 6679   5.207   3.415   1.431
 1927SOL    HW1 6680   5.173   3.326   1.399
 1927SOL    HW2 6681   5.216   3.414   1.530
 1928SOL     OW 6682   0.053   5.333   4.533
 1928SOL    HW1 6683   0.022   5.428   4.532
 1928SOL    HW2 6684   6.993   5.272   4.517
 1929SOL     OW 6685   0.612   5.017   2.996
 1929SOL    HW1 6686   0.545   4.947   2.972
 1929SOL    HW2 6687   0.581   5.106   2.963
 1930SOL     OW 6688   6.784   5.532   5.719
 1930SOL    HW1 6689   6.718   5.457   5.719
 1930SOL    HW2 6690   6.742   5.615   5.682
 1931SOL     OW 6691   1.970   2.362   4.385
 1931SOL    HW1 6692   2.038   2.352   4.458
 1931SOL    HW2 6693   1.967   2.278   4.330
 1932SOL     OW 6694   5.777   3.140   2.139
 1932SOL    HW1 6695   5.845   3.084   2.187
 1932SOL    HW2 6696   5.811   3.233   2.128
 1933SOL     OW 6697   3.270   4.984   0.280
 1933SOL    HW1 6698   3.349   4.923   0.292
 1933SOL    HW2 6699   3.207   4.945   0.214
 1934SOL     OW 6700   0.400   6.202   2.857
 1934SOL    HW1 6701   0.497   6.223   2.867
 1934SOL    HW2 6702   0.375   6.204   2.761
 1935SOL     OW 6703   1.040   0.973   3.471
 1935SOL    HW1 6704   1.035   1.073   3.468
 1935SOL    HW2 6705   1.068   0.938   3.382
 1936SOL     OW 6706   0.319   5.672   5.322
 1936SOL    HW1 6707   0.323   5.766   5.356
 1936SOL    HW2 6708   0.393   5.619   5.363
 1937SOL     OW 6709   4.558   1.919   3.026
 1937SOL    HW1 6710   4.611   1.932   2.942
 1937SOL    HW2 6711   4.531   1.823   3.034
 1938SOL     OW 6712   5.409   6.868   3.723
 1938SOL    HW1 6713   5.433   6.965   3.725
 1938SOL    HW2 6714   5.368   6.842   3.810
 1939SOL     OW 6715   2.661   0.115   4.430
 1939SOL    HW1 6716   2.758   0.137   4.445
 1939SOL    HW2 6717   2.605   0.165   4.496
 1940SOL     OW 6718   6.148   6.591   6.588
 1940SOL    HW1 6719   6.222   6.533   6.622
 1940SOL    HW2 6720   6.156   6.601   6.489
 1941SOL     OW 6721   4.513   4.892   2.495
 1941SOL    HW1 6722   4.593   4.847   2.533
 1941SOL    HW2 6723   4.535   4.929   2.405
 1942SOL     OW 6724   6.882   3.520   2.769
 1942SOL    HW1 6725   6.911   3.551   2.860
 1942SOL    HW2 6726   6.800   3.465   2.778
 1943SOL     OW 6727   3.284   5.219   3.428
 1943SOL    HW1 6728   3.327   5.219   3.519
 1943SOL    HW2 6729   3.250   5.311   3.407
 1944SOL     OW 6730   0.182   6.466   2.049
 1944SOL    HW1 6731   0.243   6.454   2.127
 1944SOL    HW2 6732   0.164   6.377   2.008
 1945SOL     OW 6733   2.921   4.772   2.715
 1945SOL    HW1 6734   2.932   4.871   2.710
 1945SOL    HW2 6735   2.933   4.741   2.809
 1946SOL     OW 6736   1.929   6.808   6.801
 1946SOL    HW1 6737   1.993   6.733   6.816
 1946SOL    HW2 6738   1.836   6.774   6.802
 1947SOL     OW 6739   4.363   0.788   3.277
 1947SOL    HW1 6740   4.278   0.821   3.235
 1947SOL    HW2 6741   4.341   0.717   3.344
 1948SOL     OW 6742   6.066   3.132   5.448
 1948SOL    HW1 6743   5.984   3.082   5.478
 1948SOL    HW2 6744   6.080   3.116   5.350
 1949SOL     OW 6745   4.706   3.617   6.811
 1949SOL    HW1 6746   4.747   3.534   6.850
 1949SOL    HW2 6747   4.778   3.683   6.791
 1950SOL     OW 6748   3.068   5.249   0.766
 1950SOL    HW1 6749   3.065   5.187   0.844
 1950SOL    HW2 6750   3.023   5.207   0.687
 1951SOL     OW 6751   6.035   2.992   0.120
 1951SOL    HW1 6752   5.967   3.011   0.191
 1951SOL    HW2 6753   5.990   2.948   0.042
 1952SOL     OW 6754   3.223   2.926   4.299
 1952SOL    HW1 6755   3.180   2.953   4.385
 1952SOL    HW2 6756   3.152   2.900   4.233
 1953SOL     OW 6757   0.795   2.110   4.108
 1953SOL    HW1 6758   0.831   2.051   4.036
 1953SOL    HW2 6759   0.868   2.131   4.173
 1954SOL     OW 6760   2.154   1.667   4.400
 1954SOL    HW1 6761   2.058   1.649   4.418
 1954SOL    HW2 6762   2.163   1.744   4.337
 1955SOL     OW 6763   6.388   5.842   2.451
 1955SOL    HW1 6764   6.440   5.816   2.370
 1955SOL    HW2 6765   6.428   5.799   2.532
 1956SOL     OW 6766   4.745   5.994   2.996
 1956SOL    HW1 6767   4.693   5.948   3.067
 1956SOL    HW2 6768   4.726   6.092   2.998
 1957SOL     OW 6769   2.594   6.301   5.104
 1957SOL    HW1 6770   2.672   6.242   5.082
 1957SOL    HW2 6771   2.610   6.346   5.192
 1958SOL     OW 6772   3.717   3.886   6.472
 1958SOL    HW1 6773   3.795   3.949   6.476
 1958SOL    HW2 6774   3.639   3.929   6.519
 1959SOL     OW 6775   2.488   0.491   0.698
 1959SOL    HW1 6776   2.534   0.501   0.786
 1959SOL    HW2 6777   2.555   0.465   0.628
 1960SOL     OW 6778   5.325   5.513   2.572
 1960SOL    HW1 6779   5.230   5.542   2.581
 1960SOL    HW2 6780   5.382   5.567   2.634
 1961SOL     OW 6781   5.509   5.008   5.745
 1961SOL    HW1 6782   5.531   4.983   5.840
 1961SOL    HW2 6783   5.425   5.061   5.743
 1962SOL     OW 6784   0.057   6.643   4.457
 1962SOL    HW1 6785   0.037   6.554   4.418
 1962SOL    HW2 6786   0.113   6.696   4.393
 1963SOL     OW 6787   2.471   1.251   4.000
 1963SOL    HW1 6788   2.555   1.303   4.009
 1963SOL    HW2 6789   2.492   1.153   4.003
 1964SOL     OW 6790   6.617   3.039   2.458
 1964SOL    HW1 6791   6.618   3.116   2.521
 1964SOL    HW2 6792   6.633   3.072   2.365
 1965SOL     OW 6793   2.287   6.527   3.633
 1965SOL    HW1 6794   2.372   6.480   3.657
 1965SOL    HW2 6795   2.210   6.465   3.643
 1966SOL     OW 6796   6.775   6.737   6.719
 1966SOL    HW1 6797   6.807   6.701   6.632
 1966SOL    HW2 6798   6.678   6.761   6.712
 1967SOL     OW 6799   5.611   2.663   5.084
 1967SOL    HW1 6800   5.699   2.686   5.125
 1967SOL    HW2 6801   5.570   2.745   5.046
 1968SOL     OW 6802   4.244   5.670   4.751
 1968SOL    HW1 6803   4.169   5.727   4.787
 1968SOL    HW2 6804   4.207   5.582   4.723
 1969SOL     OW 6805   6.541   1.226   1.541
 1969SOL    HW1 6806   6.510   1.302   1.483
 1969SOL    HW2 6807   6.641   1.226   1.545
 1970SOL     OW 6808   1.966   1.102   3.838
 1970SOL    HW1 6809   1.936   1.057   3.754
 1970SOL    HW2 6810   1.943   1.044   3.917
 1971SOL     OW 6811   6.975   1.365   6.208
 1971SOL    HW1 6812   0.016   1.291   6.243
 1971SOL    HW2 6813   6.962   1.353   6.110
 1972SOL     OW 6814   1.441   6.676   3.777
 1972SOL    HW1 6815   1.449   6.669   3.678
 1972SOL    HW2 6816   1.345   6.664   3.804
 1973SOL     OW 6817   2.474   3.118   0.539
 1973SOL    HW1 6818   2.423   3.159   0.463
 1973SOL    HW2 6819   2.411   3.075   0.603
 1974SOL     OW 6820   6.494   6.510   4.300
 1974SOL    HW1 6821   6.459   6.416   4.302
 1974SOL    HW2 6822   6.422   6.573   4.329
 1975SOL     OW 6823   2.556   6.786   3.356
 1975SOL    HW1 6824   2.597   6.857   3.299
 1975SOL    HW2 6825   2.457   6.784   3.342
 1976SOL     OW 6826   6.468   4.579   5.658
 1976SOL    HW1 6827   6.500   4.673   5.657
 1976SOL    HW2 6828   6.413   4.563   5.740
 1977SOL     OW 6829   3.228   2.107   5.231
 1977SOL    HW1 6830   3.181   2.144   5.151
 1977SOL    HW2 6831   3.271   2.182   5.281
 1978SOL     OW 6832   6.769   2.719   5.062
 1978SOL    HW1 6833   6.869   2.716   5.060
 1978SOL    HW2 6834   6.738   2.752   5.152
 1979SOL     OW 6835   6.626   3.845   2.274
 1979SOL    HW1 6836   6.719   3.810   2.274
 1979SOL    HW2 6837   6.627   3.944   2.287
 1980SOL     OW 6838   2.496   0.837   2.439
 1980SOL    HW1 6839   2.568   0.853   2.370
 1980SOL    HW2 6840   2.533   0.779   2.512
 1981SOL     OW 6841   5.551   3.035   2.043
 1981SOL    HW1 6842   5.636   3.067   2.084
 1981SOL    HW2 6843   5.555   2.936   2.031
 1982SOL     OW 6844   0.204   0.214   5.298
 1982SOL    HW1 6845   0.123   0.180   5.250
 1982SOL    HW2 6846   0.266   0.138   5.317
 1983SOL     OW 6847   1.052   4.399   1.521
 1983SOL    HW1 6848   1.075   4.493   1.546
 1983SOL    HW2 6849   1.135   4.344   1.519
 1984SOL     OW 6850   4.679   0.782   5.418
 1984SOL    HW1 6851   4.594   0.738   5.389
 1984SOL    HW2 6852   4.663   0.880   5.431
 1985SOL     OW 6853   1.702   5.687   1.596
 1985SOL    HW1 6854   1.624   5.657   1.650
 1985SOL    HW2 6855   1.771   5.616   1.593
 1986SOL     OW 6856   6.849   2.882   0.647
 1986SOL    HW1 6857   6.864   2.980   0.646
 1986SOL    HW2 6858   6.927   2.836   0.690
 1987SOL     OW 6859   2.466   3.708   6.960
 1987SOL    HW1 6860   2.408   3.789   6.965
 1987SOL    HW2 6861   2.558   3.735   6.932
 1988SOL     OW 6862   4.941   2.954   0.930
 1988SOL    HW1 6863   5.036   2.931   0.952
 1988SOL    HW2 6864   4.879   2.899   0.986
 1989SOL     OW 6865   1.905   2.339   3.767
 1989SOL    HW1 6866   2.001   2.326   3.741
 1989SOL    HW2 6867   1.900   2.406   3.841
 1990SOL     OW 6868   0.972   0.566   3.385
 1990SOL    HW1 6869   1.058   0.582   3.433
 1990SOL    HW2 6870   0.975   0.611   3.296
 1991SOL     OW 6871   4.502   6.142   2.928
 1991SOL    HW1 6872   4.485   6.057   2.976
 1991SOL    HW2 6873   4.428   6.160   2.863
 1992SOL     OW 6874   2.498   5.412   5.503
 1992SOL    HW1 6875   2.445   5.346   5.450
 1992SOL    HW2 6876   2.439   5.451   5.574
 1993SOL     OW 6877   2.957   3.281   4.268
 1993SOL    HW1 6878   3.049   3.306   4.240
 1993SOL    HW2 6879   2.895   3.291   4.190
 1994SOL     OW 6880   6.585   2.123   2.099
 1994SOL    HW1 6881   6.645   2.141   2.177
 1994SOL    HW2 6882   6.625   2.163   2.016
 1995SOL     OW 6883   3.668   2.170   1.455
 1995SOL    HW1 6884   3.642   2.096   1.517
 1995SOL    HW2 6885   3.671   2.256   1.506
 1996SOL     OW 6886   2.550   4.500   5.160
 1996SOL    HW1 6887   2.547   4.405   5.192
 1996SOL    HW2 6888   2.604   4.555   5.224
 1997SOL     OW 6889   6.008   5.918   4.364
 1997SOL    HW1 6890   5.962   5.972   4.434
 1997SOL    HW2 6891   5.963   5.933   4.276
 1998SOL     OW 6892   2.923   4.917   4.982
 1998SOL    HW1 6893   2.866   4.835   4.980
 1998SOL    HW2 6894   3.003   4.903   4.924
 1999SOL     OW 6895   2.120   1.550   2.091
 1999SOL    HW1 6896   2.060   1.615   2.043
 1999SOL    HW2 6897   2.136   1.471   2.033
 2000SOL     OW 6898   3.087   0.923   5.288
 2000SOL    HW1 6899   3.114   0.847   5.228
 2000SOL    HW2 6900   2.991   0.945   5.270
 2001SOL     OW 6901   2.310   2.792   6.794
 2001SOL    HW1 6902   2.390   2.806   6.854
 2001SOL    HW2 6903   2.330   2.828   6.703
 2002SOL     OW 6904   1.411   5.037   4.592
 2002SOL    HW1 6905   1.461   5.035   4.505
 2002SOL    HW2 6906   1.339   4.967   4.591
 2003SOL     OW 6907   6.488   3.785   3.642
 2003SOL    HW1 6908   6.520   3.850   3.573
 2003SOL    HW2 6909   6.388   3.778   3.638
 2004SOL     OW 6910   3.403   0.181   6.961
 2004SOL    HW1 6911   3.474   0.117   6.991
 2004SOL    HW2 6912   3.341   0.199   0.020
 2005SOL     OW 6913   2.899   6.293   5.146
 2005SOL    HW1 6914   2.868   6.289   5.240
 2005SOL    HW2 6915   2.898   6.201   5.106
 2006SOL     OW 6916   4.695   6.857   3.276
 2006SOL    HW1 6917   4.781   6.805   3.272
 2006SOL    HW2 6918   4.618   6.795   3.257
 2007SOL     OW 6919   6.504   5.600   0.060
 2007SOL    HW1 6920   6.531   5.652   6.996
 2007SOL    HW2 6921   6.582   5.595   0.123
 2008SOL     OW 6922   0.077   5.874   5.713
 2008SOL    HW1 6923   0.055   5.822   5.631
 2008SOL    HW2 6924   0.025   5.959   5.715
 2009SOL     OW 6925   0.999   0.503   0.074
 2009SOL    HW1 6926   1.021   0.417   0.029
 2009SOL    HW2 6927   1.083   0.544   0.111
 2010SOL     OW 6928   2.167   0.880   0.911
 2010SOL    HW1 6929   2.085   0.935   0.899
 2010SOL    HW2 6930   2.155   0.792   0.866
 2011SOL     OW 6931   6.869   2.041   4.772
 2011SOL    HW1 6932   6.861   2.056   4.870
 2011SOL    HW2 6933   6.840   1.948   4.750
 2012SOL     OW 6934   6.909   3.403   1.166
 2012SOL    HW1 6935   6.848   3.359   1.101
 2012SOL    HW2 6936   6.857   3.433   1.246
 2013SOL     OW 6937   3.948   2.107   1.636
 2013SOL    HW1 6938   3.968   2.178   1.570
 2013SOL    HW2 6939   4.025   2.044   1.642
 2014SOL     OW 6940   3.488   5.651   3.454
 2014SOL    HW1 6941   3.471   5.742   3.415
 2014SOL    HW2 6942   3.571   5.654   3.510
 2015SOL     OW 6943   3.385   5.703   0.117
 2015SOL    HW1 6944   3.294   5.666   0.139
 2015SOL    HW2 6945   3.395   5.707   0.017
 2016SOL     OW 6946   6.221   5.747   4.279
 2016SOL    HW1 6947   6.140   5.803   4.294
 2016SOL    HW2 6948   6.290   5.800   4.229
 2017SOL     OW 6949   1.883   5.389   2.360
 2017SOL    HW1 6950   1.808   5.453   2.346
 2017SOL    HW2 6951   1.848   5.296   2.364
 2018SOL     OW 6952   0.442   4.206   5.938
 2018SOL    HW1 6953   0.408   4.117   5.906
 2018SOL    HW2 6954   0.537   4.197   5.968
 2019SOL     OW 6955   5.180   1.237   2.921
 2019SOL    HW1 6956   5.088   1.264   2.947
 2019SOL    HW2 6957   5.216   1.172   2.988
 2020SOL     OW 6958   2.205   5.336   3.307
 2020SOL    HW1 6959   2.239   5.399   3.237
 2020SOL    HW2 6960   2.282   5.302   3.361
 2021SOL     OW 6961   1.998   6.025   1.688
 2021SOL    HW1 6962   1.977   6.093   1.759
 2021SOL    HW2 6963   2.007   5.935   1.730
 2022SOL     OW 6964   3.598   5.200   1.365
 2022SOL    HW1 6965   3.526   5.262   1.334
 2022SOL    HW2 6966   3.591   5.187   1.464
 2023SOL     OW 6967   6.577   2.109   5.798
 2023SOL    HW1 6968   6.581   2.063   5.887
 2023SOL    HW2 6969   6.491   2.087   5.753
 2024SOL     OW 6970   5.788   0.208   3.012
 2024SOL    HW1 6971   5.729   0.171   2.940
 2024SOL    HW2 6972   5.876   0.234   2.972
 2025SOL     OW 6973   6.240   0.939   1.092
 2025SOL    HW1 6974   6.291   1.021   1.119
 2025SOL    HW2 6975   6.236   0.933   0.993
 2026SOL     OW 6976   2.227   1.789   5.161
 2026SOL    HW1 6977   2.246   1.882   5.194
 2026SOL    HW2 6978   2.241   1.724   5.235
 2027SOL     OW 6979   6.889   0.231   1.796
 2027SOL    HW1 6980   6.944   0.298   1.746
 2027SOL    HW2 6981   6.818   0.195   1.735
 2028SOL     OW 6982   3.876   3.967   5.884
 2028SOL    HW1 6983   3.889   4.008   5.793
 2028SOL    HW2 6984   3.899   3.870   5.880
 2029SOL     OW 6985   1.930   0.801   0.492
 2029SOL    HW1 6986   1.890   0.841   0.410
 2029SOL    HW2 6987   2.022   0.839   0.506
 2030SOL     OW 6988   1.941   2.581   3.031
 2030SOL    HW1 6989   1.851   2.552   3.063
 2030SOL    HW2 6990   1.974   2.517   2.962
 2031SOL     OW 6991   6.300   0.184   2.859
 2031SOL    HW1 6992   6.350   0.111   2.904
 2031SOL    HW2 6993   6.309   0.175   2.759
 2032SOL     OW 6994   4.550   5.906   2.152
 2032SOL    HW1 6995   4.621   5.837   2.163
 2032SOL    HW2 6996   4.460   5.862   2.148
 2033SOL     OW 6997   0.409   5.221   6.215
 2033SOL    HW1 6998   0.386   5.281   6.138
 2033SOL    HW2 6999   0.384   5.267   6.300
 2034SOL     OW 7000   2.202   5.230   3.776
 2034SOL    HW1 7001   2.207   5.221   3.875
 2034SOL    HW2 7002   2.194   5.327   3.752
 2035SOL     OW 7003   0.690   2.228   3.176
 2035SOL    HW1 7004   0.708   2.133   3.204
 2035SOL    HW2 7005   0.714   2.238   3.079
 2036SOL     OW 7006   0.781   4.793   0.847
 2036SOL    HW1 7007   0.728   4.724   0.895
 2036SOL    HW2 7008   0.782   4.773   0.749
 2037SOL     OW 7009   0.032   2.023   6.782
 2037SOL    HW1 7010   0.014   2.043   6.686
 2037SOL    HW2 7011   0.115   1.967   6.790
 2038SOL     OW 7012   1.248   0.133   4.811
 2038SOL    HW1 7013   1.248   0.057   4.876
 2038SOL    HW2 7014   1.318   0.200   4.838
 2039SOL     OW 7015   1.151   5.064   1.611
 2039SOL    HW1 7016   1.100   5.048   1.696
 2039SOL    HW2 7017   1.188   5.157   1.611
 2040SOL     OW 7018   3.744   3.750   4.720
 2040SOL    HW1 7019   3.760   3.725   4.625
 2040SOL    HW2 7020   3.778   3.679   4.780
 2041SOL     OW 7021   4.823   2.923   6.625
 2041SOL    HW1 7022   4.923   2.918   6.625
 2041SOL    HW2 7023   4.790   2.939   6.718
 2042SOL     OW 7024   3.100   5.678   0.482
 2042SOL    HW1 7025   3.152   5.639   0.558
 2042SOL    HW2 7026   3.119   5.625   0.398
 2043SOL     OW 7027   4.354   5.708   2.413
 2043SOL    HW1 7028   4.270   5.728   2.464
 2043SOL    HW2 7029   4.331   5.686   2.319
 2044SOL     OW 7030   6.621   1.283   2.173
 2044SOL    HW1 7031   6.609   1.382   2.162
 2044SOL    HW2 7032   6.562   1.235   2.109
 2045SOL     OW 7033   3.352   6.674   6.654
 2045SOL    HW1 7034   3.389   6.621   6.731
 2045SOL    HW2 7035   3.305   6.613   6.591
 2046SOL     OW 7036   5.978   6.775   5.817
 2046SOL    HW1 7037   6.065   6.725   5.805
 2046SOL    HW2 7038   5.946   6.808   5.729
 2047SOL     OW 7039   4.812   3.177   0.258
 2047SOL    HW1 7040   4.735   3.230   0.293
 2047SOL    HW2 7041   4.803   3.082   0.285
 2048SOL     OW 7042   5.000   6.608   5.417
 2048SOL    HW1 7043   4.993   6.509   5.430
 2048SOL    HW2 7044   5.025   6.627   5.322
 2049SOL     OW 7045   4.972   5.477   6.777
 2049SOL    HW1 7046   5.053   5.522   6.738
 2049SOL    HW2 7047   4.925   5.426   6.705
 2050SOL     OW 7048   5.670   0.761   3.399
 2050SOL    HW1 7049   5.574   0.786   3.387
 2050SOL    HW2 7050   5.717   0.833   3.450
 2051SOL     OW 7051   3.052   5.259   1.355
 2051SOL    HW1 7052   3.013   5.298   1.272
 2051SOL    HW2 7053   3.145   5.227   1.337
 2052SOL     OW 7054   2.195   2.598   0.980
 2052SOL    HW1 7055   2.222   2.520   1.036
 2052SOL    HW2 7056   2.219   2.683   1.028
 2053SOL     OW 7057   4.995   1.282   0.748
 2053SOL    HW1 7058   4.987   1.320   0.840
 2053SOL    HW2 7059   5.016   1.184   0.754
 2054SOL     OW 7060   0.463   3.501   0.850
 2054SOL    HW1 7061   0.490   3.556   0.929
 2054SOL    HW2 7062   0.507   3.412   0.855
 2055SOL     OW 7063   6.509   1.318   3.815
 2055SOL    HW1 7064   6.496   1.226   3.780
 2055SOL    HW2 7065   6.426   1.349   3.861
 2056SOL     OW 7066   0.933   6.953   2.424
 2056SOL    HW1 7067   0.889   6.887   2.485
 2056SOL    HW2 7068   0.879   6.962   2.340
 2057SOL     OW 7069   5.320   3.031   3.759
 2057SOL    HW1 7070   5.402   2.993   3.802
 2057SOL    HW2 7071   5.240   3.013   3.817
 2058SOL     OW 7072   0.593   1.051   1.717
 2058SOL    HW1 7073   0.670   1.104   1.681
 2058SOL    HW2 7074   0.626   0.982   1.780
 2059SOL     OW 7075   1.570   1.103   0.027
 2059SOL    HW1 7076   1.483   1.089   6.996
 2059SOL    HW2 7077   1.646   1.087   6.982
 2060SOL     OW 7078   0.378   4.835   2.985
 2060SOL    HW1 7079   0.361   4.774   3.062
 2060SOL    HW2 7080   0.323   4.807   2.907
 2061SOL     OW 7081   1.206   0.879   0.934
 2061SOL    HW1 7082   1.200   0.840   0.842
 2061SOL    HW2 7083   1.293   0.927   0.944
 2062SOL     OW 7084   4.297   0.260   4.013
 2062SOL    HW1 7085   4.343   0.342   4.047
 2062SOL    HW2 7086   4.230   0.228   4.080
 2063SOL     OW 7087   2.396   2.260   1.057
 2063SOL    HW1 7088   2.378   2.251   0.959
 2063SOL    HW2 7089   2.438   2.175   1.091
 2064SOL     OW 7090   1.171   1.994   1.232
 2064SOL    HW1 7091   1.244   1.929   1.209
 2064SOL    HW2 7092   1.146   1.981   1.328
 2065SOL     OW 7093   0.270   3.309   2.502
 2065SOL    HW1 7094   0.304   3.227   2.549
 2065SOL    HW2 7095   0.264   3.385   2.567
 2066SOL     OW 7096   1.570   6.020   2.764
 2066SOL    HW1 7097   1.628   6.051   2.688
 2066SOL    HW2 7098   1.614   5.943   2.809
 2067SOL     OW 7099   0.534   0.407   0.087
 2067SOL    HW1 7100   0.511   0.345   0.162
 2067SOL    HW2 7101   0.612   0.464   0.113
 2068SOL     OW 7102   1.913   2.035   5.039
 2068SOL    HW1 7103   1.834   1.993   4.994
 2068SOL    HW2 7104   1.968   1.964   5.082
 2069SOL     OW 7105   0.887   2.090   2.268
 2069SOL    HW1 7106   0.795   2.069   2.235
 2069SOL    HW2 7107   0.953   2.027   2.227
 2070SOL     OW 7108   6.894   1.417   2.778
 2070SOL    HW1 7109   6.897   1.499   2.722
 2070SOL    HW2 7110   6.864   1.440   2.871
 2071SOL     OW 7111   2.437   6.480   5.657
 2071SOL    HW1 7112   2.461   6.568   5.617
 2071SOL    HW2 7113   2.520   6.433   5.688
 2072SOL     OW 7114   5.033   5.113   2.473
 2072SOL    HW1 7115   5.026   5.206   2.510
 2072SOL    HW2 7116   5.126   5.079   2.486
 2073SOL     OW 7117   3.294   6.900   5.167
 2073SOL    HW1 7118   3.250   6.971   5.221
 2073SOL    HW2 7119   3.321   6.936   5.078
 2074SOL     OW 7120   5.675   2.595   2.851
 2074SOL    HW1 7121   5.591   2.558   2.810
 2074SOL    HW2 7122   5.660   2.608   2.949
 2075SOL     OW 7123   3.851   3.071   6.278
 2075SOL    HW1 7124   3.943   3.110   6.280
 2075SOL    HW2 7125   3.828   3.047   6.184
 2076SOL     OW 7126   5.414   0.311   0.501
 2076SOL    HW1 7127   5.484   0.247   0.533
 2076SOL    HW2 7128   5.328   0.291   0.547
 2077SOL     OW 7129   4.333   1.065   4.118
 2077SOL    HW1 7130   4.397   1.101   4.050
 2077SOL    HW2 7131   4.267   1.004   4.073
 2078SOL     OW 7132   4.255   6.111   4.676
 2078SOL    HW1 7133   4.285   6.046   4.606
 2078SOL    HW2 7134   4.305   6.095   4.761
 2079SOL     OW 7135   6.324   6.827   4.076
 2079SOL    HW1 7136   6.330   6.811   4.174
 2079SOL    HW2 7137   6.409   6.798   4.032
 2080SOL     OW 7138   2.532   1.775   3.724
 2080SOL    HW1 7139   2.625   1.773   3.687
 2080SOL    HW2 7140   2.473   1.827   3.662
 2081SOL     OW 7141   1.204   6.334   4.078
 2081SOL    HW1 7142   1.136   6.398   4.042
 2081SOL    HW2 7143   1.209   6.343   4.178
 2082SOL     OW 7144   4.687   0.834   1.876
 2082SOL    HW1 7145   4.594   0.798   1.882
 2082SOL    HW2 7146   4.721   0.853   1.968
 2083SOL     OW 7147   3.945   4.070   6.420
 2083SOL    HW1 7148   3.921   4.087   6.324
 2083SOL    HW2 7149   3.927   4.153   6.473
 2084SOL     OW 7150   6.846   2.577   3.005
 2084SOL    HW1 7151   6.775   2.542   3.067
 2084SOL    HW2 7152   6.929   2.597   3.057
 2085SOL     OW 7153   6.110   6.657   6.858
 2085SOL    HW1 7154   6.176   6.731   6.871
 2085SOL    HW2 7155   6.116   6.622   6.765
 2086SOL     OW 7156   3.574   5.132   6.966
 2086SOL    HW1 7157   3.662   5.109   7.008
 2086SOL    HW2 7158   3.536   5.050   6.923
 2087SOL     OW 7159   5.737   6.121   3.225
 2087SOL    HW1 7160   5.807   6.102   3.294
 2087SOL    HW2 7161   5.680   6.039   3.213
 2088SOL     OW 7162   2.553   6.639   1.521
 2088SOL    HW1 7163   2.490   6.660   1.595
 2088SOL    HW2 7164   2.641   6.685   1.539
 2089SOL     OW 7165   2.288   1.192   0.072
 2089SOL    HW1 7166   2.330   1.264   0.127
 2089SOL    HW2 7167   2.360   1.140   0.026
 2090SOL     OW 7168   3.738   3.808   3.979
 2090SOL    HW1 7169   3.656   3.770   3.935
 2090SOL    HW2 7170   3.815   3.746   3.963
 2091SOL     OW 7171   2.898   4.417   0.829
 2091SOL    HW1 7172   2.960   4.339   0.835
 2091SOL    HW2 7173   2.854   4.431   0.917
 2092SOL     OW 7174   0.362   6.290   1.181
 2092SOL    HW1 7175   0.435   6.308   1.248
 2092SOL    HW2 7176   0.327   6.198   1.193
 2093SOL     OW 7177   1.483   2.226   1.459
 2093SOL    HW1 7178   1.513   2.215   1.364
 2093SOL    HW2 7179   1.413   2.159   1.481
 2094SOL     OW 7180   6.277   0.739   1.674
 2094SOL    HW1 7181   6.372   0.723   1.699
 2094SOL    HW2 7182   6.269   0.828   1.629
 2095SOL     OW 7183   6.510   4.597   5.121
 2095SOL    HW1 7184   6.449   4.546   5.181
 2095SOL    HW2 7185   6.551   4.674   5.171
 2096SOL     OW 7186   4.679   4.316   3.845
 2096SOL    HW1 7187   4.677   4.217   3.860
 2096SOL    HW2 7188   4.617   4.361   3.909
 2097SOL     OW 7189   6.499   3.593   6.011
 2097SOL    HW1 7190   6.500   3.623   5.916
 2097SOL    HW2 7191   6.405   3.597   6.046
 2098SOL     OW 7192   4.416   0.174   4.259
 2098SOL    HW1 7193   4.358   0.252   4.283
 2098SOL    HW2 7194   4.512   0.199   4.272
 2099SOL     OW 7195   2.726   1.938   3.589
 2099SOL    HW1 7196   2.667   2.012   3.621
 2099SOL    HW2 7197   2.723   1.934   3.489
 2100SOL     OW 7198   4.291   4.734   6.357
 2100SOL    HW1 7199   4.205   4.766   6.397
 2100SOL    HW2 7200   4.278   4.642   6.319
 2101SOL     OW 7201   6.252   6.936   1.712
 2101SOL    HW1 7202   6.292   6.872   1.777
 2101SOL    HW2 7203   6.306   0.003   1.712
 2102SOL     OW 7204   0.075   5.097   1.467
 2102SOL    HW1 7205   7.015   5.076   1.527
 2102SOL    HW2 7206   0.133   5.015   1.459
 2103SOL     OW 7207   3.670   3.625   6.566
 2103SOL    HW1 7208   3.705   3.719   6.568
 2103SOL    HW2 7209   3.588   3.621   6.509
 2104SOL     OW 7210   1.647   4.733   5.607
 2104SOL    HW1 7211   1.571   4.714   5.669
 2104SOL    HW2 7212   1.652   4.662   5.537
 2105SOL     OW 7213   5.667   6.418   1.860
 2105SOL    HW1 7214   5.607   6.493   1.888
 2105SOL    HW2 7215   5.662   6.345   1.928
 2106SOL     OW 7216   5.756   5.970   6.241
 2106SOL    HW1 7217   5.772   5.953   6.143
 2106SOL    HW2 7218   5.831   5.930   6.294
 2107SOL     OW 7219   2.632   5.041   0.500
 2107SOL    HW1 7220   2.700   4.977   0.466
 2107SOL    HW2 7221   2.669   5.090   0.580
 2108SOL     OW 7222   6.147   4.282   6.466
 2108SOL    HW1 7223   6.090   4.286   6.384
 2108SOL    HW2 7224   6.212   4.359   6.464
 2109SOL     OW 7225   5.688   5.980   2.440
 2109SOL    HW1 7226   5.592   5.973   2.410
 2109SOL    HW2 7227   5.736   5.895   2.418
 2110SOL     OW 7228   1.418   4.981   5.513
 2110SOL    HW1 7229   1.434   5.074   5.544
 2110SOL    HW2 7230   1.425   4.918   5.591
 2111SOL     OW 7231   1.632   2.019   6.724
 2111SOL    HW1 7232   1.701   2.041   6.655
 2111SOL    HW2 7233   1.555   1.972   6.681
 2112SOL     OW 7234   4.965   3.624   0.465
 2112SOL    HW1 7235   4.882   3.570   0.475
 2112SOL    HW2 7236   5.042   3.575   0.507
 2113SOL     OW 7237   6.677   1.832   3.127
 2113SOL    HW1 7238   6.746   1.895   3.163
 2113SOL    HW2 7239   6.614   1.806   3.200
 2114SOL     OW 7240   1.499   3.528   7.009
 2114SOL    HW1 7241   1.527   3.574   0.076
 2114SOL    HW2 7242   1.577   3.524   6.946
 2115SOL     OW 7243   3.807   5.414   1.935
 2115SOL    HW1 7244   3.894   5.411   1.983
 2115SOL    HW2 7245   3.798   5.502   1.889
 2116SOL     OW 7246   0.803   3.505   4.368
 2116SOL    HW1 7247   0.779   3.427   4.310
 2116SOL    HW2 7248   0.736   3.578   4.355
 2117SOL     OW 7249   6.917   5.771   6.098
 2117SOL    HW1 7250   6.892   5.843   6.033
 2117SOL    HW2 7251   6.882   5.794   6.189
 2118SOL     OW 7252   6.910   3.716   2.300
 2118SOL    HW1 7253   6.980   3.758   2.357
 2118SOL    HW2 7254   6.943   3.708   2.206
 2119SOL     OW 7255   4.187   6.245   0.436
 2119SOL    HW1 7256   4.191   6.320   0.502
 2119SOL    HW2 7257   4.276   6.199   0.433
 2120SOL     OW 7258   6.729   3.801   1.940
 2120SOL    HW1 7259   6.691   3.866   2.006
 2120SOL    HW2 7260   6.659   3.734   1.915
 2121SOL     OW 7261   0.440   3.785   5.087
 2121SOL    HW1 7262   0.513   3.750   5.028
 2121SOL    HW2 7263   0.475   3.862   5.140
 2122SOL     OW 7264   4.237   5.209   5.436
 2122SOL    HW1 7265   4.147   5.167   5.450
 2122SOL    HW2 7266   4.306   5.137   5.432
 2123SOL     OW 7267   4.783   5.303   3.641
 2123SOL    HW1 7268   4.762   5.305   3.739
 2123SOL    HW2 7269   4.711   5.349   3.590
 2124SOL     OW 7270   3.006   2.169   1.485
 2124SOL    HW1 7271   3.009   2.251   1.542
 2124SOL    HW2 7272   3.025   2.193   1.390
 2125SOL     OW 7273   5.028   5.645   0.642
 2125SOL    HW1 7274   4.970   5.687   0.712
 2125SOL    HW2 7275   5.014   5.690   0.555
 2126SOL     OW 7276   3.273   1.398   1.723
 2126SOL    HW1 7277   3.208   1.416   1.649
 2126SOL    HW2 7278   3.301   1.302   1.721
 2127SOL     OW 7279   5.530   2.572   4.562
 2127SOL    HW1 7280   5.465   2.507   4.521
 2127SOL    HW2 7281   5.515   2.663   4.523
 2128SOL     OW 7282   0.242   3.867   4.217
 2128SOL    HW1 7283   0.187   3.786   4.238
 2128SOL    HW2 7284   0.181   3.944   4.200
 2129SOL     OW 7285   4.445   2.334   5.029
 2129SOL    HW1 7286   4.358   2.362   4.988
 2129SOL    HW2 7287   4.505   2.299   4.957
 2130SOL     OW 7288   5.053   0.176   3.400
 2130SOL    HW1 7289   5.056   0.271   3.368
 2130SOL    HW2 7290   4.968   0.160   3.451
 2131SOL     OW 7291   5.094   1.916   6.845
 2131SOL    HW1 7292   5.107   1.932   6.943
 2131SOL    HW2 7293   5.170   1.956   6.794
 2132SOL     OW 7294   1.884   3.615   0.718
 2132SOL    HW1 7295   1.839   3.658   0.639
 2132SOL    HW2 7296   1.817   3.564   0.771
 2133SOL     OW 7297   2.343   4.309   6.383
 2133SOL    HW1 7298   2.247   4.327   6.359
 2133SOL    HW2 7299   2.377   4.233   6.328
 2134SOL     OW 7300   0.175   6.735   0.337
 2134SOL    HW1 7301   0.118   6.655   0.354
 2134SOL    HW2 7302   0.254   6.733   0.398
 2135SOL     OW 7303   6.666   5.152   5.380
 2135SOL    HW1 7304   6.641   5.056   5.391
 2135SOL    HW2 7305   6.750   5.170   5.432
 2136SOL     OW 7306   1.235   5.485   6.822
 2136SOL    HW1 7307   1.226   5.584   6.832
 2136SOL    HW2 7308   1.313   5.464   6.762
 2137SOL     OW 7309   1.564   6.410   3.773
 2137SOL    HW1 7310   1.477   6.362   3.787
 2137SOL    HW2 7311   1.548   6.508   3.767
 2138SOL     OW 7312   5.149   2.035   1.765
 2138SOL    HW1 7313   5.099   2.100   1.708
 2138SOL    HW2 7314   5.200   1.972   1.706
 2139SOL     OW 7315   3.133   6.263   5.680
 2139SOL    HW1 7316   3.231   6.245   5.673
 2139SOL    HW2 7317   3.110   6.341   5.621
 2140SOL     OW 7318   2.180   1.795   3.674
 2140SOL    HW1 7319   2.228   1.883   3.675
 2140SOL    HW2 7320   2.209   1.740   3.751
 2141SOL     OW 7321   6.834   3.181   3.335
 2141SOL    HW1 7322   6.759   3.135   3.382
 2141SOL    HW2 7323   6.866   3.125   3.259
 2142SOL     OW 7324   1.678   2.497   2.156
 2142SOL    HW1 7325   1.774   2.504   2.184
 2142SOL    HW2 7326   1.620   2.486   2.236
 2143SOL     OW 7327   7.000   5.736   5.488
 2143SOL    HW1 7328   6.992   5.785   5.401
 2143SOL    HW2 7329   6.948   5.651   5.484
 2144SOL     OW 7330   6.158   4.684   3.049
 2144SOL    HW1 7331   6.141   4.652   2.956
 2144SOL    HW2 7332   6.232   4.751   3.047
 2145SOL     OW 7333   4.031   1.450   2.842
 2145SOL    HW1 7334   4.076   1.435   2.754
 2145SOL    HW2 7335   3.955   1.513   2.831
 2146SOL     OW 7336   1.936   1.918   6.424
 2146SOL    HW1 7337   1.934   1.928   6.324
 2146SOL    HW2 7338   1.875   1.986   6.465
 2147SOL     OW 7339   5.900   6.774   5.325
 2147SOL    HW1 7340   5.831   6.846   5.319
 2147SOL    HW2 7341   5.861   6.695   5.371
 2148SOL     OW 7342   0.749   2.309   4.861
 2148SOL    HW1 7343   0.841   2.292   4.826
 2148SOL    HW2 7344   0.743   2.404   4.891
 2149SOL     OW 7345   0.559   6.400   6.988
 2149SOL    HW1 7346   0.541   6.347   6.905
 2149SOL    HW2 7347   0.487   6.468   7.000
 2150SOL     OW 7348   1.683   2.770   0.879
 2150SOL    HW1 7349   1.646   2.816   0.797
 2150SOL    HW2 7350   1.731   2.687   0.851
 2151SOL     OW 7351   0.676   4.745   6.550
 2151SOL    HW1 7352   0.613   4.701   6.615
 2151SOL    HW2 7353   0.769   4.743   6.587
 2152SOL     OW 7354   5.172   6.240   3.967
 2152SOL    HW1 7355   5.093   6.188   3.999
 2152SOL    HW2 7356   5.152   6.278   3.877
 2153SOL     OW 7357   4.868   6.955   3.745
 2153SOL    HW1 7358   4.808   0.010   3.776
 2153SOL    HW2 7359   4.878   6.886   3.817
 2154SOL     OW 7360   2.715   6.700   2.744
 2154SOL    HW1 7361   2.735   6.647   2.826
 2154SOL    HW2 7362   2.788   6.768   2.730
 2155SOL     OW 7363   4.673   0.988   1.050
 2155SOL    HW1 7364   4.643   0.933   0.972
 2155SOL    HW2 7365   4.597   1.047   1.080
 2156SOL     OW 7366   6.052   2.146   5.311
 2156SOL    HW1 7367   6.011   2.215   5.370
 2156SOL    HW2 7368   6.008   2.057   5.328
 2157SOL     OW 7369   4.467   6.331   4.315
 2157SOL    HW1 7370   4.429   6.307   4.404
 2157SOL    HW2 7371   4.394   6.356   4.252
 2158SOL     OW 7372   2.926   6.484   0.809
 2158SOL    HW1 7373   2.875   6.515   0.889
 2158SOL    HW2 7374   2.870   6.498   0.727
 2159SOL     OW 7375   0.343   0.950   5.808
 2159SOL    HW1 7376   0.264   0.892   5.827
 2159SOL    HW2 7377   0.312   1.045   5.797
 2160SOL     OW 7378   5.582   6.951   6.553
 2160SOL    HW1 7379   5.601   6.969   6.649
 2160SOL    HW2 7380   5.488   6.916   6.544
 2161SOL     OW 7381   1.679   3.985   0.664
 2161SOL    HW1 7382   1.699   4.034   0.579
 2161SOL    HW2 7383   1.636   4.048   0.729
 2162SOL     OW 7384   1.716   0.329   0.563
 2162SOL    HW1 7385   1.714   0.242   0.613
 2162SOL    HW2 7386   1.708   0.405   0.628
 2163SOL     OW 7387   1.013   2.795   3.823
 2163SOL    HW1 7388   1.029   2.792   3.724
 2163SOL    HW2 7389   0.917   2.777   3.842
 2164SOL     OW 7390   2.235   3.927   2.157
 2164SOL    HW1 7391   2.150   3.976   2.176
 2164SOL    HW2 7392   2.313   3.986   2.176
 2165SOL     OW 7393   5.953   1.339   5.267
 2165SOL    HW1 7394   5.893   1.289   5.204
 2165SOL    HW2 7395   6.048   1.314   5.250
 2166SOL     OW 7396   0.342   2.814   1.931
 2166SOL    HW1 7397   0.355   2.754   2.010
 2166SOL    HW2 7398   0.336   2.909   1.962
 2167SOL     OW 7399   1.413   2.182   3.091
 2167SOL    HW1 7400   1.511   2.176   3.104
 2167SOL    HW2 7401   1.377   2.261   3.141
 2168SOL     OW 7402   1.808   2.451   3.541
 2168SOL    HW1 7403   1.837   2.401   3.622
 2168SOL    HW2 7404   1.873   2.435   3.466
 2169SOL     OW 7405   6.888   0.451   0.882
 2169SOL    HW1 7406   6.820   0.489   0.945
 2169SOL    HW2 7407   6.979   0.464   0.921
 2170SOL     OW 7408   1.468   3.286   6.590
 2170SOL    HW1 7409   1.545   3.337   6.553
 2170SOL    HW2 7410   1.454   3.203   6.536
 2171SOL     OW 7411   6.978   6.029   1.576
 2171SOL    HW1 7412   6.926   6.072   1.650
 2171SOL    HW2 7413   7.006   6.098   1.510
 2172SOL     OW 7414   2.617   2.338   5.054
 2172SOL    HW1 7415   2.702   2.302   5.092
 2172SOL    HW2 7416   2.621   2.438   5.053
 2173SOL     OW 7417   4.623   0.535   4.653
 2173SOL    HW1 7418   4.645   0.543   4.750
 2173SOL    HW2 7419   4.632   0.624   4.609
 2174SOL     OW 7420   5.425   0.276   6.263
 2174SOL    HW1 7421   5.406   0.179   6.270
 2174SOL    HW2 7422   5.470   0.308   6.347
 2175SOL     OW 7423   3.765   3.040   5.976
 2175SOL    HW1 7424   3.669   3.013   5.969
 2175SOL    HW2 7425   3.785   3.112   5.910
 2176SOL     OW 7426   6.104   1.752   3.106
 2176SOL    HW1 7427   6.155   1.746   3.192
 2176SOL    HW2 7428   6.020   1.699   3.112
 2177SOL     OW 7429   1.128   1.023   5.343
 2177SOL    HW1 7430   1.211   1.014   5.289
 2177SOL    HW2 7431   1.049   1.029   5.282
 2178SOL     OW 7432   1.846   2.782   2.452
 2178SOL    HW1 7433   1.818   2.698   2.497
 2178SOL    HW2 7434   1.828   2.774   2.354
 2179SOL     OW 7435   1.044   4.235   0.237
 2179SOL    HW1 7436   1.014   4.312   0.180
 2179SOL    HW2 7437   0.971   4.212   0.302
 2180SOL     OW 7438   0.448   5.599   2.939
 2180SOL    HW1 7439   0.453   5.660   3.018
 2180SOL    HW2 7440   0.448   5.504   2.971
 2181SOL     OW 7441   3.745   4.983   4.164
 2181SOL    HW1 7442   3.732   5.082   4.175
 2181SOL    HW2 7443   3.713   4.956   4.073
 2182SOL     OW 7444   0.138   6.304   1.376
 2182SOL    HW1 7445   0.042   6.307   1.400
 2182SOL    HW2 7446   0.176   6.397   1.377
 2183SOL     OW 7447   3.309   3.089   6.842
 2183SOL    HW1 7448   3.316   3.165   6.907
 2183SOL    HW2 7449   3.388   3.091   6.781
 2184SOL     OW 7450   6.189   1.874   0.042
 2184SOL    HW1 7451   6.168   1.972   0.037
 2184SOL    HW2 7452   6.104   1.822   0.034
 2185SOL     OW 7453   0.710   1.691   6.184
 2185SOL    HW1 7454   0.648   1.615   6.203
 2185SOL    HW2 7455   0.762   1.671   6.101
 2186SOL     OW 7456   6.910   6.293   5.284
 2186SOL    HW1 7457   6.814   6.294   5.313
 2186SOL    HW2 7458   6.970   6.295   5.364
 2187SOL     OW 7459   5.838   4.766   1.438
 2187SOL    HW1 7460   5.837   4.754   1.338
 2187SOL    HW2 7461   5.755   4.813   1.466
 2188SOL     OW 7462   3.083   0.836   0.780
 2188SOL    HW1 7463   3.031   0.921   0.775
 2188SOL    HW2 7464   3.029   0.761   0.742
 2189SOL     OW 7465   1.886   0.628   2.324
 2189SOL    HW1 7466   1.861   0.654   2.417
 2189SOL    HW2 7467   1.975   0.584   2.325
 2190SOL     OW 7468   6.419   5.083   2.338
 2190SOL    HW1 7469   6.494   5.019   2.322
 2190SOL    HW2 7470   6.444   5.147   2.411
 2191SOL     OW 7471   3.691   6.705   6.737
 2191SOL    HW1 7472   3.624   6.774   6.709
 2191SOL    HW2 7473   3.669   6.618   6.692
 2192SOL     OW 7474   4.853   2.093   1.908
 2192SOL    HW1 7475   4.818   2.179   1.943
 2192SOL    HW2 7476   4.906   2.110   1.825
 2193SOL     OW 7477   1.705   0.487   4.648
 2193SOL    HW1 7478   1.770   0.428   4.600
 2193SOL    HW2 7479   1.626   0.434   4.677
 2194SOL     OW 7480   0.520   4.524   5.009
 2194SOL    HW1 7481   0.514   4.599   5.075
 2194SOL    HW2 7482   0.577   4.451   5.047
 2195SOL     OW 7483   0.180   3.617   5.094
 2195SOL    HW1 7484   0.128   3.700   5.114
 2195SOL    HW2 7485   0.265   3.642   5.048
 2196SOL     OW 7486   3.971   0.940   6.805
 2196SOL    HW1 7487   4.029   0.913   6.728
 2196SOL    HW2 7488   3.907   0.866   6.826
 2197SOL     OW 7489   3.754   5.336   6.571
 2197SOL    HW1 7490   3.700   5.252   6.579
 2197SOL    HW2 7491   3.720   5.390   6.494
 2198SOL     OW 7492   1.464   1.264   6.620
 2198SOL    HW1 7493   1.456   1.218   6.709
 2198SOL    HW2 7494   1.489   1.198   6.550
 2199SOL     OW 7495   4.068   6.451   3.999
 2199SOL    HW1 7496   4.121   6.444   3.914
 2199SOL    HW2 7497   4.020   6.365   4.016
 2200SOL     OW 7498   2.438   2.509   4.434
 2200SOL    HW1 7499   2.350   2.542   4.401
 2200SOL    HW2 7500   2.463   2.559   4.517
 2201SOL     OW 7501   5.435   3.809   4.939
 2201SOL    HW1 7502   5.381   3.731   4.972
 2201SOL    HW2 7503   5.478   3.785   4.852
 2202SOL     OW 7504   3.479   6.822   3.846
 2202SOL    HW1 7505   3.483   6.795   3.941
 2202SOL    HW2 7506   3.571   6.821   3.806
 2203SOL     OW 7507   2.232   5.593   0.865
 2203SOL    HW1 7508   2.201   5.502   0.894
 2203SOL    HW2 7509   2.309   5.584   0.803
 2204SOL     OW 7510   5.193   2.949   1.059
 2204SOL    HW1 7511   5.178   2.871   1.120
 2204SOL    HW2 7512   5.292   2.965   1.050
 2205SOL     OW 7513   5.805   5.557   1.099
 2205SOL    HW1 7514   5.813   5.507   1.185
 2205SOL    HW2 7515   5.864   5.637   1.101
 2206SOL     OW 7516   3.640   2.648   5.590
 2206SOL    HW1 7517   3.648   2.745   5.611
 2206SOL    HW2 7518   3.732   2.607   5.586
 2207SOL     OW 7519   4.573   5.789   1.724
 2207SOL    HW1 7520   4.547   5.694   1.708
 2207SOL    HW2 7521   4.667   5.794   1.757
 2208SOL     OW 7522   6.806   6.509   2.851
 2208SOL    HW1 7523   6.799   6.413   2.877
 2208SOL    HW2 7524   6.814   6.565   2.933
 2209SOL     OW 7525   2.647   5.280   3.355
 2209SOL    HW1 7526   2.708   5.233   3.292
 2209SOL    HW2 7527   2.671   5.377   3.359
 2210SOL     OW 7528   5.153   6.841   1.777
 2210SOL    HW1 7529   5.158   6.755   1.827
 2210SOL    HW2 7530   5.096   6.906   1.827
 2211SOL     OW 7531   1.304   1.747   1.594
 2211SOL    HW1 7532   1.356   1.662   1.596
 2211SOL    HW2 7533   1.334   1.803   1.517
 2212SOL     OW 7534   2.822   5.677   6.077
 2212SOL    HW1 7535   2.895   5.664   6.144
 2212SOL    HW2 7536   2.847   5.631   5.991
 2213SOL     OW 7537   3.623   1.471   4.474
 2213SOL    HW1 7538   3.628   1.372   4.464
 2213SOL    HW2 7539   3.624   1.495   4.572
 2214SOL     OW 7540   4.146   4.215   6.605
 2214SOL    HW1 7541   4.134   4.116   6.611
 2214SOL    HW2 7542   4.243   4.236   6.591
 2215SOL     OW 7543   5.587   5.439   0.048
 2215SOL    HW1 7544   5.494   5.476   0.047
 2215SOL    HW2 7545   5.652   5.514   0.062
 2216SOL     OW 7546   0.541   5.884   6.858
 2216SOL    HW1 7547   0.462   5.881   6.797
 2216SOL    HW2 7548   0.592   5.799   6.851
 2217SOL     OW 7549   4.167   1.481   3.457
 2217SOL    HW1 7550   4.234   1.547   3.491
 2217SOL    HW2 7551   4.214   1.402   3.417
 2218SOL     OW 7552   6.667   5.764   5.593
 2218SOL    HW1 7553   6.583   5.778   5.645
 2218SOL    HW2 7554   6.644   5.750   5.496
 2219SOL     OW 7555   5.504   1.991   0.539
 2219SOL    HW1 7556   5.553   2.077   0.526
 2219SOL    HW2 7557   5.417   2.009   0.584
 2220SOL     OW 7558   6.768   6.429   4.307
 2220SOL    HW1 7559   6.732   6.473   4.225
 2220SOL    HW2 7560   6.697   6.427   4.377
 2221SOL     OW 7561   5.611   0.838   4.551
 2221SOL    HW1 7562   5.564   0.753   4.527
 2221SOL    HW2 7563   5.552   0.916   4.530
 2222SOL     OW 7564   3.572   1.066   3.625
 2222SOL    HW1 7565   3.501   1.022   3.570
 2222SOL    HW2 7566   3.539   1.079   3.718
 2223SOL     OW 7567   0.825   0.027   5.376
 2223SOL    HW1 7568   0.811   6.974   5.307
 2223SOL    HW2 7569   0.916   0.067   5.365
 2224SOL     OW 7570   5.319   4.231   6.576
 2224SOL    HW1 7571   5.296   4.134   6.584
 2224SOL    HW2 7572   5.395   4.242   6.512
 2225SOL     OW 7573   6.803   6.409   1.207
 2225SOL    HW1 7574   6.798   6.507   1.186
 2225SOL    HW2 7575   6.710   6.371   1.207
 2226SOL     OW 7576   2.439   3.353   0.010
 2226SOL    HW1 7577   2.464   3.259   7.006
 2226SOL    HW2 7578   2.495   3.385   0.086
 2227SOL     OW 7579   4.104   2.104   1.900
 2227SOL    HW1 7580   4.103   2.203   1.883
 2227SOL    HW2 7581   4.019   2.077   1.945
 2228SOL     OW 7582   5.213   6.625   6.554
 2228SOL    HW1 7583   5.170   6.600   6.641
 2228SOL    HW2 7584   5.307   6.592   6.553
 2229SOL     OW 7585   3.171   3.722   4.263
 2229SOL    HW1 7586   3.249   3.738   4.323
 2229SOL    HW2 7587   3.176   3.630   4.225
 2230SOL     OW 7588   6.396   0.757   6.158
 2230SOL    HW1 7589   6.355   0.826   6.218
 2230SOL    HW2 7590   6.493   0.777   6.146
 2231SOL     OW 7591   1.526   0.125   6.155
 2231SOL    HW1 7592   1.581   0.132   6.239
 2231SOL    HW2 7593   1.474   0.039   6.157
 2232SOL     OW 7594   1.743   0.847   6.164
 2232SOL    HW1 7595   1.780   0.767   6.212
 2232SOL    HW2 7596   1.664   0.882   6.214
 2233SOL     OW 7597   2.968   4.949   0.825
 2233SOL    HW1 7598   2.960   4.970   0.923
 2233SOL    HW2 7599   2.956   4.851   0.811
 2234SOL     OW 7600   4.963   2.155   1.595
 2234SOL    HW1 7601   4.982   2.167   1.497
 2234SOL    HW2 7602   4.911   2.070   1.608
 2235SOL     OW 7603   0.527   1.985   2.851
 2235SOL    HW1 7604   0.539   1.936   2.764
 2235SOL    HW2 7605   0.429   1.989   2.873
 2236SOL     OW 7606   2.944   5.075   5.208
 2236SOL    HW1 7607   2.988   5.156   5.169
 2236SOL    HW2 7608   2.904   5.020   5.134
 2237SOL     OW 7609   6.105   6.659   6.107
 2237SOL    HW1 7610   6.158   6.675   6.023
 2237SOL    HW2 7611   6.021   6.713   6.103
 2238SOL     OW 7612   5.883   3.533   2.233
 2238SOL    HW1 7613   5.979   3.509   2.221
 2238SOL    HW2 7614   5.852   3.501   2.323
 2239SOL     OW 7615   4.044   0.164   2.831
 2239SOL    HW1 7616   4.070   0.136   2.924
 2239SOL    HW2 7617   4.052   0.086   2.769
 2240SOL     OW 7618   4.902   5.009   2.264
 2240SOL    HW1 7619   4.933   5.024   2.357
 2240SOL    HW2 7620   4.957   5.063   2.201
 2241SOL     OW 7621   0.745   1.867   3.182
 2241SOL    HW1 7622   0.689   1.804   3.128
 2241SOL    HW2 7623   0.834   1.880   3.139
 2242SOL     OW 7624   5.803   2.543   4.337
 2242SOL    HW1 7625   5.791   2.512   4.431
 2242SOL    HW2 7626   5.815   2.642   4.335
 2243SOL     OW 7627   2.497   0.435   0.244
 2243SOL    HW1 7628   2.580   0.382   0.262
 2243SOL    HW2 7629   2.418   0.374   0.242
 2244SOL     OW 7630   3.040   1.929   1.144
 2244SOL    HW1 7631   3.131   1.949   1.109
 2244SOL    HW2 7632   2.997   2.015   1.174
 2245SOL     OW 7633   0.410   0.792   6.961
 2245SOL    HW1 7634   0.443   0.879   6.924
 2245SOL    HW2 7635   0.467   0.765   0.020
 2246SOL     OW 7636   5.131   1.291   5.808
 2246SOL    HW1 7637   5.149   1.194   5.827
 2246SOL    HW2 7638   5.055   1.298   5.743
 2247SOL     OW 7639   2.801   3.453   2.001
 2247SOL    HW1 7640   2.880   3.395   2.023
 2247SOL    HW2 7641   2.831   3.547   1.990
 2248SOL     OW 7642   4.930   2.937   4.568
 2248SOL    HW1 7643   4.999   2.904   4.632
 2248SOL    HW2 7644   4.872   2.860   4.540
 2249SOL     OW 7645   2.105   6.455   4.042
 2249SOL    HW1 7646   2.094   6.538   3.988
 2249SOL    HW2 7647   2.202   6.435   4.054
 2250SOL     OW 7648   4.512   5.905   6.072
 2250SOL    HW1 7649   4.496   5.941   6.164
 2250SOL    HW2 7650   4.605   5.925   6.044
 2251SOL     OW 7651   3.939   7.015   4.709
 2251SOL    HW1 7652   4.025   0.043   4.686
 2251SOL    HW2 7653   3.946   6.918   4.685
 2252SOL     OW 7654   3.934   1.146   2.352
 2252SOL    HW1 7655   3.876   1.187   2.282
 2252SOL    HW2 7656   3.966   1.217   2.415
 2253SOL     OW 7657   0.626   3.420   2.151
 2253SOL    HW1 7658   0.665   3.392   2.064
 2253SOL    HW2 7659   0.528   3.402   2.152
 2254SOL     OW 7660   3.160   2.944   3.075
 2254SOL    HW1 7661   3.220   2.881   3.125
 2254SOL    HW2 7662   3.196   2.958   2.983
 2255SOL     OW 7663   1.601   2.698   6.472
 2255SOL    HW1 7664   1.618   2.760   6.396
 2255SOL    HW2 7665   1.513   2.652   6.458
 2256SOL     OW 7666   5.427   0.384   1.471
 2256SOL    HW1 7667   5.355   0.453   1.475
 2256SOL    HW2 7668   5.508   0.418   1.518
 2257SOL     OW 7669   0.528   0.172   5.753
 2257SOL    HW1 7670   0.530   0.237   5.677
 2257SOL    HW2 7671   0.529   0.223   5.839
 2258SOL     OW 7672   2.040   6.700   3.539
 2258SOL    HW1 7673   2.047   6.798   3.558
 2258SOL    HW2 7674   2.045   6.650   3.625
 2259SOL     OW 7675   5.821   0.357   4.619
 2259SOL    HW1 7676   5.918   0.379   4.624
 2259SOL    HW2 7677   5.809   0.261   4.594
 2260SOL     OW 7678   1.467   3.735   1.353
 2260SOL    HW1 7679   1.476   3.834   1.360
 2260SOL    HW2 7680   1.545   3.697   1.303
 2261SOL     OW 7681   5.147   4.617   6.000
 2261SOL    HW1 7682   5.105   4.551   6.062
 2261SOL    HW2 7683   5.118   4.709   6.024
 2262SOL     OW 7684   6.971   6.836   3.993
 2262SOL    HW1 7685   0.040   6.884   3.993
 2262SOL    HW2 7686   6.925   6.850   4.081
 2263SOL     OW 7687   2.406   4.724   6.757
 2263SOL    HW1 7688   2.489   4.699   6.706
 2263SOL    HW2 7689   2.326   4.689   6.709
 2264SOL     OW 7690   2.086   0.469   6.513
 2264SOL    HW1 7691   2.180   0.462   6.546
 2264SOL    HW2 7692   2.061   0.565   6.500
 2265SOL     OW 7693   0.202   6.699   3.794
 2265SOL    HW1 7694   0.231   6.755   3.871
 2265SOL    HW2 7695   0.103   6.690   3.795
 2266SOL     OW 7696   4.518   3.501   6.502
 2266SOL    HW1 7697   4.428   3.536   6.527
 2266SOL    HW2 7698   4.589   3.567   6.529
 2267SOL     OW 7699   5.807   2.844   4.330
 2267SOL    HW1 7700   5.897   2.867   4.293
 2267SOL    HW2 7701   5.755   2.928   4.346
 2268SOL     OW 7702   0.900   6.146   5.055
 2268SOL    HW1 7703   0.867   6.068   5.109
 2268SOL    HW2 7704   0.888   6.230   5.107
 2269SOL     OW 7705   1.955   2.597   5.688
 2269SOL    HW1 7706   2.019   2.544   5.743
 2269SOL    HW2 7707   1.984   2.693   5.684
 2270SOL     OW 7708   5.098   2.016   6.203
 2270SOL    HW1 7709   5.084   2.105   6.160
 2270SOL    HW2 7710   5.037   1.949   6.162
 2271SOL     OW 7711   3.972   5.536   5.529
 2271SOL    HW1 7712   4.016   5.536   5.439
 2271SOL    HW2 7713   3.994   5.451   5.576
 2272SOL     OW 7714   5.945   1.557   6.159
 2272SOL    HW1 7715   5.863   1.579   6.212
 2272SOL    HW2 7716   6.003   1.638   6.153
 2273SOL     OW 7717   0.768   2.730   3.920
 2273SOL    HW1 7718   0.704   2.655   3.902
 2273SOL    HW2 7719   0.717   2.815   3.934
 2274SOL     OW 7720   1.136   1.109   0.277
 2274SOL    HW1 7721   1.203   1.164   0.326
 2274SOL    HW2 7722   1.128   1.143   0.183
 2275SOL     OW 7723   5.743   3.660   3.344
 2275SOL    HW1 7724   5.805   3.723   3.298
 2275SOL    HW2 7725   5.790   3.574   3.364
 2276SOL     OW 7726   1.772   1.660   1.206
 2276SOL    HW1 7727   1.831   1.671   1.286
 2276SOL    HW2 7728   1.738   1.566   1.202
 2277SOL     OW 7729   3.692   3.274   3.476
 2277SOL    HW1 7730   3.607   3.318   3.505
 2277SOL    HW2 7731   3.751   3.259   3.556
 2278SOL     OW 7732   6.702   3.078   3.872
 2278SOL    HW1 7733   6.620   3.025   3.893
 2278SOL    HW2 7734   6.694   3.116   3.780
 2279SOL     OW 7735   1.415   4.730   5.826
 2279SOL    HW1 7736   1.383   4.811   5.876
 2279SOL    HW2 7737   1.364   4.650   5.857
 2280SOL     OW 7738   4.850   2.368   5.617
 2280SOL    HW1 7739   4.858   2.433   5.693
 2280SOL    HW2 7740   4.816   2.281   5.652
 2281SOL     OW 7741   5.163   6.810   2.319
 2281SOL    HW1 7742   5.111   6.893   2.299
 2281SOL    HW2 7743   5.218   6.824   2.402
 2282SOL     OW 7744   3.732   5.671   5.925
 2282SOL    HW1 7745   3.739   5.614   5.843
 2282SOL    HW2 7746   3.637   5.672   5.956
 2283SOL     OW 7747   0.145   0.710   4.933
 2283SOL    HW1 7748   0.162   0.632   4.872
 2283SOL    HW2 7749   0.046   0.723   4.944
 2284SOL     OW 7750   1.845   3.630   6.376
 2284SOL    HW1 7751   1.753   3.668   6.369
 2284SOL    HW2 7752   1.882   3.648   6.467
 2285SOL     OW 7753   1.371   4.583   6.466
 2285SOL    HW1 7754   1.411   4.550   6.552
 2285SOL    HW2 7755   1.388   4.515   6.394
 2286SOL     OW 7756   4.509   4.448   2.811
 2286SOL    HW1 7757   4.513   4.470   2.909
 2286SOL    HW2 7758   4.577   4.378   2.790
 2287SOL     OW 7759   1.203   1.408   4.419
 2287SOL    HW1 7760   1.213   1.325   4.364
 2287SOL    HW2 7761   1.206   1.489   4.360
 2288SOL     OW 7762   6.622   5.379   2.729
 2288SOL    HW1 7763   6.570   5.444   2.784
 2288SOL    HW2 7764   6.638   5.417   2.638
 2289SOL     OW 7765   0.606   5.302   0.286
 2289SOL    HW1 7766   0.567   5.244   0.358
 2289SOL    HW2 7767   0.675   5.362   0.325
 2290SOL     OW 7768   0.833   5.490   6.366
 2290SOL    HW1 7769   0.802   5.568   6.421
 2290SOL    HW2 7770   0.806   5.405   6.411
 2291SOL     OW 7771   2.285   1.700   0.057
 2291SOL    HW1 7772   2.264   1.776   0.119
 2291SOL    HW2 7773   2.326   1.736   6.991
 2292SOL     OW 7774   2.049   1.227   4.215
 2292SOL    HW1 7775   2.101   1.276   4.145
 2292SOL    HW2 7776   1.952   1.232   4.194
 2293SOL     OW 7777   5.644   3.786   2.473
 2293SOL    HW1 7778   5.646   3.880   2.438
 2293SOL    HW2 7779   5.550   3.761   2.495
 2294SOL     OW 7780   4.406   6.694   0.403
 2294SOL    HW1 7781   4.410   6.708   0.304
 2294SOL    HW2 7782   4.499   6.681   0.439
 2295SOL     OW 7783   0.989   1.288   2.089
 2295SOL    HW1 7784   0.931   1.231   2.030
 2295SOL    HW2 7785   1.050   1.228   2.142
 2296SOL     OW 7786   3.190   6.318   0.480
 2296SOL    HW1 7787   3.199   6.220   0.499
 2296SOL    HW2 7788   3.110   6.333   0.422
 2297SOL     OW 7789   4.729   6.479   6.960
 2297SOL    HW1 7790   4.671   6.552   6.924
 2297SOL    HW2 7791   4.711   6.394   6.909
 2298SOL     OW 7792   3.917   3.202   6.824
 2298SOL    HW1 7793   3.864   3.163   6.899
 2298SOL    HW2 7794   3.916   3.302   6.831
 2299SOL     OW 7795   4.285   0.201   0.574
 2299SOL    HW1 7796   4.213   0.226   0.638
 2299SOL    HW2 7797   4.245   0.170   0.488
 2300SOL     OW 7798   0.979   4.791   1.214
 2300SOL    HW1 7799   1.028   4.795   1.127
 2300SOL    HW2 7800   1.035   4.831   1.286
 2301SOL     OW 7801   3.859   3.693   1.838
 2301SOL    HW1 7802   3.879   3.791   1.830
 2301SOL    HW2 7803   3.760   3.680   1.849
 2302SOL     OW 7804   2.182   5.267   2.742
 2302SOL    HW1 7805   2.236   5.271   2.827
 2302SOL    HW2 7806   2.171   5.172   2.714
 2303SOL     OW 7807   6.817   2.911   5.859
 2303SOL    HW1 7808   6.873   2.987   5.824
 2303SOL    HW2 7809   6.721   2.940   5.865
 2304SOL     OW 7810   2.087   1.400   4.646
 2304SOL    HW1 7811   2.160   1.417   4.579
 2304SOL    HW2 7812   2.060   1.486   4.688
 2305SOL     OW 7813   4.345   4.616   1.910
 2305SOL    HW1 7814   4.417   4.554   1.939
 2305SOL    HW2 7815   4.301   4.581   1.827
 2306SOL     OW 7816   0.205   4.387   0.293
 2306SOL    HW1 7817   0.191   4.361   0.197
 2306SOL    HW2 7818   0.216   4.486   0.299
 2307SOL     OW 7819   0.591   1.661   2.768
 2307SOL    HW1 7820   0.640   1.575   2.755
 2307SOL    HW2 7821   0.579   1.677   2.866
 2308SOL     OW 7822   1.036   6.750   0.356
 2308SOL    HW1 7823   1.019   6.770   0.453
 2308SOL    HW2 7824   1.126   6.706   0.346
 2309SOL     OW 7825   2.595   5.161   5.813
 2309SOL    HW1 7826   2.558   5.192   5.900
 2309SOL    HW2 7827   2.528   5.102   5.767
 2310SOL     OW 7828   5.778   1.287   3.299
 2310SOL    HW1 7829   5.840   1.232   3.355
 2310SOL    HW2 7830   5.779   1.382   3.330
 2311SOL     OW 7831   2.545   0.538   2.376
 2311SOL    HW1 7832   2.573   0.555   2.281
 2311SOL    HW2 7833   2.615   0.573   2.438
 2312SOL     OW 7834   2.332   1.289   2.307
 2312SOL    HW1 7835   2.411   1.351   2.303
 2312SOL    HW2 7836   2.340   1.231   2.388
 2313SOL     OW 7837   5.085   3.985   1.737
 2313SOL    HW1 7838   5.142   4.026   1.808
 2313SOL    HW2 7839   5.041   3.902   1.773
 2314SOL     OW 7840   6.616   6.817   2.919
 2314SOL    HW1 7841   6.654   6.761   2.846
 2314SOL    HW2 7842   6.663   6.796   3.005
 2315SOL     OW 7843   4.371   6.084   4.899
 2315SOL    HW1 7844   4.386   6.177   4.932
 2315SOL    HW2 7845   4.332   6.029   4.973
 2316SOL     OW 7846   2.978   1.565   5.662
 2316SOL    HW1 7847   3.048   1.573   5.591
 2316SOL    HW2 7848   2.944   1.471   5.666
 2317SOL     OW 7849   7.012   5.095   2.830
 2317SOL    HW1 7850   6.963   5.150   2.763
 2317SOL    HW2 7851   0.040   5.019   2.783
 2318SOL     OW 7852   0.926   4.649   4.279
 2318SOL    HW1 7853   0.847   4.590   4.263
 2318SOL    HW2 7854   1.002   4.619   4.221
 2319SOL     OW 7855   1.975   5.289   3.601
 2319SOL    HW1 7856   2.065   5.246   3.611
 2319SOL    HW2 7857   1.966   5.326   3.508
 2320SOL     OW 7858   0.712   1.870   5.200
 2320SOL    HW1 7859   0.708   1.831   5.292
 2320SOL    HW2 7860   0.742   1.965   5.205
 2321SOL     OW 7861   1.944   4.550   5.183
 2321SOL    HW1 7862   1.994   4.619   5.234
 2321SOL    HW2 7863   1.925   4.583   5.091
 2322SOL     OW 7864   1.755   3.739   1.705
 2322SOL    HW1 7865   1.684   3.673   1.678
 2322SOL    HW2 7866   1.841   3.692   1.720
 2323SOL     OW 7867   2.660   5.125   0.766
 2323SOL    HW1 7868   2.712   5.065   0.827
 2323SOL    HW2 7869   2.562   5.107   0.777
 2324SOL     OW 7870   6.726   5.191   2.435
 2324SOL    HW1 7871   6.744   5.094   2.453
 2324SOL    HW2 7872   6.765   5.216   2.347
 2325SOL     OW 7873   6.084   5.317   2.181
 2325SOL    HW1 7874   6.118   5.411   2.172
 2325SOL    HW2 7875   6.135   5.257   2.120
 2326SOL     OW 7876   1.761   0.297   0.045
 2326SOL    HW1 7877   1.775   0.197   0.046
 2326SOL    HW2 7878   1.841   0.341   0.084
 2327SOL     OW 7879   0.020   6.900   2.271
 2327SOL    HW1 7880   6.999   6.859   2.353
 2327SOL    HW2 7881   0.019   6.833   2.197
 2328SOL     OW 7882   2.056   3.834   2.550
 2328SOL    HW1 7883   2.053   3.784   2.464
 2328SOL    HW2 7884   2.117   3.913   2.540
 2329SOL     OW 7885   0.252   5.051   3.142
 2329SOL    HW1 7886   0.286   4.958   3.158
 2329SOL    HW2 7887   0.264   5.075   3.046
 2330SOL     OW 7888   6.361   3.003   0.946
 2330SOL    HW1 7889   6.442   3.042   0.990
 2330SOL    HW2 7890   6.315   3.074   0.892
 2331SOL     OW 7891   5.038   5.437   1.582
 2331SOL    HW1 7892   5.038   5.535   1.561
 2331SOL    HW2 7893   5.129   5.400   1.565
 2332SOL     OW 7894   5.790   0.017   5.969
 2332SOL    HW1 7895   5.742   6.972   5.907
 2332SOL    HW2 7896   5.849   0.077   5.916
 2333SOL     OW 7897   0.615   4.594   2.485
 2333SOL    HW1 7898   0.603   4.585   2.584
 2333SOL    HW2 7899   0.532   4.563   2.439
 2334SOL     OW 7900   2.877   1.659   6.225
 2334SOL    HW1 7901   2.834   1.714   6.297
 2334SOL    HW2 7902   2.868   1.707   6.138
 2335SOL     OW 7903   6.813   1.431   3.587
 2335SOL    HW1 7904   6.820   1.349   3.644
 2335SOL    HW2 7905   6.742   1.491   3.624
 2336SOL     OW 7906   1.506   1.547   3.622
 2336SOL    HW1 7907   1.428   1.607   3.639
 2336SOL    HW2 7908   1.582   1.574   3.682
 2337SOL     OW 7909   4.023   1.411   1.546
 2337SOL    HW1 7910   4.046   1.503   1.580
 2337SOL    HW2 7911   3.988   1.356   1.620
 2338SOL     OW 7912   6.868   3.723   3.915
 2338SOL    HW1 7913   6.772   3.709   3.938
 2338SOL    HW2 7914   6.926   3.682   3.986
 2339SOL     OW 7915   3.072   3.137   3.608
 2339SOL    HW1 7916   3.073   3.126   3.508
 2339SOL    HW2 7917   3.016   3.216   3.632
 2340SOL     OW 7918   2.232   4.611   6.977
 2340SOL    HW1 7919   2.298   4.670   6.929
 2340SOL    HW2 7920   2.244   4.516   6.947
 2341SOL     OW 7921   2.299   4.217   3.941
 2341SOL    HW1 7922   2.337   4.258   3.858
 2341SOL    HW2 7923   2.297   4.285   4.014
 2342SOL     OW 7924   3.198   1.141   4.077
 2342SOL    HW1 7925   3.280   1.097   4.041
 2342SOL    HW2 7926   3.221   1.192   4.160
 2343SOL     OW 7927   0.968   0.084   1.646
 2343SOL    HW1 7928   0.972   0.016   1.719
 2343SOL    HW2 7929   0.894   0.061   1.583
 2344SOL     OW 7930   5.535   4.229   0.432
 2344SOL    HW1 7931   5.498   4.304   0.486
 2344SOL    HW2 7932   5.632   4.217   0.454
 2345SOL     OW 7933   3.583   6.041   4.744
 2345SOL    HW1 7934   3.570   6.071   4.838
 2345SOL    HW2 7935   3.601   6.121   4.686
 2346SOL     OW 7936   4.519   3.463   0.073
 2346SOL    HW1 7937   4.593   3.471   0.140
 2346SOL    HW2 7938   4.431   3.456   0.122
 2347SOL     OW 7939   1.845   2.029   1.455
 2347SOL    HW1 7940   1.834   2.083   1.538
 2347SOL    HW2 7941   1.846   2.091   1.376
 2348SOL     OW 7942   0.407   5.080   2.192
 2348SOL    HW1 7943   0.420   4.988   2.155
 2348SOL    HW2 7944   0.479   5.140   2.158
 2349SOL     OW 7945   0.996   4.539   5.373
 2349SOL    HW1 7946   0.973   4.442   5.385
 2349SOL    HW2 7947   1.090   4.546   5.339
 2350SOL     OW 7948   5.488   3.270   6.890
 2350SOL    HW1 7949   5.451   3.221   6.969
 2350SOL    HW2 7950   5.567   3.324   6.919
 2351SOL     OW 7951   2.362   5.839   2.246
 2351SOL    HW1 7952   2.431   5.817   2.177
 2351SOL    HW2 7953   2.378   5.785   2.328
 2352SOL     OW 7954   0.112   2.372   3.104
 2352SOL    HW1 7955   0.148   2.463   3.123
 2352SOL    HW2 7956   0.095   2.363   3.006
 2353SOL     OW 7957   3.221   5.154   4.695
 2353SOL    HW1 7958   3.261   5.205   4.771
 2353SOL    HW2 7959   3.231   5.205   4.610
 2354SOL     OW 7960   2.493   2.648   4.153
 2354SOL    HW1 7961   2.554   2.606   4.086
 2354SOL    HW2 7962   2.508   2.606   4.243
 2355SOL     OW 7963   2.428   5.822   5.071
 2355SOL    HW1 7964   2.409   5.826   4.973
 2355SOL    HW2 7965   2.364   5.759   5.115
 2356SOL     OW 7966   6.692   2.994   6.679
 2356SOL    HW1 7967   6.717   2.899   6.664
 2356SOL    HW2 7968   6.593   3.004   6.669
 2357SOL     OW 7969   2.310   6.657   3.023
 2357SOL    HW1 7970   2.245   6.713   3.076
 2357SOL    HW2 7971   2.359   6.596   3.085
 2358SOL     OW 7972   3.541   4.391   5.940
 2358SOL    HW1 7973   3.590   4.339   5.870
 2358SOL    HW2 7974   3.577   4.368   6.030
 2359SOL     OW 7975   1.660   0.052   4.666
 2359SOL    HW1 7976   1.614   7.006   4.727
 2359SOL    HW2 7977   1.593   0.094   4.605
 2360SOL     OW 7978   6.590   4.214   0.161
 2360SOL    HW1 7979   6.634   4.209   0.250
 2360SOL    HW2 7980   6.495   4.182   0.168
 2361SOL     OW 7981   3.144   1.401   0.281
 2361SOL    HW1 7982   3.094   1.411   0.368
 2361SOL    HW2 7983   3.181   1.309   0.275
 2362SOL     OW 7984   2.937   5.908   3.367
 2362SOL    HW1 7985   2.945   5.822   3.316
 2362SOL    HW2 7986   2.861   5.962   3.331
 2363SOL     OW 7987   3.886   0.284   4.331
 2363SOL    HW1 7988   3.889   0.378   4.298
 2363SOL    HW2 7989   3.796   0.245   4.312
 2364SOL     OW 7990   1.096   2.649   1.219
 2364SOL    HW1 7991   1.190   2.637   1.252
 2364SOL    HW2 7992   1.090   2.734   1.165
 2365SOL     OW 7993   5.101   2.396   6.802
 2365SOL    HW1 7994   5.123   2.325   6.870
 2365SOL    HW2 7995   5.130   2.485   6.837
 2366SOL     OW 7996   4.508   5.548   0.625
 2366SOL    HW1 7997   4.416   5.585   0.632
 2366SOL    HW2 7998   4.505   5.459   0.578
 2367SOL     OW 7999   2.349   3.578   6.189
 2367SOL    HW1 8000   2.290   3.532   6.122
 2367SOL    HW2 8001   2.421   3.628   6.142
 2368SOL     OW 8002   6.363   6.114   2.375
 2368SOL    HW1 8003   6.414   6.119   2.288
 2368SOL    HW2 8004   6.367   6.021   2.410
 2369SOL     OW 8005   2.396   1.033   3.433
 2369SOL    HW1 8006   2.368   1.020   3.529
 2369SOL    HW2 8007   2.495   1.031   3.427
 2370SOL     OW 8008   6.218   2.605   6.355
 2370SOL    HW1 8009   6.167   2.595   6.270
 2370SOL    HW2 8010   6.224   2.517   6.402
 2371SOL     OW 8011   2.551   6.430   1.827
 2371SOL    HW1 8012   2.598   6.354   1.783
 2371SOL    HW2 8013   2.592   6.516   1.799
 2372SOL     OW 8014   6.660   2.925   2.743
 2372SOL    HW1 8015   6.637   2.843   2.691
 2372SOL    HW2 8016   6.603   3.001   2.712
 2373SOL     OW 8017   2.727   3.429   6.591
 2373SOL    HW1 8018   2.773   3.490   6.526
 2373SOL    HW2 8019   2.701   3.344   6.545
 2374SOL     OW 8020   5.670   3.040   4.797
 2374SOL    HW1 8021   5.721   2.969   4.747
 2374SOL    HW2 8022   5.605   3.084   4.735
 2375SOL     OW 8023   2.652   6.777   5.115
 2375SOL    HW1 8024   2.711   6.697   5.118
 2375SOL    HW2 8025   2.652   6.823   5.203
 2376SOL     OW 8026   6.361   2.849   4.506
 2376SOL    HW1 8027   6.372   2.785   4.430
 2376SOL    HW2 8028   6.397   2.808   4.589
 2377SOL     OW 8029   3.736   2.969   3.747
 2377SOL    HW1 8030   3.695   2.917   3.822
 2377SOL    HW2 8031   3.697   2.937   3.660
 2378SOL     OW 8032   5.066   2.865   0.516
 2378SOL    HW1 8033   5.054   2.933   0.444
 2378SOL    HW2 8034   5.160   2.831   0.514
 2379SOL     OW 8035   6.871   6.869   6.256
 2379SOL    HW1 8036   6.921   6.943   6.210
 2379SOL    HW2 8037   6.795   6.908   6.308
 2380SOL     OW 8038   6.183   2.187   2.624
 2380SOL    HW1 8039   6.244   2.116   2.590
 2380SOL    HW2 8040   6.229   2.240   2.695
 2381SOL     OW 8041   1.744   6.619   3.183
 2381SOL    HW1 8042   1.731   6.599   3.086
 2381SOL    HW2 8043   1.661   6.662   3.219
 2382SOL     OW 8044   1.690   3.616   5.621
 2382SOL    HW1 8045   1.672   3.523   5.652
 2382SOL    HW2 8046   1.737   3.613   5.532
 2383SOL     OW 8047   5.880   5.958   2.075
 2383SOL    HW1 8048   5.850   6.044   2.036
 2383SOL    HW2 8049   5.926   5.975   2.163
 2384SOL     OW 8050   4.171   1.901   1.618
 2384SOL    HW1 8051   4.243   1.943   1.674
 2384SOL    HW2 8052   4.195   1.806   1.599
 2385SOL     OW 8053   0.620   2.385   6.961
 2385SOL    HW1 8054   0.589   2.321   6.892
 2385SOL    HW2 8055   0.654   2.468   6.917
 2386SOL     OW 8056   4.066   5.306   3.821
 2386SOL    HW1 8057   4.133   5.356   3.876
 2386SOL    HW2 8058   4.103   5.217   3.797
 2387SOL     OW 8059   1.515   1.409   2.589
 2387SOL    HW1 8060   1.599   1.372   2.550
 2387SOL    HW2 8061   1.497   1.499   2.550
 2388SOL     OW 8062   6.733   1.996   4.036
 2388SOL    HW1 8063   6.675   2.075   4.056
 2388SOL    HW2 8064   6.818   2.026   3.994
 2389SOL     OW 8065   3.707   6.432   2.431
 2389SOL    HW1 8066   3.775   6.393   2.493
 2389SOL    HW2 8067   3.684   6.524   2.461
 2390SOL     OW 8068   3.144   4.268   1.428
 2390SOL    HW1 8069   3.197   4.203   1.373
 2390SOL    HW2 8070   3.190   4.281   1.516
 2391SOL     OW 8071   4.078   5.551   5.287
 2391SOL    HW1 8072   4.003   5.609   5.258
 2391SOL    HW2 8073   4.146   5.545   5.214
 2392SOL     OW 8074   3.947   1.180   6.619
 2392SOL    HW1 8075   3.927   1.276   6.595
 2392SOL    HW2 8076   4.035   1.154   6.580
 2393SOL     OW 8077   3.425   5.280   5.309
 2393SOL    HW1 8078   3.478   5.300   5.226
 2393SOL    HW2 8079   3.410   5.182   5.316
 2394SOL     OW 8080   6.881   4.942   5.743
 2394SOL    HW1 8081   6.961   4.888   5.768
 2394SOL    HW2 8082   6.867   4.938   5.644
 2395SOL     OW 8083   4.385   6.780   6.494
 2395SOL    HW1 8084   4.370   6.701   6.554
 2395SOL    HW2 8085   4.438   6.751   6.414
 2396SOL     OW 8086   3.428   5.279   0.666
 2396SOL    HW1 8087   3.360   5.210   0.642
 2396SOL    HW2 8088   3.519   5.244   0.648
 2397SOL     OW 8089   6.927   3.560   4.133
 2397SOL    HW1 8090   6.984   3.570   4.214
 2397SOL    HW2 8091   6.844   3.509   4.157
 2398SOL     OW 8092   4.736   3.933   5.394
 2398SOL    HW1 8093   4.643   3.901   5.415
 2398SOL    HW2 8094   4.799   3.897   5.462
 2399SOL     OW 8095   4.049   2.386   1.770
 2399SOL    HW1 8096   4.021   2.473   1.729
 2399SOL    HW2 8097   3.970   2.324   1.774
 2400SOL     OW 8098   2.016   5.243   0.667
 2400SOL    HW1 8099   1.934   5.187   0.672
 2400SOL    HW2 8100   1.990   5.340   0.665
 2401SOL     OW 8101   0.097   6.227   5.966
 2401SOL    HW1 8102   0.092   6.279   6.051
 2401SOL    HW2 8103   0.156   6.147   5.979
 2402SOL     OW 8104   6.667   6.390   3.851
 2402SOL    HW1 8105   6.760   6.388   3.814
 2402SOL    HW2 8106   6.643   6.299   3.885
 2403SOL     OW 8107   0.422   1.224   5.012
 2403SOL    HW1 8108   0.440   1.183   4.923
 2403SOL    HW2 8109   0.323   1.224   5.029
 2404SOL     OW 8110   1.436   0.975   0.495
 2404SOL    HW1 8111   1.511   0.950   0.434
 2404SOL    HW2 8112   1.406   0.895   0.546
 2405SOL     OW 8113   2.844   3.948   1.225
 2405SOL    HW1 8114   2.846   3.980   1.130
 2405SOL    HW2 8115   2.801   4.017   1.283
 2406SOL     OW 8116   4.711   0.886   1.319
 2406SOL    HW1 8117   4.694   0.931   1.231
 2406SOL    HW2 8118   4.729   0.789   1.303
 2407SOL     OW 8119   5.272   0.029   3.474
 2407SOL    HW1 8120   5.199   0.066   3.415
 2407SOL    HW2 8121   5.239   0.023   3.568
 2408SOL     OW 8122   4.338   4.653   2.254
 2408SOL    HW1 8123   4.425   4.616   2.221
 2408SOL    HW2 8124   4.269   4.646   2.182
 2409SOL     OW 8125   1.070   4.200   0.532
 2409SOL    HW1 8126   0.978   4.173   0.505
 2409SOL    HW2 8127   1.135   4.174   0.460
 2410SOL     OW 8128   3.461   2.907   3.197
 2410SOL    HW1 8129   3.478   2.852   3.278
 2410SOL    HW2 8130   3.546   2.915   3.144
 2411SOL     OW 8131   4.689   0.183   4.325
 2411SOL    HW1 8132   4.758   0.225   4.267
 2411SOL    HW2 8133   4.732   0.115   4.385
 2412SOL     OW 8134   4.142   3.589   1.181
 2412SOL    HW1 8135   4.125   3.600   1.083
 2412SOL    HW2 8136   4.207   3.515   1.196
 2413SOL     OW 8137   4.385   0.280   2.745
 2413SOL    HW1 8138   4.302   0.315   2.701
 2413SOL    HW2 8139   4.380   0.297   2.843
 2414SOL     OW 8140   5.565   3.161   4.150
 2414SOL    HW1 8141   5.505   3.087   4.123
 2414SOL    HW2 8142   5.513   3.230   4.201
 2415SOL     OW 8143   4.268   0.992   3.011
 2415SOL    HW1 8144   4.263   0.901   2.969
 2415SOL    HW2 8145   4.221   0.991   3.099
 2416SOL     OW 8146   5.545   2.044   6.671
 2416SOL    HW1 8147   5.586   1.986   6.600
 2416SOL    HW2 8148   5.603   2.124   6.686
 2417SOL     OW 8149   3.311   4.322   5.443
 2417SOL    HW1 8150   3.388   4.274   5.402
 2417SOL    HW2 8151   3.249   4.355   5.371
 2418SOL     OW 8152   3.271   3.063   2.846
 2418SOL    HW1 8153   3.231   3.143   2.891
 2418SOL    HW2 8154   3.217   3.041   2.765
 2419SOL     OW 8155   0.548   0.405   3.189
 2419SOL    HW1 8156   0.624   0.460   3.154
 2419SOL    HW2 8157   0.473   0.465   3.215
 2420SOL     OW 8158   2.015   0.092   1.997
 2420SOL    HW1 8159   2.020   0.063   1.901
 2420SOL    HW2 8160   2.084   0.162   2.014
 2421SOL     OW 8161   3.462   1.750   3.210
 2421SOL    HW1 8162   3.442   1.845   3.232
 2421SOL    HW2 8163   3.423   1.690   3.280
 2422SOL     OW 8164   4.989   1.761   0.743
 2422SOL    HW1 8165   5.079   1.805   0.744
 2422SOL    HW2 8166   4.994   1.676   0.691
 2423SOL     OW 8167   1.636   5.145   2.716
 2423SOL    HW1 8168   1.717   5.109   2.762
 2423SOL    HW2 8169   1.644   5.244   2.708
 2424SOL     OW 8170   6.643   0.523   0.446
 2424SOL    HW1 8171   6.639   0.610   0.398
 2424SOL    HW2 8172   6.732   0.514   0.490
 2425SOL     OW 8173   6.863   6.775   4.539
 2425SOL    HW1 8174   6.950   6.729   4.522
 2425SOL    HW2 8175   6.788   6.717   4.508
 2426SOL     OW 8176   2.498   4.627   4.110
 2426SOL    HW1 8177   2.587   4.660   4.140
 2426SOL    HW2 8178   2.425   4.679   4.155
 2427SOL     OW 8179   6.187   0.000   5.842
 2427SOL    HW1 8180   6.134   6.943   5.882
 2427SOL    HW2 8181   6.203   7.000   5.745
 2428SOL     OW 8182   5.629   0.950   0.675
 2428SOL    HW1 8183   5.672   1.041   0.672
 2428SOL    HW2 8184   5.697   0.884   0.708
 2429SOL     OW 8185   4.879   5.017   2.653
 2429SOL    HW1 8186   4.942   5.060   2.588
 2429SOL    HW2 8187   4.845   4.931   2.614
 2430SOL     OW 8188   4.812   6.708   2.827
 2430SOL    HW1 8189   4.872   6.710   2.747
 2430SOL    HW2 8190   4.732   6.766   2.810
 2431SOL     OW 8191   4.509   6.743   2.291
 2431SOL    HW1 8192   4.591   6.798   2.278
 2431SOL    HW2 8193   4.534   6.649   2.313
 2432SOL     OW 8194   2.353   6.099   2.423
 2432SOL    HW1 8195   2.337   6.010   2.380
 2432SOL    HW2 8196   2.385   6.164   2.354
 2433SOL     OW 8197   4.664   0.541   0.773
 2433SOL    HW1 8198   4.616   0.496   0.698
 2433SOL    HW2 8199   4.763   0.525   0.763
 2434SOL     OW 8200   3.466   2.898   4.489
 2434SOL    HW1 8201   3.388   2.849   4.450
 2434SOL    HW2 8202   3.461   2.893   4.589
 2435SOL     OW 8203   6.222   6.122   5.974
 2435SOL    HW1 8204   6.207   6.027   5.943
 2435SOL    HW2 8205   6.206   6.128   6.072
 2436SOL     OW 8206   2.580   4.773   0.728
 2436SOL    HW1 8207   2.669   4.729   0.717
 2436SOL    HW2 8208   2.511   4.723   0.675
 2437SOL     OW 8209   6.600   0.778   5.436
 2437SOL    HW1 8210   6.567   0.683   5.441
 2437SOL    HW2 8211   6.677   0.791   5.498
 2438SOL     OW 8212   3.117   3.397   0.906
 2438SOL    HW1 8213   3.212   3.373   0.887
 2438SOL    HW2 8214   3.108   3.496   0.912
 2439SOL     OW 8215   6.148   4.690   6.085
 2439SOL    HW1 8216   6.143   4.765   6.019
 2439SOL    HW2 8217   6.241   4.682   6.120
 2440SOL     OW 8218   5.879   5.153   5.572
 2440SOL    HW1 8219   5.876   5.103   5.485
 2440SOL    HW2 8220   5.974   5.165   5.599
 2441SOL     OW 8221   6.256   2.234   0.586
 2441SOL    HW1 8222   6.227   2.268   0.676
 2441SOL    HW2 8223   6.221   2.142   0.571
 2442SOL     OW 8224   6.802   2.126   5.026
 2442SOL    HW1 8225   6.729   2.186   4.993
 2442SOL    HW2 8226   6.846   2.167   5.106
 2443SOL     OW 8227   3.004   4.917   5.406
 2443SOL    HW1 8228   2.978   4.988   5.341
 2443SOL    HW2 8229   3.044   4.840   5.356
 2444SOL     OW 8230   3.801   2.753   5.922
 2444SOL    HW1 8231   3.769   2.784   5.832
 2444SOL    HW2 8232   3.833   2.831   5.975
 2445SOL     OW 8233   1.200   0.035   0.752
 2445SOL    HW1 8234   1.180   6.977   0.814
 2445SOL    HW2 8235   1.221   0.117   0.806
 2446SOL     OW 8236   4.676   2.886   6.089
 2446SOL    HW1 8237   4.760   2.836   6.111
 2446SOL    HW2 8238   4.692   2.946   6.011
 2447SOL     OW 8239   0.822   3.474   6.451
 2447SOL    HW1 8240   0.914   3.512   6.454
 2447SOL    HW2 8241   0.767   3.523   6.384
 2448SOL     OW 8242   0.080   0.159   4.764
 2448SOL    HW1 8243   0.176   0.187   4.761
 2448SOL    HW2 8244   0.035   0.204   4.840
 2449SOL     OW 8245   0.268   2.839   5.042
 2449SOL    HW1 8246   0.254   2.937   5.057
 2449SOL    HW2 8247   0.335   2.805   5.108
 2450SOL     OW 8248   2.520   3.353   1.537
 2450SOL    HW1 8249   2.567   3.349   1.625
 2450SOL    HW2 8250   2.501   3.448   1.513
 2451SOL     OW 8251   1.870   5.439   3.822
 2451SOL    HW1 8252   1.901   5.388   3.742
 2451SOL    HW2 8253   1.866   5.537   3.800
 2452SOL     OW 8254   2.259   2.420   4.897
 2452SOL    HW1 8255   2.218   2.329   4.905
 2452SOL    HW2 8256   2.217   2.480   4.965
 2453SOL     OW 8257   0.349   3.697   1.050
 2453SOL    HW1 8258   0.401   3.710   1.135
 2453SOL    HW2 8259   0.255   3.672   1.073
 2454SOL     OW 8260   1.323   0.271   2.091
 2454SOL    HW1 8261   1.244   0.320   2.128
 2454SOL    HW2 8262   1.329   0.286   1.993
 2455SOL     OW 8263   5.415   3.403   1.190
 2455SOL    HW1 8264   5.404   3.334   1.118
 2455SOL    HW2 8265   5.468   3.363   1.266
 2456SOL     OW 8266   2.528   6.902   1.332
 2456SOL    HW1 8267   2.568   6.812   1.313
 2456SOL    HW2 8268   2.539   6.924   1.429
 2457SOL     OW 8269   5.871   5.950   1.215
 2457SOL    HW1 8270   5.776   5.926   1.193
 2457SOL    HW2 8271   5.886   5.936   1.313
 2458SOL     OW 8272   0.748   6.406   1.637
 2458SOL    HW1 8273   0.650   6.417   1.619
 2458SOL    HW2 8274   0.767   6.310   1.659
 2459SOL     OW 8275   1.174   1.465   0.317
 2459SOL    HW1 8276   1.235   1.386   0.320
 2459SOL    HW2 8277   1.225   1.545   0.285
 2460SOL     OW 8278   2.633   4.490   1.293
 2460SOL    HW1 8279   2.695   4.532   1.358
 2460SOL    HW2 8280   2.601   4.402   1.329
 2461SOL     OW 8281   4.482   1.545   3.301
 2461SOL    HW1 8282   4.450   1.590   3.384
 2461SOL    HW2 8283   4.411   1.483   3.268
 2462SOL     OW 8284   2.973   3.974   6.125
 2462SOL    HW1 8285   3.017   4.034   6.192
 2462SOL    HW2 8286   2.934   4.029   6.051
 2463SOL     OW 8287   0.918   2.752   5.293
 2463SOL    HW1 8288   0.996   2.702   5.256
 2463SOL    HW2 8289   0.927   2.759   5.392
 2464SOL     OW 8290   0.749   3.290   0.526
 2464SOL    HW1 8291   0.711   3.376   0.560
 2464SOL    HW2 8292   0.691   3.214   0.554
 2465SOL     OW 8293   6.423   4.719   2.776
 2465SOL    HW1 8294   6.422   4.788   2.704
 2465SOL    HW2 8295   6.332   4.681   2.788
 2466SOL     OW 8296   3.319   1.811   1.756
 2466SOL    HW1 8297   3.240   1.789   1.812
 2466SOL    HW2 8298   3.320   1.753   1.675
 2467SOL     OW 8299   0.636   0.966   4.715
 2467SOL    HW1 8300   0.704   1.038   4.702
 2467SOL    HW2 8301   0.681   0.883   4.747
 2468SOL     OW 8302   6.250   5.023   6.670
 2468SOL    HW1 8303   6.203   5.112   6.673
 2468SOL    HW2 8304   6.339   5.031   6.715
 2469SOL     OW 8305   3.062   2.707   5.950
 2469SOL    HW1 8306   3.007   2.624   5.962
 2469SOL    HW2 8307   3.020   2.766   5.881
 2470SOL     OW 8308   5.362   3.033   1.397
 2470SOL    HW1 8309   5.431   2.961   1.404
 2470SOL    HW2 8310   5.279   2.996   1.353
 2471SOL     OW 8311   0.153   1.579   2.774
 2471SOL    HW1 8312   0.070   1.624   2.740
 2471SOL    HW2 8313   0.136   1.481   2.782
 2472SOL     OW 8314   6.002   0.193   3.628
 2472SOL    HW1 8315   5.995   0.097   3.653
 2472SOL    HW2 8316   6.098   0.220   3.622
 2473SOL     OW 8317   0.467   5.920   5.335
 2473SOL    HW1 8318   0.533   5.854   5.299
 2473SOL    HW2 8319   0.424   5.968   5.258
 2474SOL     OW 8320   6.382   6.859   4.549
 2474SOL    HW1 8321   6.343   6.796   4.615
 2474SOL    HW2 8322   6.458   6.909   4.591
 2475SOL     OW 8323   4.041   2.420   6.006
 2475SOL    HW1 8324   4.075   2.446   5.915
 2475SOL    HW2 8325   3.954   2.370   5.996
 2476SOL     OW 8326   0.631   1.410   3.236
 2476SOL    HW1 8327   0.545   1.365   3.262
 2476SOL    HW2 8328   0.694   1.411   3.313
 2477SOL     OW 8329   4.301   4.667   2.519
 2477SOL    HW1 8330   4.289   4.669   2.419
 2477SOL    HW2 8331   4.356   4.746   2.547
 2478SOL     OW 8332   6.835   0.448   2.137
 2478SOL    HW1 8333   6.839   0.525   2.201
 2478SOL    HW2 8334   6.895   0.375   2.170
 2479SOL     OW 8335   1.230   3.501   0.267
 2479SOL    HW1 8336   1.166   3.424   0.266
 2479SOL    HW2 8337   1.207   3.564   0.193
 2480SOL     OW 8338   6.628   5.289   1.377
 2480SOL    HW1 8339   6.587   5.336   1.299
 2480SOL    HW2 8340   6.673   5.355   1.437
 2481SOL     OW 8341   4.043   4.805   2.484
 2481SOL    HW1 8342   4.075   4.710   2.483
 2481SOL    HW2 8343   4.072   4.849   2.569
 2482SOL     OW 8344   4.221   2.204   4.775
 2482SOL    HW1 8345   4.140   2.146   4.783
 2482SOL    HW2 8346   4.216   2.277   4.844
 2483SOL     OW 8347   1.128   3.685   0.078
 2483SOL    HW1 8348   1.064   3.625   0.029
 2483SOL    HW2 8349   1.186   3.732   0.011
 2484SOL     OW 8350   3.889   4.269   5.846
 2484SOL    HW1 8351   3.815   4.204   5.859
 2484SOL    HW2 8352   3.860   4.340   5.782
 2485SOL     OW 8353   0.754   5.664   6.827
 2485SOL    HW1 8354   0.822   5.722   6.783
 2485SOL    HW2 8355   0.721   5.595   6.762
 2486SOL     OW 8356   0.679   5.481   3.516
 2486SOL    HW1 8357   0.630   5.472   3.603
 2486SOL    HW2 8358   0.704   5.576   3.501
 2487SOL     OW 8359   3.438   1.417   1.478
 2487SOL    HW1 8360   3.481   1.439   1.390
 2487SOL    HW2 8361   3.429   1.318   1.485
 2488SOL     OW 8362   2.995   5.627   6.296
 2488SOL    HW1 8363   3.088   5.663   6.287
 2488SOL    HW2 8364   2.965   5.638   6.391
 2489SOL     OW 8365   6.718   5.342   4.640
 2489SOL    HW1 8366   6.662   5.260   4.631
 2489SOL    HW2 8367   6.682   5.413   4.580
 2490SOL     OW 8368   5.714   3.096   1.422
 2490SOL    HW1 8369   5.790   3.159   1.437
 2490SOL    HW2 8370   5.629   3.148   1.415
 2491SOL     OW 8371   6.560   4.039   2.805
 2491SOL    HW1 8372   6.644   4.016   2.756
 2491SOL    HW2 8373   6.552   4.138   2.812
 2492SOL     OW 8374   4.172   1.505   6.825
 2492SOL    HW1 8375   4.199   1.484   6.919
 2492SOL    HW2 8376   4.182   1.603   6.809
 2493SOL     OW 8377   6.187   0.470   5.511
 2493SOL    HW1 8378   6.216   0.409   5.438
 2493SOL    HW2 8379   6.214   0.431   5.599
 2494SOL     OW 8380   5.149   5.011   0.679
 2494SOL    HW1 8381   5.168   5.066   0.760
 2494SOL    HW2 8382   5.051   4.997   0.670
 2495SOL     OW 8383   0.236   1.461   2.412
 2495SOL    HW1 8384   0.170   1.388   2.389
 2495SOL    HW2 8385   0.307   1.424   2.472
 2496SOL     OW 8386   2.145   4.785   0.700
 2496SOL    HW1 8387   2.220   4.850   0.685
 2496SOL    HW2 8388   2.144   4.758   0.796
 2497SOL     OW 8389   5.761   0.584   6.361
 2497SOL    HW1 8390   5.843   0.615   6.409
 2497SOL    HW2 8391   5.680   0.606   6.415
 2498SOL     OW 8392   0.537   3.264   4.572
 2498SOL    HW1 8393   0.515   3.361   4.577
 2498SOL    HW2 8394   0.634   3.251   4.590
 2499SOL     OW 8395   5.169   0.888   0.243
 2499SOL    HW1 8396   5.252   0.942   0.256
 2499SOL    HW2 8397   5.193   0.792   0.230
 2500SOL     OW 8398   5.118   3.589   6.213
 2500SOL    HW1 8399   5.110   3.578   6.114
 2500SOL    HW2 8400   5.026   3.600   6.253
 2501SOL     OW 8401   6.840   4.638   0.891
 2501SOL    HW1 8402   6.885   4.677   0.811
 2501SOL    HW2 8403   6.884   4.674   0.974
 2502SOL     OW 8404   1.068   0.025   3.396
 2502SOL    HW1 8405   1.113   0.034   3.307
 2502SOL    HW2 8406   0.980   6.996   3.384
 2503SOL     OW 8407   5.482   6.564   4.752
 2503SOL    HW1 8408   5.557   6.547   4.688
 2503SOL    HW2 8409   5.422   6.484   4.756
 2504SOL     OW 8410   2.661   4.638   3.048
 2504SOL    HW1 8411   2.570   4.669   3.076
 2504SOL    HW2 8412   2.656   4.594   2.959
 2505SOL     OW 8413   5.059   4.093   4.761
 2505SOL    HW1 8414   5.106   4.058   4.679
 2505SOL    HW2 8415   4.961   4.078   4.752
 2506SOL     OW 8416   0.579   0.885   0.475
 2506SOL    HW1 8417   0.540   0.799   0.442
 2506SOL    HW2 8418   0.639   0.866   0.553
 2507SOL     OW 8419   6.518   6.471   0.311
 2507SOL    HW1 8420   6.554   6.555   0.352
 2507SOL    HW2 8421   6.562   6.392   0.353
 2508SOL     OW 8422   1.722   1.936   2.012
 2508SOL    HW1 8423   1.666   1.906   2.089
 2508SOL    HW2 8424   1.684   1.899   1.926
 2509SOL     OW 8425   6.272   0.016   3.877
 2509SOL    HW1 8426   6.208   6.986   3.817
 2509SOL    HW2 8427   6.299   6.973   3.951
 2510SOL     OW 8428   4.081   5.783   2.470
 2510SOL    HW1 8429   4.034   5.863   2.433
 2510SOL    HW2 8430   4.014   5.718   2.505
 2511SOL     OW 8431   0.848   6.172   3.669
 2511SOL    HW1 8432   0.762   6.133   3.704
 2511SOL    HW2 8433   0.910   6.189   3.746
 2512SOL     OW 8434   5.702   3.536   4.379
 2512SOL    HW1 8435   5.743   3.475   4.447
 2512SOL    HW2 8436   5.617   3.573   4.415
 2513SOL     OW 8437   6.979   4.999   0.969
 2513SOL    HW1 8438   0.030   5.041   1.027
 2513SOL    HW2 8439   7.006   5.006   0.873
 2514SOL     OW 8440   6.753   1.923   3.738
 2514SOL    HW1 8441   6.722   1.927   3.643
 2514SOL    HW2 8442   6.714   2.000   3.790
 2515SOL     OW 8443   1.179   4.344   6.630
 2515SOL    HW1 8444   1.167   4.364   6.727
 2515SOL    HW2 8445   1.154   4.424   6.576
 2516SOL     OW 8446   4.548   6.676   3.991
 2516SOL    HW1 8447   4.509   6.744   4.053
 2516SOL    HW2 8448   4.648   6.683   3.993
 2517SOL     OW 8449   2.532   5.546   0.802
 2517SOL    HW1 8450   2.536   5.637   0.761
 2517SOL    HW2 8451   2.623   5.504   0.796
 2518SOL     OW 8452   2.239   1.928   0.201
 2518SOL    HW1 8453   2.299   2.001   0.169
 2518SOL    HW2 8454   2.150   1.966   0.226
 2519SOL     OW 8455   6.064   4.333   4.582
 2519SOL    HW1 8456   6.012   4.394   4.522
 2519SOL    HW2 8457   6.077   4.377   4.671
 2520SOL     OW 8458   3.955   5.466   0.686
 2520SOL    HW1 8459   3.909   5.393   0.635
 2520SOL    HW2 8460   4.050   5.439   0.704
 2521SOL     OW 8461   5.814   6.626   5.966
 2521SOL    HW1 8462   5.724   6.667   5.954
 2521SOL    HW2 8463   5.882   6.679   5.917
 2522SOL     OW 8464   2.289   4.602   5.142
 2522SOL    HW1 8465   2.257   4.559   5.058
 2522SOL    HW2 8466   2.382   4.571   5.163
 2523SOL     OW 8467   0.597   2.035   6.386
 2523SOL    HW1 8468   0.551   2.068   6.304
 2523SOL    HW2 8469   0.623   2.112   6.444
 2524SOL     OW 8470   1.462   0.104   4.477
 2524SOL    HW1 8471   1.381   0.065   4.520
 2524SOL    HW2 8472   1.466   0.076   4.381
 2525SOL     OW 8473   2.753   4.697   2.232
 2525SOL    HW1 8474   2.794   4.648   2.155
 2525SOL    HW2 8475   2.661   4.726   2.208
 2526SOL     OW 8476   1.675   2.820   4.431
 2526SOL    HW1 8477   1.770   2.816   4.397
 2526SOL    HW2 8478   1.638   2.728   4.437
 2527SOL     OW 8479   0.020   6.580   4.124
 2527SOL    HW1 8480   0.019   6.671   4.082
 2527SOL    HW2 8481   6.944   6.545   4.128
 2528SOL     OW 8482   5.479   5.324   1.099
 2528SOL    HW1 8483   5.546   5.276   1.156
 2528SOL    HW2 8484   5.508   5.419   1.086
 2529SOL     OW 8485   5.368   4.455   5.187
 2529SOL    HW1 8486   5.459   4.435   5.150
 2529SOL    HW2 8487   5.373   4.536   5.245
 2530SOL     OW 8488   1.199   6.036   3.066
 2530SOL    HW1 8489   1.189   5.940   3.093
 2530SOL    HW2 8490   1.294   6.055   3.042
 2531SOL     OW 8491   5.688   2.263   6.462
 2531SOL    HW1 8492   5.598   2.229   6.435
 2531SOL    HW2 8493   5.705   2.239   6.558
 2532SOL     OW 8494   0.636   5.929   5.896
 2532SOL    HW1 8495   0.572   5.996   5.858
 2532SOL    HW2 8496   0.618   5.839   5.856
 2533SOL     OW 8497   5.445   0.555   4.932
 2533SOL    HW1 8498   5.528   0.501   4.945
 2533SOL    HW2 8499   5.436   0.580   4.836
 2534SOL     OW 8500   6.676   1.075   3.186
 2534SOL    HW1 8501   6.662   1.009   3.259
 2534SOL    HW2 8502   6.590   1.122   3.166
 2535SOL     OW 8503   2.837   0.867   1.973
 2535SOL    HW1 8504   2.900   0.802   1.929
 2535SOL    HW2 8505   2.828   0.844   2.070
 2536SOL     OW 8506   0.943   0.286   3.365
 2536SOL    HW1 8507   0.929   0.379   3.398
 2536SOL    HW2 8508   0.985   0.230   3.437
 2537SOL     OW 8509   2.472   6.334   2.259
 2537SOL    HW1 8510   2.550   6.394   2.238
 2537SOL    HW2 8511   2.395   6.358   2.201
 2538SOL     OW 8512   0.064   5.591   5.214
 2538SOL    HW1 8513   0.003   5.658   5.257
 2538SOL    HW2 8514   0.158   5.623   5.219
 2539SOL     OW 8515   1.330   0.243   5.383
 2539SOL    HW1 8516   1.314   0.263   5.286
 2539SOL    HW2 8517   1.427   0.255   5.404
 2540SOL     OW 8518   5.044   2.156   2.200
 2540SOL    HW1 8519   4.998   2.226   2.146
 2540SOL    HW2 8520   5.052   2.072   2.147
 2541SOL     OW 8521   1.447   1.336   0.157
 2541SOL    HW1 8522   1.499   1.265   0.109
 2541SOL    HW2 8523   1.428   1.412   0.093
 2542SOL     OW 8524   4.164   1.917   2.719
 2542SOL    HW1 8525   4.079   1.886   2.763
 2542SOL    HW2 8526   4.224   1.838   2.705
 2543SOL     OW 8527   6.204   6.828   5.345
 2543SOL    HW1 8528   6.222   6.731   5.324
 2543SOL    HW2 8529   6.108   6.849   5.324
 2544SOL     OW 8530   0.051   6.984   0.447
 2544SOL    HW1 8531   0.065   6.927   0.367
 2544SOL    HW2 8532   0.138   0.005   0.476
 2545SOL     OW 8533   6.829   1.777   0.406
 2545SOL    HW1 8534   6.752   1.779   0.471
 2545SOL    HW2 8535   6.844   1.683   0.375
 2546SOL     OW 8536   6.169   3.403   2.496
 2546SOL    HW1 8537   6.152   3.306   2.515
 2546SOL    HW2 8538   6.178   3.416   2.397
 2547SOL     OW 8539   5.410   3.505   0.776
 2547SOL    HW1 8540   5.452   3.579   0.829
 2547SOL    HW2 8541   5.417   3.420   0.828
 2548SOL     OW 8542   6.704   0.295   5.498
 2548SOL    HW1 8543   6.669   0.358   5.567
 2548SOL    HW2 8544   6.795   0.263   5.525
 2549SOL     OW 8545   2.840   5.113   0.099
 2549SOL    HW1 8546   2.829   5.083   0.004
 2549SOL    HW2 8547   2.751   5.135   0.138
 2550SOL     OW 8548   3.937   0.430   0.831
 2550SOL    HW1 8549   3.847   0.428   0.876
 2550SOL    HW2 8550   4.001   0.483   0.887
 2551SOL     OW 8551   3.713   4.399   1.269
 2551SOL    HW1 8552   3.665   4.353   1.344
 2551SOL    HW2 8553   3.759   4.480   1.304
 2552SOL     OW 8554   2.640   4.937   1.587
 2552SOL    HW1 8555   2.647   5.026   1.633
 2552SOL    HW2 8556   2.676   4.866   1.647
 2553SOL     OW 8557   4.488   1.794   0.466
 2553SOL    HW1 8558   4.544   1.748   0.398
 2553SOL    HW2 8559   4.391   1.776   0.449
 2554SOL     OW 8560   0.995   5.959   0.628
 2554SOL    HW1 8561   0.982   6.016   0.709
 2554SOL    HW2 8562   1.008   6.017   0.548
 2555SOL     OW 8563   1.088   6.324   5.560
 2555SOL    HW1 8564   1.149   6.282   5.628
 2555SOL    HW2 8565   1.136   6.332   5.473
 2556SOL     OW 8566   5.693   0.519   0.863
 2556SOL    HW1 8567   5.614   0.516   0.925
 2556SOL    HW2 8568   5.760   0.451   0.891
 2557SOL     OW 8569   2.574   1.323   0.108
 2557SOL    HW1 8570   2.665   1.354   0.084
 2557SOL    HW2 8571   2.525   1.396   0.157
 2558SOL     OW 8572   5.834   2.753   1.010
 2558SOL    HW1 8573   5.812   2.766   1.107
 2558SOL    HW2 8574   5.758   2.787   0.955
 2559SOL     OW 8575   6.016   5.017   3.751
 2559SOL    HW1 8576   6.043   4.962   3.829
 2559SOL    HW2 8577   6.086   5.085   3.731
 2560SOL     OW 8578   4.247   2.774   1.575
 2560SOL    HW1 8579   4.197   2.854   1.609
 2560SOL    HW2 8580   4.226   2.695   1.633
 2561SOL     OW 8581   3.261   0.137   4.350
 2561SOL    HW1 8582   3.350   0.175   4.372
 2561SOL    HW2 8583   3.189   0.202   4.376
 2562SOL     OW 8584   1.523   6.407   4.784
 2562SOL    HW1 8585   1.432   6.393   4.822
 2562SOL    HW2 8586   1.577   6.323   4.797
 2563SOL     OW 8587   4.180   2.867   6.194
 2563SOL    HW1 8588   4.264   2.813   6.194
 2563SOL    HW2 8589   4.181   2.930   6.116
 2564SOL     OW 8590   1.712   1.417   1.369
 2564SOL    HW1 8591   1.761   1.347   1.421
 2564SOL    HW2 8592   1.717   1.396   1.272
 2565SOL     OW 8593   0.051   0.774   0.990
 2565SOL    HW1 8594   6.990   0.778   1.051
 2565SOL    HW2 8595   0.046   0.848   0.923
 2566SOL     OW 8596   2.623   1.339   0.525
 2566SOL    HW1 8597   2.530   1.314   0.498
 2566SOL    HW2 8598   2.649   1.289   0.607
 2567SOL     OW 8599   2.320   0.959   6.187
 2567SOL    HW1 8600   2.223   0.966   6.208
 2567SOL    HW2 8601   2.363   1.049   6.191
 2568SOL     OW 8602   2.665   6.198   0.860
 2568SOL    HW1 8603   2.739   6.159   0.916
 2568SOL    HW2 8604   2.678   6.172   0.765
 2569SOL     OW 8605   2.508   6.318   6.597
 2569SOL    HW1 8606   2.431   6.364   6.640
 2569SOL    HW2 8607   2.557   6.264   6.666
 2570SOL     OW 8608   0.160   6.935   3.363
 2570SOL    HW1 8609   0.147   6.911   3.459
 2570SOL    HW2 8610   0.219   7.015   3.356
 2571SOL     OW 8611   3.687   3.254   2.905
 2571SOL    HW1 8612   3.702   3.272   3.002
 2571SOL    HW2 8613   3.624   3.323   2.868
 2572SOL     OW 8614   2.814   5.816   2.427
 2572SOL    HW1 8615   2.833   5.730   2.380
 2572SOL    HW2 8616   2.778   5.797   2.518
 2573SOL     OW 8617   6.615   0.771   2.907
 2573SOL    HW1 8618   6.594   0.856   2.859
 2573SOL    HW2 8619   6.582   0.693   2.853
 2574SOL     OW 8620   0.326   4.123   2.112
 2574SOL    HW1 8621   0.354   4.040   2.064
 2574SOL    HW2 8622   0.359   4.203   2.063
 2575SOL     OW 8623   4.582   3.569   5.360
 2575SOL    HW1 8624   4.541   3.660   5.366
 2575SOL    HW2 8625   4.641   3.565   5.278
 2576SOL     OW 8626   0.381   0.375   2.572
 2576SOL    HW1 8627   0.399   0.284   2.537
 2576SOL    HW2 8628   0.282   0.387   2.585
 2577SOL     OW 8629   1.671   4.468   0.787
 2577SOL    HW1 8630   1.716   4.556   0.805
 2577SOL    HW2 8631   1.604   4.480   0.713
 2578SOL     OW 8632   4.498   2.407   4.657
 2578SOL    HW1 8633   4.421   2.355   4.620
 2578SOL    HW2 8634   4.539   2.357   4.733
 2579SOL     OW 8635   0.009   1.353   6.646
 2579SOL    HW1 8636   0.053   1.353   6.735
 2579SOL    HW2 8637   6.953   1.286   6.645
 2580SOL     OW 8638   2.002   1.918   5.688
 2580SOL    HW1 8639   2.101   1.905   5.698
 2580SOL    HW2 8640   1.955   1.864   5.758
 2581SOL     OW 8641   5.363   6.741   4.072
 2581SOL    HW1 8642   5.388   6.731   4.168
 2581SOL    HW2 8643   5.376   6.654   4.025
 2582SOL     OW 8644   6.220   3.932   3.207
 2582SOL    HW1 8645   6.241   3.846   3.162
 2582SOL    HW2 8646   6.160   3.987   3.149
 2583SOL     OW 8647   2.421   1.017   0.356
 2583SOL    HW1 8648   2.470   1.044   0.273
 2583SOL    HW2 8649   2.393   0.921   0.349
 2584SOL     OW 8650   3.879   0.520   3.212
 2584SOL    HW1 8651   3.924   0.598   3.169
 2584SOL    HW2 8652   3.870   0.446   3.146
 2585SOL     OW 8653   4.008   0.579   2.429
 2585SOL    HW1 8654   4.038   0.661   2.381
 2585SOL    HW2 8655   3.922   0.598   2.477
 2586SOL     OW 8656   0.884   1.468   4.289
 2586SOL    HW1 8657   0.835   1.427   4.365
 2586SOL    HW2 8658   0.930   1.552   4.320
 2587SOL     OW 8659   6.351   4.895   3.021
 2587SOL    HW1 8660   6.402   4.838   3.085
 2587SOL    HW2 8661   6.387   4.881   2.928
 2588SOL     OW 8662   3.477   6.917   2.898
 2588SOL    HW1 8663   3.447   7.006   2.865
 2588SOL    HW2 8664   3.549   6.930   2.967
 2589SOL     OW 8665   4.644   6.590   1.930
 2589SOL    HW1 8666   4.656   6.661   2.000
 2589SOL    HW2 8667   4.626   6.502   1.975
 2590SOL     OW 8668   4.222   5.726   3.779
 2590SOL    HW1 8669   4.246   5.712   3.875
 2590SOL    HW2 8670   4.164   5.807   3.771
 2591SOL     OW 8671   6.092   0.524   1.065
 2591SOL    HW1 8672   6.173   0.520   1.008
 2591SOL    HW2 8673   6.102   0.597   1.133
 2592SOL     OW 8674   2.735   4.738   1.732
 2592SOL    HW1 8675   2.828   4.730   1.696
 2592SOL    HW2 8676   2.735   4.710   1.828
 2593SOL     OW 8677   2.711   0.010   3.272
 2593SOL    HW1 8678   2.768   0.062   3.209
 2593SOL    HW2 8679   2.744   0.022   3.366
 2594SOL     OW 8680   2.231   6.183   6.618
 2594SOL    HW1 8681   2.227   6.274   6.577
 2594SOL    HW2 8682   2.292   6.125   6.565
 2595SOL     OW 8683   6.483   3.083   4.372
 2595SOL    HW1 8684   6.430   3.008   4.413
 2595SOL    HW2 8685   6.580   3.061   4.377
 2596SOL     OW 8686   4.559   1.757   1.198
 2596SOL    HW1 8687   4.557   1.850   1.161
 2596SOL    HW2 8688   4.595   1.760   1.292
 2597SOL     OW 8689   2.554   2.319   6.190
 2597SOL    HW1 8690   2.551   2.297   6.093
 2597SOL    HW2 8691   2.642   2.292   6.228
 2598SOL     OW 8692   6.594   0.979   2.748
 2598SOL    HW1 8693   6.559   0.981   2.655
 2598SOL    HW2 8694   6.667   1.048   2.757
 2599SOL     OW 8695   5.043   5.712   6.478
 2599SOL    HW1 8696   4.958   5.676   6.438
 2599SOL    HW2 8697   5.080   5.782   6.418
 2600SOL     OW 8698   0.574   2.737   4.660
 2600SOL    HW1 8699   0.626   2.655   4.636
 2600SOL    HW2 8700   0.495   2.745   4.600
 2601SOL     OW 8701   4.018   4.289   5.405
 2601SOL    HW1 8702   4.025   4.384   5.374
 2601SOL    HW2 8703   4.091   4.235   5.365
 2602SOL     OW 8704   5.850   6.570   6.418
 2602SOL    HW1 8705   5.906   6.590   6.499
 2602SOL    HW2 8706   5.783   6.643   6.406
 2603SOL     OW 8707   1.767   1.761   6.816
 2603SOL    HW1 8708   1.850   1.756   6.872
 2603SOL    HW2 8709   1.752   1.856   6.787
 2604SOL     OW 8710   5.243   1.852   0.725
 2604SOL    HW1 8711   5.328   1.884   0.766
 2604SOL    HW2 8712   5.204   1.924   0.668
 2605SOL     OW 8713   5.359   2.949   4.904
 2605SOL    HW1 8714   5.400   2.906   4.823
 2605SOL    HW2 8715   5.429   2.960   4.975
 2606SOL     OW 8716   6.878   4.755   1.745
 2606SOL    HW1 8717   6.800   4.694   1.734
 2606SOL    HW2 8718   6.953   4.724   1.685
 2607SOL     OW 8719   1.069   1.296   3.809
 2607SOL    HW1 8720   1.056   1.339   3.720
 2607SOL    HW2 8721   1.114   1.207   3.797
 2608SOL     OW 8722   4.551   0.769   0.167
 2608SOL    HW1 8723   4.580   0.804   0.256
 2608SOL    HW2 8724   4.547   0.669   0.170
 2609SOL     OW 8725   0.637   3.764   3.206
 2609SOL    HW1 8726   0.718   3.734   3.157
 2609SOL    HW2 8727   0.647   3.861   3.230
 2610SOL     OW 8728   4.951   5.393   4.582
 2610SOL    HW1 8729   4.970   5.370   4.677
 2610SOL    HW2 8730   5.017   5.348   4.523
 2611SOL     OW 8731   2.757   5.953   2.177
 2611SOL    HW1 8732   2.758   5.927   2.274
 2611SOL    HW2 8733   2.827   5.901   2.128
 2612SOL     OW 8734   0.758   6.872   5.178
 2612SOL    HW1 8735   0.751   6.911   5.086
 2612SOL    HW2 8736   0.670   6.833   5.205
 2613SOL     OW 8737   3.653   1.285   0.183
 2613SOL    HW1 8738   3.738   1.236   0.199
 2613SOL    HW2 8739   3.639   1.299   0.085
 2614SOL     OW 8740   6.372   6.442   6.633
 2614SOL    HW1 8741   6.392   6.409   6.725
 2614SOL    HW2 8742   6.439   6.511   6.607
 2615SOL     OW 8743   6.894   4.288   1.472
 2615SOL    HW1 8744   6.982   4.336   1.480
 2615SOL    HW2 8745   6.858   4.301   1.380
 2616SOL     OW 8746   3.948   3.961   1.817
 2616SOL    HW1 8747   3.892   4.044   1.815
 2616SOL    HW2 8748   4.035   3.978   1.771
 2617SOL     OW 8749   2.291   6.541   1.083
 2617SOL    HW1 8750   2.254   6.499   1.000
 2617SOL    HW2 8751   2.292   6.640   1.073
 2618SOL     OW 8752   0.815   6.159   0.160
 2618SOL    HW1 8753   0.735   6.206   0.197
 2618SOL    HW2 8754   0.786   6.103   0.082
 2619SOL     OW 8755   6.380   1.694   1.928
 2619SOL    HW1 8756   6.283   1.690   1.951
 2619SOL    HW2 8757   6.428   1.749   1.995
 2620SOL     OW 8758   1.463   5.871   3.859
 2620SOL    HW1 8759   1.532   5.808   3.894
 2620SOL    HW2 8760   1.490   5.965   3.881
 2621SOL     OW 8761   0.839   6.176   4.541
 2621SOL    HW1 8762   0.865   6.203   4.634
 2621SOL    HW2 8763   0.896   6.224   4.475
 2622SOL     OW 8764   2.499   2.604   4.688
 2622SOL    HW1 8765   2.494   2.507   4.713
 2622SOL    HW2 8766   2.577   2.646   4.735
 2623SOL     OW 8767   3.229   0.054   6.303
 2623SOL    HW1 8768   3.259   0.144   6.269
 2623SOL    HW2 8769   3.296   7.003   6.276
 2624SOL     OW 8770   5.420   1.953   4.614
 2624SOL    HW1 8771   5.437   2.002   4.699
 2624SOL    HW2 8772   5.322   1.953   4.595
 2625SOL     OW 8773   2.670   6.608   6.270
 2625SOL    HW1 8774   2.600   6.546   6.306
 2625SOL    HW2 8775   2.758   6.560   6.266
 2626SOL     OW 8776   2.309   6.842   3.308
 2626SOL    HW1 8777   2.254   6.760   3.323
 2626SOL    HW2 8778   2.269   6.897   3.235
 2627SOL     OW 8779   1.032   6.829   4.421
 2627SOL    HW1 8780   1.019   6.793   4.514
 2627SOL    HW2 8781   0.946   6.866   4.387
 2628SOL     OW 8782   4.619   5.612   0.315
 2628SOL    HW1 8783   4.559   5.686   0.348
 2628SOL    HW2 8784   4.694   5.651   0.262
 2629SOL     OW 8785   2.911   3.706   1.944
 2629SOL    HW1 8786   2.956   3.792   1.921
 2629SOL    HW2 8787   2.924   3.687   2.041
 2630SOL     OW 8788   3.501   2.100   2.417
 2630SOL    HW1 8789   3.545   2.079   2.330
 2630SOL    HW2 8790   3.422   2.159   2.402
 2631SOL     OW 8791   3.436   6.299   4.334
 2631SOL    HW1 8792   3.428   6.389   4.378
 2631SOL    HW2 8793   3.360   6.242   4.363
 2632SOL     OW 8794   4.367   1.369   1.471
 2632SOL    HW1 8795   4.296   1.298   1.471
 2632SOL    HW2 8796   4.452   1.332   1.508
 2633SOL     OW 8797   6.711   2.687   0.077
 2633SOL    HW1 8798   6.678   2.614   0.017
 2633SOL    HW2 8799   6.726   2.651   0.169
 2634SOL     OW 8800   2.833   4.857   0.411
 2634SOL    HW1 8801   2.871   4.856   0.319
 2634SOL    HW2 8802   2.845   4.768   0.454
 2635SOL     OW 8803   6.087   4.543   3.570
 2635SOL    HW1 8804   6.067   4.482   3.493
 2635SOL    HW2 8805   6.145   4.618   3.538
 2636SOL     OW 8806   5.315   5.669   5.135
 2636SOL    HW1 8807   5.356   5.749   5.178
 2636SOL    HW2 8808   5.259   5.620   5.201
 2637SOL     OW 8809   5.400   5.756   3.022
 2637SOL    HW1 8810   5.407   5.766   2.923
 2637SOL    HW2 8811   5.428   5.664   3.049
 2638SOL     OW 8812   5.316   5.424   0.805
 2638SOL    HW1 8813   5.220   5.450   0.815
 2638SOL    HW2 8814   5.328   5.369   0.722
 2639SOL     OW 8815   6.848   7.001   6.783
 2639SOL    HW1 8816   6.797   6.921   6.750
 2639SOL    HW2 8817   6.874   6.988   6.878
 2640SOL     OW 8818   6.647   6.407   6.746
 2640SOL    HW1 8819   6.687   6.482   6.799
 2640SOL    HW2 8820   6.650   6.430   6.649
 2641SOL     OW 8821   0.069   5.652   0.848
 2641SOL    HW1 8822   7.004   5.661   0.904
 2641SOL    HW2 8823   0.114   5.565   0.869
 2642SOL     OW 8824   6.633   0.100   4.174
 2642SOL    HW1 8825   6.573   0.173   4.207
 2642SOL    HW2 8826   6.699   0.137   4.110
 2643SOL     OW 8827   1.929   0.273   2.308
 2643SOL    HW1 8828   1.978   0.279   2.395
 2643SOL    HW2 8829   1.985   0.224   2.242
 2644SOL     OW 8830   6.326   6.415   4.911
 2644SOL    HW1 8831   6.344   6.399   4.814
 2644SOL    HW2 8832   6.371   6.500   4.940
 2645SOL     OW 8833   5.180   6.202   0.038
 2645SOL    HW1 8834   5.164   6.141   6.979
 2645SOL    HW2 8835   5.131   6.168   0.118
 2646SOL     OW 8836   5.711   6.133   5.902
 2646SOL    HW1 8837   5.786   6.182   5.945
 2646SOL    HW2 8838   5.721   6.035   5.919
 2647SOL     OW 8839   3.437   3.751   0.399
 2647SOL    HW1 8840   3.425   3.717   0.493
 2647SOL    HW2 8841   3.354   3.732   0.346
 2648SOL     OW 8842   4.316   1.183   3.397
 2648SOL    HW1 8843   4.414   1.200   3.403
 2648SOL    HW2 8844   4.285   1.135   3.479
 2649SOL     OW 8845   3.094   4.181   5.192
 2649SOL    HW1 8846   3.152   4.119   5.245
 2649SOL    HW2 8847   3.036   4.128   5.131
 2650SOL     OW 8848   0.862   6.793   2.636
 2650SOL    HW1 8849   0.833   6.874   2.688
 2650SOL    HW2 8850   0.938   6.749   2.683
 2651SOL     OW 8851   1.060   0.103   3.099
 2651SOL    HW1 8852   1.154   0.093   3.067
 2651SOL    HW2 8853   1.030   0.197   3.086
 2652SOL     OW 8854   3.107   3.340   2.614
 2652SOL    HW1 8855   3.104   3.250   2.657
 2652SOL    HW2 8856   3.015   3.377   2.607
 2653SOL     OW 8857   6.805   6.155   1.017
 2653SOL    HW1 8858   6.804   6.164   0.917
 2653SOL    HW2 8859   6.801   6.245   1.059
 2654SOL     OW 8860   6.530   2.385   5.806
 2654SOL    HW1 8861   6.556   2.288   5.805
 2654SOL    HW2 8862   6.576   2.431   5.881
 2655SOL     OW 8863   5.554   5.609   4.267
 2655SOL    HW1 8864   5.581   5.705   4.265
 2655SOL    HW2 8865   5.534   5.581   4.361
 2656SOL     OW 8866   5.902   3.282   5.026
 2656SOL    HW1 8867   5.989   3.250   5.064
 2656SOL    HW2 8868   5.834   3.289   5.099
 2657SOL     OW 8869   3.903   2.456   5.359
 2657SOL    HW1 8870   3.903   2.424   5.453
 2657SOL    HW2 8871   3.948   2.546   5.354
 2658SOL     OW 8872   6.511   4.028   5.267
 2658SOL    HW1 8873   6.597   3.980   5.282
 2658SOL    HW2 8874   6.530   4.118   5.227
 2659SOL     OW 8875   6.797   1.265   3.805
 2659SOL    HW1 8876   6.698   1.260   3.809
 2659SOL    HW2 8877   6.835   1.173   3.797
 2660SOL     OW 8878   0.891   2.212   3.844
 2660SOL    HW1 8879   0.808   2.180   3.890
 2660SOL    HW2 8880   0.893   2.176   3.750
 2661SOL     OW 8881   3.672   6.925   3.244
 2661SOL    HW1 8882   3.675   6.962   3.337
 2661SOL    HW2 8883   3.740   6.853   3.234
 2662SOL     OW 8884   3.697   1.071   4.058
 2662SOL    HW1 8885   3.656   1.124   3.985
 2662SOL    HW2 8886   3.644   1.081   4.142
 2663SOL     OW 8887   1.181   4.559   2.856
 2663SOL    HW1 8888   1.257   4.607   2.901
 2663SOL    HW2 8889   1.186   4.461   2.878
 2664SOL     OW 8890   4.632   4.314   1.719
 2664SOL    HW1 8891   4.553   4.261   1.749
 2664SOL    HW2 8892   4.695   4.326   1.796
 2665SOL     OW 8893   4.660   0.574   4.908
 2665SOL    HW1 8894   4.578   0.623   4.938
 2665SOL    HW2 8895   4.667   0.487   4.956
 2666SOL     OW 8896   5.078   5.721   1.544
 2666SOL    HW1 8897   5.076   5.806   1.597
 2666SOL    HW2 8898   5.170   5.706   1.508
 2667SOL     OW 8899   2.118   4.667   2.797
 2667SOL    HW1 8900   2.140   4.610   2.718
 2667SOL    HW2 8901   2.045   4.625   2.850
 2668SOL     OW 8902   7.013   2.473   5.214
 2668SOL    HW1 8903   6.917   2.463   5.239
 2668SOL    HW2 8904   0.003   2.524   5.128
 2669SOL     OW 8905   3.974   6.247   4.757
 2669SOL    HW1 8906   4.055   6.248   4.697
 2669SOL    HW2 8907   3.896   6.286   4.708
 2670SOL     OW 8908   2.458   6.388   4.187
 2670SOL    HW1 8909   2.464   6.487   4.173
 2670SOL    HW2 8910   2.417   6.345   4.106
 2671SOL     OW 8911   3.099   3.838   0.038
 2671SOL    HW1 8912   3.111   3.786   0.123
 2671SOL    HW2 8913   3.083   3.774   6.980
 2672SOL     OW 8914   0.557   4.396   0.185
 2672SOL    HW1 8915   0.621   4.436   0.250
 2672SOL    HW2 8916   0.517   4.313   0.225
 2673SOL     OW 8917   3.818   2.161   2.760
 2673SOL    HW1 8918   3.718   2.158   2.752
 2673SOL    HW2 8919   3.844   2.173   2.856
 2674SOL     OW 8920   5.003   5.689   5.212
 2674SOL    HW1 8921   4.911   5.703   5.176
 2674SOL    HW2 8922   5.005   5.606   5.268
 2675SOL     OW 8923   0.277   4.979   5.686
 2675SOL    HW1 8924   0.370   5.012   5.672
 2675SOL    HW2 8925   0.220   5.053   5.721
 2676SOL     OW 8926   4.433   0.757   1.592
 2676SOL    HW1 8927   4.412   0.771   1.689
 2676SOL    HW2 8928   4.445   0.845   1.547
 2677SOL     OW 8929   2.402   4.418   2.212
 2677SOL    HW1 8930   2.454   4.464   2.284
 2677SOL    HW2 8931   2.455   4.420   2.127
 2678SOL     OW 8932   0.611   6.521   6.252
 2678SOL    HW1 8933   0.616   6.515   6.352
 2678SOL    HW2 8934   0.603   6.429   6.213
 2679SOL     OW 8935   2.285   5.254   1.969
 2679SOL    HW1 8936   2.301   5.159   1.942
 2679SOL    HW2 8937   2.263   5.257   2.066
 2680SOL     OW 8938   0.337   2.259   1.192
 2680SOL    HW1 8939   0.432   2.290   1.198
 2680SOL    HW2 8940   0.295   2.297   1.109
 2681SOL     OW 8941   2.374   2.062   1.485
 2681SOL    HW1 8942   2.304   2.049   1.416
 2681SOL    HW2 8943   2.361   1.995   1.559
 2682SOL     OW 8944   0.337   2.620   3.592
 2682SOL    HW1 8945   0.314   2.524   3.578
 2682SOL    HW2 8946   0.280   2.658   3.665
 2683SOL     OW 8947   1.550   6.959   0.182
 2683SOL    HW1 8948   1.530   6.866   0.212
 2683SOL    HW2 8949   1.481   6.988   0.116
 2684SOL     OW 8950   2.266   5.667   2.768
 2684SOL    HW1 8951   2.191   5.635   2.711
 2684SOL    HW2 8952   2.316   5.588   2.805
 2685SOL     OW 8953   5.746   5.464   5.542
 2685SOL    HW1 8954   5.741   5.553   5.587
 2685SOL    HW2 8955   5.742   5.391   5.610
 2686SOL     OW 8956   0.940   3.402   5.006
 2686SOL    HW1 8957   0.971   3.443   5.092
 2686SOL    HW2 8958   1.012   3.410   4.937
 2687SOL     OW 8959   4.563   5.458   3.506
 2687SOL    HW1 8960   4.573   5.543   3.456
 2687SOL    HW2 8961   4.474   5.417   3.485
 2688SOL     OW 8962   3.409   4.584   5.481
 2688SOL    HW1 8963   3.355   4.502   5.461
 2688SOL    HW2 8964   3.410   4.599   5.580
 2689SOL     OW 8965   6.214   2.159   4.177
 2689SOL    HW1 8966   6.239   2.243   4.225
 2689SOL    HW2 8967   6.216   2.082   4.241
 2690SOL     OW 8968   3.133   4.032   3.958
 2690SOL    HW1 8969   3.055   3.972   3.974
 2690SOL    HW2 8970   3.116   4.086   3.875
 2691SOL     OW 8971   1.404   6.027   1.707
 2691SOL    HW1 8972   1.469   5.983   1.769
 2691SOL    HW2 8973   1.442   6.029   1.615
 2692SOL     OW 8974   6.738   4.140   3.681
 2692SOL    HW1 8975   6.757   4.109   3.774
 2692SOL    HW2 8976   6.778   4.231   3.668
 2693SOL     OW 8977   1.871   3.512   2.497
 2693SOL    HW1 8978   1.901   3.538   2.405
 2693SOL    HW2 8979   1.888   3.415   2.512
 2694SOL     OW 8980   2.099   1.919   2.785
 2694SOL    HW1 8981   2.016   1.865   2.767
 2694SOL    HW2 8982   2.179   1.870   2.749
 2695SOL     OW 8983   4.096   1.926   2.180
 2695SOL    HW1 8984   4.084   1.886   2.270
 2695SOL    HW2 8985   4.018   1.986   2.160
 2696SOL     OW 8986   3.770   3.526   6.187
 2696SOL    HW1 8987   3.789   3.481   6.274
 2696SOL    HW2 8988   3.814   3.476   6.113
 2697SOL     OW 8989   2.827   0.981   5.262
 2697SOL    HW1 8990   2.788   0.936   5.342
 2697SOL    HW2 8991   2.783   1.070   5.248
 2698SOL     OW 8992   1.402   1.812   6.912
 2698SOL    HW1 8993   1.488   1.854   6.938
 2698SOL    HW2 8994   1.408   1.779   6.817
 2699SOL     OW 8995   1.597   4.896   3.771
 2699SOL    HW1 8996   1.503   4.928   3.762
 2699SOL    HW2 8997   1.659   4.975   3.778
 2700SOL     OW 8998   2.313   4.213   2.778
 2700SOL    HW1 8999   2.325   4.280   2.704
 2700SOL    HW2 9000   2.354   4.248   2.862
 2701SOL     OW 9001   2.447   0.632   5.000
 2701SOL    HW1 9002   2.385   0.710   5.008
 2701SOL    HW2 9003   2.490   0.633   4.910
 2702SOL     OW 9004   6.235   6.474   2.940
 2702SOL    HW1 9005   6.191   6.489   2.851
 2702SOL    HW2 9006   6.220   6.380   2.969
 2703SOL     OW 9007   1.666   2.252   3.271
 2703SOL    HW1 9008   1.606   2.263   3.350
 2703SOL    HW2 9009   1.757   2.287   3.293
 2704SOL     OW 9010   1.301   6.348   0.231
 2704SOL    HW1 9011   1.352   6.263   0.246
 2704SOL    HW2 9012   1.213   6.327   0.189
 2705SOL     OW 9013   0.114   3.481   2.678
 2705SOL    HW1 9014   0.015   3.488   2.688
 2705SOL    HW2 9015   0.154   3.572   2.681
 2706SOL     OW 9016   6.553   2.723   3.770
 2706SOL    HW1 9017   6.633   2.743   3.825
 2706SOL    HW2 9018   6.473   2.769   3.809
 2707SOL     OW 9019   3.023   1.329   6.788
 2707SOL    HW1 9020   3.082   1.302   6.864
 2707SOL    HW2 9021   2.998   1.425   6.797
 2708SOL     OW 9022   1.305   4.726   6.854
 2708SOL    HW1 9023   1.260   4.715   6.943
 2708SOL    HW2 9024   1.297   4.821   6.824
 2709SOL     OW 9025   4.467   6.778   1.814
 2709SOL    HW1 9026   4.429   6.831   1.890
 2709SOL    HW2 9027   4.506   6.692   1.848
 2710SOL     OW 9028   6.462   4.381   2.662
 2710SOL    HW1 9029   6.369   4.344   2.654
 2710SOL    HW2 9030   6.501   4.352   2.749
 2711SOL     OW 9031   1.444   6.978   2.320
 2711SOL    HW1 9032   1.365   7.001   2.378
 2711SOL    HW2 9033   1.432   0.003   2.230
 2712SOL     OW 9034   3.058   5.532   2.908
 2712SOL    HW1 9035   3.038   5.448   2.958
 2712SOL    HW2 9036   3.019   5.526   2.816
 2713SOL     OW 9037   1.697   2.828   5.460
 2713SOL    HW1 9038   1.635   2.906   5.451
 2713SOL    HW2 9039   1.790   2.857   5.436
 2714SOL     OW 9040   5.690   0.291   0.011
 2714SOL    HW1 9041   5.666   0.351   6.952
 2714SOL    HW2 9042   5.693   0.344   0.095
 2715SOL     OW 9043   6.300   0.669   0.257
 2715SOL    HW1 9044   6.383   0.613   0.248
 2715SOL    HW2 9045   6.310   0.732   0.334
 2716SOL     OW 9046   6.138   6.510   1.911
 2716SOL    HW1 9047   6.063   6.452   1.879
 2716SOL    HW2 9048   6.151   6.497   2.009
 2717SOL     OW 9049   0.392   6.571   3.094
 2717SOL    HW1 9050   0.426   6.487   3.051
 2717SOL    HW2 9051   0.464   6.639   3.097
 2718SOL     OW 9052   0.014   3.964   3.099
 2718SOL    HW1 9053   6.946   3.965   3.048
 2718SOL    HW2 9054   0.088   3.995   3.040
 2719SOL     OW 9055   3.917   4.981   3.025
 2719SOL    HW1 9056   3.979   4.904   3.038
 2719SOL    HW2 9057   3.930   5.020   2.934
 2720SOL     OW 9058   0.552   6.216   4.573
 2720SOL    HW1 9059   0.538   6.312   4.600
 2720SOL    HW2 9060   0.622   6.212   4.501
 2721SOL     OW 9061   5.417   6.242   3.558
 2721SOL    HW1 9062   5.382   6.265   3.467
 2721SOL    HW2 9063   5.427   6.325   3.613
 2722SOL     OW 9064   0.581   5.597   2.194
 2722SOL    HW1 9065   0.599   5.598   2.292
 2722SOL    HW2 9066   0.650   5.651   2.146
 2723SOL     OW 9067   1.836   2.035   4.536
 2723SOL    HW1 9068   1.894   2.092   4.594
 2723SOL    HW2 9069   1.751   2.084   4.516
 2724SOL     OW 9070   4.634   5.668   6.002
 2724SOL    HW1 9071   4.590   5.755   6.025
 2724SOL    HW2 9072   4.664   5.623   6.086
 2725SOL     OW 9073   2.643   4.607   3.573
 2725SOL    HW1 9074   2.626   4.584   3.669
 2725SOL    HW2 9075   2.622   4.703   3.556
 2726SOL     OW 9076   4.243   6.040   2.655
 2726SOL    HW1 9077   4.216   5.971   2.722
 2726SOL    HW2 9078   4.162   6.080   2.613
 2727SOL     OW 9079   2.062   5.595   4.182
 2727SOL    HW1 9080   2.105   5.681   4.210
 2727SOL    HW2 9081   1.965   5.597   4.203
 2728SOL     OW 9082   2.861   0.138   5.565
 2728SOL    HW1 9083   2.921   0.122   5.644
 2728SOL    HW2 9084   2.776   0.179   5.596
 2729SOL     OW 9085   0.307   4.688   2.756
 2729SOL    HW1 9086   0.318   4.776   2.710
 2729SOL    HW2 9087   0.266   4.622   2.693
 2730SOL     OW 9088   1.326   4.219   1.244
 2730SOL    HW1 9089   1.399   4.219   1.175
 2730SOL    HW2 9090   1.301   4.314   1.265
 2731SOL     OW 9091   2.440   3.652   0.245
 2731SOL    HW1 9092   2.460   3.667   0.148
 2731SOL    HW2 9093   2.502   3.583   0.282
 2732SOL     OW 9094   5.417   3.353   4.310
 2732SOL    HW1 9095   5.507   3.354   4.353
 2732SOL    HW2 9096   5.346   3.364   4.380
 2733SOL     OW 9097   2.108   0.583   6.811
 2733SOL    HW1 9098   2.175   0.524   6.855
 2733SOL    HW2 9099   2.066   0.535   6.734
 2734SOL     OW 9100   1.753   6.928   4.221
 2734SOL    HW1 9101   1.733   6.831   4.210
 2734SOL    HW2 9102   1.673   6.982   4.197
 2735SOL     OW 9103   1.788   5.345   1.437
 2735SOL    HW1 9104   1.723   5.273   1.461
 2735SOL    HW2 9105   1.743   5.434   1.441
 2736SOL     OW 9106   4.269   7.003   6.727
 2736SOL    HW1 9107   4.336   6.952   6.674
 2736SOL    HW2 9108   4.177   6.974   6.701
 2737SOL     OW 9109   4.001   3.970   5.593
 2737SOL    HW1 9110   3.911   3.962   5.551
 2737SOL    HW2 9111   4.030   3.881   5.627
 2738SOL     OW 9112   6.389   4.236   4.095
 2738SOL    HW1 9113   6.479   4.242   4.053
 2738SOL    HW2 9114   6.381   4.308   4.164
 2739SOL     OW 9115   4.480   4.099   6.828
 2739SOL    HW1 9116   4.393   4.075   6.870
 2739SOL    HW2 9117   4.517   4.020   6.780
 2740SOL     OW 9118   6.138   2.671   4.205
 2740SOL    HW1 9119   6.088   2.758   4.206
 2740SOL    HW2 9120   6.236   2.688   4.210
 2741SOL     OW 9121   1.999   3.262   5.606
 2741SOL    HW1 9122   1.943   3.201   5.550
 2741SOL    HW2 9123   2.041   3.209   5.680
 2742SOL     OW 9124   2.675   6.120   5.681
 2742SOL    HW1 9125   2.652   6.107   5.777
 2742SOL    HW2 9126   2.640   6.042   5.628
 2743SOL     OW 9127   6.019   4.483   6.239
 2743SOL    HW1 9128   6.055   4.535   6.161
 2743SOL    HW2 9129   5.971   4.544   6.301
 2744SOL     OW 9130   5.070   0.065   0.832
 2744SOL    HW1 9131   5.052   0.046   0.929
 2744SOL    HW2 9132   5.101   7.000   0.787
 2745SOL     OW 9133   3.142   6.224   1.989
 2745SOL    HW1 9134   3.100   6.141   1.954
 2745SOL    HW2 9135   3.240   6.222   1.968
 2746SOL     OW 9136   0.963   2.171   6.646
 2746SOL    HW1 9137   0.907   2.092   6.621
 2746SOL    HW2 9138   1.034   2.184   6.576
 2747SOL     OW 9139   4.956   6.002   3.740
 2747SOL    HW1 9140   4.944   6.002   3.839
 2747SOL    HW2 9141   4.967   5.908   3.707
 2748SOL     OW 9142   5.466   1.175   4.918
 2748SOL    HW1 9143   5.552   1.156   4.870
 2748SOL    HW2 9144   5.483   1.241   4.991
 2749SOL     OW 9145   5.622   4.599   3.017
 2749SOL    HW1 9146   5.678   4.679   3.037
 2749SOL    HW2 9147   5.675   4.536   2.960
 2750SOL     OW 9148   1.051   6.977   6.945
 2750SOL    HW1 9149   1.050   6.952   6.848
 2750SOL    HW2 9150   1.007   6.905   6.998
 2751SOL     OW 9151   1.557   0.432   6.413
 2751SOL    HW1 9152   1.587   0.338   6.427
 2751SOL    HW2 9153   1.496   0.435   6.333
 2752SOL     OW 9154   0.677   6.862   6.203
 2752SOL    HW1 9155   0.743   6.849   6.129
 2752SOL    HW2 9156   0.691   6.952   6.245
 2753SOL     OW 9157   3.303   5.300   4.912
 2753SOL    HW1 9158   3.388   5.263   4.949
 2753SOL    HW2 9159   3.229   5.286   4.977
 2754SOL     OW 9160   0.991   5.807   4.131
 2754SOL    HW1 9161   0.917   5.748   4.165
 2754SOL    HW2 9162   1.077   5.756   4.132
 2755SOL     OW 9163   4.584   6.209   2.672
 2755SOL    HW1 9164   4.576   6.156   2.757
 2755SOL    HW2 9165   4.601   6.148   2.596
 2756SOL     OW 9166   0.022   2.816   5.167
 2756SOL    HW1 9167   0.069   2.876   5.231
 2756SOL    HW2 9168   0.082   2.742   5.139
 2757SOL     OW 9169   5.290   3.835   5.815
 2757SOL    HW1 9170   5.253   3.858   5.725
 2757SOL    HW2 9171   5.237   3.761   5.855
 2758SOL     OW 9172   0.430   6.168   1.928
 2758SOL    HW1 9173   0.472   6.128   1.847
 2758SOL    HW2 9174   0.334   6.187   1.910
 2759SOL     OW 9175   3.538   3.826   5.185
 2759SOL    HW1 9176   3.445   3.861   5.179
 2759SOL    HW2 9177   3.550   3.777   5.271
 2760SOL     OW 9178   5.199   5.330   2.967
 2760SOL    HW1 9179   5.282   5.291   3.006
 2760SOL    HW2 9180   5.123   5.266   2.978
 2761SOL     OW 9181   1.541   3.487   4.268
 2761SOL    HW1 9182   1.588   3.493   4.180
 2761SOL    HW2 9183   1.447   3.519   4.258
 2762SOL     OW 9184   4.450   1.330   2.198
 2762SOL    HW1 9185   4.397   1.414   2.210
 2762SOL    HW2 9186   4.514   1.318   2.274
 2763SOL     OW 9187   5.475   1.060   4.479
 2763SOL    HW1 9188   5.496   1.029   4.386
 2763SOL    HW2 9189   5.495   1.158   4.486
 2764SOL     OW 9190   6.799   2.057   3.253
 2764SOL    HW1 9191   6.747   2.073   3.337
 2764SOL    HW2 9192   6.894   2.038   3.276
 2765SOL     OW 9193   0.372   6.730   6.759
 2765SOL    HW1 9194   0.275   6.707   6.747
 2765SOL    HW2 9195   0.416   6.737   6.669
 2766SOL     OW 9196   4.901   0.445   0.798
 2766SOL    HW1 9197   4.911   0.359   0.748
 2766SOL    HW2 9198   4.978   0.505   0.777
 2767SOL     OW 9199   0.624   6.246   5.731
 2767SOL    HW1 9200   0.576   6.216   5.814
 2767SOL    HW2 9201   0.557   6.258   5.658
 2768SOL     OW 9202   4.090   6.701   1.671
 2768SOL    HW1 9203   4.056   6.710   1.764
 2768SOL    HW2 9204   4.179   6.654   1.672
 2769SOL     OW 9205   0.472   4.828   5.863
 2769SOL    HW1 9206   0.378   4.841   5.832
 2769SOL    HW2 9207   0.492   4.893   5.936
 2770SOL     OW 9208   2.405   6.697   0.802
 2770SOL    HW1 9209   2.330   6.729   0.745
 2770SOL    HW2 9210   2.413   6.598   0.795
 2771SOL     OW 9211   4.283   6.700   5.372
 2771SOL    HW1 9212   4.186   6.683   5.355
 2771SOL    HW2 9213   4.303   6.797   5.357
 2772SOL     OW 9214   5.871   1.760   3.340
 2772SOL    HW1 9215   5.837   1.734   3.250
 2772SOL    HW2 9216   5.868   1.681   3.402
 2773SOL     OW 9217   5.303   1.780   6.417
 2773SOL    HW1 9218   5.217   1.744   6.454
 2773SOL    HW2 9219   5.380   1.728   6.455
 2774SOL     OW 9220   6.735   0.143   3.534
 2774SOL    HW1 9221   6.819   0.195   3.547
 2774SOL    HW2 9222   6.689   0.173   3.450
 2775SOL     OW 9223   6.539   2.259   4.379
 2775SOL    HW1 9224   6.549   2.328   4.451
 2775SOL    HW2 9225   6.540   2.168   4.420
 2776SOL     OW 9226   4.952   3.900   5.813
 2776SOL    HW1 9227   4.879   3.851   5.765
 2776SOL    HW2 9228   4.977   3.981   5.761
 2777SOL     OW 9229   1.549   1.663   0.237
 2777SOL    HW1 9230   1.550   1.647   0.336
 2777SOL    HW2 9231   1.610   1.598   0.192
 2778SOL     OW 9232   2.761   0.063   5.858
 2778SOL    HW1 9233   2.727   0.105   5.774
 2778SOL    HW2 9234   2.854   0.095   5.876
 2779SOL     OW 9235   5.034   0.917   2.766
 2779SOL    HW1 9236   5.115   0.955   2.722
 2779SOL    HW2 9237   5.039   0.818   2.766
 2780SOL     OW 9238   0.895   1.092   5.181
 2780SOL    HW1 9239   0.795   1.100   5.188
 2780SOL    HW2 9240   0.919   1.039   5.100
 2781SOL     OW 9241   6.957   0.408   2.487
 2781SOL    HW1 9242   6.870   0.420   2.535
 2781SOL    HW2 9243   6.979   0.310   2.481
 2782SOL     OW 9244   5.807   0.093   4.843
 2782SOL    HW1 9245   5.800   0.090   4.943
 2782SOL    HW2 9246   5.883   0.153   4.817
 2783SOL     OW 9247   6.103   2.933   1.942
 2783SOL    HW1 9248   6.067   2.866   1.877
 2783SOL    HW2 9249   6.202   2.941   1.930
 2784SOL     OW 9250   0.444   2.299   1.995
 2784SOL    HW1 9251   0.473   2.317   1.901
 2784SOL    HW2 9252   0.383   2.220   1.996
 2785SOL     OW 9253   5.478   3.904   3.738
 2785SOL    HW1 9254   5.388   3.934   3.769
 2785SOL    HW2 9255   5.471   3.868   3.645
 2786SOL     OW 9256   0.213   5.649   0.599
 2786SOL    HW1 9257   0.142   5.615   0.661
 2786SOL    HW2 9258   0.219   5.749   0.607
 2787SOL     OW 9259   0.853   6.783   6.011
 2787SOL    HW1 9260   0.839   6.793   5.912
 2787SOL    HW2 9261   0.840   6.687   6.037
 2788SOL     OW 9262   2.658   6.533   0.312
 2788SOL    HW1 9263   2.587   6.535   0.383
 2788SOL    HW2 9264   2.619   6.564   0.225
 2789SOL     OW 9265   1.726   1.631   3.777
 2789SOL    HW1 9266   1.805   1.622   3.838
 2789SOL    HW2 9267   1.731   1.719   3.729
 2790SOL     OW 9268   0.109   5.358   1.516
 2790SOL    HW1 9269   0.102   5.262   1.489
 2790SOL    HW2 9270   0.073   5.369   1.609
 2791SOL     OW 9271   0.187   3.309   5.222
 2791SOL    HW1 9272   0.272   3.275   5.262
 2791SOL    HW2 9273   0.185   3.409   5.228
 2792SOL     OW 9274   3.254   2.384   6.488
 2792SOL    HW1 9275   3.318   2.431   6.427
 2792SOL    HW2 9276   3.254   2.428   6.578
 2793SOL     OW 9277   3.802   3.459   6.737
 2793SOL    HW1 9278   3.722   3.403   6.760
 2793SOL    HW2 9279   3.773   3.535   6.679
 2794SOL     OW 9280   1.443   1.904   6.554
 2794SOL    HW1 9281   1.485   1.813   6.558
 2794SOL    HW2 9282   1.346   1.897   6.577
 2795SOL     OW 9283   0.965   0.106   0.629
 2795SOL    HW1 9284   1.044   0.058   0.667
 2795SOL    HW2 9285   0.881   0.066   0.666
 2796SOL     OW 9286   3.057   6.267   6.818
 2796SOL    HW1 9287   2.980   6.303   6.870
 2796SOL    HW2 9288   3.124   6.226   6.880
 2797SOL     OW 9289   4.735   4.218   4.407
 2797SOL    HW1 9290   4.739   4.119   4.401
 2797SOL    HW2 9291   4.755   4.259   4.318
 2798SOL     OW 9292   5.267   2.765   1.891
 2798SOL    HW1 9293   5.279   2.864   1.882
 2798SOL    HW2 9294   5.349   2.718   1.857
 2799SOL     OW 9295   3.060   6.911   4.492
 2799SOL    HW1 9296   3.131   6.848   4.461
 2799SOL    HW2 9297   2.997   6.862   4.553
 2800SOL     OW 9298   4.780   1.442   6.605
 2800SOL    HW1 9299   4.732   1.444   6.517
 2800SOL    HW2 9300   4.786   1.348   6.637
 2801SOL     OW 9301   0.002   4.169   3.486
 2801SOL    HW1 9302   6.935   4.127   3.455
 2801SOL    HW2 9303   0.030   4.240   3.421
 2802SOL     OW 9304   1.264   4.281   4.277
 2802SOL    HW1 9305   1.210   4.341   4.217
 2802SOL    HW2 9306   1.357   4.317   4.284
 2803SOL     OW 9307   3.622   2.689   6.906
 2803SOL    HW1 9308   3.718   2.713   6.921
 2803SOL    HW2 9309   3.592   2.625   6.976
 2804SOL     OW 9310   6.044   2.522   3.691
 2804SOL    HW1 9311   6.092   2.502   3.605
 2804SOL    HW2 9312   5.985   2.446   3.715
 2805SOL     OW 9313   4.163   5.101   0.349
 2805SOL    HW1 9314   4.064   5.119   0.344
 2805SOL    HW2 9315   4.197   5.128   0.439
 2806SOL     OW 9316   0.348   2.820   4.484
 2806SOL    HW1 9317   0.295   2.904   4.471
 2806SOL    HW2 9318   0.406   2.805   4.404
 2807SOL     OW 9319   4.417   1.563   3.856
 2807SOL    HW1 9320   4.367   1.477   3.845
 2807SOL    HW2 9321   4.475   1.578   3.776
 2808SOL     OW 9322   1.075   6.110   6.531
 2808SOL    HW1 9323   1.011   6.150   6.466
 2808SOL    HW2 9324   1.128   6.184   6.574
 2809SOL     OW 9325   1.015   6.165   0.812
 2809SOL    HW1 9326   1.114   6.151   0.807
 2809SOL    HW2 9327   0.994   6.228   0.887
 2810SOL     OW 9328   0.718   6.225   2.636
 2810SOL    HW1 9329   0.792   6.247   2.573
 2810SOL    HW2 9330   0.689   6.131   2.622
 2811SOL     OW 9331   0.885   0.639   0.851
 2811SOL    HW1 9332   0.970   0.617   0.803
 2811SOL    HW2 9333   0.901   0.714   0.916
 2812SOL     OW 9334   1.843   0.942   1.159
 2812SOL    HW1 9335   1.759   0.982   1.196
 2812SOL    HW2 9336   1.906   0.922   1.234
 2813SOL     OW 9337   6.402   2.359   1.169
 2813SOL    HW1 9338   6.462   2.438   1.180
 2813SOL    HW2 9339   6.411   2.299   1.249
 2814SOL     OW 9340   2.452   4.293   6.809
 2814SOL    HW1 9341   2.380   4.246   6.758
 2814SOL    HW2 9342   2.514   4.226   6.850
 2815SOL     OW 9343   6.651   6.242   4.956
 2815SOL    HW1 9344   6.556   6.214   4.941
 2815SOL    HW2 9345   6.668   6.328   4.908
 2816SOL     OW 9346   0.824   5.029   4.563
 2816SOL    HW1 9347   0.755   4.958   4.579
 2816SOL    HW2 9348   0.888   4.999   4.492
 2817SOL     OW 9349   2.357   0.617   1.784
 2817SOL    HW1 9350   2.312   0.645   1.869
 2817SOL    HW2 9351   2.317   0.667   1.707
 2818SOL     OW 9352   1.853   1.139   0.451
 2818SOL    HW1 9353   1.927   1.156   0.516
 2818SOL    HW2 9354   1.886   1.078   0.379
 2819SOL     OW 9355   6.492   0.268   6.561
 2819SOL    HW1 9356   6.507   0.206   6.637
 2819SOL    HW2 9357   6.480   0.361   6.595
 2820SOL     OW 9358   1.871   1.726   0.277
 2820SOL    HW1 9359   1.926   1.715   0.360
 2820SOL    HW2 9360   1.858   1.637   0.234
 2821SOL     OW 9361   3.434   2.209   6.009
 2821SOL    HW1 9362   3.383   2.294   6.020
 2821SOL    HW2 9363   3.370   2.132   6.001
 2822SOL     OW 9364   4.043   2.673   1.150
 2822SOL    HW1 9365   3.956   2.630   1.170
 2822SOL    HW2 9366   4.045   2.700   1.053
 2823SOL     OW 9367   5.687   4.088   2.528
 2823SOL    HW1 9368   5.652   4.182   2.531
 2823SOL    HW2 9369   5.713   4.059   2.620
 2824SOL     OW 9370   0.769   4.252   5.031
 2824SOL    HW1 9371   0.756   4.156   5.056
 2824SOL    HW2 9372   0.730   4.269   4.940
 2825SOL     OW 9373   5.106   2.293   5.487
 2825SOL    HW1 9374   5.016   2.325   5.516
 2825SOL    HW2 9375   5.128   2.207   5.535
 2826SOL     OW 9376   2.819   3.235   7.000
 2826SOL    HW1 9377   2.907   3.204   0.017
 2826SOL    HW2 9378   2.781   3.304   0.043
 2827SOL     OW 9379   6.411   1.764   0.175
 2827SOL    HW1 9380   6.417   1.813   0.263
 2827SOL    HW2 9381   6.350   1.814   0.114
 2828SOL     OW 9382   1.546   4.482   0.183
 2828SOL    HW1 9383   1.567   4.433   0.268
 2828SOL    HW2 9384   1.628   4.485   0.126
 2829SOL     OW 9385   3.614   4.267   1.504
 2829SOL    HW1 9386   3.516   4.249   1.509
 2829SOL    HW2 9387   3.642   4.323   1.582
 2830SOL     OW 9388   2.864   5.689   4.662
 2830SOL    HW1 9389   2.806   5.721   4.587
 2830SOL    HW2 9390   2.883   5.592   4.651
 2831SOL     OW 9391   6.533   1.881   2.049
 2831SOL    HW1 9392   6.551   1.977   2.071
 2831SOL    HW2 9393   6.516   1.831   2.134
 2832SOL     OW 9394   1.533   3.980   1.344
 2832SOL    HW1 9395   1.479   4.060   1.319
 2832SOL    HW2 9396   1.622   3.985   1.299
 2833SOL     OW 9397   6.691   2.826   3.443
 2833SOL    HW1 9398   6.786   2.804   3.419
 2833SOL    HW2 9399   6.633   2.747   3.426
 2834SOL     OW 9400   3.090   0.595   4.137
 2834SOL    HW1 9401   3.014   0.609   4.073
 2834SOL    HW2 9402   3.055   0.560   4.224
 2835SOL     OW 9403   6.520   1.639   0.624
 2835SOL    HW1 9404   6.552   1.562   0.679
 2835SOL    HW2 9405   6.427   1.663   0.652
 2836SOL     OW 9406   3.325   5.894   1.448
 2836SOL    HW1 9407   3.377   5.819   1.408
 2836SOL    HW2 9408   3.329   5.888   1.547
 2837SOL     OW 9409   5.648   4.193   2.933
 2837SOL    HW1 9410   5.554   4.163   2.914
 2837SOL    HW2 9411   5.675   4.164   3.025
 2838SOL     OW 9412   6.981   3.903   5.581
 2838SOL    HW1 9413   6.947   3.911   5.674
 2838SOL    HW2 9414   0.034   3.972   5.565
 2839SOL     OW 9415   5.891   2.596   6.352
 2839SOL    HW1 9416   5.939   2.510   6.367
 2839SOL    HW2 9417   5.879   2.611   6.253
 2840SOL     OW 9418   6.327   6.158   4.970
 2840SOL    HW1 9419   6.325   6.258   4.960
 2840SOL    HW2 9420   6.241   6.120   4.937
 2841SOL     OW 9421   5.599   3.724   2.918
 2841SOL    HW1 9422   5.578   3.665   2.996
 2841SOL    HW2 9423   5.516   3.770   2.888
 2842SOL     OW 9424   0.984   6.437   3.729
 2842SOL    HW1 9425   0.885   6.430   3.742
 2842SOL    HW2 9426   1.012   6.533   3.734
 2843SOL     OW 9427   1.162   2.939   4.205
 2843SOL    HW1 9428   1.261   2.948   4.218
 2843SOL    HW2 9429   1.115   2.968   4.289
 2844SOL     OW 9430   5.367   4.071   0.065
 2844SOL    HW1 9431   5.372   4.002   7.011
 2844SOL    HW2 9432   5.272   4.101   0.076
 2845SOL     OW 9433   3.703   1.842   1.280
 2845SOL    HW1 9434   3.784   1.834   1.339
 2845SOL    HW2 9435   3.731   1.876   1.190
 2846SOL     OW 9436   5.107   6.963   6.621
 2846SOL    HW1 9437   5.067   6.897   6.685
 2846SOL    HW2 9438   5.045   6.974   6.543
 2847SOL     OW 9439   5.772   5.074   2.325
 2847SOL    HW1 9440   5.796   5.165   2.289
 2847SOL    HW2 9441   5.783   5.073   2.424
 2848SOL     OW 9442   0.508   3.419   0.158
 2848SOL    HW1 9443   0.582   3.448   0.098
 2848SOL    HW2 9444   0.510   3.473   0.242
 2849SOL     OW 9445   5.566   0.656   1.261
 2849SOL    HW1 9446   5.611   0.741   1.234
 2849SOL    HW2 9447   5.468   0.671   1.272
 2850SOL     OW 9448   0.409   1.134   0.910
 2850SOL    HW1 9449   0.369   1.085   0.833
 2850SOL    HW2 9450   0.427   1.229   0.883
 2851SOL     OW 9451   3.675   3.687   2.137
 2851SOL    HW1 9452   3.717   3.775   2.114
 2851SOL    HW2 9453   3.624   3.695   2.222
 2852SOL     OW 9454   0.588   4.901   4.615
 2852SOL    HW1 9455   0.573   4.985   4.563
 2852SOL    HW2 9456   0.500   4.863   4.644
 2853SOL     OW 9457   0.262   4.363   6.061
 2853SOL    HW1 9458   0.277   4.458   6.034
 2853SOL    HW2 9459   0.321   4.303   6.007
 2854SOL     OW 9460   3.104   0.403   7.013
 2854SOL    HW1 9461   3.120   0.324   0.053
 2854SOL    HW2 9462   3.183   0.418   6.953
 2855SOL     OW 9463   2.704   2.166   4.232
 2855SOL    HW1 9464   2.652   2.187   4.149
 2855SOL    HW2 9465   2.680   2.075   4.265
 2856SOL     OW 9466   1.312   5.373   4.771
 2856SOL    HW1 9467   1.267   5.284   4.783
 2856SOL    HW2 9468   1.385   5.364   4.703
 2857SOL     OW 9469   0.468   4.649   0.150
 2857SOL    HW1 9470   0.389   4.674   0.207
 2857SOL    HW2 9471   0.474   4.550   0.142
 2858SOL     OW 9472   5.563   4.757   4.008
 2858SOL    HW1 9473   5.566   4.810   4.093
 2858SOL    HW2 9474   5.646   4.774   3.955
 2859SOL     OW 9475   6.901   5.130   2.060
 2859SOL    HW1 9476   6.842   5.195   2.108
 2859SOL    HW2 9477   6.846   5.072   2.000
 2860SOL     OW 9478   1.196   6.625   3.066
 2860SOL    HW1 9479   1.156   6.568   3.137
 2860SOL    HW2 9480   1.200   6.574   2.980
 2861SOL     OW 9481   5.467   3.223   5.253
 2861SOL    HW1 9482   5.455   3.255   5.347
 2861SOL    HW2 9483   5.393   3.258   5.195
 2862SOL     OW 9484   4.677   1.235   0.326
 2862SOL    HW1 9485   4.744   1.180   0.277
 2862SOL    HW2 9486   4.697   1.232   0.424
 2863SOL     OW 9487   5.465   1.752   6.128
 2863SOL    HW1 9488   5.437   1.671   6.077
 2863SOL    HW2 9489   5.393   1.777   6.193
 2864SOL     OW 9490   4.232   4.765   0.936
 2864SOL    HW1 9491   4.217   4.667   0.927
 2864SOL    HW2 9492   4.326   4.782   0.968
 2865SOL     OW 9493   5.512   4.821   6.424
 2865SOL    HW1 9494   5.554   4.744   6.376
 2865SOL    HW2 9495   5.527   4.811   6.523
 2866SOL     OW 9496   4.442   5.766   0.814
 2866SOL    HW1 9497   4.363   5.711   0.788
 2866SOL    HW2 9498   4.525   5.709   0.808
 2867SOL     OW 9499   0.673   6.171   2.885
 2867SOL    HW1 9500   0.719   6.174   2.796
 2867SOL    HW2 9501   0.714   6.099   2.941
 2868SOL     OW 9502   6.545   0.101   5.372
 2868SOL    HW1 9503   6.595   0.082   5.287
 2868SOL    HW2 9504   6.597   0.167   5.426
 2869SOL     OW 9505   5.381   4.693   5.342
 2869SOL    HW1 9506   5.350   4.750   5.417
 2869SOL    HW2 9507   5.481   4.692   5.339
 2870SOL     OW 9508   0.265   1.271   1.268
 2870SOL    HW1 9509   0.333   1.198   1.258
 2870SOL    HW2 9510   0.244   1.283   1.365
 2871SOL     OW 9511   4.582   1.272   3.367
 2871SOL    HW1 9512   4.613   1.367   3.368
 2871SOL    HW2 9513   4.607   1.229   3.281
 2872SOL     OW 9514   3.658   1.596   2.656
 2872SOL    HW1 9515   3.594   1.672   2.669
 2872SOL    HW2 9516   3.724   1.594   2.731
 2873SOL     OW 9517   0.303   6.994   2.702
 2873SOL    HW1 9518   0.239   0.001   2.774
 2873SOL    HW2 9519   0.282   0.027   2.619
 2874SOL     OW 9520   1.841   1.247   2.643
 2874SOL    HW1 9521   1.879   1.277   2.730
 2874SOL    HW2 9522   1.801   1.156   2.654
 2875SOL     OW 9523   2.888   0.766   2.812
 2875SOL    HW1 9524   2.948   0.818   2.751
 2875SOL    HW2 9525   2.808   0.820   2.835
 2876SOL     OW 9526   1.181   6.907   1.005
 2876SOL    HW1 9527   1.216   6.928   1.096
 2876SOL    HW2 9528   1.124   6.826   1.009
 2877SOL     OW 9529   1.467   3.645   6.676
 2877SOL    HW1 9530   1.404   3.573   6.707
 2877SOL    HW2 9531   1.414   3.728   6.657
 2878SOL     OW 9532   3.203   3.447   4.621
 2878SOL    HW1 9533   3.163   3.357   4.603
 2878SOL    HW2 9534   3.164   3.484   4.705
 2879SOL     OW 9535   6.025   5.807   0.626
 2879SOL    HW1 9536   6.003   5.797   0.724
 2879SOL    HW2 9537   6.113   5.763   0.608
 2880SOL     OW 9538   1.676   1.980   2.845
 2880SOL    HW1 9539   1.600   2.028   2.801
 2880SOL    HW2 9540   1.758   2.038   2.844
 2881SOL     OW 9541   4.896   4.634   6.996
 2881SOL    HW1 9542   4.929   4.718   0.022
 2881SOL    HW2 9543   4.944   4.620   6.909
 2882SOL     OW 9544   5.279   6.735   0.163
 2882SOL    HW1 9545   5.285   6.735   0.263
 2882SOL    HW2 9546   5.240   6.648   0.132
 2883SOL     OW 9547   5.089   5.986   2.833
 2883SOL    HW1 9548   5.170   5.969   2.888
 2883SOL    HW2 9549   5.014   6.015   2.892
 2884SOL     OW 9550   6.069   5.334   3.387
 2884SOL    HW1 9551   6.030   5.368   3.473
 2884SOL    HW2 9552   6.008   5.265   3.349
 2885SOL     OW 9553   0.368   3.676   3.426
 2885SOL    HW1 9554   0.286   3.687   3.371
 2885SOL    HW2 9555   0.430   3.612   3.381
 2886SOL     OW 9556   2.148   4.152   4.764
 2886SOL    HW1 9557   2.194   4.130   4.678
 2886SOL    HW2 9558   2.179   4.089   4.835
 2887SOL     OW 9559   6.921   4.808   2.997
 2887SOL    HW1 9560   6.865   4.839   3.074
 2887SOL    HW2 9561   6.919   4.878   2.925
 2888SOL     OW 9562   4.428   5.893   6.382
 2888SOL    HW1 9563   4.341   5.930   6.415
 2888SOL    HW2 9564   4.422   5.793   6.376
 2889SOL     OW 9565   4.239   5.442   4.262
 2889SOL    HW1 9566   4.282   5.393   4.337
 2889SOL    HW2 9567   4.202   5.377   4.196
 2890SOL     OW 9568   1.511   1.987   0.857
 2890SOL    HW1 9569   1.436   1.924   0.834
 2890SOL    HW2 9570   1.483   2.081   0.839
 2891SOL     OW 9571   1.909   1.585   5.382
 2891SOL    HW1 9572   1.868   1.537   5.304
 2891SOL    HW2 9573   1.900   1.527   5.464
 2892SOL     OW 9574   5.554   4.182   2.161
 2892SOL    HW1 9575   5.602   4.263   2.129
 2892SOL    HW2 9576   5.523   4.128   2.082
 2893SOL     OW 9577   6.718   5.964   5.185
 2893SOL    HW1 9578   6.766   6.018   5.117
 2893SOL    HW2 9579   6.625   5.999   5.198
 2894SOL     OW 9580   1.938   5.537   1.077
 2894SOL    HW1 9581   2.034   5.559   1.057
 2894SOL    HW2 9582   1.919   5.557   1.173
 2895SOL     OW 9583   4.933   6.610   6.469
 2895SOL    HW1 9584   5.033   6.598   6.468
 2895SOL    HW2 9585   4.892   6.550   6.401
 2896SOL     OW 9586   6.477   0.283   5.877
 2896SOL    HW1 9587   6.384   0.249   5.895
 2896SOL    HW2 9588   6.536   0.206   5.853
 2897SOL     OW 9589   3.374   6.160   3.401
 2897SOL    HW1 9590   3.444   6.090   3.415
 2897SOL    HW2 9591   3.283   6.119   3.407
 2898SOL     OW 9592   5.185   2.337   2.707
 2898SOL    HW1 9593   5.126   2.398   2.760
 2898SOL    HW2 9594   5.159   2.242   2.724
 2899SOL     OW 9595   6.521   2.610   1.171
 2899SOL    HW1 9596   6.610   2.649   1.148
 2899SOL    HW2 9597   6.451   2.681   1.165
 2900SOL     OW 9598   3.184   3.049   5.145
 2900SOL    HW1 9599   3.188   2.999   5.232
 2900SOL    HW2 9600   3.096   3.097   5.139
 2901SOL     OW 9601   1.654   3.403   1.533
 2901SOL    HW1 9602   1.560   3.439   1.530
 2901SOL    HW2 9603   1.715   3.466   1.484
 2902SOL     OW 9604   5.568   6.344   3.249
 2902SOL    HW1 9605   5.601   6.395   3.328
 2902SOL    HW2 9606   5.632   6.271   3.227
 2903SOL     OW 9607   0.772   5.715   0.777
 2903SOL    HW1 9608   0.686   5.665   0.789
 2903SOL    HW2 9609   0.789   5.730   0.680
 2904SOL     OW 9610   2.840   4.803   4.630
 2904SOL    HW1 9611   2.752   4.781   4.588
 2904SOL    HW2 9612   2.862   4.734   4.699
 2905SOL     OW 9613   1.497   4.630   1.668
 2905SOL    HW1 9614   1.556   4.696   1.623
 2905SOL    HW2 9615   1.537   4.538   1.661
 2906SOL     OW 9616   6.776   6.264   6.166
 2906SOL    HW1 9617   6.723   6.269   6.251
 2906SOL    HW2 9618   6.754   6.179   6.119
 2907SOL     OW 9619   6.493   0.944   5.916
 2907SOL    HW1 9620   6.469   1.014   5.983
 2907SOL    HW2 9621   6.565   0.886   5.953
 2908SOL     OW 9622   4.080   5.943   3.779
 2908SOL    HW1 9623   4.129   6.027   3.804
 2908SOL    HW2 9624   3.985   5.950   3.808
 2909SOL     OW 9625   0.484   6.901   1.060
 2909SOL    HW1 9626   0.436   6.934   0.978
 2909SOL    HW2 9627   0.496   6.802   1.054
 2910SOL     OW 9628   1.409   0.963   4.315
 2910SOL    HW1 9629   1.358   0.913   4.246
 2910SOL    HW2 9630   1.373   0.943   4.406
 2911SOL     OW 9631   6.069   3.658   3.847
 2911SOL    HW1 9632   6.161   3.625   3.867
 2911SOL    HW2 9633   6.037   3.616   3.762
 2912SOL     OW 9634   0.447   1.374   2.595
 2912SOL    HW1 9635   0.520   1.433   2.629
 2912SOL    HW2 9636   0.434   1.298   2.658
 2913SOL     OW 9637   0.969   6.278   4.337
 2913SOL    HW1 9638   0.913   6.255   4.258
 2913SOL    HW2 9639   0.989   6.376   4.337
 2914SOL     OW 9640   3.692   4.431   0.865
 2914SOL    HW1 9641   3.616   4.462   0.809
 2914SOL    HW2 9642   3.697   4.331   0.862
 2915SOL     OW 9643   2.343   0.675   3.671
 2915SOL    HW1 9644   2.260   0.729   3.682
 2915SOL    HW2 9645   2.391   0.670   3.758
 2916SOL     OW 9646   0.190   5.786   6.236
 2916SOL    HW1 9647   0.283   5.783   6.272
 2916SOL    HW2 9648   0.179   5.715   6.167
 2917SOL     OW 9649   1.957   0.962   3.503
 2917SOL    HW1 9650   1.887   0.978   3.434
 2917SOL    HW2 9651   2.031   0.908   3.463
 2918SOL     OW 9652   4.905   2.123   1.270
 2918SOL    HW1 9653   4.893   2.055   1.197
 2918SOL    HW2 9654   4.815   2.149   1.306
 2919SOL     OW 9655   0.515   5.966   5.013
 2919SOL    HW1 9656   0.602   5.999   5.050
 2919SOL    HW2 9657   0.503   5.999   4.920
 2920SOL     OW 9658   2.785   2.125   1.911
 2920SOL    HW1 9659   2.783   2.192   1.986
 2920SOL    HW2 9660   2.877   2.120   1.873
 2921SOL     OW 9661   0.306   5.548   3.431
 2921SOL    HW1 9662   0.254   5.534   3.515
 2921SOL    HW2 9663   0.293   5.642   3.399
 2922SOL     OW 9664   4.117   5.150   3.226
 2922SOL    HW1 9665   4.138   5.190   3.137
 2922SOL    HW2 9666   4.157   5.206   3.299
 2923SOL     OW 9667   1.410   4.971   4.018
 2923SOL    HW1 9668   1.382   4.941   3.926
 2923SOL    HW2 9669   1.330   4.975   4.077
 2924SOL     OW 9670   5.323   1.285   6.826
 2924SOL    HW1 9671   5.257   1.357   6.804
 2924SOL    HW2 9672   5.402   1.292   6.765
 2925SOL     OW 9673   5.475   6.936   4.461
 2925SOL    HW1 9674   5.524   6.975   4.539
 2925SOL    HW2 9675   5.480   6.998   4.383
 2926SOL     OW 9676   6.423   2.634   4.722
 2926SOL    HW1 9677   6.445   2.630   4.820
 2926SOL    HW2 9678   6.334   2.594   4.706
 2927SOL     OW 9679   1.175   2.461   2.659
 2927SOL    HW1 9680   1.200   2.441   2.754
 2927SOL    HW2 9681   1.185   2.378   2.604
 2928SOL     OW 9682   5.048   4.452   0.392
 2928SOL    HW1 9683   5.083   4.416   0.306
 2928SOL    HW2 9684   4.948   4.456   0.387
 2929SOL     OW 9685   1.925   2.306   3.326
 2929SOL    HW1 9686   1.985   2.295   3.247
 2929SOL    HW2 9687   1.942   2.233   3.391
 2930SOL     OW 9688   0.643   3.077   4.271
 2930SOL    HW1 9689   0.696   3.151   4.230
 2930SOL    HW2 9690   0.662   3.073   4.369
 2931SOL     OW 9691   6.159   4.068   5.861
 2931SOL    HW1 9692   6.065   4.101   5.854
 2931SOL    HW2 9693   6.203   4.107   5.942
 2932SOL     OW 9694   6.970   6.485   0.792
 2932SOL    HW1 9695   0.037   6.509   0.745
 2932SOL    HW2 9696   6.985   6.484   0.891
 2933SOL     OW 9697   0.809   0.086   0.152
 2933SOL    HW1 9698   0.898   0.124   0.129
 2933SOL    HW2 9699   0.818   0.018   0.224
 2934SOL     OW 9700   5.608   4.863   2.288
 2934SOL    HW1 9701   5.669   4.941   2.296
 2934SOL    HW2 9702   5.577   4.855   2.193
 2935SOL     OW 9703   0.837   3.971   5.662
 2935SOL    HW1 9704   0.810   3.910   5.736
 2935SOL    HW2 9705   0.912   3.930   5.610
 2936SOL     OW 9706   4.105   6.202   2.469
 2936SOL    HW1 9707   4.072   6.172   2.380
 2936SOL    HW2 9708   4.178   6.270   2.457
 2937SOL     OW 9709   6.306   3.384   3.280
 2937SOL    HW1 9710   6.373   3.316   3.253
 2937SOL    HW2 9711   6.246   3.405   3.202
 2938SOL     OW 9712   0.868   5.176   1.065
 2938SOL    HW1 9713   0.781   5.171   1.015
 2938SOL    HW2 9714   0.855   5.231   1.147
 2939SOL     OW 9715   5.930   6.352   1.850
 2939SOL    HW1 9716   5.917   6.269   1.795
 2939SOL    HW2 9717   5.842   6.397   1.863
 2940SOL     OW 9718   4.757   6.165   4.022
 2940SOL    HW1 9719   4.769   6.233   4.094
 2940SOL    HW2 9720   4.750   6.211   3.933
 2941SOL     OW 9721   2.403   4.986   2.834
 2941SOL    HW1 9722   2.377   4.900   2.789
 2941SOL    HW2 9723   2.495   5.013   2.804
 2942SOL     OW 9724   3.434   1.848   1.355
 2942SOL    HW1 9725   3.531   1.865   1.334
 2942SOL    HW2 9726   3.389   1.935   1.374
 2943SOL     OW 9727   0.755   3.709   3.524
 2943SOL    HW1 9728   0.840   3.752   3.555
 2943SOL    HW2 9729   0.718   3.760   3.447
 2944SOL     OW 9730   0.918   5.463   3.201
 2944SOL    HW1 9731   0.881   5.373   3.177
 2944SOL    HW2 9732   0.938   5.466   3.299
 2945SOL     OW 9733   5.791   4.210   0.516
 2945SOL    HW1 9734   5.870   4.261   0.480
 2945SOL    HW2 9735   5.819   4.159   0.598
 2946SOL     OW 9736   3.676   4.055   4.399
 2946SOL    HW1 9737   3.631   4.135   4.360
 2946SOL    HW2 9738   3.666   3.978   4.336
 2947SOL     OW 9739   6.229   5.922   0.046
 2947SOL    HW1 9740   6.311   5.898   0.098
 2947SOL    HW2 9741   6.155   5.858   0.067
 2948SOL     OW 9742   6.465   4.468   0.586
 2948SOL    HW1 9743   6.466   4.394   0.519
 2948SOL    HW2 9744   6.534   4.450   0.657
 2949SOL     OW 9745   1.993   6.202   0.711
 2949SOL    HW1 9746   1.923   6.219   0.642
 2949SOL    HW2 9747   2.022   6.107   0.707
 2950SOL     OW 9748   5.566   5.338   2.174
 2950SOL    HW1 9749   5.481   5.361   2.222
 2950SOL    HW2 9750   5.643   5.347   2.238
 2951SOL     OW 9751   0.604   2.323   1.186
 2951SOL    HW1 9752   0.676   2.315   1.254
 2951SOL    HW2 9753   0.643   2.312   1.094
 2952SOL     OW 9754   0.633   1.674   4.519
 2952SOL    HW1 9755   0.669   1.689   4.427
 2952SOL    HW2 9756   0.625   1.762   4.566
 2953SOL     OW 9757   1.824   5.958   3.054
 2953SOL    HW1 9758   1.866   5.981   2.966
 2953SOL    HW2 9759   1.842   6.031   3.120
 2954SOL     OW 9760   0.747   4.428   6.282
 2954SOL    HW1 9761   0.704   4.338   6.275
 2954SOL    HW2 9762   0.836   4.425   6.237
 2955SOL     OW 9763   1.973   4.586   6.457
 2955SOL    HW1 9764   1.898   4.622   6.512
 2955SOL    HW2 9765   1.986   4.644   6.376
 2956SOL     OW 9766   5.520   3.681   4.731
 2956SOL    HW1 9767   5.620   3.679   4.725
 2956SOL    HW2 9768   5.482   3.666   4.640
 2957SOL     OW 9769   1.392   4.972   2.693
 2957SOL    HW1 9770   1.412   4.910   2.617
 2957SOL    HW2 9771   1.475   5.024   2.716
 2958SOL     OW 9772   1.627   4.184   1.168
 2958SOL    HW1 9773   1.643   4.103   1.112
 2958SOL    HW2 9774   1.616   4.264   1.108
 2959SOL     OW 9775   0.166   4.252   4.008
 2959SOL    HW1 9776   0.105   4.296   3.942
 2959SOL    HW2 9777   0.128   4.262   4.100
 2960SOL     OW 9778   5.120   6.304   0.897
 2960SOL    HW1 9779   5.046   6.365   0.868
 2960SOL    HW2 9780   5.101   6.272   0.990
 2961SOL     OW 9781   5.476   2.312   1.323
 2961SOL    HW1 9782   5.495   2.219   1.353
 2961SOL    HW2 9783   5.557   2.350   1.279
 2962SOL     OW 9784   0.221   0.061   3.761
 2962SOL    HW1 9785   0.303   0.098   3.717
 2962SOL    HW2 9786   0.187   0.127   3.828
 2963SOL     OW 9787   2.258   2.192   5.547
 2963SOL    HW1 9788   2.301   2.101   5.550
 2963SOL    HW2 9789   2.183   2.191   5.482
 2964SOL     OW 9790   1.307   1.020   5.868
 2964SOL    HW1 9791   1.226   1.076   5.886
 2964SOL    HW2 9792   1.351   1.051   5.784
 2965SOL     OW 9793   6.081   0.470   6.417
 2965SOL    HW1 9794   6.057   0.461   6.514
 2965SOL    HW2 9795   6.140   0.550   6.405
 2966SOL     OW 9796   3.464   6.314   2.851
 2966SOL    HW1 9797   3.376   6.362   2.853
 2966SOL    HW2 9798   3.524   6.351   2.922
 2967SOL     OW 9799   6.074   0.024   5.101
 2967SOL    HW1 9800   6.154   0.064   5.147
 2967SOL    HW2 9801   6.070   0.056   5.007
 2968SOL     OW 9802   1.408   4.131   1.743
 2968SOL    HW1 9803   1.478   4.061   1.728
 2968SOL    HW2 9804   1.452   4.218   1.763
 2969SOL     OW 9805   4.707   2.630   4.768
 2969SOL    HW1 9806   4.691   2.655   4.864
 2969SOL    HW2 9807   4.627   2.581   4.733
 2970SOL     OW 9808   3.122   2.427   5.792
 2970SOL    HW1 9809   3.079   2.493   5.730
 2970SOL    HW2 9810   3.197   2.381   5.745
 2971SOL     OW 9811   4.425   3.479   6.182
 2971SOL    HW1 9812   4.489   3.481   6.259
 2971SOL    HW2 9813   4.341   3.527   6.208
 2972SOL     OW 9814   0.604   6.212   6.210
 2972SOL    HW1 9815   0.700   6.184   6.215
 2972SOL    HW2 9816   0.556   6.183   6.293
 2973SOL     OW 9817   5.830   0.417   3.886
 2973SOL    HW1 9818   5.917   0.413   3.837
 2973SOL    HW2 9819   5.786   0.327   3.883
 2974SOL     OW 9820   5.447   6.060   2.697
 2974SOL    HW1 9821   5.526   6.119   2.678
 2974SOL    HW2 9822   5.408   6.084   2.786
 2975SOL     OW 9823   6.759   3.841   4.779
 2975SOL    HW1 9824   6.706   3.761   4.804
 2975SOL    HW2 9825   6.775   3.841   4.680
 2976SOL     OW 9826   3.862   0.307   1.387
 2976SOL    HW1 9827   3.944   0.338   1.339
 2976SOL    HW2 9828   3.801   0.260   1.323
 2977SOL     OW 9829   1.617   1.015   2.368
 2977SOL    HW1 9830   1.669   1.037   2.286
 2977SOL    HW2 9831   1.678   1.015   2.447
 2978SOL     OW 9832   3.646   5.743   0.047
 2978SOL    HW1 9833   3.558   5.723   0.092
 2978SOL    HW2 9834   3.688   5.822   0.091
 2979SOL     OW 9835   2.678   1.403   5.691
 2979SOL    HW1 9836   2.677   1.473   5.763
 2979SOL    HW2 9837   2.724   1.439   5.610
 2980SOL     OW 9838   3.367   2.913   4.068
 2980SOL    HW1 9839   3.292   2.940   4.008
 2980SOL    HW2 9840   3.333   2.904   4.162
 2981SOL     OW 9841   3.015   2.040   1.746
 2981SOL    HW1 9842   3.047   2.090   1.666
 2981SOL    HW2 9843   3.062   2.074   1.828
 2982SOL     OW 9844   1.459   0.673   1.671
 2982SOL    HW1 9845   1.401   0.626   1.605
 2982SOL    HW2 9846   1.438   0.770   1.671
 2983SOL     OW 9847   6.463   2.526   6.477
 2983SOL    HW1 9848   6.402   2.580   6.419
 2983SOL    HW2 9849   6.543   2.497   6.423
 2984SOL     OW 9850   0.752   6.601   1.142
 2984SOL    HW1 9851   0.766   6.595   1.241
 2984SOL    HW2 9852   0.670   6.655   1.124
 2985SOL     OW 9853   6.929   0.238   5.614
 2985SOL    HW1 9854   6.973   0.291   5.686
 2985SOL    HW2 9855   6.931   0.141   5.637
 2986SOL     OW 9856   4.162   3.378   2.903
 2986SOL    HW1 9857   4.235   3.321   2.866
 2986SOL    HW2 9858   4.099   3.322   2.956
 2987SOL     OW 9859   2.353   6.067   5.169
 2987SOL    HW1 9860   2.434   6.117   5.198
 2987SOL    HW2 9861   2.380   5.977   5.133
 2988SOL     OW 9862   0.835   1.922   6.607
 2988SOL    HW1 9863   0.906   1.864   6.647
 2988SOL    HW2 9864   0.836   1.913   6.507
 2989SOL     OW 9865   5.677   3.875   5.908
 2989SOL    HW1 9866   5.703   3.959   5.955
 2989SOL    HW2 9867   5.620   3.897   5.829
 2990SOL     OW 9868   4.737   1.051   4.850
 2990SOL    HW1 9869   4.767   0.955   4.847
 2990SOL    HW2 9870   4.658   1.063   4.790
 2991SOL     OW 9871   6.484   3.075   0.319
 2991SOL    HW1 9872   6.572   3.117   0.294
 2991SOL    HW2 9873   6.415   3.147   0.330
 2992SOL     OW 9874   1.654   4.176   5.246
 2992SOL    HW1 9875   1.573   4.176   5.305
 2992SOL    HW2 9876   1.632   4.133   5.159
 2993SOL     OW 9877   3.644   4.639   6.614
 2993SOL    HW1 9878   3.630   4.737   6.595
 2993SOL    HW2 9879   3.719   4.628   6.679
 2994SOL     OW 9880   2.640   5.052   4.684
 2994SOL    HW1 9881   2.671   5.014   4.596
 2994SOL    HW2 9882   2.719   5.067   4.744
 2995SOL     OW 9883   5.055   0.063   1.906
 2995SOL    HW1 9884   5.031   0.153   1.869
 2995SOL    HW2 9885   5.134   0.072   1.966
 2996SOL     OW 9886   0.079   0.487   4.081
 2996SOL    HW1 9887   0.005   0.482   4.148
 2996SOL    HW2 9888   0.134   0.568   4.099
 2997SOL     OW 9889   4.644   6.015   4.429
 2997SOL    HW1 9890   4.712   5.984   4.495
 2997SOL    HW2 9891   4.597   6.095   4.466
 2998SOL     OW 9892   2.453   0.077   2.316
 2998SOL    HW1 9893   2.536   0.049   2.266
 2998SOL    HW2 9894   2.443   0.020   2.397
 2999SOL     OW 9895   2.006   5.135   0.264
 2999SOL    HW1 9896   1.999   5.148   0.165
 2999SOL    HW2 9897   1.998   5.038   0.286
 3000SOL     OW 9898   1.685   3.880   6.260
 3000SOL    HW1 9899   1.642   3.802   6.306
 3000SOL    HW2 9900   1.751   3.847   6.192
 3001SOL     OW 9901   3.844   0.485   6.608
 3001SOL    HW1 9902   3.876   0.391   6.596
 3001SOL    HW2 9903   3.766   0.501   6.548
 3002SOL     OW 9904   1.474   2.315   1.993
 3002SOL    HW1 9905   1.524   2.354   2.070
 3002SOL    HW2 9906   1.386   2.362   1.983
 3003SOL     OW 9907   1.422   6.145   0.346
 3003SOL    HW1 9908   1.515   6.128   0.378
 3003SOL    HW2 9909   1.357   6.101   0.408
 3004SOL     OW 9910   2.563   0.157   4.153
 3004SOL    HW1 9911   2.467   0.174   4.175
 3004SOL    HW2 9912   2.612   0.134   4.236
 3005SOL     OW 9913   2.601   1.935   0.366
 3005SOL    HW1 9914   2.665   1.979   0.430
 3005SOL    HW2 9915   2.575   1.845   0.401
 3006SOL     OW 9916   5.376   1.094   5.968
 3006SOL    HW1 9917   5.324   1.009   5.983
 3006SOL    HW2 9918   5.470   1.071   5.943
 3007SOL     OW 9919   6.038   5.713   5.581
 3007SOL    HW1 9920   6.068   5.620   5.559
 3007SOL    HW2 9921   6.116   5.767   5.613
 3008SOL     OW 9922   5.463   4.158   5.456
 3008SOL    HW1 9923   5.490   4.068   5.492
 3008SOL    HW2 9924   5.414   4.209   5.527
 3009SOL     OW 9925   5.460   3.722   1.806
 3009SOL    HW1 9926   5.378   3.747   1.755
 3009SOL    HW2 9927   5.476   3.623   1.798
 3010SOL     OW 9928   4.213   4.783   1.294
 3010SOL    HW1 9929   4.235   4.700   1.242
 3010SOL    HW2 9930   4.144   4.835   1.244
 3011SOL     OW 9931   6.039   6.937   0.324
 3011SOL    HW1 9932   6.032   0.018   0.321
 3011SOL    HW2 9933   5.969   6.897   0.265
 3012SOL     OW 9934   2.722   1.271   4.911
 3012SOL    HW1 9935   2.659   1.256   4.836
 3012SOL    HW2 9936   2.805   1.217   4.897
 3013SOL     OW 9937   0.500   5.420   5.278
 3013SOL    HW1 9938   0.600   5.417   5.280
 3013SOL    HW2 9939   0.471   5.477   5.201
 3014SOL     OW 9940   4.137   0.366   0.089
 3014SOL    HW1 9941   4.144   0.424   0.170
 3014SOL    HW2 9942   4.225   0.363   0.042
 3015SOL     OW 9943   2.149   6.558   6.395
 3015SOL    HW1 9944   2.170   6.615   6.315
 3015SOL    HW2 9945   2.053   6.571   6.421
 3016SOL     OW 9946   3.445   0.927   4.335
 3016SOL    HW1 9947   3.403   0.933   4.425
 3016SOL    HW2 9948   3.393   0.863   4.278
 3017SOL     OW 9949   1.273   6.013   0.512
 3017SOL    HW1 9950   1.248   6.057   0.599
 3017SOL    HW2 9951   1.262   5.914   0.520
 3018SOL     OW 9952   2.572   2.452   1.683
 3018SOL    HW1 9953   2.561   2.377   1.617
 3018SOL    HW2 9954   2.510   2.438   1.760
 3019SOL     OW 9955   1.210   0.778   5.514
 3019SOL    HW1 9956   1.204   0.868   5.471
 3019SOL    HW2 9957   1.140   0.770   5.585
 3020SOL     OW 9958   4.999   4.170   6.485
 3020SOL    HW1 9959   5.087   4.138   6.449
 3020SOL    HW2 9960   4.967   4.109   6.557
 3021SOL     OW 9961   4.469   6.639   4.565
 3021SOL    HW1 9962   4.531   6.633   4.487
 3021SOL    HW2 9963   4.421   6.727   4.563
 3022SOL     OW 9964   4.098   6.893   3.309
 3022SOL    HW1 9965   4.058   6.912   3.399
 3022SOL    HW2 9966   4.062   6.957   3.242
 3023SOL     OW 9967   5.303   4.350   4.667
 3023SOL    HW1 9968   5.228   4.363   4.732
 3023SOL    HW2 9969   5.359   4.272   4.697
 3024SOL     OW 9970   6.257   1.289   6.650
 3024SOL    HW1 9971   6.267   1.340   6.564
 3024SOL    HW2 9972   6.345   1.285   6.697
 3025SOL     OW 9973   4.182   5.321   0.716
 3025SOL    HW1 9974   4.197   5.229   0.679
 3025SOL    HW2 9975   4.235   5.332   0.801
 3026SOL     OW 9976   0.390   0.134   2.409
 3026SOL    HW1 9977   0.371   0.198   2.334
 3026SOL    HW2 9978   0.339   0.049   2.393
 3027SOL     OW 9979   4.456   0.425   0.538
 3027SOL    HW1 9980   4.416   0.508   0.577
 3027SOL    HW2 9981   4.386   0.354   0.531
 3028SOL     OW 9982   4.044   3.244   4.126
 3028SOL    HW1 9983   4.047   3.325   4.066
 3028SOL    HW2 9984   4.019   3.164   4.072
 3029SOL     OW 9985   6.993   2.461   4.147
 3029SOL    HW1 9986   0.063   2.429   4.110
 3029SOL    HW2 9987   6.987   2.438   4.243
 3030SOL     OW 9988   0.433   3.630   6.403
 3030SOL    HW1 9989   0.431   3.587   6.312
 3030SOL    HW2 9990   0.518   3.681   6.414
 3031SOL     OW 9991   0.250   4.839   6.982
 3031SOL    HW1 9992   0.219   4.749   6.951
 3031SOL    HW2 9993   0.216   4.909   6.920
 3032SOL     OW 9994   3.315   7.009   3.954
 3032SOL    HW1 9995   3.288   6.979   4.046
 3032SOL    HW2 9996   3.380   6.943   3.916
 3033SOL     OW 9997   2.260   0.928   6.517
 3033SOL    HW1 9998   2.234   1.017   6.553
 3033SOL    HW2 9999   2.332   0.939   6.448
 3034SOL     OW10000   5.598   3.271   3.209
 3034SOL    HW110001   5.607   3.220   3.295
 3034SOL    HW210002   5.510   3.249   3.166
 3035SOL     OW10003   6.715   4.364   5.947
 3035SOL    HW110004   6.801   4.356   5.998
 3035SOL    HW210005   6.733   4.406   5.858
 3036SOL     OW10006   3.322   2.490   6.001
 3036SOL    HW110007   3.402   2.503   5.942
 3036SOL    HW210008   3.239   2.501   5.946
 3037SOL     OW10009   0.332   5.414   6.031
 3037SOL    HW110010   0.281   5.399   5.946
 3037SOL    HW210011   0.366   5.508   6.033
 3038SOL     OW10012   5.818   4.819   5.484
 3038SOL    HW110013   5.755   4.896   5.497
 3038SOL    HW210014   5.767   4.738   5.456
 3039SOL     OW10015   6.119   3.356   6.664
 3039SOL    HW110016   6.107   3.364   6.565
 3039SOL    HW210017   6.200   3.301   6.683
 3040SOL     OW10018   4.296   6.073   6.541
 3040SOL    HW110019   4.360   6.073   6.618
 3040SOL    HW210020   4.305   6.158   6.490
 3041SOL     OW10021   2.355   5.980   6.437
 3041SOL    HW110022   2.415   5.905   6.411
 3041SOL    HW210023   2.278   5.985   6.373
 3042SOL     OW10024   0.331   5.573   3.790
 3042SOL    HW110025   0.275   5.649   3.824
 3042SOL    HW210026   0.271   5.494   3.772
 3043SOL     OW10027   2.408   3.757   1.239
 3043SOL    HW110028   2.347   3.808   1.301
 3043SOL    HW210029   2.500   3.754   1.278
 3044SOL     OW10030   3.917   3.517   4.823
 3044SOL    HW110031   3.881   3.447   4.762
 3044SOL    HW210032   4.007   3.489   4.857
 3045SOL     OW10033   5.728   0.464   2.982
 3045SOL    HW110034   5.740   0.366   2.999
 3045SOL    HW210035   5.679   0.505   3.059
 3046SOL     OW10036   6.694   5.793   1.155
 3046SOL    HW110037   6.672   5.871   1.214
 3046SOL    HW210038   6.612   5.764   1.107
 3047SOL     OW10039   4.589   1.600   3.643
 3047SOL    HW110040   4.653   1.523   3.645
 3047SOL    HW210041   4.640   1.686   3.646
 3048SOL     OW10042   4.330   5.313   0.946
 3048SOL    HW110043   4.260   5.247   0.972
 3048SOL    HW210044   4.393   5.271   0.881
 3049SOL     OW10045   0.349   0.701   1.394
 3049SOL    HW110046   0.357   0.713   1.295
 3049SOL    HW210047   0.439   0.709   1.436
 3050SOL     OW10048   3.960   2.297   5.583
 3050SOL    HW110049   4.036   2.307   5.647
 3050SOL    HW210050   3.924   2.204   5.588
 3051SOL     OW10051   1.795   4.311   6.106
 3051SOL    HW110052   1.792   4.218   6.067
 3051SOL    HW210053   1.777   4.307   6.204
 3052SOL     OW10054   6.054   6.180   4.062
 3052SOL    HW110055   6.004   6.246   4.005
 3052SOL    HW210056   6.089   6.106   4.005
 3053SOL     OW10057   0.622   5.860   6.152
 3053SOL    HW110058   0.639   5.890   6.058
 3053SOL    HW210059   0.671   5.919   6.216
 3054SOL     OW10060   6.075   6.495   3.528
 3054SOL    HW110061   6.168   6.509   3.495
 3054SOL    HW210062   6.012   6.552   3.475
 3055SOL     OW10063   5.034   6.359   0.539
 3055SOL    HW110064   4.992   6.421   0.604
 3055SOL    HW210065   5.109   6.310   0.583
 3056SOL     OW10066   4.201   1.808   0.580
 3056SOL    HW110067   4.122   1.750   0.601
 3056SOL    HW210068   4.170   1.903   0.568
 3057SOL     OW10069   6.717   2.853   3.050
 3057SOL    HW110070   6.771   2.783   3.003
 3057SOL    HW210071   6.778   2.925   3.084
 3058SOL     OW10072   5.929   3.848   6.165
 3058SOL    HW110073   5.985   3.860   6.247
 3058SOL    HW210074   5.915   3.750   6.148
 3059SOL     OW10075   1.629   2.623   3.710
 3059SOL    HW110076   1.611   2.685   3.634
 3059SOL    HW210077   1.706   2.564   3.688
 3060SOL     OW10078   5.725   3.480   3.966
 3060SOL    HW110079   5.715   3.387   4.001
 3060SOL    HW210080   5.640   3.530   3.978
 3061SOL     OW10081   5.565   6.547   2.633
 3061SOL    HW110082   5.505   6.601   2.693
 3061SOL    HW210083   5.652   6.532   2.679
 3062SOL     OW10084   3.598   5.273   0.224
 3062SOL    HW110085   3.581   5.231   0.135
 3062SOL    HW210086   3.572   5.369   0.221
 3063SOL     OW10087   6.502   5.332   0.464
 3063SOL    HW110088   6.499   5.421   0.510
 3063SOL    HW210089   6.447   5.337   0.380
 3064SOL     OW10090   4.755   1.158   5.813
 3064SOL    HW110091   4.810   1.216   5.753
 3064SOL    HW210092   4.784   1.171   5.908
 3065SOL     OW10093   5.019   0.684   6.693
 3065SOL    HW110094   4.987   0.753   6.757
 3065SOL    HW210095   5.035   0.598   6.742
 3066SOL     OW10096   5.292   6.656   5.878
 3066SOL    HW110097   5.359   6.582   5.886
 3066SOL    HW210098   5.321   6.719   5.807
 3067SOL     OW10099   1.733   2.345   4.742
 3067SOL    HW110100   1.697   2.347   4.835
 3067SOL    HW210101   1.828   2.315   4.744
 3068SOL     OW10102   5.663   0.175   0.601
 3068SOL    HW110103   5.630   0.081   0.592
 3068SOL    HW210104   5.760   0.174   0.624
 3069SOL     OW10105   5.632   5.978   3.600
 3069SOL    HW110106   5.595   5.887   3.613
 3069SOL    HW210107   5.562   6.046   3.622
 3070SOL     OW10108   2.930   1.423   1.079
 3070SOL    HW110109   2.900   1.488   1.148
 3070SOL    HW210110   3.008   1.460   1.028
 3071SOL     OW10111   5.505   4.618   4.946
 3071SOL    HW110112   5.434   4.553   4.918
 3071SOL    HW210113   5.592   4.571   4.953
 3072SOL     OW10114   1.864   6.290   5.087
 3072SOL    HW110115   1.933   6.361   5.074
 3072SOL    HW210116   1.896   6.204   5.047
 3073SOL     OW10117   0.165   5.242   3.307
 3073SOL    HW110118   0.218   5.262   3.389
 3073SOL    HW210119   0.204   5.163   3.261
 3074SOL     OW10120   3.383   3.259   2.084
 3074SOL    HW110121   3.469   3.244   2.035
 3074SOL    HW210122   3.368   3.183   2.148
 3075SOL     OW10123   3.885   5.092   0.293
 3075SOL    HW110124   3.899   5.090   0.194
 3075SOL    HW210125   3.792   5.060   0.313
 3076SOL     OW10126   1.774   1.537   4.148
 3076SOL    HW110127   1.837   1.552   4.072
 3076SOL    HW210128   1.771   1.618   4.206
 3077SOL     OW10129   0.184   3.713   2.970
 3077SOL    HW110130   0.266   3.678   3.015
 3077SOL    HW210131   0.173   3.810   2.991
 3078SOL     OW10132   6.363   4.300   1.171
 3078SOL    HW110133   6.409   4.302   1.083
 3078SOL    HW210134   6.286   4.235   1.167
 3079SOL     OW10135   0.321   4.035   3.279
 3079SOL    HW110136   0.400   4.006   3.332
 3079SOL    HW210137   0.238   4.026   3.334
 3080SOL     OW10138   3.837   4.697   1.648
 3080SOL    HW110139   3.900   4.621   1.631
 3080SOL    HW210140   3.743   4.664   1.641
 3081SOL     OW10141   1.679   2.853   6.236
 3081SOL    HW110142   1.719   2.808   6.156
 3081SOL    HW210143   1.604   2.912   6.206
 3082SOL     OW10144   5.839   3.923   4.862
 3082SOL    HW110145   5.818   4.015   4.828
 3082SOL    HW210146   5.936   3.904   4.848
 3083SOL     OW10147   3.958   5.989   1.381
 3083SOL    HW110148   3.915   6.068   1.335
 3083SOL    HW210149   3.929   5.905   1.336
 3084SOL     OW10150   6.738   5.228   4.029
 3084SOL    HW110151   6.777   5.315   3.999
 3084SOL    HW210152   6.808   5.175   4.078
 3085SOL     OW10153   6.594   5.509   6.166
 3085SOL    HW110154   6.562   5.415   6.158
 3085SOL    HW210155   6.691   5.514   6.139
 3086SOL     OW10156   6.170   6.244   6.246
 3086SOL    HW110157   6.077   6.281   6.234
 3086SOL    HW210158   6.237   6.314   6.220
 3087SOL     OW10159   2.815   0.342   1.782
 3087SOL    HW110160   2.911   0.367   1.766
 3087SOL    HW210161   2.769   0.332   1.694
 3088SOL     OW10162   2.378   3.283   5.293
 3088SOL    HW110163   2.337   3.277   5.384
 3088SOL    HW210164   2.401   3.192   5.260
 3089SOL     OW10165   3.768   6.766   0.157
 3089SOL    HW110166   3.745   6.668   0.159
 3089SOL    HW210167   3.791   6.797   0.249
 3090SOL     OW10168   1.558   2.593   2.393
 3090SOL    HW110169   1.514   2.628   2.476
 3090SOL    HW210170   1.641   2.543   2.418
 3091SOL     OW10171   1.309   2.631   6.681
 3091SOL    HW110172   1.379   2.571   6.720
 3091SOL    HW210173   1.309   2.718   6.730
 3092SOL     OW10174   4.714   1.800   3.446
 3092SOL    HW110175   4.665   1.874   3.492
 3092SOL    HW210176   4.812   1.811   3.460
 3093SOL     OW10177   6.210   5.313   6.922
 3093SOL    HW110178   6.302   5.283   6.947
 3093SOL    HW210179   6.190   5.400   6.968
 3094SOL     OW10180   2.405   0.642   5.569
 3094SOL    HW110181   2.350   0.725   5.555
 3094SOL    HW210182   2.385   0.576   5.496
 3095SOL     OW10183   2.097   3.502   6.059
 3095SOL    HW110184   2.098   3.556   6.143
 3095SOL    HW210185   2.006   3.464   6.044
 3096SOL     OW10186   1.697   3.175   3.790
 3096SOL    HW110187   1.613   3.127   3.816
 3096SOL    HW210188   1.692   3.201   3.694
 3097SOL     OW10189   5.534   2.675   6.030
 3097SOL    HW110190   5.540   2.645   6.125
 3097SOL    HW210191   5.460   2.741   6.021
 3098SOL     OW10192   1.529   3.528   2.413
 3098SOL    HW110193   1.617   3.534   2.367
 3098SOL    HW210194   1.510   3.614   2.460
 3099SOL     OW10195   0.529   6.947   5.885
 3099SOL    HW110196   0.628   6.929   5.883
 3099SOL    HW210197   0.510   0.014   5.836
 3100SOL     OW10198   6.340   4.091   2.321
 3100SOL    HW110199   6.306   3.998   2.334
 3100SOL    HW210200   6.439   4.089   2.305
 3101SOL     OW10201   5.484   0.981   4.213
 3101SOL    HW110202   5.538   0.899   4.191
 3101SOL    HW210203   5.502   1.052   4.145
 3102SOL     OW10204   5.913   3.792   2.920
 3102SOL    HW110205   5.837   3.743   2.961
 3102SOL    HW210206   5.955   3.735   2.849
 3103SOL     OW10207   1.052   0.901   2.536
 3103SOL    HW110208   0.964   0.868   2.572
 3103SOL    HW210209   1.127   0.864   2.591
 3104SOL     OW10210   5.694   1.986   6.294
 3104SOL    HW110211   5.778   2.010   6.246
 3104SOL    HW210212   5.615   2.011   6.238
 3105SOL     OW10213   5.699   4.426   0.705
 3105SOL    HW110214   5.753   4.385   0.632
 3105SOL    HW210215   5.603   4.426   0.679
 3106SOL     OW10216   5.325   1.897   5.575
 3106SOL    HW110217   5.314   1.825   5.507
 3106SOL    HW210218   5.374   1.861   5.654
 3107SOL     OW10219   3.978   2.038   4.735
 3107SOL    HW110220   3.953   2.015   4.641
 3107SOL    HW210221   4.003   1.955   4.784
 3108SOL     OW10222   1.966   4.213   3.738
 3108SOL    HW110223   1.908   4.183   3.814
 3108SOL    HW210224   2.032   4.141   3.716
 3109SOL     OW10225   0.177   5.331   3.761
 3109SOL    HW110226   0.099   5.286   3.719
 3109SOL    HW210227   0.247   5.262   3.783
 3110SOL     OW10228   1.238   5.707   4.055
 3110SOL    HW110229   1.199   5.616   4.041
 3110SOL    HW210230   1.331   5.698   4.093
 3111SOL     OW10231   6.641   3.964   4.232
 3111SOL    HW110232   6.586   3.888   4.266
 3111SOL    HW210233   6.619   4.048   4.281
 3112SOL     OW10234   4.400   0.573   0.922
 3112SOL    HW110235   4.375   0.613   0.834
 3112SOL    HW210236   4.497   0.549   0.922
 3113SOL     OW10237   1.404   6.601   4.168
 3113SOL    HW110238   1.321   6.631   4.216
 3113SOL    HW210239   1.424   6.506   4.191
 3114SOL     OW10240   4.722   6.053   5.599
 3114SOL    HW110241   4.639   6.008   5.630
 3114SOL    HW210242   4.744   6.129   5.660
 3115SOL     OW10243   4.790   6.235   4.986
 3115SOL    HW110244   4.815   6.267   4.895
 3115SOL    HW210245   4.872   6.230   5.044
 3116SOL     OW10246   0.888   2.415   6.662
 3116SOL    HW110247   0.961   2.482   6.644
 3116SOL    HW210248   0.929   2.327   6.686
 3117SOL     OW10249   4.454   0.144   1.701
 3117SOL    HW110250   4.365   0.149   1.746
 3117SOL    HW210251   4.525   0.136   1.771
 3118SOL     OW10252   1.089   2.113   3.353
 3118SOL    HW110253   1.076   2.194   3.296
 3118SOL    HW210254   1.043   2.035   3.311
 3119SOL     OW10255   4.522   6.465   3.834
 3119SOL    HW110256   4.533   6.546   3.891
 3119SOL    HW210257   4.488   6.389   3.889
 3120SOL     OW10258   3.497   6.151   6.602
 3120SOL    HW110259   3.586   6.175   6.641
 3120SOL    HW210260   3.448   6.235   6.576
 3121SOL     OW10261   3.574   2.020   3.092
 3121SOL    HW110262   3.541   2.045   3.182
 3121SOL    HW210263   3.674   2.016   3.093
 3122SOL     OW10264   5.474   3.524   6.181
 3122SOL    HW110265   5.407   3.499   6.250
 3122SOL    HW210266   5.503   3.442   6.131
 3123SOL     OW10267   2.052   3.014   2.390
 3123SOL    HW110268   1.982   2.960   2.343
 3123SOL    HW210269   2.030   3.111   2.381
 3124SOL     OW10270   4.802   6.609   5.981
 3124SOL    HW110271   4.901   6.624   5.987
 3124SOL    HW210272   4.777   6.532   6.039
 3125SOL     OW10273   1.574   1.855   5.254
 3125SOL    HW110274   1.562   1.794   5.175
 3125SOL    HW210275   1.668   1.848   5.287
 3126SOL     OW10276   4.717   4.608   5.303
 3126SOL    HW110277   4.713   4.508   5.306
 3126SOL    HW210278   4.627   4.643   5.277
 3127SOL     OW10279   6.159   2.121   5.958
 3127SOL    HW110280   6.227   2.153   6.024
 3127SOL    HW210281   6.081   2.082   6.007
 3128SOL     OW10282   4.261   1.358   1.117
 3128SOL    HW110283   4.172   1.402   1.107
 3128SOL    HW210284   4.289   1.359   1.213
 3129SOL     OW10285   4.437   4.668   0.113
 3129SOL    HW110286   4.346   4.710   0.108
 3129SOL    HW210287   4.503   4.735   0.146
 3130SOL     OW10288   6.888   5.791   2.527
 3130SOL    HW110289   6.922   5.871   2.477
 3130SOL    HW210290   6.866   5.816   2.621
 3131SOL     OW10291   6.914   2.191   3.006
 3131SOL    HW110292   6.931   2.093   3.019
 3131SOL    HW210293   6.990   2.244   3.043
 3132SOL     OW10294   4.404   3.808   6.712
 3132SOL    HW110295   4.349   3.725   6.700
 3132SOL    HW210296   4.478   3.789   6.777
 3133SOL     OW10297   5.839   6.109   3.904
 3133SOL    HW110298   5.786   6.117   3.819
 3133SOL    HW210299   5.923   6.059   3.886
 3134SOL     OW10300   4.753   4.916   2.895
 3134SOL    HW110301   4.817   4.951   2.827
 3134SOL    HW210302   4.720   4.826   2.867
 3135SOL     OW10303   3.532   0.918   6.639
 3135SOL    HW110304   3.467   0.995   6.638
 3135SOL    HW210305   3.613   0.943   6.585
 3136SOL     OW10306   6.563   6.690   2.191
 3136SOL    HW110307   6.575   6.787   2.209
 3136SOL    HW210308   6.568   6.639   2.277
 3137SOL     OW10309   5.115   4.046   6.782
 3137SOL    HW110310   5.125   4.049   6.881
 3137SOL    HW210311   5.020   4.029   6.758
 3138SOL     OW10312   0.200   6.558   4.698
 3138SOL    HW110313   0.166   6.468   4.728
 3138SOL    HW210314   0.168   6.576   4.605
 3139SOL     OW10315   1.347   4.682   2.227
 3139SOL    HW110316   1.258   4.727   2.240
 3139SOL    HW210317   1.341   4.619   2.149
 3140SOL     OW10318   4.940   6.042   0.135
 3140SOL    HW110319   4.977   6.064   0.225
 3140SOL    HW210320   4.936   5.943   0.123
 3141SOL     OW10321   5.862   2.092   0.249
 3141SOL    HW110322   5.873   1.994   0.236
 3141SOL    HW210323   5.835   2.135   0.163
 3142SOL     OW10324   4.414   0.785   3.838
 3142SOL    HW110325   4.345   0.762   3.907
 3142SOL    HW210326   4.443   0.701   3.791
 3143SOL     OW10327   6.246   1.652   0.679
 3143SOL    HW110328   6.246   1.594   0.597
 3143SOL    HW210329   6.185   1.612   0.748
 3144SOL     OW10330   4.057   4.871   6.769
 3144SOL    HW110331   4.050   4.921   6.856
 3144SOL    HW210332   4.127   4.914   6.711
 3145SOL     OW10333   0.937   5.887   5.391
 3145SOL    HW110334   0.964   5.941   5.311
 3145SOL    HW210335   1.012   5.825   5.416
 3146SOL     OW10336   6.293   1.955   4.619
 3146SOL    HW110337   6.217   1.965   4.555
 3146SOL    HW210338   6.374   1.923   4.570
 3147SOL     OW10339   4.394   6.486   0.632
 3147SOL    HW110340   4.395   6.537   0.717
 3147SOL    HW210341   4.337   6.534   0.565
 3148SOL     OW10342   5.483   4.770   0.223
 3148SOL    HW110343   5.451   4.703   0.290
 3148SOL    HW210344   5.515   4.722   0.141
 3149SOL     OW10345   3.831   3.407   0.103
 3149SOL    HW110346   3.846   3.333   0.168
 3149SOL    HW210347   3.904   3.407   0.035
 3150SOL     OW10348   0.613   0.153   5.270
 3150SOL    HW110349   0.640   0.203   5.188
 3150SOL    HW210350   0.691   0.098   5.301
 3151SOL     OW10351   0.065   1.045   5.989
 3151SOL    HW110352   0.116   0.962   6.012
 3151SOL    HW210353   0.127   1.123   5.989
 3152SOL     OW10354   3.037   2.072   5.701
 3152SOL    HW110355   3.022   2.030   5.612
 3152SOL    HW210356   3.038   2.171   5.692
 3153SOL     OW10357   6.235   5.786   1.790
 3153SOL    HW110358   6.148   5.752   1.828
 3153SOL    HW210359   6.259   5.733   1.709
 3154SOL     OW10360   3.391   2.096   0.683
 3154SOL    HW110361   3.404   2.109   0.781
 3154SOL    HW210362   3.294   2.086   0.663
 3155SOL     OW10363   0.470   5.763   6.589
 3155SOL    HW110364   0.519   5.689   6.636
 3155SOL    HW210365   0.393   5.793   6.645
 3156SOL     OW10366   3.120   4.026   1.044
 3156SOL    HW110367   3.174   4.072   0.973
 3156SOL    HW210368   3.027   4.062   1.044
 3157SOL     OW10369   1.554   1.407   3.973
 3157SOL    HW110370   1.602   1.472   4.032
 3157SOL    HW210371   1.457   1.429   3.972
 3158SOL     OW10372   2.667   0.520   6.323
 3158SOL    HW110373   2.739   0.480   6.378
 3158SOL    HW210374   2.674   0.620   6.325
 3159SOL     OW10375   4.656   6.340   1.411
 3159SOL    HW110376   4.565   6.338   1.370
 3159SOL    HW210377   4.653   6.394   1.496
 3160SOL     OW10378   2.730   1.236   5.247
 3160SOL    HW110379   2.707   1.277   5.159
 3160SOL    HW210380   2.695   1.294   5.321
 3161SOL     OW10381   1.746   2.571   1.594
 3161SOL    HW110382   1.692   2.487   1.601
 3161SOL    HW210383   1.701   2.643   1.647
 3162SOL     OW10384   1.185   5.805   1.872
 3162SOL    HW110385   1.283   5.814   1.890
 3162SOL    HW210386   1.135   5.870   1.930
 3163SOL     OW10387   5.142   4.459   1.090
 3163SOL    HW110388   5.203   4.386   1.059
 3163SOL    HW210389   5.081   4.487   1.016
 3164SOL     OW10390   2.628   0.432   3.935
 3164SOL    HW110391   2.695   0.412   4.007
 3164SOL    HW210392   2.641   0.368   3.859
 3165SOL     OW10393   0.624   5.547   6.611
 3165SOL    HW110394   0.654   5.453   6.596
 3165SOL    HW210395   0.683   5.609   6.559
 3166SOL     OW10396   3.834   1.751   4.586
 3166SOL    HW110397   3.865   1.796   4.669
 3166SOL    HW210398   3.795   1.662   4.609
 3167SOL     OW10399   6.418   2.852   2.152
 3167SOL    HW110400   6.419   2.944   2.191
 3167SOL    HW210401   6.366   2.852   2.067
 3168SOL     OW10402   5.286   1.376   0.997
 3168SOL    HW110403   5.246   1.380   1.089
 3168SOL    HW210404   5.343   1.457   0.983
 3169SOL     OW10405   0.690   2.932   1.899
 3169SOL    HW110406   0.785   2.918   1.873
 3169SOL    HW210407   0.632   2.920   1.818
 3170SOL     OW10408   2.190   4.050   3.684
 3170SOL    HW110409   2.250   4.094   3.751
 3170SOL    HW210410   2.203   4.093   3.594
 3171SOL     OW10411   5.127   1.370   4.953
 3171SOL    HW110412   5.115   1.308   5.030
 3171SOL    HW210413   5.219   1.357   4.914
 3172SOL     OW10414   6.111   4.120   1.427
 3172SOL    HW110415   6.024   4.104   1.474
 3172SOL    HW210416   6.181   4.144   1.495
 3173SOL     OW10417   5.255   3.756   0.115
 3173SOL    HW110418   5.220   3.829   0.174
 3173SOL    HW210419   5.187   3.684   0.106
 3174SOL     OW10420   3.016   2.859   6.612
 3174SOL    HW110421   3.047   2.952   6.628
 3174SOL    HW210422   3.079   2.813   6.549
 3175SOL     OW10423   5.994   5.881   5.366
 3175SOL    HW110424   5.952   5.830   5.291
 3175SOL    HW210425   6.015   5.819   5.441
 3176SOL     OW10426   0.315   5.148   3.501
 3176SOL    HW110427   0.356   5.155   3.592
 3176SOL    HW210428   0.387   5.128   3.434
 3177SOL     OW10429   5.289   2.543   2.527
 3177SOL    HW110430   5.266   2.453   2.490
 3177SOL    HW210431   5.215   2.607   2.506
 3178SOL     OW10432   1.073   0.730   2.916
 3178SOL    HW110433   1.172   0.714   2.910
 3178SOL    HW210434   1.031   0.712   2.827
 3179SOL     OW10435   1.098   3.537   2.694
 3179SOL    HW110436   1.157   3.459   2.713
 3179SOL    HW210437   1.013   3.506   2.650
 3180SOL     OW10438   6.215   0.418   6.854
 3180SOL    HW110439   6.188   0.514   6.852
 3180SOL    HW210440   6.135   0.362   6.877
 3181SOL     OW10441   0.216   6.548   5.133
 3181SOL    HW110442   0.244   6.542   5.229
 3181SOL    HW210443   0.200   6.457   5.097
 3182SOL     OW10444   1.429   0.255   1.423
 3182SOL    HW110445   1.360   0.194   1.462
 3182SOL    HW210446   1.506   0.201   1.388
 3183SOL     OW10447   4.335   4.208   0.639
 3183SOL    HW110448   4.332   4.140   0.566
 3183SOL    HW210449   4.415   4.191   0.697
 3184SOL     OW10450   6.246   0.902   4.140
 3184SOL    HW110451   6.270   0.922   4.235
 3184SOL    HW210452   6.168   0.839   4.137
 3185SOL     OW10453   1.580   0.140   5.750
 3185SOL    HW110454   1.654   0.125   5.816
 3185SOL    HW210455   1.551   0.053   5.711
 3186SOL     OW10456   0.192   1.935   5.574
 3186SOL    HW110457   0.114   1.967   5.627
 3186SOL    HW210458   0.220   2.006   5.509
 3187SOL     OW10459   5.196   0.051   2.944
 3187SOL    HW110460   5.144   0.128   2.907
 3187SOL    HW210461   5.293   0.067   2.930
 3188SOL     OW10462   1.691   5.923   1.405
 3188SOL    HW110463   1.771   5.893   1.354
 3188SOL    HW210464   1.653   5.846   1.456
 3189SOL     OW10465   2.522   1.662   6.175
 3189SOL    HW110466   2.569   1.709   6.250
 3189SOL    HW210467   2.433   1.629   6.207
 3190SOL     OW10468   6.039   6.302   4.748
 3190SOL    HW110469   6.035   6.296   4.848
 3190SOL    HW210470   6.134   6.295   4.718
 3191SOL     OW10471   4.007   5.005   1.264
 3191SOL    HW110472   3.966   4.957   1.187
 3191SOL    HW210473   4.021   5.101   1.240
 3192SOL     OW10474   5.530   0.501   3.178
 3192SOL    HW110475   5.572   0.499   3.269
 3192SOL    HW210476   5.462   0.428   3.170
 3193SOL     OW10477   3.528   5.760   4.766
 3193SOL    HW110478   3.433   5.740   4.741
 3193SOL    HW210479   3.545   5.858   4.755
 3194SOL     OW10480   2.386   6.637   4.918
 3194SOL    HW110481   2.294   6.640   4.878
 3194SOL    HW210482   2.380   6.605   5.013
 3195SOL     OW10483   0.469   6.007   0.400
 3195SOL    HW110484   0.446   5.997   0.303
 3195SOL    HW210485   0.568   6.021   0.410
 3196SOL     OW10486   6.191   6.862   2.655
 3196SOL    HW110487   6.250   6.862   2.575
 3196SOL    HW210488   6.179   6.956   2.688
 3197SOL     OW10489   2.902   0.993   0.070
 3197SOL    HW110490   2.935   0.901   0.046
 3197SOL    HW210491   2.893   1.000   0.169
 3198SOL     OW10492   5.149   3.833   3.706
 3198SOL    HW110493   5.091   3.778   3.767
 3198SOL    HW210494   5.172   3.919   3.751
 3199SOL     OW10495   4.876   3.742   3.531
 3199SOL    HW110496   4.900   3.652   3.494
 3199SOL    HW210497   4.866   3.736   3.630
 3200SOL     OW10498   5.814   3.405   4.806
 3200SOL    HW110499   5.832   3.353   4.890
 3200SOL    HW210500   5.783   3.497   4.830
 3201SOL     OW10501   6.519   3.664   2.484
 3201SOL    HW110502   6.454   3.683   2.558
 3201SOL    HW210503   6.505   3.730   2.410
 3202SOL     OW10504   2.840   2.326   6.232
 3202SOL    HW110505   2.854   2.320   6.133
 3202SOL    HW210506   2.908   2.269   6.279
 3203SOL     OW10507   3.154   6.596   1.761
 3203SOL    HW110508   3.206   6.625   1.681
 3203SOL    HW210509   3.202   6.625   1.844
 3204SOL     OW10510   4.865   0.682   3.793
 3204SOL    HW110511   4.799   0.757   3.795
 3204SOL    HW210512   4.955   0.716   3.820
 3205SOL     OW10513   4.540   2.851   6.854
 3205SOL    HW110514   4.568   2.872   6.948
 3205SOL    HW210515   4.620   2.848   6.795
 3206SOL     OW10516   2.946   4.620   0.485
 3206SOL    HW110517   2.868   4.563   0.458
 3206SOL    HW210518   3.031   4.570   0.468
 3207SOL     OW10519   2.038   6.398   3.655
 3207SOL    HW110520   2.055   6.319   3.714
 3207SOL    HW210521   2.042   6.482   3.709
 3208SOL     OW10522   6.941   3.691   6.767
 3208SOL    HW110523   6.996   3.770   6.738
 3208SOL    HW210524   6.991   3.639   6.836
 3209SOL     OW10525   4.991   0.044   5.554
 3209SOL    HW110526   5.045   0.126   5.575
 3209SOL    HW210527   4.918   0.034   5.621
 3210SOL     OW10528   5.306   5.094   1.917
 3210SOL    HW110529   5.353   5.089   2.005
 3210SOL    HW210530   5.225   5.035   1.919
 3211SOL     OW10531   2.647   6.687   6.792
 3211SOL    HW110532   2.639   6.633   6.708
 3211SOL    HW210533   2.561   6.737   6.808
 3212SOL     OW10534   3.515   6.782   4.112
 3212SOL    HW110535   3.592   6.845   4.115
 3212SOL    HW210536   3.530   6.707   4.176
 3213SOL     OW10537   1.603   0.402   5.684
 3213SOL    HW110538   1.523   0.458   5.705
 3213SOL    HW210539   1.585   0.307   5.711
 3214SOL     OW10540   3.182   0.674   2.935
 3214SOL    HW110541   3.203   0.735   3.012
 3214SOL    HW210542   3.126   0.723   2.868
 3215SOL     OW10543   2.157   3.051   1.968
 3215SOL    HW110544   2.081   2.994   1.937
 3215SOL    HW210545   2.139   3.146   1.941
 3216SOL     OW10546   6.050   4.753   0.511
 3216SOL    HW110547   5.995   4.836   0.508
 3216SOL    HW210548   6.117   4.755   0.436
 3217SOL     OW10549   6.701   6.222   3.551
 3217SOL    HW110550   6.695   6.200   3.454
 3217SOL    HW210551   6.636   6.165   3.602
 3218SOL     OW10552   5.968   1.191   3.506
 3218SOL    HW110553   6.023   1.194   3.423
 3218SOL    HW210554   5.996   1.264   3.568
 3219SOL     OW10555   5.372   1.989   4.103
 3219SOL    HW110556   5.319   2.070   4.078
 3219SOL    HW210557   5.315   1.929   4.161
 3220SOL     OW10558   6.947   3.687   5.431
 3220SOL    HW110559   6.947   3.762   5.497
 3220SOL    HW210560   6.931   3.723   5.339
 3221SOL     OW10561   3.965   1.216   2.024
 3221SOL    HW110562   4.064   1.227   2.018
 3221SOL    HW210563   3.926   1.294   2.074
 3222SOL     OW10564   2.967   0.921   3.804
 3222SOL    HW110565   2.972   0.924   3.903
 3222SOL    HW210566   2.886   0.972   3.773
 3223SOL     OW10567   1.649   5.747   0.778
 3223SOL    HW110568   1.704   5.752   0.861
 3223SOL    HW210569   1.705   5.769   0.699
 3224SOL     OW10570   4.674   2.420   4.098
 3224SOL    HW110571   4.673   2.398   4.195
 3224SOL    HW210572   4.604   2.489   4.079
 3225SOL     OW10573   4.464   1.322   4.662
 3225SOL    HW110574   4.404   1.395   4.629
 3225SOL    HW210575   4.482   1.258   4.588
 3226SOL     OW10576   6.006   1.030   0.473
 3226SOL    HW110577   5.945   0.988   0.406
 3226SOL    HW210578   6.085   1.071   0.426
 3227SOL     OW10579   5.846   4.468   5.599
 3227SOL    HW110580   5.932   4.467   5.650
 3227SOL    HW210581   5.778   4.522   5.649
 3228SOL     OW10582   2.057   4.305   0.527
 3228SOL    HW110583   2.084   4.213   0.556
 3228SOL    HW210584   2.062   4.367   0.605
 3229SOL     OW10585   1.322   1.296   1.521
 3229SOL    HW110586   1.230   1.259   1.528
 3229SOL    HW210587   1.371   1.251   1.446
 3230SOL     OW10588   3.243   6.432   4.898
 3230SOL    HW110589   3.144   6.447   4.896
 3230SOL    HW210590   3.277   6.415   4.806
 3231SOL     OW10591   2.464   2.472   2.609
 3231SOL    HW110592   2.469   2.400   2.679
 3231SOL    HW210593   2.402   2.544   2.641
 3232SOL     OW10594   2.767   4.729   3.335
 3232SOL    HW110595   2.707   4.704   3.259
 3232SOL    HW210596   2.751   4.667   3.411
 3233SOL     OW10597   2.855   0.225   6.094
 3233SOL    HW110598   2.755   0.216   6.093
 3233SOL    HW210599   2.892   0.177   6.173
 3234SOL     OW10600   3.403   3.667   0.861
 3234SOL    HW110601   3.371   3.631   0.948
 3234SOL    HW210602   3.498   3.696   0.870
 3235SOL     OW10603   6.962   1.737   2.698
 3235SOL    HW110604   6.945   1.754   2.601
 3235SOL    HW210605   6.915   1.806   2.753
 3236SOL     OW10606   5.758   0.153   0.340
 3236SOL    HW110607   5.683   0.198   0.291
 3236SOL    HW210608   5.743   0.161   0.438
 3237SOL     OW10609   6.030   1.089   5.479
 3237SOL    HW110610   5.982   1.176   5.480
 3237SOL    HW210611   5.968   1.016   5.452
 3238SOL     OW10612   0.246   5.163   0.859
 3238SOL    HW110613   0.333   5.122   0.887
 3238SOL    HW210614   0.210   5.113   0.780
 3239SOL     OW10615   6.270   0.330   5.270
 3239SOL    HW110616   6.334   0.332   5.194
 3239SOL    HW210617   6.271   0.239   5.313
 3240SOL     OW10618   0.983   1.890   1.915
 3240SOL    HW110619   0.931   1.908   1.832
 3240SOL    HW210620   1.045   1.813   1.900
 3241SOL     OW10621   0.216   2.670   5.837
 3241SOL    HW110622   0.194   2.619   5.920
 3241SOL    HW210623   0.280   2.743   5.859
 3242SOL     OW10624   6.992   4.884   5.244
 3242SOL    HW110625   6.915   4.852   5.299
 3242SOL    HW210626   0.017   4.806   5.199
 3243SOL     OW10627   5.819   5.725   4.454
 3243SOL    HW110628   5.892   5.790   4.433
 3243SOL    HW210629   5.735   5.774   4.474
 3244SOL     OW10630   4.638   0.033   6.775
 3244SOL    HW110631   4.607   0.114   6.725
 3244SOL    HW210632   4.666   6.980   6.711
 3245SOL     OW10633   2.893   5.861   4.111
 3245SOL    HW110634   2.893   5.959   4.087
 3245SOL    HW210635   2.895   5.807   4.027
 3246SOL     OW10636   6.734   5.768   3.278
 3246SOL    HW110637   6.729   5.715   3.193
 3246SOL    HW210638   6.822   5.751   3.322
 3247SOL     OW10639   1.848   4.219   4.128
 3247SOL    HW110640   1.749   4.208   4.117
 3247SOL    HW210641   1.867   4.271   4.211
 3248SOL     OW10642   6.307   2.586   3.274
 3248SOL    HW110643   6.354   2.581   3.186
 3248SOL    HW210644   6.370   2.618   3.344
 3249SOL     OW10645   4.004   3.941   4.432
 3249SOL    HW110646   3.967   3.998   4.505
 3249SOL    HW210647   4.032   3.853   4.469
 3250SOL     OW10648   4.745   6.295   3.779
 3250SOL    HW110649   4.665   6.347   3.809
 3250SOL    HW210650   4.722   6.243   3.697
 3251SOL     OW10651   2.558   2.082   2.540
 3251SOL    HW110652   2.460   2.095   2.558
 3251SOL    HW210653   2.607   2.165   2.566
 3252SOL     OW10654   1.870   1.805   2.728
 3252SOL    HW110655   1.864   1.787   2.630
 3252SOL    HW210656   1.787   1.852   2.758
 3253SOL     OW10657   6.623   4.057   1.013
 3253SOL    HW110658   6.579   4.145   1.031
 3253SOL    HW210659   6.684   4.066   0.934
 3254SOL     OW10660   6.116   6.800   0.561
 3254SOL    HW110661   6.082   6.851   0.482
 3254SOL    HW210662   6.200   6.842   0.594
 3255SOL     OW10663   3.647   5.350   2.793
 3255SOL    HW110664   3.591   5.279   2.751
 3255SOL    HW210665   3.726   5.309   2.839
 3256SOL     OW10666   5.616   2.516   1.628
 3256SOL    HW110667   5.587   2.606   1.598
 3256SOL    HW210668   5.695   2.487   1.575
 3257SOL     OW10669   2.384   1.257   3.135
 3257SOL    HW110670   2.349   1.310   3.058
 3257SOL    HW210671   2.438   1.316   3.196
 3258SOL     OW10672   0.914   5.216   3.784
 3258SOL    HW110673   0.955   5.281   3.721
 3258SOL    HW210674   0.896   5.261   3.872
 3259SOL     OW10675   5.728   5.375   3.932
 3259SOL    HW110676   5.760   5.299   3.874
 3259SOL    HW210677   5.797   5.393   4.002
 3260SOL     OW10678   1.587   4.346   3.449
 3260SOL    HW110679   1.600   4.406   3.370
 3260SOL    HW210680   1.671   4.293   3.465
 3261SOL     OW10681   6.150   6.685   3.935
 3261SOL    HW110682   6.208   6.753   3.981
 3261SOL    HW210683   6.164   6.595   3.976
 3262SOL     OW10684   2.896   2.085   3.141
 3262SOL    HW110685   2.876   2.179   3.115
 3262SOL    HW210686   2.977   2.053   3.091
 3263SOL     OW10687   5.991   0.177   1.732
 3263SOL    HW110688   5.989   0.113   1.808
 3263SOL    HW210689   6.024   0.131   1.649
 3264SOL     OW10690   0.916   4.754   6.347
 3264SOL    HW110691   0.853   4.820   6.387
 3264SOL    HW210692   0.897   4.745   6.249
 3265SOL     OW10693   0.258   6.001   6.036
 3265SOL    HW110694   0.199   5.949   6.097
 3265SOL    HW210695   0.278   5.947   5.954
 3266SOL     OW10696   3.403   4.659   6.255
 3266SOL    HW110697   3.369   4.567   6.273
 3266SOL    HW210698   3.390   4.682   6.159
 3267SOL     OW10699   3.386   0.349   1.099
 3267SOL    HW110700   3.402   0.392   1.010
 3267SOL    HW210701   3.406   0.415   1.171
 3268SOL     OW10702   5.327   4.477   1.754
 3268SOL    HW110703   5.266   4.408   1.792
 3268SOL    HW210704   5.280   4.565   1.750
 3269SOL     OW10705   2.325   4.906   1.267
 3269SOL    HW110706   2.377   4.828   1.232
 3269SOL    HW210707   2.294   4.885   1.360
 3270SOL     OW10708   1.545   3.409   6.170
 3270SOL    HW110709   1.589   3.455   6.093
 3270SOL    HW210710   1.594   3.432   6.254
 3271SOL     OW10711   1.042   3.324   1.316
 3271SOL    HW110712   1.118   3.383   1.345
 3271SOL    HW210713   1.078   3.237   1.282
 3272SOL     OW10714   4.035   6.970   1.152
 3272SOL    HW110715   3.976   6.891   1.170
 3272SOL    HW210716   4.107   6.974   1.222
 3273SOL     OW10717   4.035   3.809   6.830
 3273SOL    HW110718   3.954   3.862   6.858
 3273SOL    HW210719   4.084   3.777   6.910
 3274SOL     OW10720   4.394   0.490   1.873
 3274SOL    HW110721   4.464   0.492   1.802
 3274SOL    HW210722   4.315   0.437   1.841
 3275SOL     OW10723   5.521   0.635   2.044
 3275SOL    HW110724   5.466   0.644   2.128
 3275SOL    HW210725   5.501   0.712   1.984
 3276SOL     OW10726   5.515   5.566   0.436
 3276SOL    HW110727   5.583   5.498   0.463
 3276SOL    HW210728   5.451   5.582   0.511
 3277SOL     OW10729   3.447   1.387   2.540
 3277SOL    HW110730   3.354   1.365   2.570
 3277SOL    HW210731   3.480   1.468   2.589
 3278SOL     OW10732   5.122   1.459   6.765
 3278SOL    HW110733   5.142   1.414   6.678
 3278SOL    HW210734   5.024   1.448   6.786
 3279SOL     OW10735   4.284   0.617   2.149
 3279SOL    HW110736   4.300   0.691   2.214
 3279SOL    HW210737   4.369   0.595   2.101
 3280SOL     OW10738   6.918   2.730   4.128
 3280SOL    HW110739   6.995   2.789   4.154
 3280SOL    HW210740   6.941   2.634   4.146
 3281SOL     OW10741   5.756   2.448   1.849
 3281SOL    HW110742   5.710   2.483   1.768
 3281SOL    HW210743   5.852   2.475   1.847
 3282SOL     OW10744   6.090   4.238   5.047
 3282SOL    HW110745   6.084   4.261   5.144
 3282SOL    HW210746   6.161   4.168   5.033
 3283SOL     OW10747   2.795   1.504   0.376
 3283SOL    HW110748   2.707   1.468   0.407
 3283SOL    HW210749   2.782   1.594   0.335
 3284SOL     OW10750   2.231   0.491   5.028
 3284SOL    HW110751   2.314   0.540   5.055
 3284SOL    HW210752   2.228   0.482   4.928
 3285SOL     OW10753   3.830   2.179   3.899
 3285SOL    HW110754   3.824   2.081   3.885
 3285SOL    HW210755   3.759   2.209   3.963
 3286SOL     OW10756   1.657   3.400   2.820
 3286SOL    HW110757   1.705   3.472   2.871
 3286SOL    HW210758   1.693   3.311   2.846
 3287SOL     OW10759   2.387   1.310   0.414
 3287SOL    HW110760   2.296   1.346   0.437
 3287SOL    HW210761   2.382   1.211   0.404
 3288SOL     OW10762   2.978   5.476   1.822
 3288SOL    HW110763   3.038   5.478   1.743
 3288SOL    HW210764   3.009   5.405   1.886
 3289SOL     OW10765   4.823   0.539   6.967
 3289SOL    HW110766   4.827   0.515   0.046
 3289SOL    HW210767   4.741   0.500   6.926
 3290SOL     OW10768   0.739   5.028   6.660
 3290SOL    HW110769   0.685   4.997   6.582
 3290SOL    HW210770   0.800   4.954   6.690
 3291SOL     OW10771   5.157   6.132   5.765
 3291SOL    HW110772   5.245   6.119   5.813
 3291SOL    HW210773   5.117   6.219   5.792
 3292SOL     OW10774   0.048   3.505   0.509
 3292SOL    HW110775   7.018   3.418   0.497
 3292SOL    HW210776   0.013   3.572   0.443
 3293SOL     OW10777   6.679   4.447   2.526
 3293SOL    HW110778   6.734   4.528   2.547
 3293SOL    HW210779   6.632   4.416   2.609
 3294SOL     OW10780   3.905   2.813   5.428
 3294SOL    HW110781   3.928   2.857   5.515
 3294SOL    HW210782   3.966   2.736   5.413
 3295SOL     OW10783   1.449   2.983   3.579
 3295SOL    HW110784   1.400   2.896   3.586
 3295SOL    HW210785   1.384   3.058   3.594
 3296SOL     OW10786   2.622   0.620   6.816
 3296SOL    HW110787   2.610   0.532   6.864
 3296SOL    HW210788   2.533   0.652   6.784
 3297SOL     OW10789   3.590   0.543   5.732
 3297SOL    HW110790   3.581   0.546   5.831
 3297SOL    HW210791   3.686   0.538   5.707
 3298SOL     OW10792   3.635   4.229   6.148
 3298SOL    HW110793   3.726   4.249   6.186
 3298SOL    HW210794   3.570   4.216   6.223
 3299SOL     OW10795   2.286   0.085   4.384
 3299SOL    HW110796   2.294   0.048   4.291
 3299SOL    HW210797   2.274   0.009   4.448
 3300SOL     OW10798   1.560   1.038   3.543
 3300SOL    HW110799   1.486   1.104   3.533
 3300SOL    HW210800   1.589   1.036   3.639
 3301SOL     OW10801   1.358   1.085   2.356
 3301SOL    HW110802   1.448   1.045   2.377
 3301SOL    HW210803   1.332   1.148   2.429
 3302SOL     OW10804   1.349   4.563   5.071
 3302SOL    HW110805   1.271   4.561   5.009
 3302SOL    HW210806   1.434   4.566   5.018
 3303SOL     OW10807   3.973   3.623   0.688
 3303SOL    HW110808   3.974   3.706   0.632
 3303SOL    HW210809   3.883   3.614   0.731
 3304SOL     OW10810   2.252   3.950   0.725
 3304SOL    HW110811   2.235   4.041   0.764
 3304SOL    HW210812   2.196   3.883   0.773
 3305SOL     OW10813   2.933   2.813   7.001
 3305SOL    HW110814   2.902   2.890   6.944
 3305SOL    HW210815   3.031   2.801   6.990
 3306SOL     OW10816   2.742   0.346   1.236
 3306SOL    HW110817   2.709   0.251   1.228
 3306SOL    HW210818   2.665   0.407   1.251
 3307SOL     OW10819   2.190   5.566   4.794
 3307SOL    HW110820   2.142   5.653   4.799
 3307SOL    HW210821   2.159   5.515   4.713
 3308SOL     OW10822   4.593   5.347   1.064
 3308SOL    HW110823   4.494   5.343   1.051
 3308SOL    HW210824   4.627   5.256   1.089
 3309SOL     OW10825   5.732   3.845   3.767
 3309SOL    HW110826   5.765   3.861   3.860
 3309SOL    HW210827   5.633   3.833   3.769
 3310SOL     OW10828   6.595   4.415   6.350
 3310SOL    HW110829   6.678   4.469   6.360
 3310SOL    HW210830   6.620   4.320   6.332
 3311SOL     OW10831   2.168   2.635   6.979
 3311SOL    HW110832   2.222   2.667   6.901
 3311SOL    HW210833   2.226   2.581   0.022
 3312SOL     OW10834   4.678   3.543   0.278
 3312SOL    HW110835   4.709   3.467   0.335
 3312SOL    HW210836   4.655   3.621   0.337
 3313SOL     OW10837   0.657   0.167   3.747
 3313SOL    HW110838   0.723   0.101   3.784
 3313SOL    HW210839   0.613   0.216   3.823
 3314SOL     OW10840   3.289   6.294   3.127
 3314SOL    HW110841   3.320   6.278   3.221
 3314SOL    HW210842   3.272   6.206   3.083
 3315SOL     OW10843   0.999   6.523   4.023
 3315SOL    HW110844   0.986   6.608   4.075
 3315SOL    HW210845   0.917   6.502   3.971
 3316SOL     OW10846   3.387   1.974   0.334
 3316SOL    HW110847   3.441   1.939   0.256
 3316SOL    HW210848   3.437   1.956   0.419
 3317SOL     OW10849   5.735   2.421   1.237
 3317SOL    HW110850   5.773   2.383   1.153
 3317SOL    HW210851   5.805   2.423   1.308
 3318SOL     OW10852   3.805   3.164   0.686
 3318SOL    HW110853   3.818   3.164   0.786
 3318SOL    HW210854   3.837   3.078   0.648
 3319SOL     OW10855   6.756   6.542   4.055
 3319SOL    HW110856   6.710   6.490   3.983
 3319SOL    HW210857   6.738   6.640   4.041
 3320SOL     OW10858   6.273   0.489   2.196
 3320SOL    HW110859   6.369   0.500   2.222
 3320SOL    HW210860   6.255   0.539   2.111
 3321SOL     OW10861   4.569   1.899   6.829
 3321SOL    HW110862   4.525   1.956   6.898
 3321SOL    HW210863   4.666   1.891   6.849
 3322SOL     OW10864   5.867   3.480   1.179
 3322SOL    HW110865   5.943   3.475   1.244
 3322SOL    HW210866   5.780   3.482   1.228
 3323SOL     OW10867   1.448   1.001   2.084
 3323SOL    HW110868   1.510   0.926   2.065
 3323SOL    HW210869   1.427   1.004   2.182
 3324SOL     OW10870   6.170   5.107   5.637
 3324SOL    HW110871   6.251   5.157   5.606
 3324SOL    HW210872   6.134   5.150   5.719
 3325SOL     OW10873   2.836   5.496   5.862
 3325SOL    HW110874   2.800   5.467   5.773
 3325SOL    HW210875   2.843   5.417   5.923
 3326SOL     OW10876   3.523   2.045   2.134
 3326SOL    HW110877   3.513   1.973   2.066
 3326SOL    HW210878   3.580   2.118   2.096
 3327SOL     OW10879   1.953   6.019   5.896
 3327SOL    HW110880   1.946   6.073   5.812
 3327SOL    HW210881   2.006   6.070   5.964
 3328SOL     OW10882   4.762   3.144   5.360
 3328SOL    HW110883   4.784   3.207   5.285
 3328SOL    HW210884   4.827   3.068   5.359
 3329SOL     OW10885   0.177   6.356   5.724
 3329SOL    HW110886   0.171   6.449   5.759
 3329SOL    HW210887   0.168   6.291   5.800
 3330SOL     OW10888   6.895   2.778   2.852
 3330SOL    HW110889   6.881   2.696   2.907
 3330SOL    HW210890   6.807   2.810   2.817
 3331SOL     OW10891   1.928   2.865   0.514
 3331SOL    HW110892   1.930   2.765   0.514
 3331SOL    HW210893   1.833   2.896   0.520
 3332SOL     OW10894   0.422   3.886   1.673
 3332SOL    HW110895   0.379   3.975   1.682
 3332SOL    HW210896   0.448   3.852   1.764
 3333SOL     OW10897   3.130   5.960   5.477
 3333SOL    HW110898   3.126   6.043   5.533
 3333SOL    HW210899   3.110   5.880   5.534
 3334SOL     OW10900   1.433   2.856   0.967
 3334SOL    HW110901   1.385   2.769   0.954
 3334SOL    HW210902   1.528   2.839   0.990
 3335SOL     OW10903   5.417   4.606   4.592
 3335SOL    HW110904   5.400   4.512   4.620
 3335SOL    HW210905   5.516   4.621   4.584
 3336SOL     OW10906   3.548   6.570   5.575
 3336SOL    HW110907   3.526   6.553   5.479
 3336SOL    HW210908   3.499   6.651   5.607
 3337SOL     OW10909   3.730   1.675   0.667
 3337SOL    HW110910   3.687   1.703   0.753
 3337SOL    HW210911   3.681   1.597   0.629
 3338SOL     OW10912   6.852   5.060   6.896
 3338SOL    HW110913   6.798   5.117   6.959
 3338SOL    HW210914   6.814   5.067   6.804
 3339SOL     OW10915   0.663   4.852   6.160
 3339SOL    HW110916   0.728   4.888   6.226
 3339SOL    HW210917   0.583   4.911   6.155
 3340SOL     OW10918   4.158   0.196   1.810
 3340SOL    HW110919   4.103   0.114   1.827
 3340SOL    HW210920   4.097   0.274   1.793
 3341SOL     OW10921   0.850   0.372   0.477
 3341SOL    HW110922   0.898   0.311   0.540
 3341SOL    HW210923   0.787   0.430   0.528
 3342SOL     OW10924   2.469   0.241   5.240
 3342SOL    HW110925   2.495   0.294   5.159
 3342SOL    HW210926   2.380   0.198   5.224
 3343SOL     OW10927   6.983   2.354   1.368
 3343SOL    HW110928   0.016   2.284   1.418
 3343SOL    HW210929   0.026   2.401   1.305
 3344SOL     OW10930   1.357   2.618   6.420
 3344SOL    HW110931   1.332   2.621   6.517
 3344SOL    HW210932   1.283   2.575   6.368
 3345SOL     OW10933   2.733   3.322   5.815
 3345SOL    HW110934   2.664   3.394   5.805
 3345SOL    HW210935   2.690   3.238   5.848
 3346SOL     OW10936   1.941   6.187   2.440
 3346SOL    HW110937   1.948   6.087   2.440
 3346SOL    HW210938   2.025   6.226   2.403
 3347SOL     OW10939   6.013   3.952   3.653
 3347SOL    HW110940   5.939   3.890   3.679
 3347SOL    HW210941   6.047   4.000   3.734
 3348SOL     OW10942   3.447   3.722   3.298
 3348SOL    HW110943   3.522   3.671   3.340
 3348SOL    HW210944   3.367   3.719   3.358
 3349SOL     OW10945   4.820   3.002   6.866
 3349SOL    HW110946   4.915   3.030   6.853
 3349SOL    HW210947   4.763   3.083   6.883
 3350SOL     OW10948   2.175   2.803   1.409
 3350SOL    HW110949   2.178   2.732   1.479
 3350SOL    HW210950   2.200   2.764   1.320
 3351SOL     OW10951   5.779   2.877   0.349
 3351SOL    HW110952   5.861   2.828   0.382
 3351SOL    HW210953   5.699   2.817   0.358
 3352SOL     OW10954   6.990   3.445   0.093
 3352SOL    HW110955   6.900   3.404   0.077
 3352SOL    HW210956   0.016   3.399   0.170
 3353SOL     OW10957   1.528   6.510   5.934
 3353SOL    HW110958   1.558   6.418   5.961
 3353SOL    HW210959   1.545   6.523   5.837
 3354SOL     OW10960   0.723   0.612   1.886
 3354SOL    HW110961   0.808   0.581   1.843
 3354SOL    HW210962   0.724   0.588   1.983
 3355SOL     OW10963   6.037   0.777   2.665
 3355SOL    HW110964   6.000   0.865   2.695
 3355SOL    HW210965   6.104   0.744   2.731
 3356SOL     OW10966   1.260   3.809   6.540
 3356SOL    HW110967   1.209   3.726   6.519
 3356SOL    HW210968   1.197   3.885   6.552
 3357SOL     OW10969   2.512   5.366   2.175
 3357SOL    HW110970   2.415   5.352   2.192
 3357SOL    HW210971   2.558   5.277   2.173
 3358SOL     OW10972   6.725   4.168   3.255
 3358SOL    HW110973   6.700   4.082   3.299
 3358SOL    HW210974   6.728   4.155   3.156
 3359SOL     OW10975   2.343   1.488   1.612
 3359SOL    HW110976   2.362   1.489   1.514
 3359SOL    HW210977   2.253   1.446   1.628
 3360SOL     OW10978   2.670   0.766   5.965
 3360SOL    HW110979   2.696   0.860   5.985
 3360SOL    HW210980   2.742   0.704   5.995
 3361SOL     OW10981   2.868   1.070   2.952
 3361SOL    HW110982   2.782   1.119   2.969
 3361SOL    HW210983   2.886   1.007   3.028
 3362SOL     OW10984   3.055   1.659   4.624
 3362SOL    HW110985   3.084   1.717   4.700
 3362SOL    HW210986   2.984   1.595   4.655
 3363SOL     OW10987   6.599   0.739   6.851
 3363SOL    HW110988   6.667   0.696   6.911
 3363SOL    HW210989   6.508   0.703   6.871
 3364SOL     OW10990   2.082   5.469   5.053
 3364SOL    HW110991   2.090   5.431   4.961
 3364SOL    HW210992   2.089   5.395   5.120
 3365SOL     OW10993   6.147   2.959   5.202
 3365SOL    HW110994   6.222   2.899   5.230
 3365SOL    HW210995   6.132   2.949   5.103
 3366SOL     OW10996   5.636   0.741   0.128
 3366SOL    HW110997   5.672   0.670   0.189
 3366SOL    HW210998   5.696   0.750   0.049
 3367SOL     OW10999   1.983   0.083   2.768
 3367SOL    HW111000   2.079   0.071   2.796
 3367SOL    HW211001   1.970   0.045   2.677
 3368SOL     OW11002   6.377   1.376   4.729
 3368SOL    HW111003   6.349   1.330   4.644
 3368SOL    HW211004   6.297   1.390   4.787
 3369SOL     OW11005   3.635   5.793   6.454
 3369SOL    HW111006   3.701   5.824   6.522
 3369SOL    HW211007   3.591   5.873   6.411
 3370SOL     OW11008   5.826   0.128   5.120
 3370SOL    HW111009   5.779   0.105   5.206
 3370SOL    HW211010   5.902   0.065   5.106
 3371SOL     OW11011   6.840   4.842   1.165
 3371SOL    HW111012   6.784   4.898   1.227
 3371SOL    HW211013   6.904   4.901   1.117
 3372SOL     OW11014   1.264   2.322   2.889
 3372SOL    HW111015   1.315   2.255   2.944
 3372SOL    HW211016   1.166   2.312   2.908
 3373SOL     OW11017   0.638   2.785   6.598
 3373SOL    HW111018   0.546   2.817   6.622
 3373SOL    HW211019   0.684   2.854   6.542
 3374SOL     OW11020   3.681   6.337   5.049
 3374SOL    HW111021   3.702   6.243   5.073
 3374SOL    HW211022   3.618   6.339   4.971
 3375SOL     OW11023   3.555   3.966   4.795
 3375SOL    HW111024   3.541   4.057   4.756
 3375SOL    HW211025   3.573   3.901   4.721
 3376SOL     OW11026   3.345   3.414   1.712
 3376SOL    HW111027   3.305   3.506   1.709
 3376SOL    HW211028   3.293   3.358   1.776
 3377SOL     OW11029   3.082   5.544   5.618
 3377SOL    HW111030   3.031   5.460   5.600
 3377SOL    HW211031   3.158   5.551   5.554
 3378SOL     OW11032   0.317   1.254   0.535
 3378SOL    HW111033   0.313   1.167   0.582
 3378SOL    HW211034   0.265   1.323   0.587
 3379SOL     OW11035   5.857   5.183   5.282
 3379SOL    HW111036   5.957   5.187   5.282
 3379SOL    HW211037   5.822   5.219   5.196
 3380SOL     OW11038   0.556   3.596   5.390
 3380SOL    HW111039   0.599   3.641   5.468
 3380SOL    HW211040   0.474   3.647   5.363
 3381SOL     OW11041   3.247   2.521   1.666
 3381SOL    HW111042   3.237   2.525   1.567
 3381SOL    HW211043   3.339   2.549   1.692
 3382SOL     OW11044   0.373   6.375   0.375
 3382SOL    HW111045   0.425   6.433   0.438
 3382SOL    HW211046   0.287   6.347   0.418
 3383SOL     OW11047   0.769   3.662   1.420
 3383SOL    HW111048   0.809   3.656   1.512
 3383SOL    HW211049   0.744   3.571   1.389
 3384SOL     OW11050   3.156   3.361   4.097
 3384SOL    HW111051   3.236   3.422   4.101
 3384SOL    HW211052   3.113   3.368   4.007
 3385SOL     OW11053   6.924   3.984   4.201
 3385SOL    HW111054   6.954   3.980   4.106
 3385SOL    HW211055   6.826   3.965   4.206
 3386SOL     OW11056   5.686   4.380   4.464
 3386SOL    HW111057   5.614   4.416   4.406
 3386SOL    HW211058   5.771   4.429   4.446
 3387SOL     OW11059   3.517   1.809   2.737
 3387SOL    HW111060   3.454   1.805   2.814
 3387SOL    HW211061   3.544   1.904   2.721
 3388SOL     OW11062   5.323   2.264   1.579
 3388SOL    HW111063   5.376   2.311   1.509
 3388SOL    HW211064   5.237   2.313   1.595
 3389SOL     OW11065   4.308   5.737   2.839
 3389SOL    HW111066   4.380   5.793   2.798
 3389SOL    HW211067   4.220   5.783   2.831
 3390SOL     OW11068   4.613   1.553   5.266
 3390SOL    HW111069   4.513   1.560   5.272
 3390SOL    HW211070   4.646   1.609   5.191
 3391SOL     OW11071   3.600   2.104   4.072
 3391SOL    HW111072   3.596   2.091   4.172
 3391SOL    HW211073   3.510   2.134   4.040
 3392SOL     OW11074   5.245   6.078   3.168
 3392SOL    HW111075   5.265   6.140   3.243
 3392SOL    HW211076   5.247   5.984   3.201
 3393SOL     OW11077   0.038   0.125   7.017
 3393SOL    HW111078   0.057   0.172   6.931
 3393SOL    HW211079   0.122   0.116   0.052
 3394SOL     OW11080   5.466   1.265   2.592
 3394SOL    HW111081   5.374   1.225   2.596
 3394SOL    HW211082   5.479   1.328   2.669
 3395SOL     OW11083   1.519   3.769   4.985
 3395SOL    HW111084   1.490   3.677   5.013
 3395SOL    HW211085   1.474   3.794   4.900
 3396SOL     OW11086   6.395   3.762   4.291
 3396SOL    HW111087   6.336   3.765   4.210
 3396SOL    HW211088   6.430   3.669   4.303
 3397SOL     OW11089   3.830   5.527   6.279
 3397SOL    HW111090   3.841   5.619   6.241
 3397SOL    HW211091   3.741   5.519   6.323
 3398SOL     OW11092   0.718   0.717   3.152
 3398SOL    HW111093   0.813   0.705   3.122
 3398SOL    HW211094   0.705   0.672   3.240
 3399SOL     OW11095   4.553   5.881   4.742
 3399SOL    HW111096   4.508   5.934   4.813
 3399SOL    HW211097   4.486   5.857   4.671
 3400SOL     OW11098   5.015   2.670   0.309
 3400SOL    HW111099   5.015   2.614   0.392
 3400SOL    HW211100   5.002   2.612   0.229
 3401SOL     OW11101   6.956   4.251   6.291
 3401SOL    HW111102   6.946   4.171   6.231
 3401SOL    HW211103   7.002   4.324   6.241
 3402SOL     OW11104   5.432   5.084   2.164
 3402SOL    HW111105   5.464   5.178   2.179
 3402SOL    HW211106   5.450   5.030   2.246
 3403SOL     OW11107   3.802   1.433   5.570
 3403SOL    HW111108   3.755   1.360   5.521
 3403SOL    HW211109   3.897   1.438   5.540
 3404SOL     OW11110   4.628   6.445   1.672
 3404SOL    HW111111   4.660   6.353   1.695
 3404SOL    HW211112   4.664   6.511   1.738
 3405SOL     OW11113   6.056   4.698   6.943
 3405SOL    HW111114   6.011   4.702   0.015
 3405SOL    HW211115   6.155   4.707   6.955
 3406SOL     OW11116   0.973   3.985   1.530
 3406SOL    HW111117   0.999   4.030   1.445
 3406SOL    HW211118   1.048   3.991   1.596
 3407SOL     OW11119   1.107   5.034   2.670
 3407SOL    HW111120   1.082   4.939   2.690
 3407SOL    HW211121   1.206   5.043   2.669
 3408SOL     OW11122   5.290   3.545   2.935
 3408SOL    HW111123   5.325   3.638   2.943
 3408SOL    HW211124   5.291   3.501   3.025
 3409SOL     OW11125   2.714   1.049   6.089
 3409SOL    HW111126   2.693   1.086   5.999
 3409SOL    HW211127   2.806   1.078   6.117
 3410SOL     OW11128   6.963   2.171   0.280
 3410SOL    HW111129   6.944   2.132   0.190
 3410SOL    HW211130   6.877   2.185   0.329
 3411SOL     OW11131   4.564   2.047   2.309
 3411SOL    HW111132   4.507   2.000   2.241
 3411SOL    HW211133   4.639   1.986   2.336
 3412SOL     OW11134   4.567   5.722   6.751
 3412SOL    HW111135   4.666   5.730   6.765
 3412SOL    HW211136   4.536   5.633   6.785
 3413SOL     OW11137   4.962   1.280   2.554
 3413SOL    HW111138   4.947   1.314   2.461
 3413SOL    HW211139   4.955   1.356   2.618
 3414SOL     OW11140   3.867   0.482   5.722
 3414SOL    HW111141   3.870   0.403   5.784
 3414SOL    HW211142   3.884   0.565   5.774
 3415SOL     OW11143   0.995   5.155   4.083
 3415SOL    HW111144   1.061   5.164   4.008
 3415SOL    HW211145   0.948   5.242   4.097
 3416SOL     OW11146   2.060   4.395   6.063
 3416SOL    HW111147   2.068   4.476   6.004
 3416SOL    HW211148   1.966   4.361   6.059
 3417SOL     OW11149   5.261   0.729   1.239
 3417SOL    HW111150   5.170   0.766   1.260
 3417SOL    HW211151   5.276   0.733   1.140
 3418SOL     OW11152   3.308   2.936   6.445
 3418SOL    HW111153   3.234   2.909   6.383
 3418SOL    HW211154   3.272   2.941   6.538
 3419SOL     OW11155   4.954   3.354   6.560
 3419SOL    HW111156   4.932   3.367   6.656
 3419SOL    HW211157   4.904   3.274   6.525
 3420SOL     OW11158   4.158   1.511   4.027
 3420SOL    HW111159   4.080   1.572   4.012
 3420SOL    HW211160   4.227   1.527   3.957
 3421SOL     OW11161   0.123   6.313   2.644
 3421SOL    HW111162   0.196   6.251   2.618
 3421SOL    HW211163   0.035   6.268   2.632
 3422SOL     OW11164   3.145   2.141   2.773
 3422SOL    HW111165   3.201   2.124   2.854
 3422SOL    HW211166   3.181   2.088   2.696
 3423SOL     OW11167   3.279   0.554   1.593
 3423SOL    HW111168   3.231   0.494   1.657
 3423SOL    HW211169   3.244   0.648   1.602
 3424SOL     OW11170   4.147   1.213   1.385
 3424SOL    HW111171   4.142   1.116   1.408
 3424SOL    HW211172   4.094   1.266   1.451
 3425SOL     OW11173   4.187   4.043   1.721
 3425SOL    HW111174   4.247   4.102   1.775
 3425SOL    HW211175   4.227   3.951   1.715
 3426SOL     OW11176   4.696   3.933   0.974
 3426SOL    HW111177   4.784   3.968   1.006
 3426SOL    HW211178   4.675   3.970   0.884
 3427SOL     OW11179   0.694   1.683   0.985
 3427SOL    HW111180   0.728   1.680   0.891
 3427SOL    HW211181   0.615   1.744   0.990
 3428SOL     OW11182   4.292   4.970   3.075
 3428SOL    HW111183   4.319   4.986   3.170
 3428SOL    HW211184   4.306   5.053   3.023
 3429SOL     OW11185   0.454   3.080   0.478
 3429SOL    HW111186   0.493   3.125   0.397
 3429SOL    HW211187   0.518   3.010   0.511
 3430SOL     OW11188   1.400   5.304   6.457
 3430SOL    HW111189   1.306   5.322   6.485
 3430SOL    HW211190   1.423   5.208   6.473
 3431SOL     OW11191   1.804   6.129   6.720
 3431SOL    HW111192   1.871   6.077   6.668
 3431SOL    HW211193   1.762   6.069   6.789
 3432SOL     OW11194   3.483   1.680   6.744
 3432SOL    HW111195   3.388   1.703   6.722
 3432SOL    HW211196   3.503   1.588   6.713
 3433SOL     OW11197   4.948   0.765   4.590
 3433SOL    HW111198   5.041   0.751   4.554
 3433SOL    HW211199   4.886   0.699   4.549
 3434SOL     OW11200   4.402   1.902   3.322
 3434SOL    HW111201   4.486   1.900   3.268
 3434SOL    HW211202   4.388   1.813   3.366
 3435SOL     OW11203   0.914   1.483   0.242
 3435SOL    HW111204   1.007   1.453   0.263
 3435SOL    HW211205   0.886   1.448   0.153
 3436SOL     OW11206   4.518   6.779   2.781
 3436SOL    HW111207   4.461   6.698   2.765
 3436SOL    HW211208   4.467   6.861   2.755
 3437SOL     OW11209   4.457   0.672   6.489
 3437SOL    HW111210   4.481   0.664   6.393
 3437SOL    HW211211   4.540   0.685   6.544
 3438SOL     OW11212   1.079   5.490   6.231
 3438SOL    HW111213   1.088   5.581   6.271
 3438SOL    HW211214   1.033   5.429   6.295
 3439SOL     OW11215   2.608   0.229   3.745
 3439SOL    HW111216   2.517   0.216   3.706
 3439SOL    HW211217   2.629   0.152   3.806
 3440SOL     OW11218   3.111   2.122   0.547
 3440SOL    HW111219   3.204   2.132   0.512
 3440SOL    HW211220   3.047   2.171   0.487
 3441SOL     OW11221   4.846   0.332   4.111
 3441SOL    HW111222   4.917   0.324   4.040
 3441SOL    HW211223   4.773   0.391   4.078
 3442SOL     OW11224   1.178   4.992   3.035
 3442SOL    HW111225   1.138   5.053   3.103
 3442SOL    HW211226   1.234   5.045   2.971
 3443SOL     OW11227   6.080   6.537   4.470
 3443SOL    HW111228   6.026   6.604   4.521
 3443SOL    HW211229   6.038   6.446   4.479
 3444SOL     OW11230   4.401   5.212   0.223
 3444SOL    HW111231   4.471   5.160   0.272
 3444SOL    HW211232   4.311   5.176   0.244
 3445SOL     OW11233   5.757   5.285   4.751
 3445SOL    HW111234   5.664   5.263   4.782
 3445SOL    HW211235   5.756   5.376   4.708
 3446SOL     OW11236   2.716   6.532   2.317
 3446SOL    HW111237   2.804   6.515   2.363
 3446SOL    HW211238   2.641   6.504   2.378
 3447SOL     OW11239   6.390   4.824   5.301
 3447SOL    HW111240   6.385   4.920   5.275
 3447SOL    HW211241   6.303   4.795   5.340
 3448SOL     OW11242   3.617   3.345   0.735
 3448SOL    HW111243   3.682   3.274   0.709
 3448SOL    HW211244   3.666   3.422   0.777
 3449SOL     OW11245   6.926   6.210   2.921
 3449SOL    HW111246   0.002   6.242   2.904
 3449SOL    HW211247   6.929   6.130   2.980
 3450SOL     OW11248   0.884   2.020   1.585
 3450SOL    HW111249   0.846   2.034   1.494
 3450SOL    HW211250   0.828   1.954   1.635
 3451SOL     OW11251   1.656   4.422   4.435
 3451SOL    HW111252   1.738   4.423   4.492
 3451SOL    HW211253   1.662   4.495   4.367
 3452SOL     OW11254   6.724   1.916   0.659
 3452SOL    HW111255   6.666   1.838   0.635
 3452SOL    HW211256   6.673   2.000   0.643
 3453SOL     OW11257   5.636   6.209   5.374
 3453SOL    HW111258   5.616   6.151   5.295
 3453SOL    HW211259   5.733   6.231   5.375
 3454SOL     OW11260   0.816   1.112   0.755
 3454SOL    HW111261   0.777   1.199   0.724
 3454SOL    HW211262   0.916   1.121   0.760
 3455SOL     OW11263   1.688   2.870   3.856
 3455SOL    HW111264   1.685   2.788   3.798
 3455SOL    HW211265   1.601   2.918   3.849
 3456SOL     OW11266   6.943   0.230   0.460
 3456SOL    HW111267   0.010   0.282   0.465
 3456SOL    HW211268   6.962   0.137   0.427
 3457SOL     OW11269   2.094   6.194   3.826
 3457SOL    HW111270   2.030   6.184   3.903
 3457SOL    HW211271   2.188   6.195   3.861
 3458SOL     OW11272   5.311   4.837   0.497
 3458SOL    HW111273   5.288   4.879   0.585
 3458SOL    HW211274   5.323   4.909   0.428
 3459SOL     OW11275   6.440   6.559   3.099
 3459SOL    HW111276   6.489   6.631   3.049
 3459SOL    HW211277   6.362   6.528   3.044
 3460SOL     OW11278   3.978   2.612   6.678
 3460SOL    HW111279   4.035   2.553   6.736
 3460SOL    HW211280   4.021   2.701   6.668
 3461SOL     OW11281   2.646   5.552   2.799
 3461SOL    HW111282   2.596   5.502   2.870
 3461SOL    HW211283   2.610   5.528   2.709
 3462SOL     OW11284   5.221   2.927   2.645
 3462SOL    HW111285   5.166   2.937   2.562
 3462SOL    HW211286   5.180   2.981   2.719
 3463SOL     OW11287   1.644   3.140   1.567
 3463SOL    HW111288   1.667   3.237   1.561
 3463SOL    HW211289   1.721   3.085   1.535
 3464SOL     OW11290   5.006   1.854   5.774
 3464SOL    HW111291   4.997   1.791   5.851
 3464SOL    HW211292   5.053   1.809   5.699
 3465SOL     OW11293   1.860   4.916   1.483
 3465SOL    HW111294   1.941   4.865   1.454
 3465SOL    HW211295   1.867   4.934   1.581
 3466SOL     OW11296   6.190   4.142   4.282
 3466SOL    HW111297   6.220   4.119   4.374
 3466SOL    HW211298   6.270   4.165   4.226
 3467SOL     OW11299   3.535   2.579   0.970
 3467SOL    HW111300   3.512   2.507   0.904
 3467SOL    HW211301   3.468   2.578   1.044
 3468SOL     OW11302   3.653   1.582   1.172
 3468SOL    HW111303   3.697   1.513   1.229
 3468SOL    HW211304   3.666   1.673   1.211
 3469SOL     OW11305   3.948   5.421   4.976
 3469SOL    HW111306   3.881   5.493   4.993
 3469SOL    HW211307   3.972   5.376   5.062
 3470SOL     OW11308   0.969   2.278   2.471
 3470SOL    HW111309   0.915   2.360   2.489
 3470SOL    HW211310   0.929   2.227   2.395
 3471SOL     OW11311   4.769   2.920   4.897
 3471SOL    HW111312   4.810   2.909   4.806
 3471SOL    HW211313   4.824   2.985   4.950
 3472SOL     OW11314   4.724   1.980   2.826
 3472SOL    HW111315   4.764   1.952   2.739
 3472SOL    HW211316   4.723   2.079   2.832
 3473SOL     OW11317   6.075   4.828   1.862
 3473SOL    HW111318   6.027   4.914   1.879
 3473SOL    HW211319   6.068   4.805   1.765
 3474SOL     OW11320   4.653   4.710   3.924
 3474SOL    HW111321   4.732   4.707   3.862
 3474SOL    HW211322   4.684   4.698   4.018
 3475SOL     OW11323   0.039   4.233   4.251
 3475SOL    HW111324   0.010   4.140   4.231
 3475SOL    HW211325   0.029   4.251   4.349
 3476SOL     OW11326   1.908   1.823   3.207
 3476SOL    HW111327   1.972   1.811   3.283
 3476SOL    HW211328   1.824   1.866   3.240
 3477SOL     OW11329   0.775   3.874   1.868
 3477SOL    HW111330   0.735   3.962   1.844
 3477SOL    HW211331   0.814   3.832   1.787
 3478SOL     OW11332   2.084   0.472   0.970
 3478SOL    HW111333   1.998   0.436   0.934
 3478SOL    HW211334   2.138   0.511   0.895
 3479SOL     OW11335   0.800   4.520   5.140
 3479SOL    HW111336   0.859   4.504   5.219
 3479SOL    HW211337   0.782   4.434   5.093
 3480SOL     OW11338   1.632   4.643   6.314
 3480SOL    HW111339   1.577   4.723   6.338
 3480SOL    HW211340   1.575   4.561   6.322
 3481SOL     OW11341   6.053   0.343   4.734
 3481SOL    HW111342   6.013   0.391   4.812
 3481SOL    HW211343   6.068   0.248   4.758
 3482SOL     OW11344   6.266   3.684   6.601
 3482SOL    HW111345   6.279   3.610   6.668
 3482SOL    HW211346   6.180   3.671   6.553
 3483SOL     OW11347   5.580   2.488   5.436
 3483SOL    HW111348   5.497   2.451   5.477
 3483SOL    HW211349   5.591   2.584   5.464
 3484SOL     OW11350   1.154   3.417   4.847
 3484SOL    HW111351   1.151   3.330   4.799
 3484SOL    HW211352   1.166   3.491   4.781
 3485SOL     OW11353   0.223   3.255   6.838
 3485SOL    HW111354   0.250   3.168   6.797
 3485SOL    HW211355   0.277   3.271   6.921
 3486SOL     OW11356   1.762   6.487   5.464
 3486SOL    HW111357   1.797   6.578   5.439
 3486SOL    HW211358   1.838   6.421   5.462
 3487SOL     OW11359   4.522   1.570   0.008
 3487SOL    HW111360   4.543   1.534   6.935
 3487SOL    HW211361   4.502   1.668   0.002
 3488SOL     OW11362   5.888   6.611   5.010
 3488SOL    HW111363   5.940   6.668   5.075
 3488SOL    HW211364   5.835   6.671   4.949
 3489SOL     OW11365   3.195   5.901   0.798
 3489SOL    HW111366   3.125   5.839   0.765
 3489SOL    HW211367   3.231   5.868   0.886
 3490SOL     OW11368   3.596   6.437   0.660
 3490SOL    HW111369   3.657   6.404   0.731
 3490SOL    HW211370   3.531   6.503   0.698
 3491SOL     OW11371   4.261   4.675   6.017
 3491SOL    HW111372   4.314   4.593   5.993
 3491SOL    HW211373   4.168   4.664   5.982
 3492SOL     OW11374   5.889   4.323   3.307
 3492SOL    HW111375   5.954   4.361   3.241
 3492SOL    HW211376   5.939   4.283   3.384
 3493SOL     OW11377   6.669   3.138   5.562
 3493SOL    HW111378   6.755   3.173   5.526
 3493SOL    HW211379   6.604   3.213   5.572
 3494SOL     OW11380   3.881   1.502   1.946
 3494SOL    HW111381   3.793   1.549   1.950
 3494SOL    HW211382   3.942   1.540   2.016
 3495SOL     OW11383   1.463   3.571   3.118
 3495SOL    HW111384   1.561   3.557   3.124
 3495SOL    HW211385   1.417   3.483   3.107
 3496SOL     OW11386   6.316   4.923   1.412
 3496SOL    HW111387   6.227   4.951   1.377
 3496SOL    HW211388   6.348   4.990   1.479
 3497SOL     OW11389   3.210   0.319   1.980
 3497SOL    HW111390   3.130   0.259   1.987
 3497SOL    HW211391   3.289   0.267   1.949
 3498SOL     OW11392   2.226   2.568   1.522
 3498SOL    HW111393   2.255   2.476   1.552
 3498SOL    HW211394   2.284   2.636   1.565
 3499SOL     OW11395   5.959   6.797   4.665
 3499SOL    HW111396   5.866   6.799   4.701
 3499SOL    HW211397   5.979   6.884   4.620
 3500SOL     OW11398   2.616   2.322   3.754
 3500SOL    HW111399   2.710   2.307   3.786
 3500SOL    HW211400   2.618   2.377   3.671
 3501SOL     OW11401   1.335   6.923   6.087
 3501SOL    HW111402   1.239   6.911   6.109
 3501SOL    HW211403   1.351   6.897   5.992
 3502SOL     OW11404   4.706   2.366   2.354
 3502SOL    HW111405   4.754   2.311   2.285
 3502SOL    HW211406   4.655   2.304   2.414
 3503SOL     OW11407   0.127   5.825   6.513
 3503SOL    HW111408   0.048   5.774   6.549
 3503SOL    HW211409   0.127   5.820   6.413
 3504SOL     OW11410   1.851   0.848   0.227
 3504SOL    HW111411   1.896   0.768   0.186
 3504SOL    HW211412   1.911   0.927   0.219
 3505SOL     OW11413   4.735   3.421   5.825
 3505SOL    HW111414   4.757   3.340   5.771
 3505SOL    HW211415   4.793   3.497   5.795
 3506SOL     OW11416   4.302   4.857   4.995
 3506SOL    HW111417   4.216   4.884   5.038
 3506SOL    HW211418   4.294   4.763   4.961
 3507SOL     OW11419   3.404   0.878   0.759
 3507SOL    HW111420   3.305   0.878   0.768
 3507SOL    HW211421   3.434   0.794   0.713
 3508SOL     OW11422   3.231   1.275   5.453
 3508SOL    HW111423   3.157   1.290   5.519
 3508SOL    HW211424   3.315   1.317   5.486
 3509SOL     OW11425   4.223   5.654   6.480
 3509SOL    HW111426   4.180   5.635   6.568
 3509SOL    HW211427   4.322   5.639   6.488
 3510SOL     OW11428   2.771   2.016   1.301
 3510SOL    HW111429   2.810   1.939   1.352
 3510SOL    HW211430   2.839   2.089   1.294
 3511SOL     OW11431   2.814   4.298   1.643
 3511SOL    HW111432   2.851   4.211   1.675
 3511SOL    HW211433   2.826   4.367   1.715
 3512SOL     OW11434   6.928   5.175   5.484
 3512SOL    HW111435   6.985   5.224   5.418
 3512SOL    HW211436   6.969   5.085   5.504
 3513SOL     OW11437   5.721   2.081   0.996
 3513SOL    HW111438   5.810   2.085   0.951
 3513SOL    HW211439   5.650   2.066   0.928
 3514SOL     OW11440   3.123   1.786   1.990
 3514SOL    HW111441   3.167   1.729   2.059
 3514SOL    HW211442   3.024   1.785   2.003
 3515SOL     OW11443   0.262   4.931   4.438
 3515SOL    HW111444   0.236   4.919   4.343
 3515SOL    HW211445   0.220   4.858   4.493
 3516SOL     OW11446   4.924   0.546   1.149
 3516SOL    HW111447   4.867   0.530   1.068
 3516SOL    HW211448   4.866   0.578   1.224
 3517SOL     OW11449   5.208   0.604   1.469
 3517SOL    HW111450   5.238   0.656   1.389
 3517SOL    HW211451   5.235   0.652   1.552
 3518SOL     OW11452   5.251   0.983   5.100
 3518SOL    HW111453   5.321   0.997   5.030
 3518SOL    HW211454   5.168   1.034   5.075
 3519SOL     OW11455   3.259   1.173   1.059
 3519SOL    HW111456   3.246   1.241   1.131
 3519SOL    HW211457   3.342   1.120   1.077
 3520SOL     OW11458   2.707   5.885   4.464
 3520SOL    HW111459   2.621   5.860   4.419
 3520SOL    HW211460   2.783   5.836   4.421
 3521SOL     OW11461   2.785   2.818   6.394
 3521SOL    HW111462   2.775   2.719   6.382
 3521SOL    HW211463   2.863   2.836   6.455
 3522SOL     OW11464   0.853   6.260   6.406
 3522SOL    HW111465   0.812   6.315   6.479
 3522SOL    HW211466   0.884   6.320   6.333
 3523SOL     OW11467   3.373   6.566   6.935
 3523SOL    HW111468   3.302   6.508   6.975
 3523SOL    HW211469   3.363   6.659   6.970
 3524SOL     OW11470   4.758   1.171   4.011
 3524SOL    HW111471   4.790   1.104   4.078
 3524SOL    HW211472   4.669   1.144   3.976
 3525SOL     OW11473   0.178   3.239   3.286
 3525SOL    HW111474   0.193   3.172   3.359
 3525SOL    HW211475   0.229   3.212   3.205
 3526SOL     OW11476   0.449   6.564   1.924
 3526SOL    HW111477   0.371   6.501   1.925
 3526SOL    HW211478   0.533   6.512   1.915
 3527SOL     OW11479   0.122   3.194   6.390
 3527SOL    HW111480   0.039   3.188   6.446
 3527SOL    HW211481   0.131   3.287   6.354
 3528SOL     OW11482   2.107   5.152   4.532
 3528SOL    HW111483   2.164   5.071   4.543
 3528SOL    HW211484   2.042   5.138   4.458
 3529SOL     OW11485   4.057   4.852   0.750
 3529SOL    HW111486   4.052   4.763   0.706
 3529SOL    HW211487   4.127   4.850   0.822
 3530SOL     OW11488   6.362   6.927   0.685
 3530SOL    HW111489   6.424   6.940   0.607
 3530SOL    HW211490   6.374   6.835   0.722
 3531SOL     OW11491   4.684   2.488   0.413
 3531SOL    HW111492   4.722   2.517   0.325
 3531SOL    HW211493   4.632   2.403   0.400
 3532SOL     OW11494   1.760   0.755   1.520
 3532SOL    HW111495   1.773   0.786   1.614
 3532SOL    HW211496   1.782   0.657   1.515
 3533SOL     OW11497   1.154   1.575   3.367
 3533SOL    HW111498   1.215   1.557   3.290
 3533SOL    HW211499   1.186   1.656   3.417
 3534SOL     OW11500   0.320   0.750   1.131
 3534SOL    HW111501   0.390   0.732   1.062
 3534SOL    HW211502   0.235   0.778   1.086
 3535SOL     OW11503   3.437   5.921   4.136
 3535SOL    HW111504   3.373   5.974   4.082
 3535SOL    HW211505   3.422   5.939   4.234
 3536SOL     OW11506   4.036   1.841   3.123
 3536SOL    HW111507   4.066   1.752   3.089
 3536SOL    HW211508   3.937   1.850   3.110
 3537SOL     OW11509   1.704   0.048   3.640
 3537SOL    HW111510   1.799   0.054   3.609
 3537SOL    HW211511   1.698   7.006   3.719
 3538SOL     OW11512   2.622   5.358   1.916
 3538SOL    HW111513   2.562   5.351   1.996
 3538SOL    HW211514   2.573   5.327   1.835
 3539SOL     OW11515   3.404   3.838   4.377
 3539SOL    HW111516   3.370   3.924   4.414
 3539SOL    HW211517   3.468   3.856   4.302
 3540SOL     OW11518   1.304   2.393   3.821
 3540SOL    HW111519   1.381   2.433   3.871
 3540SOL    HW211520   1.282   2.303   3.858
 3541SOL     OW11521   3.988   3.566   4.383
 3541SOL    HW111522   4.013   3.617   4.466
 3541SOL    HW211523   4.033   3.477   4.385
 3542SOL     OW11524   6.255   5.201   0.980
 3542SOL    HW111525   6.285   5.260   1.054
 3542SOL    HW211526   6.268   5.105   1.006
 3543SOL     OW11527   5.387   2.382   4.433
 3543SOL    HW111528   5.311   2.341   4.485
 3543SOL    HW211529   5.350   2.434   4.356
 3544SOL     OW11530   2.427   6.701   0.225
 3544SOL    HW111531   2.480   6.769   0.275
 3544SOL    HW211532   2.330   6.726   0.227
 3545SOL     OW11533   3.321   4.845   0.734
 3545SOL    HW111534   3.264   4.789   0.794
 3545SOL    HW211535   3.284   4.938   0.730
 3546SOL     OW11536   0.358   4.712   2.230
 3546SOL    HW111537   0.270   4.760   2.232
 3546SOL    HW211538   0.396   4.716   2.137
 3547SOL     OW11539   5.316   4.709   4.362
 3547SOL    HW111540   5.371   4.675   4.438
 3547SOL    HW211541   5.299   4.806   4.374
 3548SOL     OW11542   5.116   3.629   5.919
 3548SOL    HW111543   5.098   3.547   5.865
 3548SOL    HW211544   5.044   3.696   5.902
 3549SOL     OW11545   4.961   3.401   2.719
 3549SOL    HW111546   4.927   3.320   2.672
 3549SOL    HW211547   4.990   3.469   2.651
 3550SOL     OW11548   4.905   1.243   3.550
 3550SOL    HW111549   4.904   1.267   3.647
 3550SOL    HW211550   4.851   1.310   3.499
 3551SOL     OW11551   2.184   6.320   2.792
 3551SOL    HW111552   2.265   6.324   2.850
 3551SOL    HW211553   2.139   6.410   2.792
 3552SOL     OW11554   6.782   4.499   2.922
 3552SOL    HW111555   6.710   4.550   2.969
 3552SOL    HW211556   6.811   4.422   2.979
 3553SOL     OW11557   5.797   2.011   3.492
 3553SOL    HW111558   5.835   1.929   3.450
 3553SOL    HW211559   5.855   2.089   3.470
 3554SOL     OW11560   4.264   5.691   0.072
 3554SOL    HW111561   4.336   5.624   0.088
 3554SOL    HW211562   4.177   5.655   0.107
 3555SOL     OW11563   0.833   2.195   3.498
 3555SOL    HW111564   0.784   2.110   3.479
 3555SOL    HW211565   0.916   2.174   3.551
 3556SOL     OW11566   4.212   1.366   6.607
 3556SOL    HW111567   4.228   1.394   6.701
 3556SOL    HW211568   4.167   1.440   6.557
 3557SOL     OW11569   0.900   0.210   4.450
 3557SOL    HW111570   0.903   0.241   4.544
 3557SOL    HW211571   0.993   0.205   4.413
 3558SOL     OW11572   0.171   6.555   1.690
 3558SOL    HW111573   0.092   6.508   1.729
 3558SOL    HW211574   0.165   6.554   1.590
 3559SOL     OW11575   1.262   0.454   5.549
 3559SOL    HW111576   1.299   0.438   5.641
 3559SOL    HW211577   1.265   0.368   5.497
 3560SOL     OW11578   6.940   6.752   1.435
 3560SOL    HW111579   6.859   6.694   1.440
 3560SOL    HW211580   6.959   6.791   1.525
 3561SOL     OW11581   4.945   4.411   3.853
 3561SOL    HW111582   4.908   4.499   3.824
 3561SOL    HW211583   4.871   4.354   3.889
 3562SOL     OW11584   3.927   2.148   3.002
 3562SOL    HW111585   3.889   2.156   3.095
 3562SOL    HW211586   4.022   2.178   3.003
 3563SOL     OW11587   4.916   6.543   1.587
 3563SOL    HW111588   4.895   6.601   1.508
 3563SOL    HW211589   4.902   6.596   1.671
 3564SOL     OW11590   6.560   4.305   2.897
 3564SOL    HW111591   6.576   4.397   2.933
 3564SOL    HW211592   6.495   4.257   2.955
 3565SOL     OW11593   1.559   1.123   5.184
 3565SOL    HW111594   1.550   1.202   5.124
 3565SOL    HW211595   1.636   1.067   5.154
 3566SOL     OW11596   0.999   4.372   5.888
 3566SOL    HW111597   0.928   4.406   5.827
 3566SOL    HW211598   1.029   4.281   5.857
 3567SOL     OW11599   6.944   2.609   1.511
 3567SOL    HW111600   6.976   2.528   1.462
 3567SOL    HW211601   6.993   2.689   1.478
 3568SOL     OW11602   4.649   4.395   3.584
 3568SOL    HW111603   4.565   4.448   3.580
 3568SOL    HW211604   4.667   4.366   3.678
 3569SOL     OW11605   4.142   3.461   3.477
 3569SOL    HW111606   4.140   3.552   3.519
 3569SOL    HW211607   4.124   3.392   3.547
 3570SOL     OW11608   0.148   1.960   5.068
 3570SOL    HW111609   0.093   2.042   5.086
 3570SOL    HW211610   0.149   1.902   5.149
 3571SOL     OW11611   2.511   6.879   4.301
 3571SOL    HW111612   2.502   6.899   4.203
 3571SOL    HW211613   2.483   6.958   4.355
 3572SOL     OW11614   5.111   4.143   2.112
 3572SOL    HW111615   5.030   4.188   2.150
 3572SOL    HW211616   5.192   4.173   2.163
 3573SOL     OW11617   6.975   4.471   3.899
 3573SOL    HW111618   7.003   4.484   3.804
 3573SOL    HW211619   6.924   4.385   3.907
 3574SOL     OW11620   2.243   1.811   5.724
 3574SOL    HW111621   2.192   1.727   5.743
 3574SOL    HW211622   2.313   1.824   5.794
 3575SOL     OW11623   5.197   0.407   6.638
 3575SOL    HW111624   5.198   0.308   6.620
 3575SOL    HW211625   5.150   0.424   6.725
 3576SOL     OW11626   0.929   2.915   0.666
 3576SOL    HW111627   1.006   2.862   0.701
 3576SOL    HW211628   0.964   2.997   0.620
 3577SOL     OW11629   1.337   2.917   4.790
 3577SOL    HW111630   1.411   2.916   4.857
 3577SOL    HW211631   1.375   2.914   4.698
 3578SOL     OW11632   3.800   2.797   0.178
 3578SOL    HW111633   3.833   2.855   0.252
 3578SOL    HW211634   3.789   2.852   0.095
 3579SOL     OW11635   1.377   3.517   1.494
 3579SOL    HW111636   1.400   3.541   1.588
 3579SOL    HW211637   1.402   3.592   1.433
 3580SOL     OW11638   7.002   3.802   2.019
 3580SOL    HW111639   6.909   3.811   1.986
 3580SOL    HW211640   0.016   3.890   2.054
 3581SOL     OW11641   1.859   0.703   2.578
 3581SOL    HW111642   1.766   0.684   2.608
 3581SOL    HW211643   1.921   0.697   2.656
 3582SOL     OW11644   4.222   5.872   6.797
 3582SOL    HW111645   4.267   5.845   6.882
 3582SOL    HW211646   4.204   5.791   6.741
 3583SOL     OW11647   1.857   5.613   1.349
 3583SOL    HW111648   1.886   5.706   1.328
 3583SOL    HW211649   1.922   5.571   1.412
 3584SOL     OW11650   5.957   5.081   4.677
 3584SOL    HW111651   5.871   5.102   4.724
 3584SOL    HW211652   6.023   5.045   4.743
 3585SOL     OW11653   3.495   2.043   3.715
 3585SOL    HW111654   3.439   2.089   3.784
 3585SOL    HW211655   3.457   1.952   3.697
 3586SOL     OW11656   6.742   2.138   5.558
 3586SOL    HW111657   6.780   2.230   5.559
 3586SOL    HW211658   6.690   2.123   5.642
 3587SOL     OW11659   2.913   0.781   5.794
 3587SOL    HW111660   2.826   0.764   5.747
 3587SOL    HW211661   2.896   0.826   5.882
 3588SOL     OW11662   5.505   4.483   4.280
 3588SOL    HW111663   5.559   4.444   4.205
 3588SOL    HW211664   5.463   4.568   4.249
 3589SOL     OW11665   0.721   0.470   6.170
 3589SOL    HW111666   0.731   0.562   6.207
 3589SOL    HW211667   0.791   0.410   6.208
 3590SOL     OW11668   6.196   5.174   5.033
 3590SOL    HW111669   6.268   5.193   4.966
 3590SOL    HW211670   6.116   5.230   5.011
 3591SOL     OW11671   4.625   1.787   0.733
 3591SOL    HW111672   4.718   1.750   0.734
 3591SOL    HW211673   4.588   1.780   0.640
 3592SOL     OW11674   1.342   6.163   1.167
 3592SOL    HW111675   1.428   6.167   1.118
 3592SOL    HW211676   1.336   6.077   1.218
 3593SOL     OW11677   4.136   3.194   6.061
 3593SOL    HW111678   4.064   3.255   6.028
 3593SOL    HW211679   4.134   3.190   6.161
 3594SOL     OW11680   4.489   4.695   5.158
 3594SOL    HW111681   4.435   4.763   5.108
 3594SOL    HW211682   4.466   4.604   5.124
 3595SOL     OW11683   4.849   6.578   4.653
 3595SOL    HW111684   4.836   6.483   4.683
 3595SOL    HW211685   4.858   6.637   4.733
 3596SOL     OW11686   3.836   2.137   2.430
 3596SOL    HW111687   3.759   2.150   2.492
 3596SOL    HW211688   3.919   2.173   2.473
 3597SOL     OW11689   3.747   4.339   5.216
 3597SOL    HW111690   3.691   4.365   5.137
 3597SOL    HW211691   3.804   4.260   5.192
 3598SOL     OW11692   6.942   5.900   4.971
 3598SOL    HW111693   6.881   5.864   4.901
 3598SOL    HW211694   6.915   5.994   4.994
 3599SOL     OW11695   2.725   1.502   5.045
 3599SOL    HW111696   2.649   1.487   5.109
 3599SOL    HW211697   2.731   1.424   4.983
 3600SOL     OW11698   2.687   4.133   0.270
 3600SOL    HW111699   2.731   4.136   0.359
 3600SOL    HW211700   2.747   4.173   0.201
 3601SOL     OW11701   4.095   0.576   5.555
 3601SOL    HW111702   4.085   0.506   5.627
 3601SOL    HW211703   4.086   0.667   5.596
 3602SOL     OW11704   1.555   2.522   1.201
 3602SOL    HW111705   1.572   2.428   1.171
 3602SOL    HW211706   1.637   2.558   1.244
 3603SOL     OW11707   2.037   0.319   5.886
 3603SOL    HW111708   2.107   0.339   5.954
 3603SOL    HW211709   2.052   0.227   5.849
 3604SOL     OW11710   6.631   0.853   3.363
 3604SOL    HW111711   6.672   0.793   3.431
 3604SOL    HW211712   6.531   0.854   3.376
 3605SOL     OW11713   1.304   0.249   5.114
 3605SOL    HW111714   1.357   0.170   5.082
 3605SOL    HW211715   1.348   0.333   5.082
 3606SOL     OW11716   2.435   6.794   2.794
 3606SOL    HW111717   2.533   6.794   2.775
 3606SOL    HW211718   2.418   6.747   2.881
 3607SOL     OW11719   6.369   1.032   3.658
 3607SOL    HW111720   6.380   1.118   3.607
 3607SOL    HW211721   6.272   1.011   3.668
 3608SOL     OW11722   3.679   1.594   5.784
 3608SOL    HW111723   3.751   1.552   5.728
 3608SOL    HW211724   3.721   1.642   5.861
 3609SOL     OW11725   3.237   0.207   5.341
 3609SOL    HW111726   3.249   0.285   5.401
 3609SOL    HW211727   3.184   0.235   5.260
 3610SOL     OW11728   1.881   0.336   5.646
 3610SOL    HW111729   1.791   0.338   5.690
 3610SOL    HW211730   1.947   0.385   5.702
 3611SOL     OW11731   5.612   3.893   3.282
 3611SOL    HW111732   5.653   3.803   3.290
 3611SOL    HW211733   5.531   3.899   3.341
 3612SOL     OW11734   4.914   1.805   0.319
 3612SOL    HW111735   4.905   1.712   0.355
 3612SOL    HW211736   4.968   1.803   0.235
 3613SOL     OW11737   3.541   0.190   2.595
 3613SOL    HW111738   3.550   0.115   2.530
 3613SOL    HW211739   3.557   0.277   2.548
 3614SOL     OW11740   3.814   5.524   0.251
 3614SOL    HW111741   3.863   5.507   0.336
 3614SOL    HW211742   3.717   5.537   0.270
 3615SOL     OW11743   5.387   2.928   5.230
 3615SOL    HW111744   5.456   2.969   5.170
 3615SOL    HW211745   5.356   2.842   5.191
 3616SOL     OW11746   1.300   1.854   0.791
 3616SOL    HW111747   1.222   1.890   0.740
 3616SOL    HW211748   1.269   1.784   0.855
 3617SOL     OW11749   4.009   5.259   5.199
 3617SOL    HW111750   4.093   5.294   5.239
 3617SOL    HW211751   3.936   5.258   5.268
 3618SOL     OW11752   0.949   5.449   4.522
 3618SOL    HW111753   0.874   5.396   4.563
 3618SOL    HW211754   1.001   5.390   4.460
 3619SOL     OW11755   6.349   2.010   2.473
 3619SOL    HW111756   6.442   2.012   2.435
 3619SOL    HW211757   6.292   1.949   2.418
 3620SOL     OW11758   4.985   6.001   5.589
 3620SOL    HW111759   5.020   6.062   5.661
 3620SOL    HW211760   4.886   6.014   5.579
 3621SOL     OW11761   3.612   2.885   3.970
 3621SOL    HW111762   3.686   2.884   4.037
 3621SOL    HW211763   3.524   2.900   4.016
 3622SOL     OW11764   2.207   5.568   6.085
 3622SOL    HW111765   2.129   5.617   6.047
 3622SOL    HW211766   2.287   5.629   6.085
 3623SOL     OW11767   1.729   5.851   5.981
 3623SOL    HW111768   1.697   5.827   6.072
 3623SOL    HW211769   1.805   5.916   5.988
 3624SOL     OW11770   2.717   1.705   2.915
 3624SOL    HW111771   2.636   1.722   2.971
 3624SOL    HW211772   2.714   1.764   2.834
 3625SOL     OW11773   5.886   2.428   1.529
 3625SOL    HW111774   5.918   2.441   1.623
 3625SOL    HW211775   5.931   2.493   1.468
 3626SOL     OW11776   1.380   2.709   6.067
 3626SOL    HW111777   1.411   2.683   6.159
 3626SOL    HW211778   1.295   2.662   6.047
 3627SOL     OW11779   3.177   1.343   2.592
 3627SOL    HW111780   3.106   1.277   2.616
 3627SOL    HW211781   3.139   1.436   2.593
 3628SOL     OW11782   6.727   1.540   1.318
 3628SOL    HW111783   6.638   1.507   1.287
 3628SOL    HW211784   6.752   1.621   1.265
 3629SOL     OW11785   1.856   0.854   4.364
 3629SOL    HW111786   1.793   0.782   4.392
 3629SOL    HW211787   1.805   0.930   4.324
 3630SOL     OW11788   6.822   2.493   2.700
 3630SOL    HW111789   6.842   2.495   2.798
 3630SOL    HW211790   6.898   2.451   2.652
 3631SOL     OW11791   2.088   5.532   2.463
 3631SOL    HW111792   2.002   5.482   2.453
 3631SOL    HW211793   2.105   5.587   2.382
 3632SOL     OW11794   4.915   3.368   2.365
 3632SOL    HW111795   4.894   3.305   2.440
 3632SOL    HW211796   4.918   3.318   2.279
 3633SOL     OW11797   4.383   4.690   6.703
 3633SOL    HW111798   4.471   4.648   6.684
 3633SOL    HW211799   4.310   4.623   6.689
 3634SOL     OW11800   3.203   5.500   6.077
 3634SOL    HW111801   3.114   5.471   6.112
 3634SOL    HW211802   3.190   5.557   5.996
 3635SOL     OW11803   1.524   0.112   3.267
 3635SOL    HW111804   1.576   0.196   3.281
 3635SOL    HW211805   1.564   0.039   3.322
 3636SOL     OW11806   6.963   6.037   4.683
 3636SOL    HW111807   0.026   6.071   4.731
 3636SOL    HW211808   6.968   5.938   4.674
 3637SOL     OW11809   5.363   2.431   6.608
 3637SOL    HW111810   5.352   2.336   6.636
 3637SOL    HW211811   5.409   2.434   6.519
 3638SOL     OW11812   0.491   2.863   3.196
 3638SOL    HW111813   0.486   2.796   3.270
 3638SOL    HW211814   0.489   2.955   3.235
 3639SOL     OW11815   4.070   3.305   4.378
 3639SOL    HW111816   4.109   3.264   4.295
 3639SOL    HW211817   4.041   3.233   4.441
 3640SOL     OW11818   4.714   1.596   2.382
 3640SOL    HW111819   4.688   1.615   2.288
 3640SOL    HW211820   4.761   1.508   2.387
 3641SOL     OW11821   6.882   3.531   1.783
 3641SOL    HW111822   6.822   3.575   1.850
 3641SOL    HW211823   6.884   3.585   1.699
 3642SOL     OW11824   4.745   4.110   6.347
 3642SOL    HW111825   4.835   4.127   6.385
 3642SOL    HW211826   4.704   4.196   6.317
 3643SOL     OW11827   4.128   6.438   4.911
 3643SOL    HW111828   4.074   6.354   4.916
 3643SOL    HW211829   4.070   6.517   4.932
 3644SOL     OW11830   2.743   1.134   2.306
 3644SOL    HW111831   2.727   1.187   2.223
 3644SOL    HW211832   2.705   1.182   2.385
 3645SOL     OW11833   2.341   4.150   3.166
 3645SOL    HW111834   2.286   4.101   3.099
 3645SOL    HW211835   2.413   4.201   3.120
 3646SOL     OW11836   1.998   5.213   5.329
 3646SOL    HW111837   1.924   5.168   5.380
 3646SOL    HW211838   2.004   5.172   5.238
 3647SOL     OW11839   3.744   6.757   0.805
 3647SOL    HW111840   3.696   6.768   0.718
 3647SOL    HW211841   3.753   6.660   0.827
 3648SOL     OW11842   5.086   4.791   3.711
 3648SOL    HW111843   5.124   4.835   3.792
 3648SOL    HW211844   5.130   4.826   3.629
 3649SOL     OW11845   4.896   2.485   0.133
 3649SOL    HW111846   4.811   2.529   0.102
 3649SOL    HW211847   4.882   2.386   0.137
 3650SOL     OW11848   5.322   6.198   6.275
 3650SOL    HW111849   5.360   6.108   6.252
 3650SOL    HW211850   5.369   6.233   6.357
 3651SOL     OW11851   1.120   1.848   6.246
 3651SOL    HW111852   1.031   1.848   6.291
 3651SOL    HW211853   1.111   1.890   6.156
 3652SOL     OW11854   5.533   2.040   2.517
 3652SOL    HW111855   5.575   1.959   2.475
 3652SOL    HW211856   5.522   2.111   2.448
 3653SOL     OW11857   2.083   1.159   0.606
 3653SOL    HW111858   2.122   1.156   0.698
 3653SOL    HW211859   2.103   1.073   0.559
 3654SOL     OW11860   4.190   6.421   1.608
 3654SOL    HW111861   4.275   6.471   1.591
 3654SOL    HW211862   4.167   6.366   1.528
 3655SOL     OW11863   1.421   0.676   4.358
 3655SOL    HW111864   1.366   0.717   4.285
 3655SOL    HW211865   1.376   0.691   4.446
 3656SOL     OW11866   0.306   0.093   0.537
 3656SOL    HW111867   0.399   0.070   0.508
 3656SOL    HW211868   0.310   0.159   0.612
 3657SOL     OW11869   6.132   4.849   6.314
 3657SOL    HW111870   6.063   4.916   6.287
 3657SOL    HW211871   6.115   4.763   6.266
 3658SOL     OW11872   1.706   4.417   5.129
 3658SOL    HW111873   1.798   4.451   5.147
 3658SOL    HW211874   1.694   4.328   5.173
 3659SOL     OW11875   0.988   2.327   6.966
 3659SOL    HW111876   1.003   2.279   6.880
 3659SOL    HW211877   1.015   2.268   0.025
 3660SOL     OW11878   4.076   5.007   5.094
 3660SOL    HW111879   4.016   4.951   5.152
 3660SOL    HW211880   4.062   5.104   5.117
 3661SOL     OW11881   0.847   1.494   5.143
 3661SOL    HW111882   0.801   1.462   5.060
 3661SOL    HW211883   0.889   1.583   5.126
 3662SOL     OW11884   3.898   1.782   5.441
 3662SOL    HW111885   3.806   1.822   5.442
 3662SOL    HW211886   3.927   1.767   5.346
 3663SOL     OW11887   1.660   2.129   5.857
 3663SOL    HW111888   1.612   2.191   5.919
 3663SOL    HW211889   1.602   2.049   5.838
 3664SOL     OW11890   2.537   1.545   0.953
 3664SOL    HW111891   2.600   1.469   0.965
 3664SOL    HW211892   2.444   1.511   0.941
 3665SOL     OW11893   0.167   6.314   5.006
 3665SOL    HW111894   0.089   6.315   4.943
 3665SOL    HW211895   0.250   6.297   4.954
 3666SOL     OW11896   2.061   3.528   4.970
 3666SOL    HW111897   2.095   3.602   4.913
 3666SOL    HW211898   1.961   3.530   4.971
 3667SOL     OW11899   2.227   6.668   1.415
 3667SOL    HW111900   2.221   6.615   1.499
 3667SOL    HW211901   2.202   6.610   1.337
 3668SOL     OW11902   4.934   1.520   0.610
 3668SOL    HW111903   4.849   1.538   0.659
 3668SOL    HW211904   4.972   1.433   0.641
 3669SOL     OW11905   6.494   1.124   1.952
 3669SOL    HW111906   6.592   1.117   1.930
 3669SOL    HW211907   6.443   1.145   1.869
 3670SOL     OW11908   1.872   7.001   2.546
 3670SOL    HW111909   1.946   6.962   2.490
 3670SOL    HW211910   1.789   7.007   2.490
 3671SOL     OW11911   0.526   0.543   5.617
 3671SOL    HW111912   0.524   0.549   5.717
 3671SOL    HW211913   0.454   0.601   5.579
 3672SOL     OW11914   3.809   0.524   3.784
 3672SOL    HW111915   3.727   0.468   3.774
 3672SOL    HW211916   3.845   0.547   3.694
 3673SOL     OW11917   3.653   1.403   1.682
 3673SOL    HW111918   3.582   1.432   1.618
 3673SOL    HW211919   3.649   1.460   1.764
 3674SOL     OW11920   6.986   4.607   6.142
 3674SOL    HW111921   6.934   4.678   6.095
 3674SOL    HW211922   0.011   4.646   6.224
 3675SOL     OW11923   6.215   0.774   5.078
 3675SOL    HW111924   6.149   0.837   5.118
 3675SOL    HW211925   6.303   0.784   5.125
 3676SOL     OW11926   2.277   0.481   5.380
 3676SOL    HW111927   2.239   0.452   5.292
 3676SOL    HW211928   2.240   0.422   5.452
 3677SOL     OW11929   1.426   1.004   4.744
 3677SOL    HW111930   1.415   1.104   4.738
 3677SOL    HW211931   1.520   0.982   4.768
 3678SOL     OW11932   2.835   0.535   3.278
 3678SOL    HW111933   2.912   0.472   3.285
 3678SOL    HW211934   2.840   0.602   3.352
 3679SOL     OW11935   3.053   1.039   1.979
 3679SOL    HW111936   2.975   0.979   1.963
 3679SOL    HW211937   3.053   1.070   2.075
 3680SOL     OW11938   4.191   2.142   4.221
 3680SOL    HW111939   4.198   2.180   4.313
 3680SOL    HW211940   4.209   2.044   4.224
 3681SOL     OW11941   1.232   5.785   3.666
 3681SOL    HW111942   1.297   5.816   3.736
 3681SOL    HW211943   1.188   5.864   3.624
 3682SOL     OW11944   5.185   1.333   1.760
 3682SOL    HW111945   5.100   1.385   1.767
 3682SOL    HW211946   5.165   1.238   1.739
 3683SOL     OW11947   6.419   1.826   1.071
 3683SOL    HW111948   6.343   1.890   1.062
 3683SOL    HW211949   6.489   1.847   1.002
 3684SOL     OW11950   2.413   5.962   5.538
 3684SOL    HW111951   2.477   5.906   5.590
 3684SOL    HW211952   2.325   5.963   5.584
 3685SOL     OW11953   2.112   0.188   3.233
 3685SOL    HW111954   2.184   0.145   3.287
 3685SOL    HW211955   2.153   0.242   3.159
 3686SOL     OW11956   0.671   4.672   0.635
 3686SOL    HW111957   0.606   4.668   0.711
 3686SOL    HW211958   0.681   4.582   0.594
 3687SOL     OW11959   6.692   4.611   4.194
 3687SOL    HW111960   6.749   4.646   4.120
 3687SOL    HW211961   6.734   4.528   4.232
 3688SOL     OW11962   6.826   3.121   1.879
 3688SOL    HW111963   6.895   3.188   1.852
 3688SOL    HW211964   6.771   3.158   1.955
 3689SOL     OW11965   2.000   1.708   5.030
 3689SOL    HW111966   2.096   1.713   5.056
 3689SOL    HW211967   1.946   1.678   5.109
 3690SOL     OW11968   6.591   5.281   1.890
 3690SOL    HW111969   6.519   5.327   1.838
 3690SOL    HW211970   6.680   5.302   1.848
 3691SOL     OW11971   2.151   2.074   0.535
 3691SOL    HW111972   2.225   2.104   0.476
 3691SOL    HW211973   2.073   2.137   0.525
 3692SOL     OW11974   0.609   3.199   5.564
 3692SOL    HW111975   0.691   3.204   5.507
 3692SOL    HW211976   0.532   3.240   5.515
 3693SOL     OW11977   0.362   2.170   2.572
 3693SOL    HW111978   0.291   2.127   2.628
 3693SOL    HW211979   0.450   2.125   2.590
 3694SOL     OW11980   0.063   6.707   2.060
 3694SOL    HW111981   0.113   6.621   2.072
 3694SOL    HW211982   0.119   6.772   2.009
 3695SOL     OW11983   5.787   3.551   3.697
 3695SOL    HW111984   5.782   3.535   3.796
 3695SOL    HW211985   5.780   3.650   3.679
 3696SOL     OW11986   4.525   6.944   4.151
 3696SOL    HW111987   4.474   0.006   4.182
 3696SOL    HW211988   4.571   6.901   4.228
 3697SOL     OW11989   5.893   5.123   3.265
 3697SOL    HW111990   5.931   5.073   3.187
 3697SOL    HW211991   5.898   5.066   3.347
 3698SOL     OW11992   1.198   6.939   4.023
 3698SOL    HW111993   1.232   0.012   4.002
 3698SOL    HW211994   1.272   6.872   4.011
 3699SOL     OW11995   3.180   1.919   3.230
 3699SOL    HW111996   3.086   1.910   3.263
 3699SOL    HW211997   3.230   1.983   3.289
 3700SOL     OW11998   0.412   5.252   4.095
 3700SOL    HW111999   0.504   5.236   4.132
 3700SOL    HW212000   0.359   5.307   4.159
 3701SOL     OW12001   6.406   0.594   1.952
 3701SOL    HW112002   6.402   0.690   1.977
 3701SOL    HW212003   6.501   0.563   1.953
 3702SOL     OW12004   6.586   4.803   3.490
 3702SOL    HW112005   6.623   4.894   3.471
 3702SOL    HW212006   6.659   4.742   3.518
 3703SOL     OW12007   0.426   2.123   3.576
 3703SOL    HW112008   0.453   2.043   3.523
 3703SOL    HW212009   0.479   2.127   3.660
 3704SOL     OW12010   6.777   6.675   1.124
 3704SOL    HW112011   6.750   6.680   1.028
 3704SOL    HW212012   6.813   6.763   1.153
 3705SOL     OW12013   6.489   4.215   3.634
 3705SOL    HW112014   6.428   4.165   3.696
 3705SOL    HW212015   6.580   4.173   3.637
 3706SOL     OW12016   0.784   5.729   6.494
 3706SOL    HW112017   0.748   5.785   6.419
 3706SOL    HW212018   0.855   5.780   6.542
 3707SOL     OW12019   0.392   4.484   3.382
 3707SOL    HW112020   0.389   4.538   3.298
 3707SOL    HW212021   0.441   4.535   3.453
 3708SOL     OW12022   1.608   5.818   0.355
 3708SOL    HW112023   1.688   5.876   0.374
 3708SOL    HW212024   1.564   5.849   0.271
 3709SOL     OW12025   0.718   1.801   1.622
 3709SOL    HW112026   0.658   1.782   1.700
 3709SOL    HW212027   0.760   1.716   1.591
 3710SOL     OW12028   2.036   3.954   5.443
 3710SOL    HW112029   2.074   4.023   5.505
 3710SOL    HW212030   2.103   3.931   5.373
 3711SOL     OW12031   1.838   4.817   5.034
 3711SOL    HW112032   1.745   4.856   5.030
 3711SOL    HW212033   1.835   4.722   5.002
 3712SOL     OW12034   2.992   4.862   3.826
 3712SOL    HW112035   2.987   4.893   3.731
 3712SOL    HW212036   3.079   4.891   3.866
 3713SOL     OW12037   5.963   0.169   5.806
 3713SOL    HW112038   6.047   0.118   5.822
 3713SOL    HW212039   5.968   0.257   5.854
 3714SOL     OW12040   0.459   5.131   0.454
 3714SOL    HW112041   0.476   5.036   0.480
 3714SOL    HW212042   0.366   5.140   0.419
 3715SOL     OW12043   6.152   4.654   2.781
 3715SOL    HW112044   6.079   4.593   2.748
 3715SOL    HW212045   6.209   4.682   2.704
 3716SOL     OW12046   5.419   5.835   5.322
 3716SOL    HW112047   5.518   5.848   5.313
 3716SOL    HW212048   5.397   5.810   5.416
 3717SOL     OW12049   4.825   0.154   1.166
 3717SOL    HW112050   4.778   0.145   1.253
 3717SOL    HW212051   4.776   0.219   1.108
 3718SOL     OW12052   5.471   6.616   6.142
 3718SOL    HW112053   5.519   6.535   6.107
 3718SOL    HW212054   5.394   6.588   6.198
 3719SOL     OW12055   2.617   4.527   0.209
 3719SOL    HW112056   2.602   4.535   0.110
 3719SOL    HW212057   2.581   4.608   0.255
 3720SOL     OW12058   0.576   2.045   0.632
 3720SOL    HW112059   0.631   1.994   0.699
 3720SOL    HW212060   0.617   2.134   0.616
 3721SOL     OW12061   6.281   0.123   6.106
 3721SOL    HW112062   6.246   0.100   6.015
 3721SOL    HW212063   6.235   0.067   6.175
 3722SOL     OW12064   5.683   6.554   1.056
 3722SOL    HW112065   5.749   6.593   0.992
 3722SOL    HW212066   5.704   6.584   1.149
 3723SOL     OW12067   4.633   4.188   5.900
 3723SOL    HW112068   4.671   4.100   5.929
 3723SOL    HW212069   4.544   4.201   5.942
 3724SOL     OW12070   6.352   4.680   4.907
 3724SOL    HW112071   6.282   4.746   4.933
 3724SOL    HW212072   6.415   4.666   4.983
 3725SOL     OW12073   0.196   6.521   0.655
 3725SOL    HW112074   0.247   6.589   0.603
 3725SOL    HW212075   0.257   6.446   0.681
 3726SOL     OW12076   5.743   3.481   5.333
 3726SOL    HW112077   5.693   3.531   5.261
 3726SOL    HW212078   5.739   3.383   5.315
 3727SOL     OW12079   6.581   1.762   4.512
 3727SOL    HW112080   6.575   1.682   4.452
 3727SOL    HW212081   6.670   1.762   4.558
 3728SOL     OW12082   1.903   4.821   0.557
 3728SOL    HW112083   1.986   4.825   0.612
 3728SOL    HW212084   1.921   4.770   0.473
 3729SOL     OW12085   6.983   0.080   6.167
 3729SOL    HW112086   7.000   0.158   6.227
 3729SOL    HW212087   6.885   0.076   6.144
 3730SOL     OW12088   5.245   4.449   4.942
 3730SOL    HW112089   5.299   4.447   5.026
 3730SOL    HW212090   5.155   4.408   4.959
 3731SOL     OW12091   6.767   1.930   1.398
 3731SOL    HW112092   6.675   1.904   1.366
 3731SOL    HW212093   6.759   1.984   1.481
 3732SOL     OW12094   3.894   2.439   0.346
 3732SOL    HW112095   3.882   2.393   0.434
 3732SOL    HW212096   3.991   2.457   0.330
 3733SOL     OW12097   1.403   1.193   3.085
 3733SOL    HW112098   1.306   1.170   3.080
 3733SOL    HW212099   1.431   1.237   2.999
 3734SOL     OW12100   3.747   0.803   1.668
 3734SOL    HW112101   3.841   0.771   1.653
 3734SOL    HW212102   3.684   0.748   1.613
 3735SOL     OW12103   4.180   1.249   2.679
 3735SOL    HW112104   4.143   1.175   2.735
 3735SOL    HW212105   4.169   1.228   2.582
 3736SOL     OW12106   0.934   2.022   0.397
 3736SOL    HW112107   0.976   2.071   0.474
 3736SOL    HW212108   0.836   2.045   0.393
 3737SOL     OW12109   5.181   2.173   4.036
 3737SOL    HW112110   5.111   2.106   4.058
 3737SOL    HW212111   5.140   2.247   3.982
 3738SOL     OW12112   0.292   1.007   0.659
 3738SOL    HW112113   0.195   0.992   0.637
 3738SOL    HW212114   0.345   0.929   0.626
 3739SOL     OW12115   2.829   4.833   6.716
 3739SOL    HW112116   2.762   4.906   6.726
 3739SOL    HW212117   2.792   4.748   6.754
 3740SOL     OW12118   6.033   6.454   0.012
 3740SOL    HW112119   6.094   6.381   6.999
 3740SOL    HW212120   6.053   6.538   6.979
 3741SOL     OW12121   6.383   4.588   0.095
 3741SOL    HW112122   6.370   4.686   0.083
 3741SOL    HW212123   6.402   4.546   0.006
 3742SOL     OW12124   4.773   4.861   1.557
 3742SOL    HW112125   4.748   4.812   1.641
 3742SOL    HW212126   4.692   4.870   1.498
 3743SOL     OW12127   2.271   4.021   1.074
 3743SOL    HW112128   2.344   3.956   1.053
 3743SOL    HW212129   2.218   3.988   1.152
 3744SOL     OW12130   6.735   5.873   2.731
 3744SOL    HW112131   6.695   5.961   2.707
 3744SOL    HW212132   6.712   5.851   2.826
 3745SOL     OW12133   5.682   1.703   2.690
 3745SOL    HW112134   5.752   1.767   2.723
 3745SOL    HW212135   5.597   1.752   2.673
 3746SOL     OW12136   5.008   6.900   5.271
 3746SOL    HW112137   5.052   6.870   5.355
 3746SOL    HW212138   4.943   6.973   5.290
 3747SOL     OW12139   1.906   5.902   5.588
 3747SOL    HW112140   1.959   5.832   5.638
 3747SOL    HW212141   1.811   5.872   5.581
 3748SOL     OW12142   5.329   1.989   3.053
 3748SOL    HW112143   5.256   1.971   3.119
 3748SOL    HW212144   5.386   1.907   3.043
 3749SOL     OW12145   6.071   6.226   1.454
 3749SOL    HW112146   6.080   6.141   1.507
 3749SOL    HW212147   5.976   6.238   1.425
 3750SOL     OW12148   5.676   4.194   1.515
 3750SOL    HW112149   5.638   4.268   1.571
 3750SOL    HW212150   5.744   4.144   1.567
 3751SOL     OW12151   1.529   4.772   0.580
 3751SOL    HW112152   1.437   4.770   0.618
 3751SOL    HW212153   1.567   4.679   0.579
 3752SOL     OW12154   1.014   6.994   6.105
 3752SOL    HW112155   0.982   6.906   6.070
 3752SOL    HW212156   0.968   7.015   6.191
 3753SOL     OW12157   0.852   0.874   5.994
 3753SOL    HW112158   0.782   0.900   5.928
 3753SOL    HW212159   0.902   0.795   5.961
 3754SOL     OW12160   6.773   6.177   1.722
 3754SOL    HW112161   6.698   6.243   1.716
 3754SOL    HW212162   6.846   6.216   1.777
 3755SOL     OW12163   4.631   2.484   2.876
 3755SOL    HW112164   4.637   2.546   2.954
 3755SOL    HW212165   4.537   2.483   2.842
 3756SOL     OW12166   3.452   0.015   0.669
 3756SOL    HW112167   3.540   0.060   0.665
 3756SOL    HW212168   3.416   0.019   0.762
 3757SOL     OW12169   3.188   4.517   6.008
 3757SOL    HW112170   3.135   4.496   5.927
 3757SOL    HW212171   3.275   4.559   5.982
 3758SOL     OW12172   6.751   1.074   1.856
 3758SOL    HW112173   6.767   1.155   1.800
 3758SOL    HW212174   6.836   1.023   1.866
 3759SOL     OW12175   4.820   4.088   0.751
 3759SOL    HW112176   4.901   4.122   0.800
 3759SOL    HW212177   4.841   4.000   0.709
 3760SOL     OW12178   2.108   1.572   5.803
 3760SOL    HW112179   2.147   1.563   5.895
 3760SOL    HW212180   2.014   1.536   5.804
 3761SOL     OW12181   6.405   6.177   4.075
 3761SOL    HW112182   6.348   6.183   3.993
 3761SOL    HW212183   6.355   6.214   4.153
 3762SOL     OW12184   0.455   3.531   0.408
 3762SOL    HW112185   0.537   3.537   0.464
 3762SOL    HW212186   0.376   3.509   0.465
 3763SOL     OW12187   6.940   3.187   4.318
 3763SOL    HW112188   6.887   3.138   4.387
 3763SOL    HW212189   6.959   3.126   4.241
 3764SOL     OW12190   1.956   0.093   3.857
 3764SOL    HW112191   2.023   0.167   3.862
 3764SOL    HW212192   1.865   0.130   3.874
 3765SOL     OW12193   6.352   0.822   3.419
 3765SOL    HW112194   6.271   0.832   3.360
 3765SOL    HW212195   6.337   0.869   3.505
 3766SOL     OW12196   2.300   1.232   5.091
 3766SOL    HW112197   2.367   1.298   5.126
 3766SOL    HW212198   2.276   1.256   4.997
 3767SOL     OW12199   0.256   4.763   0.635
 3767SOL    HW112200   0.266   4.735   0.730
 3767SOL    HW212201   0.346   4.787   0.598
 3768SOL     OW12202   4.558   6.391   1.000
 3768SOL    HW112203   4.602   6.301   0.991
 3768SOL    HW212204   4.627   6.463   0.999
 3769SOL     OW12205   4.233   6.842   4.819
 3769SOL    HW112206   4.155   6.816   4.875
 3769SOL    HW212207   4.317   6.833   4.872
 3770SOL     OW12208   1.788   2.509   0.407
 3770SOL    HW112209   1.794   2.571   0.328
 3770SOL    HW212210   1.848   2.542   0.480
 3771SOL     OW12211   4.390   1.210   5.970
 3771SOL    HW112212   4.469   1.270   5.957
 3771SOL    HW212213   4.317   1.239   5.909
 3772SOL     OW12214   4.769   0.783   2.532
 3772SOL    HW112215   4.753   0.882   2.529
 3772SOL    HW212216   4.724   0.744   2.612
 3773SOL     OW12217   6.445   2.839   0.739
 3773SOL    HW112218   6.418   2.898   0.815
 3773SOL    HW212219   6.383   2.761   0.734
 3774SOL     OW12220   1.423   1.660   1.951
 3774SOL    HW112221   1.328   1.688   1.962
 3774SOL    HW212222   1.437   1.572   1.996
 3775SOL     OW12223   5.214   2.631   3.359
 3775SOL    HW112224   5.160   2.657   3.280
 3775SOL    HW212225   5.297   2.584   3.329
 3776SOL     OW12226   3.163   1.775   6.653
 3776SOL    HW112227   3.090   1.818   6.705
 3776SOL    HW212228   3.138   1.680   6.633
 3777SOL     OW12229   1.056   3.959   3.103
 3777SOL    HW112230   1.095   3.867   3.109
 3777SOL    HW212231   1.125   4.026   3.131
 3778SOL     OW12232   2.124   0.794   1.852
 3778SOL    HW112233   2.092   0.706   1.887
 3778SOL    HW212234   2.090   0.867   1.911
 3779SOL     OW12235   1.930   5.191   0.014
 3779SOL    HW112236   1.968   5.268   6.981
 3779SOL    HW212237   1.879   5.131   6.970
 3780SOL     OW12238   1.941   6.837   3.970
 3780SOL    HW112239   1.873   6.827   4.043
 3780SOL    HW212240   1.943   6.932   3.939
 3781SOL     OW12241   2.952   5.409   4.827
 3781SOL    HW112242   2.856   5.435   4.839
 3781SOL    HW212243   3.010   5.468   4.883
 3782SOL     OW12244   2.554   1.476   2.301
 3782SOL    HW112245   2.588   1.460   2.393
 3782SOL    HW212246   2.619   1.440   2.234
 3783SOL     OW12247   5.226   4.727   4.746
 3783SOL    HW112248   5.256   4.674   4.826
 3783SOL    HW212249   5.268   4.689   4.663
 3784SOL     OW12250   5.129   2.191   4.408
 3784SOL    HW112251   5.162   2.219   4.318
 3784SOL    HW212252   5.082   2.268   4.451
 3785SOL     OW12253   0.690   0.272   1.990
 3785SOL    HW112254   0.636   0.222   2.057
 3785SOL    HW212255   0.633   0.293   1.910
 3786SOL     OW12256   2.737   6.234   1.673
 3786SOL    HW112257   2.837   6.228   1.672
 3786SOL    HW212258   2.704   6.243   1.579
 3787SOL     OW12259   4.772   0.945   3.791
 3787SOL    HW112260   4.831   1.009   3.840
 3787SOL    HW212261   4.683   0.987   3.776
 3788SOL     OW12262   6.489   3.366   2.389
 3788SOL    HW112263   6.574   3.386   2.340
 3788SOL    HW212264   6.454   3.450   2.431
 3789SOL     OW12265   1.735   5.300   2.118
 3789SOL    HW112266   1.714   5.255   2.031
 3789SOL    HW212267   1.651   5.314   2.169
 3790SOL     OW12268   1.851   3.039   2.607
 3790SOL    HW112269   1.843   3.121   2.552
 3790SOL    HW212270   1.852   2.958   2.547
 3791SOL     OW12271   6.409   0.657   2.714
 3791SOL    HW112272   6.321   0.684   2.754
 3791SOL    HW212273   6.420   0.702   2.625
 3792SOL     OW12274   1.166   5.767   6.534
 3792SOL    HW112275   1.239   5.826   6.497
 3792SOL    HW212276   1.178   5.674   6.500
 3793SOL     OW12277   0.587   5.156   2.515
 3793SOL    HW112278   0.567   5.160   2.613
 3793SOL    HW212279   0.509   5.115   2.467
 3794SOL     OW12280   4.507   0.097   3.943
 3794SOL    HW112281   4.526   0.032   4.017
 3794SOL    HW212282   4.440   0.164   3.975
 3795SOL     OW12283   5.802   0.456   0.525
 3795SOL    HW112284   5.783   0.358   0.528
 3795SOL    HW212285   5.717   0.507   0.537
 3796SOL     OW12286   6.973   2.711   1.080
 3796SOL    HW112287   6.937   2.793   1.124
 3796SOL    HW212288   7.004   2.647   1.150
 3797SOL     OW12289   0.208   5.245   2.890
 3797SOL    HW112290   0.120   5.200   2.872
 3797SOL    HW212291   0.192   5.326   2.947
 3798SOL     OW12292   1.299   4.339   0.545
 3798SOL    HW112293   1.203   4.318   0.563
 3798SOL    HW212294   1.347   4.256   0.517
 3799SOL     OW12295   1.624   0.827   5.330
 3799SOL    HW112296   1.678   0.877   5.263
 3799SOL    HW212297   1.541   0.792   5.287
 3800SOL     OW12298   5.242   2.503   4.941
 3800SOL    HW112299   5.147   2.488   4.915
 3800SOL    HW212300   5.281   2.577   4.886
 3801SOL     OW12301   6.698   0.477   6.127
 3801SOL    HW112302   6.623   0.442   6.071
 3801SOL    HW212303   6.786   0.453   6.085
 3802SOL     OW12304   1.951   2.521   5.433
 3802SOL    HW112305   2.035   2.507   5.381
 3802SOL    HW212306   1.973   2.540   5.528
 3803SOL     OW12307   3.922   1.192   1.205
 3803SOL    HW112308   3.928   1.122   1.134
 3803SOL    HW212309   4.010   1.197   1.254
 3804SOL     OW12310   5.087   3.615   4.997
 3804SOL    HW112311   5.117   3.635   5.090
 3804SOL    HW212312   4.989   3.633   4.988
 3805SOL     OW12313   1.714   3.645   1.247
 3805SOL    HW112314   1.771   3.583   1.301
 3805SOL    HW212315   1.753   3.737   1.250
 3806SOL     OW12316   3.496   1.007   0.373
 3806SOL    HW112317   3.572   0.941   0.370
 3806SOL    HW212318   3.499   1.058   0.459
 3807SOL     OW12319   1.533   6.933   2.821
 3807SOL    HW112320   1.584   6.878   2.755
 3807SOL    HW212321   1.456   6.880   2.856
 3808SOL     OW12322   3.732   0.905   0.508
 3808SOL    HW112323   3.781   0.993   0.509
 3808SOL    HW212324   3.741   0.862   0.598
 3809SOL     OW12325   4.366   1.132   0.332
 3809SOL    HW112326   4.334   1.066   0.264
 3809SOL    HW212327   4.418   1.204   0.286
 3810SOL     OW12328   1.849   3.997   6.866
 3810SOL    HW112329   1.810   3.993   6.958
 3810SOL    HW212330   1.783   3.960   6.801
 3811SOL     OW12331   0.083   0.686   6.499
 3811SOL    HW112332   0.162   0.626   6.509
 3811SOL    HW212333   0.075   0.715   6.404
 3812SOL     OW12334   4.390   0.655   5.563
 3812SOL    HW112335   4.432   0.728   5.616
 3812SOL    HW212336   4.291   0.671   5.555
 3813SOL     OW12337   3.505   4.993   2.315
 3813SOL    HW112338   3.479   4.983   2.219
 3813SOL    HW212339   3.422   4.993   2.372
 3814SOL     OW12340   2.373   1.045   1.498
 3814SOL    HW112341   2.328   1.084   1.578
 3814SOL    HW212342   2.415   1.118   1.444
 3815SOL     OW12343   5.406   2.349   2.015
 3815SOL    HW112344   5.384   2.256   1.987
 3815SOL    HW212345   5.452   2.347   2.104
 3816SOL     OW12346   6.963   6.613   0.046
 3816SOL    HW112347   0.009   6.554   0.096
 3816SOL    HW212348   7.007   6.647   6.981
 3817SOL     OW12349   5.398   1.933   5.262
 3817SOL    HW112350   5.458   2.011   5.279
 3817SOL    HW212351   5.406   1.904   5.167
 3818SOL     OW12352   3.880   5.570   2.571
 3818SOL    HW112353   3.969   5.526   2.583
 3818SOL    HW212354   3.807   5.501   2.577
 3819SOL     OW12355   5.525   3.778   6.099
 3819SOL    HW112356   5.587   3.800   6.024
 3819SOL    HW212357   5.521   3.679   6.111
 3820SOL     OW12358   4.209   6.419   3.360
 3820SOL    HW112359   4.241   6.324   3.354
 3820SOL    HW212360   4.276   6.474   3.410
 3821SOL     OW12361   0.253   4.888   1.409
 3821SOL    HW112362   0.318   4.963   1.406
 3821SOL    HW212363   0.296   4.809   1.454
 3822SOL     OW12364   0.926   3.682   1.182
 3822SOL    HW112365   1.024   3.699   1.184
 3822SOL    HW212366   0.890   3.680   1.275
 3823SOL     OW12367   2.883   3.664   5.590
 3823SOL    HW112368   2.872   3.639   5.494
 3823SOL    HW212369   2.802   3.714   5.622
 3824SOL     OW12370   0.500   2.162   6.147
 3824SOL    HW112371   0.485   2.254   6.110
 3824SOL    HW212372   0.527   2.101   6.073
 3825SOL     OW12373   0.225   6.577   6.117
 3825SOL    HW112374   0.310   6.626   6.098
 3825SOL    HW212375   0.238   6.479   6.102
 3826SOL     OW12376   6.422   2.179   1.411
 3826SOL    HW112377   6.456   2.088   1.387
 3826SOL    HW212378   6.495   2.230   1.457
 3827SOL     OW12379   5.549   1.719   2.136
 3827SOL    HW112380   5.486   1.641   2.138
 3827SOL    HW212381   5.504   1.799   2.175
 3828SOL     OW12382   3.637   0.873   1.931
 3828SOL    HW112383   3.653   0.972   1.934
 3828SOL    HW212384   3.687   0.834   1.854
 3829SOL     OW12385   0.906   4.883   3.584
 3829SOL    HW112386   0.881   4.788   3.601
 3829SOL    HW212387   0.843   4.924   3.519
 3830SOL     OW12388   2.639   0.653   5.229
 3830SOL    HW112389   2.586   0.616   5.153
 3830SOL    HW212390   2.631   0.591   5.308
 3831SOL     OW12391   4.658   1.669   2.126
 3831SOL    HW112392   4.574   1.645   2.077
 3831SOL    HW212393   4.703   1.746   2.081
 3832SOL     OW12394   6.187   6.802   2.151
 3832SOL    HW112395   6.217   6.729   2.212
 3832SOL    HW212396   6.088   6.799   2.142
 3833SOL     OW12397   1.801   6.558   2.341
 3833SOL    HW112398   1.744   6.640   2.348
 3833SOL    HW212399   1.864   6.555   2.419
 3834SOL     OW12400   2.938   2.894   0.293
 3834SOL    HW112401   2.884   2.816   0.325
 3834SOL    HW212402   2.876   2.965   0.259
 3835SOL     OW12403   3.131   5.008   2.902
 3835SOL    HW112404   3.124   4.963   2.991
 3835SOL    HW212405   3.223   4.995   2.866
 3836SOL     OW12406   1.138   2.972   6.124
 3836SOL    HW112407   1.229   2.932   6.115
 3836SOL    HW212408   1.134   3.058   6.074
 3837SOL     OW12409   3.167   4.378   6.750
 3837SOL    HW112410   3.225   4.452   6.782
 3837SOL    HW212411   3.222   4.311   6.700
 3838SOL     OW12412   6.211   3.792   4.534
 3838SOL    HW112413   6.204   3.708   4.480
 3838SOL    HW212414   6.229   3.870   4.474
 3839SOL     OW12415   0.616   6.050   6.591
 3839SOL    HW112416   0.563   5.966   6.586
 3839SOL    HW212417   0.589   6.111   6.516
 3840SOL     OW12418   2.727   2.369   3.345
 3840SOL    HW112419   2.786   2.333   3.417
 3840SOL    HW212420   2.782   2.386   3.262
 3841SOL     OW12421   0.719   3.012   3.734
 3841SOL    HW112422   0.695   2.992   3.828
 3841SOL    HW212423   0.681   2.942   3.674
 3842SOL     OW12424   1.353   4.994   6.802
 3842SOL    HW112425   1.362   5.078   6.856
 3842SOL    HW212426   1.433   4.983   6.743
 3843SOL     OW12427   6.433   4.431   6.835
 3843SOL    HW112428   6.408   4.338   6.808
 3843SOL    HW212429   6.502   4.427   6.907
 3844SOL     OW12430   2.632   4.411   5.670
 3844SOL    HW112431   2.702   4.480   5.651
 3844SOL    HW212432   2.626   4.348   5.593
 3845SOL     OW12433   3.179   3.011   4.554
 3845SOL    HW112434   3.129   3.085   4.600
 3845SOL    HW212435   3.266   2.996   4.601
 3846SOL     OW12436   0.086   4.473   4.829
 3846SOL    HW112437   0.067   4.400   4.895
 3846SOL    HW212438   0.012   4.477   4.762
 3847SOL     OW12439   1.420   6.916   0.579
 3847SOL    HW112440   1.330   6.947   0.609
 3847SOL    HW212441   1.443   6.961   0.493
 3848SOL     OW12442   3.012   6.375   1.681
 3848SOL    HW112443   3.077   6.304   1.653
 3848SOL    HW212444   3.062   6.460   1.700
 3849SOL     OW12445   2.807   1.785   5.538
 3849SOL    HW112446   2.784   1.841   5.617
 3849SOL    HW212447   2.865   1.709   5.566
 3850SOL     OW12448   1.302   3.247   1.434
 3850SOL    HW112449   1.334   3.330   1.480
 3850SOL    HW212450   1.303   3.261   1.335
 3851SOL     OW12451   2.507   2.748   1.130
 3851SOL    HW112452   2.514   2.674   1.197
 3851SOL    HW212453   2.555   2.829   1.164
 3852SOL     OW12454   4.648   1.056   5.309
 3852SOL    HW112455   4.632   1.112   5.228
 3852SOL    HW212456   4.738   1.012   5.302
 3853SOL     OW12457   0.468   3.813   2.387
 3853SOL    HW112458   0.426   3.723   2.379
 3853SOL    HW212459   0.518   3.833   2.303
 3854SOL     OW12460   1.460   3.250   4.391
 3854SOL    HW112461   1.487   3.346   4.383
 3854SOL    HW212462   1.535   3.191   4.361
 3855SOL     OW12463   6.954   1.504   5.398
 3855SOL    HW112464   0.021   1.556   5.386
 3855SOL    HW212465   6.972   1.407   5.384
 3856SOL     OW12466   1.320   6.180   6.278
 3856SOL    HW112467   1.322   6.277   6.303
 3856SOL    HW212468   1.234   6.159   6.232
 3857SOL     OW12469   0.414   0.384   6.539
 3857SOL    HW112470   0.342   0.316   6.528
 3857SOL    HW212471   0.384   0.456   6.602
 3858SOL     OW12472   3.798   4.744   6.832
 3858SOL    HW112473   3.714   4.795   6.853
 3858SOL    HW212474   3.872   4.808   6.811
 3859SOL     OW12475   6.359   2.544   2.520
 3859SOL    HW112476   6.282   2.494   2.480
 3859SOL    HW212477   6.334   2.578   2.610
 3860SOL     OW12478   2.408   5.874   4.814
 3860SOL    HW112479   2.423   5.973   4.808
 3860SOL    HW212480   2.387   5.838   4.723
 3861SOL     OW12481   2.949   4.510   6.690
 3861SOL    HW112482   2.931   4.523   6.592
 3861SOL    HW212483   3.046   4.492   6.704
 3862SOL     OW12484   1.079   5.816   5.916
 3862SOL    HW112485   1.137   5.815   5.998
 3862SOL    HW212486   1.135   5.838   5.836
 3863SOL     OW12487   2.254   2.850   0.281
 3863SOL    HW112488   2.262   2.918   0.208
 3863SOL    HW212489   2.268   2.894   0.369
 3864SOL     OW12490   3.398   1.890   1.084
 3864SOL    HW112491   3.406   1.879   1.183
 3864SOL    HW212492   3.371   1.984   1.062
 3865SOL     OW12493   4.137   0.811   2.339
 3865SOL    HW112494   4.169   0.894   2.385
 3865SOL    HW212495   4.074   0.837   2.266
 3866SOL     OW12496   4.117   6.484   6.961
 3866SOL    HW112497   4.120   6.447   6.868
 3866SOL    HW212498   4.140   6.413   0.009
 3867SOL     OW12499   1.933   5.154   3.334
 3867SOL    HW112500   1.851   5.211   3.348
 3867SOL    HW212501   1.958   5.156   3.237
 3868SOL     OW12502   2.054   5.637   3.041
 3868SOL    HW112503   2.098   5.725   3.059
 3868SOL    HW212504   1.960   5.640   3.075
 3869SOL     OW12505   0.576   1.533   4.002
 3869SOL    HW112506   0.667   1.574   4.010
 3869SOL    HW212507   0.578   1.463   3.930
 3870SOL     OW12508   3.731   3.807   0.337
 3870SOL    HW112509   3.781   3.723   0.315
 3870SOL    HW212510   3.635   3.785   0.356
 3871SOL     OW12511   3.322   0.735   4.159
 3871SOL    HW112512   3.249   0.678   4.194
 3871SOL    HW212513   3.385   0.679   4.104
 3872SOL     OW12514   4.575   4.180   0.773
 3872SOL    HW112515   4.672   4.157   0.768
 3872SOL    HW212516   4.553   4.212   0.865
 3873SOL     OW12517   6.365   4.930   1.925
 3873SOL    HW112518   6.438   4.895   1.866
 3873SOL    HW212519   6.296   4.859   1.939
 3874SOL     OW12520   5.463   6.331   5.898
 3874SOL    HW112521   5.546   6.347   5.950
 3874SOL    HW212522   5.469   6.378   5.810
 3875SOL     OW12523   2.668   3.482   0.138
 3875SOL    HW112524   2.678   3.465   0.237
 3875SOL    HW212525   2.679   3.579   0.120
 3876SOL     OW12526   5.980   3.848   2.337
 3876SOL    HW112527   5.952   3.942   2.318
 3876SOL    HW212528   5.911   3.785   2.302
 3877SOL     OW12529   4.345   2.032   1.779
 3877SOL    HW112530   4.418   2.073   1.834
 3877SOL    HW212531   4.256   2.051   1.821
 3878SOL     OW12532   4.894   5.667   4.696
 3878SOL    HW112533   4.891   5.570   4.672
 3878SOL    HW212534   4.805   5.694   4.732
 3879SOL     OW12535   2.512   5.832   0.742
 3879SOL    HW112536   2.447   5.884   0.798
 3879SOL    HW212537   2.488   5.843   0.646
 3880SOL     OW12538   6.315   1.291   4.430
 3880SOL    HW112539   6.317   1.274   4.331
 3880SOL    HW212540   6.257   1.370   4.449
 3881SOL     OW12541   0.124   5.726   5.952
 3881SOL    HW112542   0.051   5.746   6.016
 3881SOL    HW212543   0.122   5.793   5.878
 3882SOL     OW12544   6.881   6.612   6.451
 3882SOL    HW112545   6.901   6.545   6.379
 3882SOL    HW212546   6.953   6.681   6.452
 3883SOL     OW12547   4.349   2.107   0.250
 3883SOL    HW112548   4.408   2.105   0.169
 3883SOL    HW212549   4.381   2.177   0.313
 3884SOL     OW12550   2.906   5.769   5.595
 3884SOL    HW112551   2.920   5.847   5.655
 3884SOL    HW212552   2.968   5.695   5.622
 3885SOL     OW12553   6.836   0.445   3.384
 3885SOL    HW112554   6.897   0.477   3.311
 3885SOL    HW212555   6.889   0.390   3.449
 3886SOL     OW12556   6.985   6.065   4.336
 3886SOL    HW112557   6.942   6.145   4.294
 3886SOL    HW212558   6.980   6.073   4.436
 3887SOL     OW12559   6.406   2.946   4.941
 3887SOL    HW112560   6.453   2.946   5.029
 3887SOL    HW212561   6.367   2.856   4.923
 3888SOL     OW12562   5.283   1.094   3.136
 3888SOL    HW112563   5.243   1.055   3.218
 3888SOL    HW212564   5.366   1.144   3.160
 3889SOL     OW12565   6.507   5.808   6.916
 3889SOL    HW112566   6.593   5.803   6.866
 3889SOL    HW212567   6.441   5.863   6.863
 3890SOL     OW12568   6.115   3.507   3.102
 3890SOL    HW112569   6.156   3.572   3.038
 3890SOL    HW212570   6.024   3.481   3.069
 3891SOL     OW12571   4.127   4.171   5.810
 3891SOL    HW112572   4.041   4.198   5.853
 3891SOL    HW212573   4.141   4.073   5.823
 3892SOL     OW12574   5.480   5.862   3.919
 3892SOL    HW112575   5.386   5.896   3.913
 3892SOL    HW212576   5.479   5.765   3.944
 3893SOL     OW12577   2.209   6.352   4.481
 3893SOL    HW112578   2.213   6.452   4.480
 3893SOL    HW212579   2.230   6.319   4.572
 3894SOL     OW12580   5.987   5.606   6.325
 3894SOL    HW112581   6.019   5.512   6.320
 3894SOL    HW212582   6.037   5.655   6.397
 3895SOL     OW12583   1.391   2.096   6.149
 3895SOL    HW112584   1.389   2.004   6.109
 3895SOL    HW212585   1.299   2.124   6.173
 3896SOL     OW12586   6.206   2.612   0.407
 3896SOL    HW112587   6.266   2.689   0.387
 3896SOL    HW212588   6.244   2.529   0.368
 3897SOL     OW12589   2.829   6.810   3.128
 3897SOL    HW112590   2.785   6.876   3.189
 3897SOL    HW212591   2.760   6.762   3.075
 3898SOL     OW12592   2.962   3.636   3.595
 3898SOL    HW112593   2.896   3.625   3.521
 3898SOL    HW212594   2.989   3.732   3.602
 3899SOL     OW12595   4.647   2.121   6.373
 3899SOL    HW112596   4.661   2.023   6.358
 3899SOL    HW212597   4.675   2.144   6.466
 3900SOL     OW12598   0.894   2.565   3.655
 3900SOL    HW112599   0.802   2.527   3.664
 3900SOL    HW212600   0.941   2.559   3.742
 3901SOL     OW12601   3.695   6.531   4.690
 3901SOL    HW112602   3.612   6.540   4.746
 3901SOL    HW212603   3.761   6.601   4.717
 3902SOL     OW12604   3.191   5.281   3.005
 3902SOL    HW112605   3.157   5.190   2.985
 3902SOL    HW212606   3.268   5.275   3.069
 3903SOL     OW12607   3.050   3.693   6.591
 3903SOL    HW112608   3.060   3.647   6.679
 3903SOL    HW212609   2.961   3.669   6.551
 3904SOL     OW12610   2.888   6.074   0.715
 3904SOL    HW112611   2.851   5.988   0.748
 3904SOL    HW212612   2.928   6.125   0.791
 3905SOL     OW12613   4.144   0.156   5.495
 3905SOL    HW112614   4.094   0.071   5.513
 3905SOL    HW212615   4.174   0.195   5.582
 3906SOL     OW12616   6.409   5.908   4.159
 3906SOL    HW112617   6.494   5.855   4.158
 3906SOL    HW212618   6.431   6.005   4.152
 3907SOL     OW12619   0.729   1.399   4.920
 3907SOL    HW112620   0.705   1.309   4.886
 3907SOL    HW212621   0.658   1.465   4.894
 3908SOL     OW12622   2.230   1.970   4.764
 3908SOL    HW112623   2.257   1.874   4.765
 3908SOL    HW212624   2.262   2.012   4.679
 3909SOL     OW12625   6.172   3.442   2.206
 3909SOL    HW112626   6.162   3.359   2.151
 3909SOL    HW212627   6.240   3.502   2.165
 3910SOL     OW12628   2.212   2.478   0.438
 3910SOL    HW112629   2.245   2.482   0.532
 3910SOL    HW212630   2.244   2.393   0.395
 3911SOL     OW12631   5.803   1.247   1.462
 3911SOL    HW112632   5.896   1.261   1.494
 3911SOL    HW212633   5.746   1.214   1.537
 3912SOL     OW12634   5.257   4.137   0.524
 3912SOL    HW112635   5.195   4.206   0.561
 3912SOL    HW212636   5.331   4.182   0.474
 3913SOL     OW12637   4.218   4.330   1.298
 3913SOL    HW112638   4.240   4.253   1.239
 3913SOL    HW212639   4.150   4.303   1.365
 3914SOL     OW12640   0.289   0.893   0.362
 3914SOL    HW112641   0.278   0.991   0.345
 3914SOL    HW212642   0.382   0.875   0.393
 3915SOL     OW12643   5.113   0.371   4.795
 3915SOL    HW112644   5.132   0.359   4.892
 3915SOL    HW212645   5.199   0.364   4.744
 3916SOL     OW12646   1.975   2.561   2.002
 3916SOL    HW112647   1.948   2.551   1.906
 3916SOL    HW212648   2.060   2.613   2.007
 3917SOL     OW12649   4.345   5.448   2.228
 3917SOL    HW112650   4.417   5.381   2.208
 3917SOL    HW212651   4.353   5.525   2.166
 3918SOL     OW12652   3.705   6.914   1.224
 3918SOL    HW112653   3.710   6.823   1.265
 3918SOL    HW212654   3.719   6.907   1.125
 3919SOL     OW12655   4.923   4.815   3.167
 3919SOL    HW112656   4.955   4.795   3.260
 3919SOL    HW212657   4.825   4.835   3.170
 3920SOL     OW12658   4.601   1.048   6.200
 3920SOL    HW112659   4.559   0.989   6.130
 3920SOL    HW212660   4.561   1.139   6.193
 3921SOL     OW12661   0.916   2.884   5.806
 3921SOL    HW112662   1.002   2.908   5.761
 3921SOL    HW212663   0.847   2.954   5.787
 3922SOL     OW12664   5.508   1.954   3.833
 3922SOL    HW112665   5.431   1.890   3.840
 3922SOL    HW212666   5.581   1.926   3.896
 3923SOL     OW12667   5.446   1.132   1.112
 3923SOL    HW112668   5.366   1.171   1.067
 3923SOL    HW212669   5.472   1.047   1.066
 3924SOL     OW12670   5.394   4.934   3.758
 3924SOL    HW112671   5.366   5.024   3.724
 3924SOL    HW212672   5.336   4.909   3.835
 3925SOL     OW12673   3.707   4.395   1.727
 3925SOL    HW112674   3.669   4.484   1.754
 3925SOL    HW212675   3.795   4.410   1.681
 3926SOL     OW12676   1.213   5.733   5.375
 3926SOL    HW112677   1.258   5.817   5.405
 3926SOL    HW212678   1.275   5.681   5.316
 3927SOL     OW12679   6.050   6.407   5.314
 3927SOL    HW112680   5.994   6.337   5.358
 3927SOL    HW212681   6.031   6.408   5.216
 3928SOL     OW12682   4.676   5.476   2.749
 3928SOL    HW112683   4.683   5.446   2.653
 3928SOL    HW212684   4.745   5.547   2.766
 3929SOL     OW12685   2.178   1.087   5.286
 3929SOL    HW112686   2.199   1.176   5.244
 3929SOL    HW212687   2.121   1.033   5.224
 3930SOL     OW12688   2.268   5.417   4.185
 3930SOL    HW112689   2.185   5.472   4.177
 3930SOL    HW212690   2.305   5.427   4.278
 3931SOL     OW12691   0.533   2.215   0.144
 3931SOL    HW112692   0.452   2.165   0.115
 3931SOL    HW212693   0.572   2.265   0.067
 3932SOL     OW12694   1.998   4.537   2.477
 3932SOL    HW112695   1.974   4.464   2.542
 3932SOL    HW212696   1.963   4.513   2.387
 3933SOL     OW12697   1.404   6.669   1.231
 3933SOL    HW112698   1.356   6.749   1.267
 3933SOL    HW212699   1.394   6.667   1.131
 3934SOL     OW12700   1.944   6.852   2.130
 3934SOL    HW112701   2.009   6.852   2.206
 3934SOL    HW212702   1.979   6.911   2.057
 3935SOL     OW12703   0.080   1.144   5.075
 3935SOL    HW112704   0.095   1.075   5.004
 3935SOL    HW212705   0.002   1.201   5.050
 3936SOL     OW12706   6.753   4.684   3.669
 3936SOL    HW112707   6.714   4.771   3.700
 3936SOL    HW212708   6.724   4.611   3.731
 3937SOL     OW12709   1.280   5.902   0.148
 3937SOL    HW112710   1.213   5.832   0.169
 3937SOL    HW212711   1.291   5.963   0.226
 3938SOL     OW12712   0.497   4.617   6.325
 3938SOL    HW112713   0.454   4.528   6.313
 3938SOL    HW212714   0.587   4.606   6.368
 3939SOL     OW12715   2.092   6.115   4.336
 3939SOL    HW112716   2.093   6.107   4.236
 3939SOL    HW212717   2.150   6.192   4.364
 3940SOL     OW12718   2.880   6.264   7.013
 3940SOL    HW112719   2.937   6.192   0.037
 3940SOL    HW212720   2.852   6.329   0.065
 3941SOL     OW12721   5.823   5.745   2.375
 3941SOL    HW112722   5.901   5.786   2.422
 3941SOL    HW212723   5.807   5.652   2.411
 3942SOL     OW12724   0.762   6.532   6.882
 3942SOL    HW112725   0.741   6.630   6.881
 3942SOL    HW212726   0.688   6.482   6.927
 3943SOL     OW12727   0.836   5.447   0.377
 3943SOL    HW112728   0.787   5.520   0.423
 3943SOL    HW212729   0.874   5.384   0.445
 3944SOL     OW12730   4.807   2.757   0.720
 3944SOL    HW112731   4.830   2.704   0.802
 3944SOL    HW212732   4.855   2.844   0.723
 3945SOL     OW12733   6.943   0.915   2.638
 3945SOL    HW112734   6.912   0.889   2.547
 3945SOL    HW212735   6.884   0.987   2.674
 3946SOL     OW12736   5.462   1.894   1.168
 3946SOL    HW112737   5.368   1.911   1.196
 3946SOL    HW212738   5.520   1.970   1.199
 3947SOL     OW12739   5.247   0.263   1.768
 3947SOL    HW112740   5.286   0.172   1.754
 3947SOL    HW212741   5.316   0.323   1.811
 3948SOL     OW12742   1.716   1.770   4.294
 3948SOL    HW112743   1.636   1.815   4.334
 3948SOL    HW212744   1.757   1.829   4.225
 3949SOL     OW12745   6.142   0.169   2.571
 3949SOL    HW112746   6.169   0.266   2.573
 3949SOL    HW212747   6.156   0.133   2.479
 3950SOL     OW12748   2.580   4.521   1.684
 3950SOL    HW112749   2.492   4.542   1.641
 3950SOL    HW212750   2.627   4.607   1.705
 3951SOL     OW12751   6.788   2.547   3.708
 3951SOL    HW112752   6.821   2.488   3.634
 3951SOL    HW212753   6.688   2.552   3.705
 3952SOL     OW12754   5.799   5.116   6.858
 3952SOL    HW112755   5.860   5.037   6.853
 3952SOL    HW212756   5.720   5.094   6.914
 3953SOL     OW12757   3.439   3.133   5.138
 3953SOL    HW112758   3.470   3.044   5.171
 3953SOL    HW212759   3.339   3.134   5.133
 3954SOL     OW12760   0.923   4.701   5.577
 3954SOL    HW112761   0.929   4.653   5.489
 3954SOL    HW212762   0.884   4.639   5.645
 3955SOL     OW12763   5.755   3.432   7.008
 3955SOL    HW112764   5.762   3.501   6.937
 3955SOL    HW212765   5.844   3.389   0.003
 3956SOL     OW12766   6.488   3.005   5.202
 3956SOL    HW112767   6.426   3.060   5.259
 3956SOL    HW212768   6.569   3.059   5.180
 3957SOL     OW12769   1.902   2.864   1.668
 3957SOL    HW112770   1.907   2.774   1.625
 3957SOL    HW212771   1.872   2.931   1.601
 3958SOL     OW12772   5.685   5.752   1.591
 3958SOL    HW112773   5.664   5.833   1.646
 3958SOL    HW212774   5.614   5.683   1.605
 3959SOL     OW12775   3.145   4.924   1.302
 3959SOL    HW112776   3.096   4.906   1.387
 3959SOL    HW212777   3.243   4.926   1.320
 3960SOL     OW12778   5.924   3.044   0.995
 3960SOL    HW112779   5.883   3.135   0.992
 3960SOL    HW212780   5.975   3.032   1.080
 3961SOL     OW12781   6.885   1.485   0.897
 3961SOL    HW112782   6.911   1.522   0.808
 3961SOL    HW212783   6.962   1.492   0.960
 3962SOL     OW12784   0.304   6.524   6.449
 3962SOL    HW112785   0.253   6.600   6.489
 3962SOL    HW212786   0.348   6.554   6.365
 3963SOL     OW12787   5.249   3.700   4.592
 3963SOL    HW112788   5.211   3.628   4.650
 3963SOL    HW212789   5.286   3.773   4.650
 3964SOL     OW12790   6.024   4.549   6.713
 3964SOL    HW112791   6.032   4.588   6.805
 3964SOL    HW212792   6.063   4.613   6.647
 3965SOL     OW12793   2.308   4.235   1.486
 3965SOL    HW112794   2.401   4.270   1.488
 3965SOL    HW212795   2.265   4.260   1.399
 3966SOL     OW12796   6.937   3.147   5.453
 3966SOL    HW112797   6.957   3.243   5.472
 3966SOL    HW212798   7.001   3.113   5.384
 3967SOL     OW12799   1.872   0.521   0.428
 3967SOL    HW112800   1.807   0.480   0.492
 3967SOL    HW212801   1.870   0.621   0.439
 3968SOL     OW12802   4.578   2.861   0.903
 3968SOL    HW112803   4.581   2.921   0.823
 3968SOL    HW212804   4.584   2.766   0.874
 3969SOL     OW12805   6.262   6.349   1.218
 3969SOL    HW112806   6.176   6.373   1.173
 3969SOL    HW212807   6.246   6.338   1.316
 3970SOL     OW12808   5.521   4.179   4.015
 3970SOL    HW112809   5.488   4.220   3.930
 3970SOL    HW212810   5.608   4.222   4.041
 3971SOL     OW12811   0.186   5.936   4.215
 3971SOL    HW112812   0.185   5.841   4.248
 3971SOL    HW212813   0.106   5.984   4.250
 3972SOL     OW12814   1.021   0.722   6.680
 3972SOL    HW112815   1.088   0.681   6.619
 3972SOL    HW212816   0.929   0.690   6.657
 3973SOL     OW12817   3.950   3.021   1.872
 3973SOL    HW112818   3.886   3.097   1.855
 3973SOL    HW212819   4.009   3.009   1.792
 3974SOL     OW12820   5.245   1.026   6.824
 3974SOL    HW112821   5.288   1.117   6.830
 3974SOL    HW212822   5.175   1.017   6.895
 3975SOL     OW12823   6.736   5.920   3.779
 3975SOL    HW112824   6.706   5.828   3.756
 3975SOL    HW212825   6.804   5.951   3.713
 3976SOL     OW12826   0.473   2.849   5.548
 3976SOL    HW112827   0.532   2.883   5.475
 3976SOL    HW212828   0.528   2.806   5.619
 3977SOL     OW12829   2.453   4.944   5.990
 3977SOL    HW112830   2.540   4.974   6.029
 3977SOL    HW212831   2.471   4.888   5.909
 3978SOL     OW12832   4.824   2.561   5.806
 3978SOL    HW112833   4.783   2.592   5.892
 3978SOL    HW212834   4.785   2.614   5.730
 3979SOL     OW12835   0.899   5.428   2.714
 3979SOL    HW112836   0.910   5.329   2.726
 3979SOL    HW212837   0.807   5.455   2.743
 3980SOL     OW12838   5.160   4.052   4.245
 3980SOL    HW112839   5.116   4.139   4.263
 3980SOL    HW212840   5.108   3.978   4.288
 3981SOL     OW12841   6.981   0.915   6.591
 3981SOL    HW112842   6.905   0.949   6.537
 3981SOL    HW212843   0.007   0.839   6.543
 3982SOL     OW12844   2.138   3.120   4.535
 3982SOL    HW112845   2.172   3.056   4.604
 3982SOL    HW212846   2.054   3.164   4.568
 3983SOL     OW12847   2.762   0.719   3.480
 3983SOL    HW112848   2.838   0.726   3.544
 3983SOL    HW212849   2.695   0.654   3.514
 3984SOL     OW12850   1.470   6.046   2.150
 3984SOL    HW112851   1.518   6.048   2.062
 3984SOL    HW212852   1.503   6.120   2.208
 3985SOL     OW12853   1.780   2.627   1.328
 3985SOL    HW112854   1.789   2.612   1.427
 3985SOL    HW212855   1.841   2.701   1.300
 3986SOL     OW12856   0.542   1.620   3.096
 3986SOL    HW112857   0.444   1.605   3.104
 3986SOL    HW212858   0.591   1.540   3.131
 3987SOL     OW12859   0.962   4.279   5.431
 3987SOL    HW112860   1.038   4.263   5.495
 3987SOL    HW212861   0.884   4.223   5.458
 3988SOL     OW12862   5.195   6.565   1.897
 3988SOL    HW112863   5.258   6.548   1.973
 3988SOL    HW212864   5.118   6.500   1.903
 3989SOL     OW12865   4.306   0.602   5.894
 3989SOL    HW112866   4.320   0.528   5.828
 3989SOL    HW212867   4.246   0.570   5.968
 3990SOL     OW12868   6.128   0.310   4.073
 3990SOL    HW112869   6.153   0.236   4.011
 3990SOL    HW212870   6.211   0.351   4.112
 3991SOL     OW12871   6.484   2.079   3.373
 3991SOL    HW112872   6.395   2.044   3.401
 3991SOL    HW212873   6.476   2.127   3.286
 3992SOL     OW12874   5.808   3.638   5.860
 3992SOL    HW112875   5.764   3.727   5.876
 3992SOL    HW212876   5.794   3.610   5.765
 3993SOL     OW12877   1.694   1.045   4.228
 3993SOL    HW112878   1.744   1.124   4.194
 3993SOL    HW212879   1.635   1.073   4.304
 3994SOL     OW12880   3.122   2.181   3.793
 3994SOL    HW112881   3.145   2.204   3.699
 3994SOL    HW212882   3.088   2.087   3.797
 3995SOL     OW12883   1.622   3.344   1.970
 3995SOL    HW112884   1.564   3.424   1.962
 3995SOL    HW212885   1.571   3.263   1.941
 3996SOL     OW12886   0.456   6.309   5.184
 3996SOL    HW112887   0.523   6.340   5.251
 3996SOL    HW212888   0.420   6.220   5.211
 3997SOL     OW12889   5.486   3.388   4.751
 3997SOL    HW112890   5.577   3.416   4.781
 3997SOL    HW212891   5.433   3.468   4.723
 3998SOL     OW12892   3.725   2.127   3.605
 3998SOL    HW112893   3.751   2.219   3.636
 3998SOL    HW212894   3.660   2.088   3.670
 3999SOL     OW12895   5.018   3.726   0.861
 3999SOL    HW112896   5.022   3.794   0.934
 3999SOL    HW212897   5.096   3.739   0.799
 4000SOL     OW12898   2.104   4.938   2.959
 4000SOL    HW112899   2.087   4.858   2.901
 4000SOL    HW212900   2.195   4.929   3.000
 4001SOL     OW12901   0.643   6.138   4.812
 4001SOL    HW112902   0.621   6.151   4.716
 4001SOL    HW212903   0.735   6.173   4.831
 4002SOL     OW12904   3.963   3.956   5.116
 4002SOL    HW112905   3.962   4.035   5.055
 4002SOL    HW212906   3.881   3.901   5.100
 4003SOL     OW12907   2.786   1.013   4.680
 4003SOL    HW112908   2.713   0.945   4.688
 4003SOL    HW212909   2.758   1.083   4.614
 4004SOL     OW12910   1.752   3.540   5.090
 4004SOL    HW112911   1.783   3.634   5.073
 4004SOL    HW212912   1.763   3.486   5.007
 4005SOL     OW12913   5.495   3.201   0.886
 4005SOL    HW112914   5.549   3.144   0.824
 4005SOL    HW212915   5.556   3.261   0.937
 4006SOL     OW12916   0.163   5.919   1.906
 4006SOL    HW112917   0.259   5.910   1.933
 4006SOL    HW212918   0.151   5.888   1.812
 4007SOL     OW12919   0.483   1.102   1.233
 4007SOL    HW112920   0.475   1.090   1.134
 4007SOL    HW212921   0.528   1.021   1.273
 4008SOL     OW12922   4.102   0.904   1.484
 4008SOL    HW112923   4.162   0.854   1.421
 4008SOL    HW212924   4.095   0.854   1.570
 4009SOL     OW12925   3.641   2.411   1.302
 4009SOL    HW112926   3.649   2.324   1.350
 4009SOL    HW212927   3.600   2.479   1.362
 4010SOL     OW12928   1.733   4.986   0.917
 4010SOL    HW112929   1.803   4.992   0.988
 4010SOL    HW212930   1.646   4.958   0.958
 4011SOL     OW12931   5.899   6.872   6.204
 4011SOL    HW112932   5.868   6.891   6.111
 4011SOL    HW212933   5.823   6.833   6.256
 4012SOL     OW12934   5.178   5.113   1.517
 4012SOL    HW112935   5.209   5.118   1.422
 4012SOL    HW212936   5.125   5.029   1.531
 4013SOL     OW12937   6.945   2.007   0.030
 4013SOL    HW112938   6.847   1.987   0.032
 4013SOL    HW212939   6.975   2.022   6.954
 4014SOL     OW12940   2.977   6.064   2.476
 4014SOL    HW112941   3.034   6.094   2.399
 4014SOL    HW212942   2.940   5.973   2.456
 4015SOL     OW12943   3.985   6.717   4.948
 4015SOL    HW112944   3.936   6.737   4.864
 4015SOL    HW212945   3.935   6.647   5.000
 4016SOL     OW12946   4.791   5.163   4.587
 4016SOL    HW112947   4.795   5.139   4.684
 4016SOL    HW212948   4.846   5.245   4.570
 4017SOL     OW12949   2.131   6.157   6.067
 4017SOL    HW112950   2.127   6.075   6.123
 4017SOL    HW212951   2.188   6.226   6.112
 4018SOL     OW12952   5.256   5.243   0.535
 4018SOL    HW112953   5.351   5.272   0.550
 4018SOL    HW212954   5.240   5.158   0.583
 4019SOL     OW12955   0.720   2.462   3.303
 4019SOL    HW112956   0.801   2.471   3.362
 4019SOL    HW212957   0.706   2.366   3.281
 4020SOL     OW12958   6.669   5.820   4.036
 4020SOL    HW112959   6.727   5.833   4.116
 4020SOL    HW212960   6.710   5.866   3.957
 4021SOL     OW12961   4.966   5.355   5.886
 4021SOL    HW112962   4.878   5.307   5.894
 4021SOL    HW212963   5.001   5.345   5.792
 4022SOL     OW12964   3.409   0.147   1.572
 4022SOL    HW112965   3.495   0.188   1.540
 4022SOL    HW212966   3.418   0.048   1.572
 4023SOL     OW12967   1.065   1.973   4.288
 4023SOL    HW112968   1.071   2.071   4.304
 4023SOL    HW212969   1.015   1.956   4.203
 4024SOL     OW12970   1.182   6.793   6.295
 4024SOL    HW112971   1.116   6.831   6.360
 4024SOL    HW212972   1.271   6.784   6.339
 4025SOL     OW12973   0.265   3.979   4.648
 4025SOL    HW112974   0.264   3.949   4.743
 4025SOL    HW212975   0.319   4.063   4.640
 4026SOL     OW12976   0.559   6.537   4.406
 4026SOL    HW112977   0.538   6.555   4.502
 4026SOL    HW212978   0.576   6.439   4.393
 4027SOL     OW12979   2.680   5.117   5.308
 4027SOL    HW112980   2.682   5.077   5.400
 4027SOL    HW212981   2.773   5.127   5.273
 4028SOL     OW12982   4.999   1.711   4.583
 4028SOL    HW112983   4.995   1.647   4.659
 4028SOL    HW212984   5.086   1.760   4.586
 4029SOL     OW12985   1.641   6.453   0.524
 4029SOL    HW112986   1.704   6.474   0.599
 4029SOL    HW212987   1.574   6.527   0.516
 4030SOL     OW12988   1.116   1.410   1.752
 4030SOL    HW112989   1.102   1.432   1.656
 4030SOL    HW212990   1.057   1.333   1.778
 4031SOL     OW12991   5.652   5.820   0.694
 4031SOL    HW112992   5.629   5.829   0.597
 4031SOL    HW212993   5.620   5.901   0.743
 4032SOL     OW12994   5.083   1.953   2.034
 4032SOL    HW112995   5.098   1.969   1.937
 4032SOL    HW212996   5.060   1.857   2.050
 4033SOL     OW12997   1.623   2.933   2.949
 4033SOL    HW112998   1.717   2.911   2.924
 4033SOL    HW212999   1.585   2.998   2.883
 4034SOL     OW13000   2.147   2.419   4.597
 4034SOL    HW113001   2.208   2.438   4.521
 4034SOL    HW213002   2.152   2.495   4.663
 4035SOL     OW13003   3.753   2.375   1.630
 4035SOL    HW113004   3.707   2.317   1.697
 4035SOL    HW213005   3.782   2.460   1.673
 4036SOL     OW13006   4.032   6.157   3.536
 4036SOL    HW113007   4.086   6.171   3.453
 4036SOL    HW213008   4.082   6.194   3.615
 4037SOL     OW13009   1.785   1.222   6.193
 4037SOL    HW113010   1.787   1.194   6.097
 4037SOL    HW213011   1.746   1.314   6.200
 4038SOL     OW13012   4.003   4.646   5.932
 4038SOL    HW113013   3.972   4.732   5.972
 4038SOL    HW213014   3.939   4.617   5.861
 4039SOL     OW13015   6.320   4.633   1.441
 4039SOL    HW113016   6.396   4.579   1.407
 4039SOL    HW213017   6.349   4.727   1.456
 4040SOL     OW13018   2.531   0.300   4.988
 4040SOL    HW113019   2.580   0.373   4.940
 4040SOL    HW213020   2.451   0.273   4.934
 4041SOL     OW13021   1.494   6.280   1.677
 4041SOL    HW113022   1.452   6.190   1.683
 4041SOL    HW213023   1.564   6.280   1.606
 4042SOL     OW13024   0.415   1.517   3.742
 4042SOL    HW113025   0.344   1.513   3.812
 4042SOL    HW213026   0.373   1.506   3.652
 4043SOL     OW13027   4.104   2.246   6.213
 4043SOL    HW113028   4.112   2.326   6.154
 4043SOL    HW213029   4.144   2.267   6.302
 4044SOL     OW13030   4.538   4.406   3.282
 4044SOL    HW113031   4.615   4.369   3.333
 4044SOL    HW213032   4.452   4.384   3.329
 4045SOL     OW13033   4.259   1.171   4.976
 4045SOL    HW113034   4.234   1.171   5.072
 4045SOL    HW213035   4.296   1.260   4.950
 4046SOL     OW13036   4.952   1.367   4.079
 4046SOL    HW113037   4.944   1.362   4.178
 4046SOL    HW213038   4.868   1.330   4.037
 4047SOL     OW13039   3.124   2.175   6.369
 4047SOL    HW113040   3.164   2.261   6.398
 4047SOL    HW213041   3.143   2.104   6.438
 4048SOL     OW13042   4.682   2.241   3.437
 4048SOL    HW113043   4.640   2.298   3.366
 4048SOL    HW213044   4.773   2.213   3.408
 4049SOL     OW13045   4.259   3.959   1.380
 4049SOL    HW113046   4.216   3.869   1.394
 4049SOL    HW213047   4.250   4.013   1.464
 4050SOL     OW13048   6.808   4.863   3.241
 4050SOL    HW113049   6.846   4.895   3.328
 4050SOL    HW213050   6.776   4.942   3.188
 4051SOL     OW13051   5.994   1.219   4.256
 4051SOL    HW113052   5.941   1.162   4.194
 4051SOL    HW213053   6.092   1.203   4.241
 4052SOL     OW13054   4.802   1.812   4.400
 4052SOL    HW113055   4.878   1.769   4.448
 4052SOL    HW213056   4.816   1.911   4.396
 4053SOL     OW13057   0.482   4.925   3.872
 4053SOL    HW113058   0.568   4.957   3.912
 4053SOL    HW213059   0.425   5.004   3.849
 4054SOL     OW13060   4.869   4.100   1.174
 4054SOL    HW113061   4.962   4.068   1.156
 4054SOL    HW213062   4.829   4.047   1.249
 4055SOL     OW13063   6.991   4.545   0.057
 4055SOL    HW113064   6.985   4.447   0.080
 4055SOL    HW213065   6.971   4.557   6.978
 4056SOL     OW13066   4.962   3.870   0.097
 4056SOL    HW113067   4.954   3.881   0.196
 4056SOL    HW213068   4.918   3.784   0.070
 4057SOL     OW13069   6.986   4.246   5.766
 4057SOL    HW113070   6.928   4.324   5.744
 4057SOL    HW213071   0.005   4.256   5.859
 4058SOL     OW13072   3.821   0.555   4.206
 4058SOL    HW113073   3.808   0.557   4.106
 4058SOL    HW213074   3.767   0.627   4.248
 4059SOL     OW13075   1.070   1.444   4.036
 4059SOL    HW113076   1.045   1.373   4.101
 4059SOL    HW213077   1.052   1.413   3.943
 4060SOL     OW13078   0.034   6.366   4.349
 4060SOL    HW113079   6.953   6.380   4.342
 4060SOL    HW213080   0.074   6.371   4.258
 4061SOL     OW13081   1.150   4.303   1.969
 4061SOL    HW113082   1.192   4.219   2.004
 4061SOL    HW213083   1.222   4.365   1.936
 4062SOL     OW13084   2.261   4.425   0.374
 4062SOL    HW113085   2.199   4.409   0.450
 4062SOL    HW213086   2.246   4.356   0.303
 4063SOL     OW13087   3.685   0.819   0.927
 4063SOL    HW113088   3.750   0.874   0.980
 4063SOL    HW213089   3.597   0.817   0.976
 4064SOL     OW13090   2.268   0.519   4.741
 4064SOL    HW113091   2.327   0.599   4.730
 4064SOL    HW213092   2.190   0.526   4.679
 4065SOL     OW13093   2.388   1.482   1.346
 4065SOL    HW113094   2.377   1.400   1.290
 4065SOL    HW213095   2.323   1.551   1.317
 4066SOL     OW13096   0.375   3.746   4.544
 4066SOL    HW113097   0.313   3.819   4.573
 4066SOL    HW213098   0.404   3.762   4.450
 4067SOL     OW13099   6.547   4.934   0.708
 4067SOL    HW113100   6.467   4.898   0.757
 4067SOL    HW213101   6.594   4.859   0.661
 4068SOL     OW13102   1.644   2.755   5.718
 4068SOL    HW113103   1.662   2.657   5.728
 4068SOL    HW213104   1.633   2.776   5.621
 4069SOL     OW13105   4.692   6.916   5.631
 4069SOL    HW113106   4.686   6.833   5.687
 4069SOL    HW213107   4.691   6.997   5.691
 4070SOL     OW13108   1.938   3.203   4.310
 4070SOL    HW113109   2.037   3.199   4.325
 4070SOL    HW213110   1.918   3.270   4.238
 4071SOL     OW13111   1.678   0.558   4.955
 4071SOL    HW113112   1.692   0.534   4.859
 4071SOL    HW213113   1.767   0.579   4.997
 4072SOL     OW13114   3.064   6.685   2.616
 4072SOL    HW113115   3.036   6.624   2.541
 4072SOL    HW213116   3.087   6.775   2.580
 4073SOL     OW13117   4.188   5.234   6.707
 4073SOL    HW113118   4.136   5.292   6.770
 4073SOL    HW213119   4.129   5.209   6.630
 4074SOL     OW13120   1.555   5.919   2.401
 4074SOL    HW113121   1.518   5.943   2.311
 4074SOL    HW213122   1.578   5.822   2.403
 4075SOL     OW13123   6.160   0.775   0.024
 4075SOL    HW113124   6.197   0.776   0.117
 4075SOL    HW213125   6.096   0.851   0.014
 4076SOL     OW13126   1.773   5.814   3.997
 4076SOL    HW113127   1.706   5.746   3.969
 4076SOL    HW213128   1.861   5.794   3.953
 4077SOL     OW13129   2.868   1.917   1.554
 4077SOL    HW113130   2.916   1.996   1.516
 4077SOL    HW213131   2.835   1.938   1.646
 4078SOL     OW13132   4.235   5.202   2.307
 4078SOL    HW113133   4.233   5.193   2.406
 4078SOL    HW213134   4.247   5.298   2.282
 4079SOL     OW13135   0.691   1.784   4.249
 4079SOL    HW113136   0.618   1.759   4.185
 4079SOL    HW213137   0.672   1.874   4.287
 4080SOL     OW13138   6.246   2.404   4.287
 4080SOL    HW113139   6.234   2.390   4.386
 4080SOL    HW213140   6.204   2.491   4.260
 4081SOL     OW13141   6.755   4.107   3.006
 4081SOL    HW113142   6.738   4.011   2.984
 4081SOL    HW213143   6.718   4.165   2.933
 4082SOL     OW13144   0.300   3.225   0.122
 4082SOL    HW113145   0.370   3.294   0.135
 4082SOL    HW213146   0.342   3.134   0.122
 4083SOL     OW13147   6.394   3.238   4.904
 4083SOL    HW113148   6.391   3.139   4.923
 4083SOL    HW213149   6.333   3.258   4.827
 4084SOL     OW13150   5.804   0.903   4.718
 4084SOL    HW113151   5.736   0.899   4.645
 4084SOL    HW213152   5.763   0.867   4.802
 4085SOL     OW13153   3.241   5.736   6.300
 4085SOL    HW113154   3.274   5.831   6.301
 4085SOL    HW213155   3.285   5.688   6.224
 4086SOL     OW13156   0.817   3.188   1.500
 4086SOL    HW113157   0.802   3.089   1.498
 4086SOL    HW213158   0.892   3.212   1.438
 4087SOL     OW13159   2.175   1.221   3.333
 4087SOL    HW113160   2.270   1.190   3.331
 4087SOL    HW213161   2.156   1.275   3.251
 4088SOL     OW13162   6.743   2.213   6.862
 4088SOL    HW113163   6.795   2.271   6.924
 4088SOL    HW213164   6.736   2.121   6.901
 4089SOL     OW13165   0.612   0.950   5.876
 4089SOL    HW113166   0.524   0.951   5.829
 4089SOL    HW213167   0.618   1.028   5.939
 4090SOL     OW13168   3.423   5.215   6.366
 4090SOL    HW113169   3.491   5.268   6.316
 4090SOL    HW213170   3.437   5.225   6.464
 4091SOL     OW13171   4.885   6.750   1.386
 4091SOL    HW113172   4.799   6.796   1.363
 4091SOL    HW213173   4.937   6.807   1.450
 4092SOL     OW13174   0.728   1.304   4.122
 4092SOL    HW113175   0.780   1.376   4.169
 4092SOL    HW213176   0.664   1.345   4.057
 4093SOL     OW13177   5.202   6.920   3.962
 4093SOL    HW113178   5.269   6.858   4.004
 4093SOL    HW213179   5.164   6.980   4.032
 4094SOL     OW13180   3.292   3.674   5.948
 4094SOL    HW113181   3.334   3.618   6.019
 4094SOL    HW213182   3.305   3.630   5.859
 4095SOL     OW13183   1.754   3.627   6.064
 4095SOL    HW113184   1.795   3.537   6.051
 4095SOL    HW213185   1.789   3.690   5.994
 4096SOL     OW13186   4.514   4.823   1.865
 4096SOL    HW113187   4.603   4.780   1.851
 4096SOL    HW213188   4.448   4.755   1.898
 4097SOL     OW13189   3.337   4.101   3.285
 4097SOL    HW113190   3.426   4.081   3.325
 4097SOL    HW213191   3.349   4.138   3.193
 4098SOL     OW13192   0.908   3.176   2.069
 4098SOL    HW113193   0.819   3.150   2.106
 4098SOL    HW213194   0.974   3.103   2.086
 4099SOL     OW13195   2.745   6.074   1.884
 4099SOL    HW113196   2.689   6.104   1.962
 4099SOL    HW213197   2.734   6.139   1.809
 4100SOL     OW13198   3.882   0.333   3.003
 4100SOL    HW113199   3.917   0.244   2.974
 4100SOL    HW213200   3.792   0.348   2.962
 4101SOL     OW13201   4.412   1.608   6.398
 4101SOL    HW113202   4.312   1.607   6.391
 4101SOL    HW213203   4.440   1.672   6.469
 4102SOL     OW13204   4.135   1.565   6.425
 4102SOL    HW113205   4.083   1.521   6.353
 4102SOL    HW213206   4.078   1.632   6.472
 4103SOL     OW13207   0.007   0.457   1.691
 4103SOL    HW113208   0.020   0.529   1.623
 4103SOL    HW213209   0.009   0.498   1.783
 4104SOL     OW13210   2.250   4.655   2.428
 4104SOL    HW113211   2.156   4.633   2.452
 4104SOL    HW213212   2.258   4.665   2.329
 4105SOL     OW13213   5.789   5.483   0.324
 4105SOL    HW113214   5.797   5.537   0.408
 4105SOL    HW213215   5.727   5.406   0.341
 4106SOL     OW13216   6.452   3.799   4.671
 4106SOL    HW113217   6.461   3.896   4.697
 4106SOL    HW213218   6.367   3.786   4.621
 4107SOL     OW13219   0.277   0.566   0.722
 4107SOL    HW113220   0.179   0.557   0.738
 4107SOL    HW213221   0.318   0.475   0.714
 4108SOL     OW13222   6.299   2.345   4.936
 4108SOL    HW113223   6.261   2.424   4.888
 4108SOL    HW213224   6.287   2.356   5.034
 4109SOL     OW13225   2.349   6.241   4.010
 4109SOL    HW113226   2.388   6.168   4.067
 4109SOL    HW213227   2.384   6.234   3.917
 4110SOL     OW13228   4.864   3.330   5.181
 4110SOL    HW113229   4.796   3.397   5.149
 4110SOL    HW213230   4.956   3.367   5.167
 4111SOL     OW13231   3.711   2.960   6.502
 4111SOL    HW113232   3.746   2.867   6.508
 4111SOL    HW213233   3.749   3.004   6.420
 4112SOL     OW13234   4.099   0.201   6.051
 4112SOL    HW113235   4.058   0.255   6.124
 4112SOL    HW213236   4.042   0.121   6.033
 4113SOL     OW13237   3.771   5.144   4.725
 4113SOL    HW113238   3.769   5.085   4.644
 4113SOL    HW213239   3.846   5.116   4.785
 4114SOL     OW13240   3.895   1.913   2.824
 4114SOL    HW113241   3.851   1.977   2.761
 4114SOL    HW213242   3.933   1.963   2.902
 4115SOL     OW13243   4.797   3.960   2.672
 4115SOL    HW113244   4.718   3.900   2.686
 4115SOL    HW213245   4.879   3.918   2.709
 4116SOL     OW13246   2.746   0.844   2.293
 4116SOL    HW113247   2.830   0.797   2.320
 4116SOL    HW213248   2.748   0.938   2.328
 4117SOL     OW13249   0.958   5.973   1.325
 4117SOL    HW113250   1.040   5.973   1.382
 4117SOL    HW213251   0.984   5.981   1.229
 4118SOL     OW13252   1.759   0.203   6.772
 4118SOL    HW113253   1.677   0.235   6.819
 4118SOL    HW213254   1.738   0.120   6.721
 4119SOL     OW13255   5.030   1.657   3.491
 4119SOL    HW113256   5.073   1.702   3.569
 4119SOL    HW213257   5.094   1.594   3.449
 4120SOL     OW13258   5.223   1.373   2.234
 4120SOL    HW113259   5.290   1.345   2.303
 4120SOL    HW213260   5.269   1.424   2.161
 4121SOL     OW13261   6.355   2.368   4.000
 4121SOL    HW113262   6.372   2.413   4.088
 4121SOL    HW213263   6.266   2.322   4.003
 4122SOL     OW13264   1.976   5.510   0.199
 4122SOL    HW113265   2.062   5.466   0.174
 4122SOL    HW213266   1.914   5.443   0.240
 4123SOL     OW13267   4.270   3.465   5.587
 4123SOL    HW113268   4.353   3.411   5.568
 4123SOL    HW213269   4.234   3.502   5.502
 4124SOL     OW13270   4.247   5.914   3.481
 4124SOL    HW113271   4.234   5.952   3.573
 4124SOL    HW213272   4.223   5.817   3.481
 4125SOL     OW13273   4.605   1.102   1.761
 4125SOL    HW113274   4.579   1.153   1.843
 4125SOL    HW213275   4.671   1.031   1.784
 4126SOL     OW13276   1.810   4.409   4.730
 4126SOL    HW113277   1.836   4.315   4.751
 4126SOL    HW213278   1.724   4.432   4.776
 4127SOL     OW13279   5.685   4.719   4.568
 4127SOL    HW113280   5.748   4.663   4.622
 4127SOL    HW213281   5.713   4.716   4.472
 4128SOL     OW13282   0.336   1.795   1.603
 4128SOL    HW113283   0.357   1.848   1.521
 4128SOL    HW213284   0.398   1.820   1.677
 4129SOL     OW13285   6.580   2.875   6.369
 4129SOL    HW113286   6.508   2.917   6.313
 4129SOL    HW213287   6.584   2.777   6.351
 4130SOL     OW13288   6.255   2.548   1.366
 4130SOL    HW113289   6.342   2.559   1.414
 4130SOL    HW213290   6.270   2.499   1.280
 4131SOL     OW13291   6.744   3.818   2.986
 4131SOL    HW113292   6.823   3.760   3.001
 4131SOL    HW213293   6.663   3.761   2.970
 4132SOL     OW13294   4.776   1.982   4.763
 4132SOL    HW113295   4.851   1.974   4.829
 4132SOL    HW213296   4.710   1.908   4.777
 4133SOL     OW13297   2.563   2.509   1.366
 4133SOL    HW113298   2.578   2.410   1.370
 4133SOL    HW213299   2.607   2.553   1.444
 4134SOL     OW13300   2.012   1.065   0.226
 4134SOL    HW113301   2.101   1.094   0.261
 4134SOL    HW213302   1.983   1.129   0.154
 4135SOL     OW13303   1.847   0.361   0.905
 4135SOL    HW113304   1.796   0.413   0.836
 4135SOL    HW213305   1.785   0.334   0.979
 4136SOL     OW13306   0.650   1.601   3.628
 4136SOL    HW113307   0.689   1.521   3.582
 4136SOL    HW213308   0.579   1.572   3.692
 4137SOL     OW13309   4.054   3.288   5.551
 4137SOL    HW113310   4.005   3.317   5.469
 4137SOL    HW213311   4.129   3.352   5.569
 4138SOL     OW13312   4.532   5.448   1.894
 4138SOL    HW113313   4.505   5.358   1.859
 4138SOL    HW213314   4.451   5.501   1.916
 4139SOL     OW13315   2.919   1.959   0.698
 4139SOL    HW113316   2.941   1.876   0.750
 4139SOL    HW213317   3.004   2.001   0.666
 4140SOL     OW13318   4.353   1.643   5.383
 4140SOL    HW113319   4.300   1.668   5.302
 4140SOL    HW213320   4.379   1.726   5.432
 4141SOL     OW13321   5.745   5.590   0.818
 4141SOL    HW113322   5.809   5.604   0.894
 4141SOL    HW213323   5.717   5.679   0.781
 4142SOL     OW13324   6.020   3.516   1.407
 4142SOL    HW113325   6.115   3.505   1.379
 4142SOL    HW213326   6.000   3.613   1.422
 4143SOL     OW13327   0.314   2.833   1.670
 4143SOL    HW113328   0.215   2.844   1.682
 4143SOL    HW213329   0.356   2.816   1.759
 4144SOL     OW13330   3.981   0.895   2.120
 4144SOL    HW113331   3.983   0.881   2.021
 4144SOL    HW213332   3.972   0.992   2.140
 4145SOL     OW13333   3.361   6.560   3.119
 4145SOL    HW113334   3.321   6.472   3.143
 4145SOL    HW213335   3.461   6.553   3.120
 4146SOL     OW13336   4.308   4.777   0.592
 4146SOL    HW113337   4.280   4.710   0.523
 4146SOL    HW213338   4.327   4.731   0.678
 4147SOL     OW13339   2.684   1.872   5.782
 4147SOL    HW113340   2.623   1.908   5.853
 4147SOL    HW213341   2.675   1.772   5.778
 4148SOL     OW13342   0.038   0.289   2.205
 4148SOL    HW113343   0.135   0.311   2.219
 4148SOL    HW213344   0.006   0.232   2.280
 4149SOL     OW13345   4.642   4.277   2.369
 4149SOL    HW113346   4.575   4.218   2.324
 4149SOL    HW213347   4.601   4.319   2.450
 4150SOL     OW13348   4.184   0.346   5.285
 4150SOL    HW113349   4.162   0.290   5.364
 4150SOL    HW213350   4.283   0.359   5.279
 4151SOL     OW13351   0.199   5.443   0.387
 4151SOL    HW113352   0.259   5.485   0.319
 4151SOL    HW213353   0.205   5.494   0.473
 4152SOL     OW13354   3.225   3.962   1.303
 4152SOL    HW113355   3.157   3.903   1.348
 4152SOL    HW213356   3.193   3.984   1.211
 4153SOL     OW13357   6.149   5.648   6.006
 4153SOL    HW113358   6.059   5.669   6.043
 4153SOL    HW213359   6.168   5.706   5.927
 4154SOL     OW13360   4.578   2.721   4.995
 4154SOL    HW113361   4.596   2.817   4.974
 4154SOL    HW213362   4.499   2.715   5.057
 4155SOL     OW13363   1.624   2.820   0.622
 4155SOL    HW113364   1.629   2.895   0.557
 4155SOL    HW213365   1.557   2.752   0.591
 4156SOL     OW13366   5.818   0.612   5.058
 4156SOL    HW113367   5.912   0.647   5.059
 4156SOL    HW213368   5.819   0.512   5.061
 4157SOL     OW13369   2.930   0.819   3.138
 4157SOL    HW113370   2.883   0.773   3.214
 4157SOL    HW213371   2.932   0.758   3.059
 4158SOL     OW13372   1.365   0.325   3.743
 4158SOL    HW113373   1.393   0.232   3.718
 4158SOL    HW213374   1.266   0.327   3.757
 4159SOL     OW13375   0.094   4.413   5.395
 4159SOL    HW113376   0.181   4.460   5.381
 4159SOL    HW213377   0.058   4.383   5.306
 4160SOL     OW13378   0.178   0.633   0.452
 4160SOL    HW113379   0.228   0.696   0.392
 4160SOL    HW213380   0.233   0.612   0.532
 4161SOL     OW13381   6.115   1.863   1.324
 4161SOL    HW113382   6.093   1.871   1.421
 4161SOL    HW213383   6.032   1.842   1.272
 4162SOL     OW13384   1.094   0.114   5.409
 4162SOL    HW113385   1.074   0.107   5.506
 4162SOL    HW213386   1.179   0.166   5.397
 4163SOL     OW13387   6.673   1.542   5.353
 4163SOL    HW113388   6.642   1.467   5.412
 4163SOL    HW213389   6.773   1.547   5.357
 4164SOL     OW13390   2.818   6.611   5.621
 4164SOL    HW113391   2.828   6.674   5.698
 4164SOL    HW213392   2.771   6.528   5.651
 4165SOL     OW13393   2.270   6.342   1.819
 4165SOL    HW113394   2.362   6.376   1.835
 4165SOL    HW213395   2.264   6.246   1.847
 4166SOL     OW13396   5.707   2.008   2.017
 4166SOL    HW113397   5.737   1.914   1.999
 4166SOL    HW213398   5.735   2.066   1.940
 4167SOL     OW13399   1.932   2.446   1.009
 4167SOL    HW113400   2.009   2.510   1.011
 4167SOL    HW213401   1.903   2.425   1.102
 4168SOL     OW13402   2.168   5.293   1.280
 4168SOL    HW113403   2.187   5.301   1.182
 4168SOL    HW213404   2.094   5.228   1.295
 4169SOL     OW13405   6.437   3.624   6.380
 4169SOL    HW113406   6.432   3.524   6.387
 4169SOL    HW213407   6.399   3.665   6.462
 4170SOL     OW13408   3.599   1.206   5.460
 4170SOL    HW113409   3.684   1.170   5.500
 4170SOL    HW213410   3.579   1.157   5.375
 4171SOL     OW13411   5.842   3.875   1.243
 4171SOL    HW113412   5.917   3.861   1.308
 4171SOL    HW213413   5.852   3.810   1.167
 4172SOL     OW13414   2.777   0.937   0.744
 4172SOL    HW113415   2.809   0.843   0.734
 4172SOL    HW213416   2.787   0.965   0.840
 4173SOL     OW13417   4.534   3.352   5.499
 4173SOL    HW113418   4.505   3.280   5.436
 4173SOL    HW213419   4.585   3.422   5.449
 4174SOL     OW13420   5.180   0.659   3.047
 4174SOL    HW113421   5.147   0.626   2.959
 4174SOL    HW213422   5.103   0.685   3.105
 4175SOL     OW13423   2.124   1.426   2.588
 4175SOL    HW113424   2.058   1.466   2.525
 4175SOL    HW213425   2.100   1.451   2.682
 4176SOL     OW13426   5.983   4.445   2.746
 4176SOL    HW113427   5.961   4.415   2.653
 4176SOL    HW213428   5.904   4.430   2.805
 4177SOL     OW13429   6.973   5.499   3.029
 4177SOL    HW113430   6.876   5.507   3.006
 4177SOL    HW213431   0.009   5.504   2.945
 4178SOL     OW13432   4.362   2.283   5.425
 4178SOL    HW113433   4.456   2.312   5.444
 4178SOL    HW213434   4.329   2.225   5.500
 4179SOL     OW13435   6.745   2.257   0.459
 4179SOL    HW113436   6.753   2.357   0.469
 4179SOL    HW213437   6.664   2.225   0.508
 4180SOL     OW13438   4.963   3.810   1.519
 4180SOL    HW113439   5.030   3.878   1.551
 4180SOL    HW213440   4.873   3.832   1.557
 4181SOL     OW13441   6.262   0.900   0.839
 4181SOL    HW113442   6.316   0.983   0.826
 4181SOL    HW213443   6.178   0.907   0.786
 4182SOL     OW13444   6.081   0.673   3.564
 4182SOL    HW113445   6.173   0.652   3.597
 4182SOL    HW213446   6.031   0.587   3.551
 4183SOL     OW13447   1.269   0.928   1.907
 4183SOL    HW113448   1.337   0.954   1.975
 4183SOL    HW213449   1.307   0.940   1.815
 4184SOL     OW13450   4.561   4.802   6.340
 4184SOL    HW113451   4.614   4.733   6.389
 4184SOL    HW213452   4.464   4.791   6.363
 4185SOL     OW13453   0.311   0.402   3.749
 4185SOL    HW113454   0.268   0.391   3.838
 4185SOL    HW213455   0.378   0.329   3.735
 4186SOL     OW13456   3.768   4.175   1.866
 4186SOL    HW113457   3.750   4.254   1.808
 4186SOL    HW213458   3.689   4.159   1.926
 4187SOL     OW13459   4.254   5.028   6.360
 4187SOL    HW113460   4.189   5.088   6.407
 4187SOL    HW213461   4.304   4.974   6.428
 4188SOL     OW13462   4.983   6.156   3.076
 4188SOL    HW113463   5.075   6.132   3.106
 4188SOL    HW213464   4.937   6.208   3.147
 4189SOL     OW13465   1.666   3.024   3.302
 4189SOL    HW113466   1.734   2.963   3.262
 4189SOL    HW213467   1.579   2.975   3.312
 4190SOL     OW13468   2.169   0.111   1.524
 4190SOL    HW113469   2.080   0.152   1.538
 4190SOL    HW213470   2.171   0.020   1.566
 4191SOL     OW13471   0.705   1.957   3.430
 4191SOL    HW113472   0.625   1.908   3.467
 4191SOL    HW213473   0.723   1.925   3.337
 4192SOL     OW13474   5.907   6.728   3.785
 4192SOL    HW113475   5.899   6.640   3.738
 4192SOL    HW213476   5.977   6.721   3.857
 4193SOL     OW13477   1.739   6.594   3.903
 4193SOL    HW113478   1.735   6.610   4.001
 4193SOL    HW213479   1.695   6.507   3.882
 4194SOL     OW13480   5.894   6.959   3.002
 4194SOL    HW113481   5.829   6.908   3.059
 4194SOL    HW213482   5.869   0.038   3.003
 4195SOL     OW13483   4.660   0.579   3.226
 4195SOL    HW113484   4.679   0.497   3.280
 4195SOL    HW213485   4.746   0.627   3.206
 4196SOL     OW13486   4.672   2.772   3.336
 4196SOL    HW113487   4.690   2.868   3.316
 4196SOL    HW213488   4.729   2.742   3.412
 4197SOL     OW13489   5.202   4.109   4.519
 4197SOL    HW113490   5.147   4.062   4.450
 4197SOL    HW213491   5.241   4.192   4.479
 4198SOL     OW13492   6.149   3.233   6.081
 4198SOL    HW113493   6.204   3.316   6.088
 4198SOL    HW213494   6.197   3.166   6.025
 4199SOL     OW13495   2.841   3.945   6.381
 4199SOL    HW113496   2.935   3.927   6.408
 4199SOL    HW213497   2.825   4.044   6.383
 4200SOL     OW13498   3.107   0.647   0.109
 4200SOL    HW113499   3.115   0.678   0.204
 4200SOL    HW213500   3.095   0.548   0.107
 4201SOL     OW13501   6.761   6.951   4.904
 4201SOL    HW113502   6.752   6.981   4.999
 4201SOL    HW213503   6.857   6.927   4.886
 4202SOL     OW13504   5.740   3.249   5.229
 4202SOL    HW113505   5.641   3.249   5.225
 4202SOL    HW213506   5.772   3.162   5.265
 4203SOL     OW13507   3.866   5.484   4.418
 4203SOL    HW113508   3.859   5.499   4.320
 4203SOL    HW213509   3.819   5.558   4.467
 4204SOL     OW13510   1.734   4.013   0.104
 4204SOL    HW113511   1.795   4.089   0.127
 4204SOL    HW213512   1.654   4.047   0.054
 4205SOL     OW13513   2.464   5.913   3.536
 4205SOL    HW113514   2.392   5.906   3.467
 4205SOL    HW213515   2.524   5.833   3.530
 4206SOL     OW13516   5.042   6.588   3.919
 4206SOL    HW113517   5.019   6.497   3.884
 4206SOL    HW213518   5.083   6.642   3.845
 4207SOL     OW13519   1.515   6.423   6.949
 4207SOL    HW113520   1.429   6.377   6.930
 4207SOL    HW213521   1.576   6.416   6.871
 4208SOL     OW13522   0.268   2.544   1.571
 4208SOL    HW113523   0.222   2.622   1.528
 4208SOL    HW213524   0.366   2.553   1.558
 4209SOL     OW13525   3.099   0.489   5.341
 4209SOL    HW113526   3.000   0.483   5.333
 4209SOL    HW213527   3.127   0.462   5.433
 4210SOL     OW13528   3.449   2.830   0.435
 4210SOL    HW113529   3.456   2.771   0.355
 4210SOL    HW213530   3.421   2.776   0.514
 4211SOL     OW13531   5.205   3.721   4.129
 4211SOL    HW113532   5.278   3.771   4.082
 4211SOL    HW213533   5.189   3.762   4.219
 4212SOL     OW13534   6.375   6.809   1.915
 4212SOL    HW113535   6.322   6.819   1.999
 4212SOL    HW213536   6.458   6.865   1.921
 4213SOL     OW13537   0.804   0.148   0.992
 4213SOL    HW113538   0.799   0.084   1.069
 4213SOL    HW213539   0.864   0.224   1.017
 4214SOL     OW13540   2.922   5.761   3.588
 4214SOL    HW113541   2.932   5.817   3.505
 4214SOL    HW213542   2.987   5.685   3.585
 4215SOL     OW13543   1.655   5.717   6.868
 4215SOL    HW113544   1.600   5.757   6.796
 4215SOL    HW213545   1.747   5.756   6.865
 4216SOL     OW13546   2.703   3.097   5.310
 4216SOL    HW113547   2.606   3.082   5.288
 4216SOL    HW213548   2.710   3.155   5.391
 4217SOL     OW13549   6.426   0.858   4.385
 4217SOL    HW113550   6.500   0.911   4.428
 4217SOL    HW213551   6.466   0.783   4.332
 4218SOL     OW13552   3.217   5.472   2.447
 4218SOL    HW113553   3.275   5.543   2.405
 4218SOL    HW213554   3.163   5.427   2.376
 4219SOL     OW13555   5.387   0.263   2.794
 4219SOL    HW113556   5.412   0.212   2.712
 4219SOL    HW213557   5.416   0.213   2.876
 4220SOL     OW13558   6.997   4.605   2.813
 4220SOL    HW113559   7.001   4.690   2.865
 4220SOL    HW213560   6.912   4.557   2.834
 4221SOL     OW13561   5.083   6.573   6.068
 4221SOL    HW113562   5.106   6.640   5.998
 4221SOL    HW213563   5.140   6.491   6.055
 4222SOL     OW13564   2.804   2.571   0.020
 4222SOL    HW113565   2.865   2.650   0.015
 4222SOL    HW213566   2.771   2.561   0.114
 4223SOL     OW13567   3.616   3.946   3.162
 4223SOL    HW113568   3.530   3.898   3.180
 4223SOL    HW213569   3.636   4.006   3.239
 4224SOL     OW13570   3.592   1.833   5.624
 4224SOL    HW113571   3.650   1.762   5.666
 4224SOL    HW213572   3.650   1.910   5.595
 4225SOL     OW13573   5.232   0.262   4.315
 4225SOL    HW113574   5.218   0.190   4.383
 4225SOL    HW213575   5.330   0.277   4.301
 4226SOL     OW13576   2.041   1.815   2.272
 4226SOL    HW113577   1.982   1.760   2.331
 4226SOL    HW213578   2.024   1.792   2.176
 4227SOL     OW13579   5.428   3.867   6.925
 4227SOL    HW113580   5.413   3.794   6.991
 4227SOL    HW213581   5.391   3.840   6.836
 4228SOL     OW13582   4.172   5.500   2.778
 4228SOL    HW113583   4.097   5.538   2.832
 4228SOL    HW213584   4.246   5.568   2.771
 4229SOL     OW13585   3.669   5.029   5.129
 4229SOL    HW113586   3.756   4.982   5.143
 4229SOL    HW213587   3.594   4.970   5.160
 4230SOL     OW13588   2.645   1.414   6.205
 4230SOL    HW113589   2.690   1.389   6.120
 4230SOL    HW213590   2.616   1.509   6.201
 4231SOL     OW13591   3.665   6.474   6.588
 4231SOL    HW113592   3.712   6.487   6.501
 4231SOL    HW213593   3.708   6.399   6.638
 4232SOL     OW13594   1.039   4.092   1.254
 4232SOL    HW113595   1.136   4.075   1.275
 4232SOL    HW213596   1.024   4.081   1.156
 4233SOL     OW13597   5.444   5.672   1.203
 4233SOL    HW113598   5.365   5.612   1.214
 4233SOL    HW213599   5.475   5.671   1.108
 4234SOL     OW13600   3.810   3.568   5.752
 4234SOL    HW113601   3.735   3.535   5.810
 4234SOL    HW213602   3.794   3.541   5.657
 4235SOL     OW13603   0.416   4.105   4.871
 4235SOL    HW113604   0.377   4.196   4.861
 4235SOL    HW213605   0.501   4.099   4.820
 4236SOL     OW13606   0.782   3.712   4.628
 4236SOL    HW113607   0.776   3.730   4.529
 4236SOL    HW213608   0.872   3.738   4.661
 4237SOL     OW13609   5.925   4.207   5.822
 4237SOL    HW113610   5.847   4.177   5.877
 4237SOL    HW213611   5.909   4.182   5.726
 4238SOL     OW13612   4.543   4.894   4.861
 4238SOL    HW113613   4.457   4.913   4.909
 4238SOL    HW213614   4.591   4.980   4.844
 4239SOL     OW13615   5.180   5.707   5.655
 4239SOL    HW113616   5.097   5.746   5.695
 4239SOL    HW213617   5.249   5.779   5.643
 4240SOL     OW13618   2.674   5.044   6.107
 4240SOL    HW113619   2.681   5.051   6.207
 4240SOL    HW213620   2.765   5.046   6.067
 4241SOL     OW13621   3.452   2.151   0.949
 4241SOL    HW113622   3.433   2.222   1.017
 4241SOL    HW213623   3.528   2.094   0.980
 4242SOL     OW13624   2.445   0.311   1.722
 4242SOL    HW113625   2.383   0.389   1.711
 4242SOL    HW213626   2.469   0.276   1.631
 4243SOL     OW13627   1.785   2.513   2.540
 4243SOL    HW113628   1.735   2.536   2.623
 4243SOL    HW213629   1.884   2.514   2.559
 4244SOL     OW13630   2.987   0.355   1.150
 4244SOL    HW113631   3.054   0.326   1.218
 4244SOL    HW213632   2.895   0.347   1.188
 4245SOL     OW13633   0.184   1.409   0.704
 4245SOL    HW113634   0.144   1.445   0.789
 4245SOL    HW213635   0.126   1.434   0.627
 4246SOL     OW13636   4.597   2.426   3.677
 4246SOL    HW113637   4.536   2.364   3.725
 4246SOL    HW213638   4.614   2.391   3.585
 4247SOL     OW13639   2.461   5.728   6.757
 4247SOL    HW113640   2.472   5.821   6.722
 4247SOL    HW213641   2.537   5.708   6.820
 4248SOL     OW13642   2.560   0.205   2.862
 4248SOL    HW113643   2.585   0.302   2.862
 4248SOL    HW213644   2.519   0.181   2.950
 4249SOL     OW13645   5.862   1.305   5.544
 4249SOL    HW113646   5.843   1.361   5.463
 4249SOL    HW213647   5.776   1.270   5.581
 4250SOL     OW13648   0.851   5.674   4.695
 4250SOL    HW113649   0.843   5.608   4.620
 4250SOL    HW213650   0.774   5.738   4.691
 4251SOL     OW13651   4.582   2.211   4.833
 4251SOL    HW113652   4.675   2.179   4.813
 4251SOL    HW213653   4.519   2.134   4.825
 4252SOL     OW13654   0.943   6.977   6.363
 4252SOL    HW113655   0.859   6.995   6.414
 4252SOL    HW213656   1.020   0.003   6.410
 4253SOL     OW13657   4.315   6.973   3.042
 4253SOL    HW113658   4.375   7.002   2.967
 4253SOL    HW213659   4.365   6.910   3.102
 4254SOL     OW13660   1.009   1.712   5.413
 4254SOL    HW113661   0.909   1.720   5.408
 4254SOL    HW213662   1.042   1.663   5.332
 4255SOL     OW13663   1.038   3.029   3.978
 4255SOL    HW113664   1.093   3.014   4.060
 4255SOL    HW213665   1.046   2.950   3.918
 4256SOL     OW13666   6.181   6.108   0.835
 4256SOL    HW113667   6.196   6.074   0.742
 4256SOL    HW213668   6.102   6.062   0.875
 4257SOL     OW13669   6.962   1.359   2.057
 4257SOL    HW113670   6.863   1.373   2.051
 4257SOL    HW213671   7.007   1.402   1.979
 4258SOL     OW13672   2.898   5.612   0.967
 4258SOL    HW113673   2.885   5.677   0.893
 4258SOL    HW213674   2.893   5.660   1.055
 4259SOL     OW13675   0.596   6.281   0.249
 4259SOL    HW113676   0.600   6.352   0.180
 4259SOL    HW213677   0.514   6.293   0.305
 4260SOL     OW13678   0.478   0.512   5.327
 4260SOL    HW113679   0.431   0.570   5.261
 4260SOL    HW213680   0.576   0.511   5.306
 4261SOL     OW13681   2.460   6.326   3.769
 4261SOL    HW113682   2.520   6.290   3.698
 4261SOL    HW213683   2.495   6.414   3.801
 4262SOL     OW13684   1.548   4.019   5.055
 4262SOL    HW113685   1.533   4.081   4.977
 4262SOL    HW213686   1.534   3.925   5.025
 4263SOL     OW13687   3.554   0.821   2.527
 4263SOL    HW113688   3.623   0.889   2.502
 4263SOL    HW213689   3.497   0.800   2.447
 4264SOL     OW13690   4.686   1.822   6.319
 4264SOL    HW113691   4.746   1.790   6.392
 4264SOL    HW213692   4.602   1.768   6.319
 4265SOL     OW13693   3.421   6.823   6.986
 4265SOL    HW113694   3.515   6.823   6.952
 4265SOL    HW213695   3.365   6.880   6.925
 4266SOL     OW13696   1.401   4.195   2.292
 4266SOL    HW113697   1.408   4.290   2.322
 4266SOL    HW213698   1.424   4.134   2.367
 4267SOL     OW13699   1.935   3.413   4.136
 4267SOL    HW113700   1.959   3.400   4.040
 4267SOL    HW213701   1.845   3.454   4.143
 4268SOL     OW13702   1.474   4.083   5.984
 4268SOL    HW113703   1.414   4.160   6.006
 4268SOL    HW213704   1.564   4.098   6.023
 4269SOL     OW13705   2.277   1.382   4.128
 4269SOL    HW113706   2.347   1.356   4.062
 4269SOL    HW213707   2.232   1.466   4.097
 4270SOL     OW13708   4.263   4.122   1.139
 4270SOL    HW113709   4.197   4.089   1.072
 4270SOL    HW213710   4.284   4.049   1.204
 4271SOL     OW13711   6.687   0.269   0.876
 4271SOL    HW113712   6.767   0.330   0.875
 4271SOL    HW213713   6.615   0.309   0.819
 4272SOL     OW13714   6.193   1.849   5.621
 4272SOL    HW113715   6.278   1.818   5.580
 4272SOL    HW213716   6.165   1.786   5.694
 4273SOL     OW13717   3.705   5.600   3.651
 4273SOL    HW113718   3.799   5.571   3.635
 4273SOL    HW213719   3.687   5.601   3.749
 4274SOL     OW13720   6.780   0.565   1.439
 4274SOL    HW113721   6.715   0.568   1.363
 4274SOL    HW213722   6.731   0.579   1.525
 4275SOL     OW13723   6.159   1.528   4.449
 4275SOL    HW113724   6.061   1.526   4.425
 4275SOL    HW213725   6.197   1.617   4.422
 4276SOL     OW13726   1.669   0.707   2.848
 4276SOL    HW113727   1.600   0.756   2.902
 4276SOL    HW213728   1.743   0.677   2.908
 4277SOL     OW13729   6.254   5.436   2.670
 4277SOL    HW113730   6.304   5.479   2.745
 4277SOL    HW213731   6.305   5.358   2.636
 4278SOL     OW13732   0.482   6.885   1.471
 4278SOL    HW113733   0.442   6.817   1.534
 4278SOL    HW213734   0.441   6.974   1.489
 4279SOL     OW13735   1.067   3.529   3.039
 4279SOL    HW113736   1.142   3.594   3.042
 4279SOL    HW213737   1.097   3.446   2.992
 4280SOL     OW13738   3.125   6.432   6.600
 4280SOL    HW113739   3.205   6.403   6.547
 4280SOL    HW213740   3.098   6.359   6.662
 4281SOL     OW13741   6.993   6.701   2.499
 4281SOL    HW113742   6.907   6.688   2.549
 4281SOL    HW213743   0.048   6.648   2.543
 4282SOL     OW13744   5.224   4.796   1.695
 4282SOL    HW113745   5.309   4.836   1.660
 4282SOL    HW213746   5.184   4.737   1.625
 4283SOL     OW13747   5.973   1.226   4.930
 4283SOL    HW113748   5.878   1.210   4.905
 4283SOL    HW213749   6.027   1.249   4.849
 4284SOL     OW13750   4.677   6.151   0.134
 4284SOL    HW113751   4.769   6.127   0.165
 4284SOL    HW213752   4.624   6.186   0.211
 4285SOL     OW13753   3.089   1.489   6.203
 4285SOL    HW113754   3.018   1.560   6.204
 4285SOL    HW213755   3.144   1.498   6.120
 4286SOL     OW13756   5.596   6.391   0.164
 4286SOL    HW113757   5.572   6.422   0.256
 4286SOL    HW213758   5.688   6.351   0.165
 4287SOL     OW13759   4.139   0.609   1.036
 4287SOL    HW113760   4.223   0.598   0.983
 4287SOL    HW213761   4.130   0.704   1.067
 4288SOL     OW13762   0.417   6.653   2.268
 4288SOL    HW113763   0.470   6.570   2.247
 4288SOL    HW213764   0.429   6.719   2.195
 4289SOL     OW13765   0.338   3.978   5.824
 4289SOL    HW113766   0.350   3.960   5.726
 4289SOL    HW213767   0.249   4.021   5.840
 4290SOL     OW13768   0.072   1.063   3.116
 4290SOL    HW113769   0.086   1.152   3.160
 4290SOL    HW213770   7.008   1.067   3.059
 4291SOL     OW13771   4.449   5.025   6.134
 4291SOL    HW113772   4.430   5.096   6.202
 4291SOL    HW213773   4.539   4.985   6.152
 4292SOL     OW13774   6.691   0.124   0.634
 4292SOL    HW113775   6.667   0.163   0.723
 4292SOL    HW213776   6.737   0.193   0.578
 4293SOL     OW13777   3.621   3.306   6.300
 4293SOL    HW113778   3.687   3.335   6.370
 4293SOL    HW213779   3.671   3.262   6.225
 4294SOL     OW13780   3.300   2.215   0.260
 4294SOL    HW113781   3.330   2.122   0.281
 4294SOL    HW213782   3.200   2.221   0.269
 4295SOL     OW13783   4.201   6.564   2.596
 4295SOL    HW113784   4.285   6.525   2.634
 4295SOL    HW213785   4.123   6.537   2.653
 4296SOL     OW13786   2.096   5.667   2.214
 4296SOL    HW113787   2.073   5.577   2.174
 4296SOL    HW213788   2.184   5.697   2.178
 4297SOL     OW13789   4.765   4.522   0.254
 4297SOL    HW113790   4.668   4.497   0.256
 4297SOL    HW213791   4.796   4.528   0.160
 4298SOL     OW13792   2.044   6.544   0.508
 4298SOL    HW113793   1.979   6.527   0.582
 4298SOL    HW213794   2.125   6.589   0.545
 4299SOL     OW13795   0.168   3.535   6.181
 4299SOL    HW113796   0.255   3.573   6.151
 4299SOL    HW213797   0.127   3.484   6.106
 4300SOL     OW13798   3.549   0.543   1.665
 4300SOL    HW113799   3.452   0.529   1.683
 4300SOL    HW213800   3.560   0.578   1.572
 4301SOL     OW13801   1.875   6.316   4.700
 4301SOL    HW113802   1.943   6.246   4.680
 4301SOL    HW213803   1.788   6.271   4.722
 4302SOL     OW13804   4.097   4.984   0.011
 4302SOL    HW113805   4.184   4.961   6.985
 4302SOL    HW213806   4.087   4.931   0.095
 4303SOL     OW13807   4.449   5.022   3.288
 4303SOL    HW113808   4.517   5.092   3.266
 4303SOL    HW213809   4.440   5.014   3.387
 4304SOL     OW13810   3.333   4.281   1.623
 4304SOL    HW113811   3.386   4.228   1.689
 4304SOL    HW213812   3.345   4.379   1.641
 4305SOL     OW13813   1.166   6.591   5.892
 4305SOL    HW113814   1.254   6.638   5.884
 4305SOL    HW213815   1.112   6.609   5.810
 4306SOL     OW13816   5.585   3.614   5.152
 4306SOL    HW113817   5.486   3.602   5.157
 4306SOL    HW213818   5.606   3.704   5.114
 4307SOL     OW13819   6.858   1.781   4.720
 4307SOL    HW113820   6.919   1.702   4.714
 4307SOL    HW213821   6.791   1.765   4.793
 4308SOL     OW13822   4.333   5.666   6.056
 4308SOL    HW113823   4.337   5.631   5.963
 4308SOL    HW213824   4.400   5.740   6.067
 4309SOL     OW13825   3.101   2.090   0.914
 4309SOL    HW113826   3.119   2.183   0.882
 4309SOL    HW213827   3.002   2.072   0.909
 4310SOL     OW13828   6.470   1.534   4.112
 4310SOL    HW113829   6.551   1.490   4.074
 4310SOL    HW213830   6.465   1.515   4.210
 4311SOL     OW13831   1.054   6.675   1.499
 4311SOL    HW113832   1.027   6.711   1.589
 4311SOL    HW213833   1.084   6.581   1.509
 4312SOL     OW13834   0.312   3.367   2.875
 4312SOL    HW113835   0.250   3.398   2.803
 4312SOL    HW213836   0.274   3.286   2.920
 4313SOL     OW13837   0.758   3.281   0.933
 4313SOL    HW113838   0.736   3.376   0.954
 4313SOL    HW213839   0.799   3.238   1.013
 4314SOL     OW13840   2.361   1.236   6.081
 4314SOL    HW113841   2.425   1.222   6.006
 4314SOL    HW213842   2.268   1.235   6.046
 4315SOL     OW13843   2.542   2.477   5.508
 4315SOL    HW113844   2.535   2.556   5.448
 4315SOL    HW213845   2.624   2.425   5.484
 4316SOL     OW13846   4.571   4.470   1.160
 4316SOL    HW113847   4.654   4.510   1.200
 4316SOL    HW213848   4.592   4.377   1.128
 4317SOL     OW13849   5.020   0.587   4.093
 4317SOL    HW113850   5.055   0.666   4.042
 4317SOL    HW213851   5.049   0.503   4.049
 4318SOL     OW13852   1.516   6.068   3.635
 4318SOL    HW113853   1.606   6.103   3.608
 4318SOL    HW213854   1.502   6.083   3.733
 4319SOL     OW13855   2.120   4.543   1.758
 4319SOL    HW113856   2.062   4.495   1.692
 4319SOL    HW213857   2.204   4.573   1.713
 4320SOL     OW13858   3.918   1.014   1.855
 4320SOL    HW113859   3.943   1.093   1.911
 4320SOL    HW213860   3.898   1.045   1.762
 4321SOL     OW13861   6.561   5.844   2.993
 4321SOL    HW113862   6.461   5.853   2.994
 4321SOL    HW213863   6.602   5.919   3.044
 4322SOL     OW13864   2.797   2.140   4.897
 4322SOL    HW113865   2.778   2.189   4.812
 4322SOL    HW213866   2.734   2.063   4.906
 4323SOL     OW13867   5.373   3.967   1.483
 4323SOL    HW113868   5.328   4.021   1.555
 4323SOL    HW213869   5.395   4.027   1.406
 4324SOL     OW13870   6.278   3.836   5.190
 4324SOL    HW113871   6.196   3.827   5.247
 4324SOL    HW213872   6.350   3.882   5.242
 4325SOL     OW13873   1.388   0.610   1.196
 4325SOL    HW113874   1.426   0.692   1.239
 4325SOL    HW213875   1.308   0.635   1.141
 4326SOL     OW13876   4.940   2.458   2.810
 4326SOL    HW113877   4.941   2.423   2.717
 4326SOL    HW213878   4.846   2.475   2.839
 4327SOL     OW13879   2.979   6.444   3.996
 4327SOL    HW113880   2.985   6.384   3.916
 4327SOL    HW213881   2.883   6.457   4.020
 4328SOL     OW13882   6.219   0.230   2.115
 4328SOL    HW113883   6.163   0.236   2.032
 4328SOL    HW213884   6.235   0.322   2.151
 4329SOL     OW13885   6.101   4.304   0.604
 4329SOL    HW113886   6.102   4.380   0.669
 4329SOL    HW213887   6.192   4.293   0.565
 4330SOL     OW13888   2.600   5.595   5.356
 4330SOL    HW113889   2.557   5.531   5.419
 4330SOL    HW213890   2.598   5.687   5.395
 4331SOL     OW13891   6.081   1.424   2.989
 4331SOL    HW113892   6.033   1.337   2.985
 4331SOL    HW213893   6.060   1.478   2.907
 4332SOL     OW13894   6.909   5.645   1.067
 4332SOL    HW113895   6.827   5.679   1.113
 4332SOL    HW213896   6.937   5.558   1.108
 4333SOL     OW13897   3.432   3.118   6.274
 4333SOL    HW113898   3.494   3.190   6.306
 4333SOL    HW213899   3.422   3.048   6.345
 4334SOL     OW13900   0.255   2.329   3.577
 4334SOL    HW113901   0.182   2.289   3.632
 4334SOL    HW213902   0.334   2.266   3.575
 4335SOL     OW13903   1.911   3.481   1.395
 4335SOL    HW113904   1.946   3.392   1.423
 4335SOL    HW213905   1.981   3.550   1.409
 4336SOL     OW13906   2.166   4.782   5.281
 4336SOL    HW113907   2.238   4.807   5.346
 4336SOL    HW213908   2.205   4.725   5.208
 4337SOL     OW13909   6.818   4.380   4.265
 4337SOL    HW113910   6.777   4.298   4.306
 4337SOL    HW213911   6.913   4.362   4.242
 4338SOL     OW13912   3.415   2.995   5.466
 4338SOL    HW113913   3.345   2.959   5.527
 4338SOL    HW213914   3.427   2.933   5.389
 4339SOL     OW13915   3.713   3.860   5.515
 4339SOL    HW113916   3.766   3.818   5.441
 4339SOL    HW213917   3.619   3.826   5.512
 4340SOL     OW13918   6.873   4.194   0.317
 4340SOL    HW113919   6.944   4.231   0.256
 4340SOL    HW213920   6.875   4.094   0.313
 4341SOL     OW13921   6.434   6.219   1.586
 4341SOL    HW113922   6.350   6.261   1.552
 4341SOL    HW213923   6.508   6.286   1.584
 4342SOL     OW13924   4.927   3.545   2.132
 4342SOL    HW113925   4.875   3.520   2.051
 4342SOL    HW213926   4.903   3.485   2.208
 4343SOL     OW13927   4.886   0.149   6.455
 4343SOL    HW113928   4.915   0.054   6.444
 4343SOL    HW213929   4.823   0.173   6.381
 4344SOL     OW13930   1.123   3.588   1.846
 4344SOL    HW113931   1.123   3.528   1.926
 4344SOL    HW213932   1.194   3.658   1.858
 4345SOL     OW13933   3.988   3.174   2.953
 4345SOL    HW113934   3.940   3.187   2.867
 4345SOL    HW213935   3.955   3.090   2.997
 4346SOL     OW13936   0.990   3.745   2.458
 4346SOL    HW113937   0.928   3.679   2.416
 4346SOL    HW213938   0.970   3.753   2.556
 4347SOL     OW13939   6.291   5.890   1.407
 4347SOL    HW113940   6.381   5.886   1.451
 4347SOL    HW213941   6.301   5.868   1.310
 4348SOL     OW13942   6.483   4.388   6.089
 4348SOL    HW113943   6.557   4.398   6.023
 4348SOL    HW213944   6.521   4.380   6.181
 4349SOL     OW13945   0.760   3.806   4.062
 4349SOL    HW113946   0.664   3.829   4.082
 4349SOL    HW213947   0.789   3.854   3.979
 4350SOL     OW13948   5.413   0.119   3.732
 4350SOL    HW113949   5.427   0.163   3.643
 4350SOL    HW213950   5.322   0.143   3.767
 4351SOL     OW13951   0.747   5.930   0.932
 4351SOL    HW113952   0.767   6.016   0.884
 4351SOL    HW213953   0.728   5.858   0.865
 4352SOL     OW13954   3.350   4.193   1.203
 4352SOL    HW113955   3.328   4.109   1.254
 4352SOL    HW213956   3.447   4.193   1.180
 4353SOL     OW13957   2.179   3.965   0.357
 4353SOL    HW113958   2.259   3.966   0.417
 4353SOL    HW213959   2.192   4.032   0.284
 4354SOL     OW13960   5.332   5.282   1.685
 4354SOL    HW113961   5.349   5.227   1.767
 4354SOL    HW213962   5.279   5.227   1.619
 4355SOL     OW13963   1.867   4.667   3.486
 4355SOL    HW113964   1.941   4.734   3.479
 4355SOL    HW213965   1.903   4.581   3.522
 4356SOL     OW13966   5.671   1.587   5.819
 4356SOL    HW113967   5.724   1.633   5.890
 4356SOL    HW213968   5.664   1.490   5.841
 4357SOL     OW13969   5.384   6.123   2.943
 4357SOL    HW113970   5.468   6.068   2.951
 4357SOL    HW213971   5.332   6.116   3.028
 4358SOL     OW13972   2.673   0.875   1.267
 4358SOL    HW113973   2.594   0.869   1.328
 4358SOL    HW213974   2.747   0.817   1.303
 4359SOL     OW13975   2.859   2.584   1.163
 4359SOL    HW113976   2.833   2.641   1.240
 4359SOL    HW213977   2.781   2.528   1.134
 4360SOL     OW13978   3.095   6.133   3.710
 4360SOL    HW113979   3.168   6.195   3.738
 4360SOL    HW213980   3.121   6.089   3.624
 4361SOL     OW13981   1.966   1.048   6.530
 4361SOL    HW113982   1.956   1.146   6.550
 4361SOL    HW213983   2.002   1.002   6.611
 4362SOL     OW13984   0.140   5.862   2.671
 4362SOL    HW113985   0.072   5.843   2.742
 4362SOL    HW213986   0.098   5.917   2.600
 4363SOL     OW13987   3.674   0.299   2.030
 4363SOL    HW113988   3.650   0.367   2.100
 4363SOL    HW213989   3.739   0.234   2.068
 4364SOL     OW13990   3.138   3.682   3.283
 4364SOL    HW113991   3.044   3.649   3.283
 4364SOL    HW213992   3.139   3.782   3.282
 4365SOL     OW13993   2.681   1.332   1.048
 4365SOL    HW113994   2.763   1.377   1.084
 4365SOL    HW213995   2.672   1.242   1.090
 4366SOL     OW13996   4.519   5.534   4.804
 4366SOL    HW113997   4.563   5.500   4.721
 4366SOL    HW213998   4.436   5.583   4.780
 4367SOL     OW13999   2.044   6.934   1.755
 4367SOL    HW114000   2.143   6.938   1.765
 4367SOL    HW214001   2.021   6.865   1.685
 4368SOL     OW14002   5.028   4.737   4.524
 4368SOL    HW114003   5.060   4.727   4.618
 4368SOL    HW214004   4.991   4.650   4.491
 4369SOL     OW14005   6.285   4.172   3.837
 4369SOL    HW114006   6.210   4.119   3.875
 4369SOL    HW214007   6.341   4.209   3.911
 4370SOL     OW14008   4.851   4.719   0.808
 4370SOL    HW114009   4.897   4.790   0.755
 4370SOL    HW214010   4.765   4.695   0.764
 4371SOL     OW14011   3.531   1.060   3.141
 4371SOL    HW114012   3.595   1.011   3.083
 4371SOL    HW214013   3.468   1.113   3.084
 4372SOL     OW14014   1.573   4.385   4.872
 4372SOL    HW114015   1.532   4.468   4.835
 4372SOL    HW214016   1.595   4.398   4.969
 4373SOL     OW14017   4.450   0.520   0.178
 4373SOL    HW114018   4.410   0.438   0.138
 4373SOL    HW214019   4.445   0.514   0.277
 4374SOL     OW14020   2.327   6.154   0.523
 4374SOL    HW114021   2.326   6.218   0.445
 4374SOL    HW214022   2.422   6.125   0.541
 4375SOL     OW14023   4.697   0.785   6.091
 4375SOL    HW114024   4.678   0.849   6.017
 4375SOL    HW214025   4.788   0.802   6.128
 4376SOL     OW14026   3.164   4.991   6.891
 4376SOL    HW114027   3.171   4.937   6.975
 4376SOL    HW214028   3.126   5.081   6.912
 4377SOL     OW14029   5.367   6.297   6.518
 4377SOL    HW114030   5.395   6.267   6.610
 4377SOL    HW214031   5.378   6.396   6.512
 4378SOL     OW14032   3.331   4.640   1.363
 4378SOL    HW114033   3.260   4.687   1.310
 4378SOL    HW214034   3.384   4.581   1.303
 4379SOL     OW14035   6.466   6.125   0.346
 4379SOL    HW114036   6.475   6.054   0.276
 4379SOL    HW214037   6.555   6.168   0.361
 4380SOL     OW14038   1.959   5.740   4.798
 4380SOL    HW114039   1.899   5.673   4.841
 4380SOL    HW214040   1.904   5.817   4.764
 4381SOL     OW14041   3.211   6.139   4.346
 4381SOL    HW114042   3.192   6.113   4.251
 4381SOL    HW214043   3.141   6.101   4.406
 4382SOL     OW14044   5.326   4.291   3.862
 4382SOL    HW114045   5.354   4.368   3.920
 4382SOL    HW214046   5.282   4.325   3.780
 4383SOL     OW14047   1.383   0.431   0.342
 4383SOL    HW114048   1.334   0.345   0.359
 4383SOL    HW214049   1.335   0.484   0.273
 4384SOL     OW14050   3.677   6.808   2.046
 4384SOL    HW114051   3.700   6.740   1.976
 4384SOL    HW214052   3.757   6.865   2.063
 4385SOL     OW14053   6.399   2.743   4.251
 4385SOL    HW114054   6.437   2.653   4.226
 4385SOL    HW214055   6.434   2.812   4.188
 4386SOL     OW14056   1.591   5.143   6.927
 4386SOL    HW114057   1.499   5.184   6.923
 4386SOL    HW214058   1.647   5.181   6.854
 4387SOL     OW14059   5.686   2.512   0.883
 4387SOL    HW114060   5.597   2.468   0.890
 4387SOL    HW214061   5.737   2.499   0.969
 4388SOL     OW14062   4.000   1.434   5.842
 4388SOL    HW114063   4.026   1.495   5.767
 4388SOL    HW214064   3.920   1.472   5.889
 4389SOL     OW14065   0.753   2.195   2.897
 4389SOL    HW114066   0.686   2.121   2.894
 4389SOL    HW214067   0.797   2.204   2.807
 4390SOL     OW14068   4.428   3.864   1.019
 4390SOL    HW114069   4.429   3.780   1.072
 4390SOL    HW214070   4.518   3.907   1.022
 4391SOL     OW14071   0.717   5.680   0.478
 4391SOL    HW114072   0.625   5.704   0.509
 4391SOL    HW214073   0.734   5.721   0.389
 4392SOL     OW14074   5.012   5.394   5.095
 4392SOL    HW114075   5.064   5.331   5.036
 4392SOL    HW214076   4.926   5.351   5.122
 4393SOL     OW14077   5.003   6.684   3.021
 4393SOL    HW114078   4.978   6.718   3.112
 4393SOL    HW214079   4.927   6.698   2.958
 4394SOL     OW14080   4.775   0.652   2.269
 4394SOL    HW114081   4.755   0.708   2.349
 4394SOL    HW214082   4.693   0.600   2.243
 4395SOL     OW14083   4.550   2.555   0.859
 4395SOL    HW114084   4.460   2.563   0.902
 4395SOL    HW214085   4.545   2.486   0.786
 4396SOL     OW14086   1.746   1.504   2.956
 4396SOL    HW114087   1.759   1.602   2.943
 4396SOL    HW214088   1.831   1.463   2.986
 4397SOL     OW14089   4.031   1.166   6.973
 4397SOL    HW114090   3.990   1.149   0.044
 4397SOL    HW214091   4.029   1.082   6.919
 4398SOL     OW14092   0.660   5.256   4.260
 4398SOL    HW114093   0.596   5.196   4.307
 4398SOL    HW214094   0.754   5.224   4.276
 4399SOL     OW14095   2.850   0.628   1.591
 4399SOL    HW114096   2.758   0.654   1.621
 4399SOL    HW214097   2.916   0.656   1.661
 4400SOL     OW14098   3.398   4.920   2.734
 4400SOL    HW114099   3.399   4.924   2.834
 4400SOL    HW214100   3.368   4.830   2.704
 4401SOL     OW14101   5.576   6.373   4.556
 4401SOL    HW114102   5.509   6.436   4.516
 4401SOL    HW214103   5.630   6.331   4.483
 4402SOL     OW14104   6.899   6.566   1.770
 4402SOL    HW114105   6.866   6.586   1.862
 4402SOL    HW214106   6.958   6.641   1.739
 4403SOL     OW14107   6.452   1.285   3.487
 4403SOL    HW114108   6.550   1.301   3.496
 4403SOL    HW214109   6.430   1.269   3.390
 4404SOL     OW14110   1.821   4.099   2.296
 4404SOL    HW114111   1.756   4.124   2.225
 4404SOL    HW214112   1.775   4.044   2.366
 4405SOL     OW14113   2.509   3.763   6.443
 4405SOL    HW114114   2.432   3.709   6.411
 4405SOL    HW214115   2.576   3.772   6.370
 4406SOL     OW14116   6.134   2.315   2.191
 4406SOL    HW114117   6.170   2.223   2.204
 4406SOL    HW214118   6.132   2.336   2.093
 4407SOL     OW14119   0.875   1.125   0.420
 4407SOL    HW114120   0.964   1.114   0.376
 4407SOL    HW214121   0.886   1.120   0.519
 4408SOL     OW14122   4.054   6.138   1.662
 4408SOL    HW114123   3.976   6.197   1.642
 4408SOL    HW214124   4.108   6.126   1.578
 4409SOL     OW14125   3.563   2.088   2.684
 4409SOL    HW114126   3.486   2.105   2.745
 4409SOL    HW214127   3.539   2.115   2.591
 4410SOL     OW14128   2.094   5.787   0.710
 4410SOL    HW114129   2.107   5.720   0.637
 4410SOL    HW214130   2.156   5.766   0.786
 4411SOL     OW14131   3.459   3.372   2.483
 4411SOL    HW114132   3.428   3.278   2.493
 4411SOL    HW214133   3.539   3.375   2.422
 4412SOL     OW14134   3.565   1.448   6.385
 4412SOL    HW114135   3.513   1.383   6.329
 4412SOL    HW214136   3.617   1.398   6.454
 4413SOL     OW14137   3.824   5.524   4.143
 4413SOL    HW114138   3.876   5.585   4.083
 4413SOL    HW214139   3.757   5.472   4.088
 4414SOL     OW14140   3.385   4.912   2.056
 4414SOL    HW114141   3.345   4.949   1.972
 4414SOL    HW214142   3.464   4.854   2.032
 4415SOL     OW14143   4.149   1.483   1.911
 4415SOL    HW114144   4.193   1.573   1.906
 4415SOL    HW214145   4.054   1.491   1.882
 4416SOL     OW14146   2.538   2.254   4.460
 4416SOL    HW114147   2.516   2.351   4.448
 4416SOL    HW214148   2.617   2.231   4.402
 4417SOL     OW14149   6.010   6.952   1.241
 4417SOL    HW114150   5.935   7.008   1.205
 4417SOL    HW214151   6.044   6.993   1.325
 4418SOL     OW14152   4.804   0.363   2.960
 4418SOL    HW114153   4.773   0.455   2.935
 4418SOL    HW214154   4.726   0.309   2.991
 4419SOL     OW14155   6.063   5.330   6.045
 4419SOL    HW114156   6.142   5.387   6.071
 4419SOL    HW214157   5.984   5.354   6.102
 4420SOL     OW14158   5.612   0.905   0.995
 4420SOL    HW114159   5.662   0.951   0.921
 4420SOL    HW214160   5.524   0.873   0.961
 4421SOL     OW14161   0.016   1.529   3.168
 4421SOL    HW114162   6.992   1.618   3.186
 4421SOL    HW214163   0.106   1.542   3.126
 4422SOL     OW14164   1.550   3.893   5.790
 4422SOL    HW114165   1.504   3.961   5.848
 4422SOL    HW214166   1.647   3.889   5.813
 4423SOL     OW14167   6.923   1.344   5.951
 4423SOL    HW114168   6.954   1.259   5.908
 4423SOL    HW214169   6.903   1.411   5.880
 4424SOL     OW14170   1.683   5.280   3.322
 4424SOL    HW114171   1.628   5.341   3.380
 4424SOL    HW214172   1.628   5.202   3.294
 4425SOL     OW14173   4.754   3.892   1.694
 4425SOL    HW114174   4.795   3.844   1.772
 4425SOL    HW214175   4.660   3.860   1.681
 4426SOL     OW14176   0.175   6.975   6.694
 4426SOL    HW114177   0.136   6.927   6.773
 4426SOL    HW214178   0.227   0.036   6.726
 4427SOL     OW14179   0.723   5.745   3.420
 4427SOL    HW114180   0.647   5.797   3.460
 4427SOL    HW214181   0.796   5.807   3.392
 4428SOL     OW14182   1.204   6.924   2.797
 4428SOL    HW114183   1.134   6.852   2.800
 4428SOL    HW214184   1.235   6.944   2.890
 4429SOL     OW14185   2.697   0.686   2.587
 4429SOL    HW114186   2.697   0.715   2.682
 4429SOL    HW214187   2.786   0.707   2.546
 4430SOL     OW14188   2.014   0.603   2.015
 4430SOL    HW114189   1.998   0.687   2.067
 4430SOL    HW214190   1.934   0.544   2.023
 4431SOL     OW14191   2.086   2.280   3.102
 4431SOL    HW114192   2.074   2.184   3.075
 4431SOL    HW214193   2.083   2.338   3.021
 4432SOL     OW14194   3.328   4.092   4.415
 4432SOL    HW114195   3.234   4.077   4.383
 4432SOL    HW214196   3.383   4.128   4.341
 4433SOL     OW14197   6.410   0.065   1.969
 4433SOL    HW114198   6.392   0.104   1.879
 4433SOL    HW214199   6.351   0.108   2.037
 4434SOL     OW14200   5.686   1.767   5.544
 4434SOL    HW114201   5.608   1.819   5.510
 4434SOL    HW214202   5.700   1.788   5.641
 4435SOL     OW14203   3.753   2.881   2.024
 4435SOL    HW114204   3.794   2.796   2.059
 4435SOL    HW214205   3.823   2.936   1.980
 4436SOL     OW14206   5.978   0.493   0.044
 4436SOL    HW114207   5.913   0.448   7.001
 4436SOL    HW214208   5.994   0.587   0.013
 4437SOL     OW14209   3.370   6.925   5.923
 4437SOL    HW114210   3.310   6.903   5.846
 4437SOL    HW214211   3.442   6.988   5.893
 4438SOL     OW14212   3.677   2.270   6.730
 4438SOL    HW114213   3.675   2.354   6.676
 4438SOL    HW214214   3.585   2.247   6.759
 4439SOL     OW14215   1.394   4.249   2.999
 4439SOL    HW114216   1.441   4.166   2.969
 4439SOL    HW214217   1.460   4.325   3.003
 4440SOL     OW14218   6.429   1.148   0.850
 4440SOL    HW114219   6.347   1.182   0.897
 4440SOL    HW214220   6.497   1.220   0.845
 4441SOL     OW14221   0.084   0.088   4.184
 4441SOL    HW114222   0.128   0.114   4.270
 4441SOL    HW214223   0.006   0.028   4.203
 4442SOL     OW14224   1.676   5.593   2.362
 4442SOL    HW114225   1.653   5.631   2.451
 4442SOL    HW214226   1.613   5.518   2.340
 4443SOL     OW14227   2.224   1.182   0.869
 4443SOL    HW114228   2.316   1.170   0.834
 4443SOL    HW214229   2.228   1.208   0.965
 4444SOL     OW14230   4.794   1.501   3.439
 4444SOL    HW114231   4.883   1.542   3.461
 4444SOL    HW214232   4.729   1.574   3.420
 4445SOL     OW14233   0.855   1.910   6.309
 4445SOL    HW114234   0.799   1.832   6.282
 4445SOL    HW214235   0.796   1.989   6.325
 4446SOL     OW14236   6.385   5.063   4.211
 4446SOL    HW114237   6.343   5.146   4.249
 4446SOL    HW214238   6.472   5.045   4.256
 4447SOL     OW14239   4.796   3.920   5.130
 4447SOL    HW114240   4.809   3.825   5.100
 4447SOL    HW214241   4.789   3.922   5.230
 4448SOL     OW14242   2.476   3.529   6.715
 4448SOL    HW114243   2.485   3.621   6.676
 4448SOL    HW214244   2.564   3.482   6.708
 4449SOL     OW14245   0.039   0.875   5.570
 4449SOL    HW114246   6.962   0.883   5.602
 4449SOL    HW214247   0.068   0.780   5.574
 4450SOL     OW14248   3.794   3.478   3.170
 4450SOL    HW114249   3.761   3.440   3.257
 4450SOL    HW214250   3.894   3.478   3.170
 4451SOL     OW14251   0.274   4.882   1.127
 4451SOL    HW114252   0.247   4.887   1.224
 4451SOL    HW214253   0.302   4.789   1.106
 4452SOL     OW14254   0.086   3.455   6.740
 4452SOL    HW114255   0.030   3.418   6.665
 4452SOL    HW214256   0.133   3.380   6.787
 4453SOL     OW14257   5.856   0.372   1.018
 4453SOL    HW114258   5.948   0.402   0.995
 4453SOL    HW214259   5.825   0.420   1.100
 4454SOL     OW14260   5.721   2.929   1.694
 4454SOL    HW114261   5.682   2.943   1.603
 4454SOL    HW214262   5.698   3.007   1.752
 4455SOL     OW14263   4.379   2.426   2.838
 4455SOL    HW114264   4.355   2.331   2.817
 4455SOL    HW214265   4.361   2.444   2.935
 4456SOL     OW14266   0.371   5.664   2.466
 4456SOL    HW114267   0.406   5.711   2.547
 4456SOL    HW214268   0.404   5.570   2.465
 4457SOL     OW14269   4.451   2.229   6.662
 4457SOL    HW114270   4.432   2.308   6.721
 4457SOL    HW214271   4.550   2.222   6.648
 4458SOL     OW14272   4.547   1.500   1.306
 4458SOL    HW114273   4.457   1.494   1.350
 4458SOL    HW214274   4.538   1.536   1.214
 4459SOL     OW14275   5.967   5.990   5.603
 4459SOL    HW114276   5.869   6.013   5.603
 4459SOL    HW214277   5.995   5.963   5.511
 4460SOL     OW14278   1.547   1.586   0.546
 4460SOL    HW114279   1.594   1.506   0.510
 4460SOL    HW214280   1.456   1.560   0.580
 4461SOL     OW14281   1.905   0.352   2.869
 4461SOL    HW114282   1.919   0.254   2.854
 4461SOL    HW214283   1.828   0.384   2.814
 4462SOL     OW14284   6.661   4.139   0.713
 4462SOL    HW114285   6.602   4.203   0.762
 4462SOL    HW214286   6.753   4.140   0.754
 4463SOL     OW14287   0.528   4.816   6.938
 4463SOL    HW114288   0.508   4.762   0.002
 4463SOL    HW214289   0.480   4.903   6.942
 4464SOL     OW14290   6.552   2.899   0.044
 4464SOL    HW114291   6.621   2.838   0.083
 4464SOL    HW214292   6.532   2.973   0.109
 4465SOL     OW14293   6.078   5.312   0.825
 4465SOL    HW114294   6.144   5.286   0.896
 4465SOL    HW214295   5.985   5.294   0.859
 4466SOL     OW14296   7.009   2.640   3.869
 4466SOL    HW114297   6.970   2.655   3.959
 4466SOL    HW214298   6.936   2.619   3.804
 4467SOL     OW14299   1.368   0.780   4.613
 4467SOL    HW114300   1.326   0.735   4.692
 4467SOL    HW214301   1.405   0.868   4.640
 4468SOL     OW14302   1.307   1.562   0.879
 4468SOL    HW114303   1.235   1.607   0.932
 4468SOL    HW214304   1.283   1.564   0.782
 4469SOL     OW14305   4.996   6.807   0.682
 4469SOL    HW114306   5.091   6.792   0.709
 4469SOL    HW214307   4.939   6.735   0.721
 4470SOL     OW14308   4.777   4.636   1.724
 4470SOL    HW114309   4.869   4.601   1.741
 4470SOL    HW214310   4.744   4.604   1.636
 4471SOL     OW14311   5.832   2.165   1.828
 4471SOL    HW114312   5.780   2.250   1.830
 4471SOL    HW214313   5.854   2.142   1.733
 4472SOL     OW14314   2.551   5.385   1.649
 4472SOL    HW114315   2.615   5.393   1.573
 4472SOL    HW214316   2.529   5.477   1.683
 4473SOL     OW14317   6.027   0.699   0.335
 4473SOL    HW114318   5.981   0.787   0.338
 4473SOL    HW214319   6.116   0.709   0.289
 4474SOL     OW14320   6.213   0.907   4.572
 4474SOL    HW114321   6.283   0.885   4.504
 4474SOL    HW214322   6.123   0.894   4.531
 4475SOL     OW14323   1.445   3.349   0.341
 4475SOL    HW114324   1.504   3.398   0.404
 4475SOL    HW214325   1.363   3.404   0.322
 4476SOL     OW14326   3.962   6.532   2.761
 4476SOL    HW114327   3.968   6.472   2.841
 4476SOL    HW214328   3.878   6.586   2.767
 4477SOL     OW14329   1.816   2.222   0.721
 4477SOL    HW114330   1.888   2.214   0.790
 4477SOL    HW214331   1.794   2.132   0.684
 4478SOL     OW14332   1.149   4.544   0.849
 4478SOL    HW114333   1.122   4.633   0.885
 4478SOL    HW214334   1.207   4.497   0.915
 4479SOL     OW14335   1.750   6.848   6.077
 4479SOL    HW114336   1.762   6.778   6.007
 4479SOL    HW214337   1.777   6.937   6.041
 4480SOL     OW14338   6.701   3.648   3.520
 4480SOL    HW114339   6.712   3.748   3.514
 4480SOL    HW214340   6.746   3.614   3.602
 4481SOL     OW14341   0.778   1.039   4.372
 4481SOL    HW114342   0.856   1.061   4.314
 4481SOL    HW214343   0.793   1.075   4.464
 4482SOL     OW14344   0.952   4.042   2.860
 4482SOL    HW114345   0.986   4.023   2.952
 4482SOL    HW214346   0.859   4.008   2.852
 4483SOL     OW14347   5.635   3.831   0.667
 4483SOL    HW114348   5.543   3.827   0.627
 4483SOL    HW214349   5.701   3.855   0.596
 4484SOL     OW14350   3.107   3.593   6.884
 4484SOL    HW114351   3.149   3.552   6.965
 4484SOL    HW214352   3.014   3.557   6.874
 4485SOL     OW14353   4.682   6.914   6.014
 4485SOL    HW114354   4.656   6.943   5.921
 4485SOL    HW214355   4.771   6.869   6.011
 4486SOL     OW14356   6.061   3.226   4.224
 4486SOL    HW114357   6.062   3.324   4.202
 4486SOL    HW214358   6.013   3.212   4.310
 4487SOL     OW14359   3.341   3.301   5.737
 4487SOL    HW114360   3.283   3.267   5.811
 4487SOL    HW214361   3.341   3.401   5.739
 4488SOL     OW14362   6.878   2.213   6.412
 4488SOL    HW114363   6.808   2.202   6.482
 4488SOL    HW214364   6.964   2.174   6.445
 4489SOL     OW14365   0.679   0.847   2.904
 4489SOL    HW114366   0.620   0.816   2.829
 4489SOL    HW214367   0.641   0.816   2.991
 4490SOL     OW14368   6.481   1.983   4.418
 4490SOL    HW114369   6.543   1.925   4.471
 4490SOL    HW214370   6.481   1.953   4.322
 4491SOL     OW14371   1.700   4.159   1.800
 4491SOL    HW114372   1.671   4.135   1.893
 4491SOL    HW214373   1.704   4.076   1.744
 4492SOL     OW14374   5.251   3.956   6.111
 4492SOL    HW114375   5.313   3.878   6.105
 4492SOL    HW214376   5.166   3.935   6.063
 4493SOL     OW14377   6.078   4.500   3.210
 4493SOL    HW114378   6.162   4.481   3.262
 4493SOL    HW214379   6.101   4.556   3.131
 4494SOL     OW14380   5.371   1.901   1.616
 4494SOL    HW114381   5.453   1.956   1.632
 4494SOL    HW214382   5.370   1.823   1.679
 4495SOL     OW14383   5.578   5.253   1.606
 4495SOL    HW114384   5.584   5.186   1.680
 4495SOL    HW214385   5.484   5.257   1.573
 4496SOL     OW14386   6.039   3.476   5.861
 4496SOL    HW114387   5.970   3.549   5.859
 4496SOL    HW214388   5.993   3.387   5.862
 4497SOL     OW14389   6.972   5.938   1.096
 4497SOL    HW114390   6.904   6.007   1.072
 4497SOL    HW214391   6.926   5.850   1.109
 4498SOL     OW14392   1.160   4.008   6.081
 4498SOL    HW114393   1.174   4.076   6.153
 4498SOL    HW214394   1.083   3.948   6.107
 4499SOL     OW14395   5.458   3.809   0.402
 4499SOL    HW114396   5.359   3.824   0.405
 4499SOL    HW214397   5.502   3.888   0.360
 4500SOL     OW14398   3.805   3.903   2.078
 4500SOL    HW114399   3.873   3.907   2.151
 4500SOL    HW214400   3.852   3.901   1.990
 4501SOL     OW14401   1.296   5.014   4.915
 4501SOL    HW114402   1.224   5.077   4.946
 4501SOL    HW214403   1.374   5.066   4.882
 4502SOL     OW14404   5.177   2.415   0.137
 4502SOL    HW114405   5.088   2.460   0.137
 4502SOL    HW214406   5.175   2.336   0.076
 4503SOL     OW14407   1.028   3.236   2.557
 4503SOL    HW114408   1.094   3.264   2.626
 4503SOL    HW214409   0.939   3.277   2.577
 4504SOL     OW14410   4.545   2.562   4.449
 4504SOL    HW114411   4.478   2.536   4.379
 4504SOL    HW214412   4.515   2.527   4.538
 4505SOL     OW14413   2.343   4.945   0.583
 4505SOL    HW114414   2.293   5.012   0.529
 4505SOL    HW214415   2.426   4.918   0.534
 4506SOL     OW14416   3.523   0.103   5.815
 4506SOL    HW114417   3.514   0.163   5.735
 4506SOL    HW214418   3.619   0.089   5.836
 4507SOL     OW14419   6.390   3.665   2.152
 4507SOL    HW114420   6.485   3.644   2.176
 4507SOL    HW214421   6.347   3.714   2.228
 4508SOL     OW14422   1.942   3.944   0.525
 4508SOL    HW114423   2.017   3.903   0.474
 4508SOL    HW214424   1.951   3.921   0.622
 4509SOL     OW14425   1.056   2.739   3.199
 4509SOL    HW114426   1.000   2.714   3.120
 4509SOL    HW214427   1.149   2.759   3.169
 4510SOL     OW14428   2.900   6.497   6.382
 4510SOL    HW114429   2.968   6.519   6.453
 4510SOL    HW214430   2.871   6.402   6.392
 4511SOL     OW14431   0.146   2.374   0.094
 4511SOL    HW114432   0.185   2.306   0.157
 4511SOL    HW214433   0.163   2.466   0.130
 4512SOL     OW14434   2.472   4.270   0.136
 4512SOL    HW114435   2.534   4.214   0.189
 4512SOL    HW214436   2.484   4.366   0.161
 4513SOL     OW14437   6.395   1.696   3.098
 4513SOL    HW114438   6.369   1.787   3.068
 4513SOL    HW214439   6.484   1.700   3.143
 4514SOL     OW14440   2.350   0.266   4.804
 4514SOL    HW114441   2.279   0.206   4.840
 4514SOL    HW214442   2.312   0.357   4.789
 4515SOL     OW14443   0.015   5.031   0.223
 4515SOL    HW114444   0.001   5.008   0.127
 4515SOL    HW214445   0.086   4.973   0.261
 4516SOL     OW14446   0.431   0.179   3.590
 4516SOL    HW114447   0.442   0.214   3.497
 4516SOL    HW214448   0.521   0.158   3.629
 4517SOL     OW14449   2.797   1.164   6.621
 4517SOL    HW114450   2.867   1.234   6.634
 4517SOL    HW214451   2.759   1.171   6.529
 4518SOL     OW14452   1.531   0.430   3.530
 4518SOL    HW114453   1.613   0.392   3.486
 4518SOL    HW214454   1.515   0.383   3.616
 4519SOL     OW14455   6.567   2.301   5.028
 4519SOL    HW114456   6.621   2.375   4.986
 4519SOL    HW214457   6.472   2.308   4.998
 4520SOL     OW14458   6.948   3.634   3.012
 4520SOL    HW114459   6.959   3.557   3.074
 4520SOL    HW214460   0.016   3.685   3.006
 4521SOL     OW14461   5.040   1.626   6.453
 4521SOL    HW114462   5.034   1.531   6.483
 4521SOL    HW214463   4.990   1.684   6.518
 4522SOL     OW14464   5.507   6.725   3.295
 4522SOL    HW114465   5.589   6.762   3.251
 4522SOL    HW214466   5.431   6.723   3.230
 4523SOL     OW14467   4.474   2.042   6.095
 4523SOL    HW114468   4.559   2.093   6.082
 4523SOL    HW214469   4.493   1.956   6.142
 4524SOL     OW14470   5.901   0.465   5.300
 4524SOL    HW114471   5.902   0.538   5.368
 4524SOL    HW214472   5.982   0.473   5.241
 4525SOL     OW14473   6.754   1.152   4.194
 4525SOL    HW114474   6.698   1.165   4.276
 4525SOL    HW214475   6.742   1.230   4.133
 4526SOL     OW14476   3.022   1.687   1.466
 4526SOL    HW114477   3.117   1.694   1.494
 4526SOL    HW214478   2.968   1.759   1.509
 4527SOL     OW14479   4.418   6.256   3.974
 4527SOL    HW114480   4.360   6.218   3.902
 4527SOL    HW214481   4.457   6.182   4.029
 4528SOL     OW14482   4.644   0.431   6.297
 4528SOL    HW114483   4.652   0.356   6.231
 4528SOL    HW214484   4.576   0.497   6.265
 4529SOL     OW14485   3.027   6.781   4.013
 4529SOL    HW114486   3.084   6.855   4.049
 4529SOL    HW214487   3.073   6.693   4.027
 4530SOL     OW14488   6.737   2.461   4.006
 4530SOL    HW114489   6.754   2.471   3.908
 4530SOL    HW214490   6.824   2.444   4.053
 4531SOL     OW14491   0.452   3.925   3.832
 4531SOL    HW114492   0.441   3.905   3.735
 4531SOL    HW214493   0.446   3.841   3.885
 4532SOL     OW14494   1.005   2.203   0.196
 4532SOL    HW114495   0.980   2.122   0.249
 4532SOL    HW214496   0.950   2.281   0.227
 4533SOL     OW14497   3.475   6.489   2.164
 4533SOL    HW114498   3.489   6.580   2.202
 4533SOL    HW214499   3.418   6.434   2.226
 4534SOL     OW14500   6.650   4.142   5.781
 4534SOL    HW114501   6.616   4.078   5.849
 4534SOL    HW214502   6.699   4.216   5.826
 4535SOL     OW14503   5.461   2.123   2.833
 4535SOL    HW114504   5.545   2.083   2.871
 4535SOL    HW214505   5.384   2.101   2.892
 4536SOL     OW14506   6.823   6.899   3.592
 4536SOL    HW114507   6.766   6.977   3.567
 4536SOL    HW214508   6.913   6.931   3.622
 4537SOL     OW14509   4.840   3.313   5.575
 4537SOL    HW114510   4.755   3.289   5.530
 4537SOL    HW214511   4.918   3.285   5.518
 4538SOL     OW14512   3.388   2.198   1.729
 4538SOL    HW114513   3.354   2.286   1.694
 4538SOL    HW214514   3.479   2.211   1.769
 4539SOL     OW14515   2.221   2.902   1.729
 4539SOL    HW114516   2.226   2.852   1.815
 4539SOL    HW214517   2.171   2.988   1.744
 4540SOL     OW14518   3.310   2.808   5.013
 4540SOL    HW114519   3.282   2.713   5.024
 4540SOL    HW214520   3.246   2.868   5.061
 4541SOL     OW14521   5.987   1.605   1.713
 4541SOL    HW114522   5.997   1.507   1.732
 4541SOL    HW214523   5.890   1.629   1.712
 4542SOL     OW14524   5.194   6.531   3.198
 4542SOL    HW114525   5.234   6.566   3.113
 4542SOL    HW214526   5.128   6.597   3.233
 4543SOL     OW14527   5.988   2.588   2.621
 4543SOL    HW114528   6.051   2.542   2.558
 4543SOL    HW214529   5.931   2.519   2.668
 4544SOL     OW14530   5.537   5.040   6.626
 4544SOL    HW114531   5.625   4.999   6.603
 4544SOL    HW214532   5.476   5.034   6.548
 4545SOL     OW14533   3.394   3.755   6.515
 4545SOL    HW114534   3.388   3.826   6.444
 4545SOL    HW214535   3.382   3.665   6.473
 4546SOL     OW14536   0.489   6.247   6.747
 4546SOL    HW114537   0.538   6.162   6.728
 4546SOL    HW214538   0.402   6.247   6.698
 4547SOL     OW14539   4.380   1.445   2.724
 4547SOL    HW114540   4.328   1.360   2.722
 4547SOL    HW214541   4.477   1.425   2.708
 4548SOL     OW14542   0.757   3.328   4.137
 4548SOL    HW114543   0.763   3.400   4.068
 4548SOL    HW214544   0.848   3.289   4.152
 4549SOL     OW14545   5.818   1.509   2.494
 4549SOL    HW114546   5.808   1.576   2.567
 4549SOL    HW214547   5.900   1.454   2.510
 4550SOL     OW14548   2.015   5.186   4.904
 4550SOL    HW114549   2.043   5.150   4.993
 4550SOL    HW214550   2.012   5.112   4.838
 4551SOL     OW14551   6.396   3.662   0.613
 4551SOL    HW114552   6.336   3.590   0.578
 4551SOL    HW214553   6.446   3.629   0.693
 4552SOL     OW14554   6.807   3.000   4.494
 4552SOL    HW114555   6.859   2.915   4.490
 4552SOL    HW214556   6.784   3.021   4.589
 4553SOL     OW14557   5.215   4.810   6.597
 4553SOL    HW114558   5.244   4.728   6.548
 4553SOL    HW214559   5.236   4.800   6.694
 4554SOL     OW14560   6.211   6.499   3.750
 4554SOL    HW114561   6.145   6.480   3.676
 4554SOL    HW214562   6.192   6.589   3.789
 4555SOL     OW14563   3.871   3.223   0.285
 4555SOL    HW114564   3.859   3.282   0.365
 4555SOL    HW214565   3.883   3.128   0.316
 4556SOL     OW14566   4.460   0.376   5.270
 4556SOL    HW114567   4.530   0.377   5.342
 4556SOL    HW214568   4.504   0.361   5.181
 4557SOL     OW14569   5.536   1.322   4.528
 4557SOL    HW114570   5.550   1.392   4.458
 4557SOL    HW214571   5.453   1.342   4.579
 4558SOL     OW14572   6.818   2.990   6.287
 4558SOL    HW114573   6.901   2.954   6.331
 4558SOL    HW214574   6.740   2.933   6.313
 4559SOL     OW14575   1.595   6.334   1.395
 4559SOL    HW114576   1.515   6.393   1.410
 4559SOL    HW214577   1.670   6.387   1.357
 4560SOL     OW14578   5.663   2.879   2.719
 4560SOL    HW114579   5.587   2.814   2.725
 4560SOL    HW214580   5.750   2.831   2.733
 4561SOL     OW14581   3.412   6.394   6.530
 4561SOL    HW114582   3.370   6.467   6.476
 4561SOL    HW214583   3.511   6.410   6.536
 4562SOL     OW14584   2.592   4.404   5.982
 4562SOL    HW114585   2.608   4.394   5.884
 4562SOL    HW214586   2.588   4.313   6.024
 4563SOL     OW14587   5.982   2.653   6.941
 4563SOL    HW114588   6.028   2.666   0.011
 4563SOL    HW214589   6.021   2.714   6.873
 4564SOL     OW14590   0.604   5.316   0.017
 4564SOL    HW114591   0.701   5.303   7.011
 4564SOL    HW214592   0.594   5.313   0.117
 4565SOL     OW14593   2.951   1.296   3.932
 4565SOL    HW114594   2.949   1.215   3.991
 4565SOL    HW214595   2.875   1.356   3.955
 4566SOL     OW14596   1.444   1.003   0.969
 4566SOL    HW114597   1.491   1.084   0.933
 4566SOL    HW214598   1.512   0.932   0.990
 4567SOL     OW14599   5.876   1.854   0.709
 4567SOL    HW114600   5.875   1.818   0.616
 4567SOL    HW214601   5.789   1.835   0.753
 4568SOL     OW14602   4.301   4.925   3.918
 4568SOL    HW114603   4.295   4.996   3.987
 4568SOL    HW214604   4.230   4.856   3.934
 4569SOL     OW14605   1.105   1.856   3.739
 4569SOL    HW114606   1.133   1.951   3.730
 4569SOL    HW214607   1.016   1.843   3.695
 4570SOL     OW14608   5.198   5.921   4.670
 4570SOL    HW114609   5.156   5.845   4.720
 4570SOL    HW214610   5.133   5.996   4.664
 4571SOL     OW14611   3.964   3.038   3.978
 4571SOL    HW114612   3.907   3.003   3.903
 4571SOL    HW214613   3.919   3.018   4.065
 4572SOL     OW14614   2.714   5.355   1.218
 4572SOL    HW114615   2.705   5.257   1.197
 4572SOL    HW214616   2.705   5.369   1.317
 4573SOL     OW14617   5.510   0.319   1.224
 4573SOL    HW114618   5.468   0.330   1.314
 4573SOL    HW214619   5.439   0.298   1.156
 4574SOL     OW14620   0.372   4.321   1.836
 4574SOL    HW114621   0.469   4.296   1.839
 4574SOL    HW214622   0.327   4.268   1.764
 4575SOL     OW14623   6.908   6.271   1.938
 4575SOL    HW114624   6.826   6.232   1.981
 4575SOL    HW214625   6.921   6.365   1.970
 4576SOL     OW14626   3.325   6.269   3.899
 4576SOL    HW114627   3.343   6.348   3.958
 4576SOL    HW214628   3.329   6.297   3.803
 4577SOL     OW14629   1.927   3.443   3.849
 4577SOL    HW114630   1.959   3.535   3.869
 4577SOL    HW214631   1.849   3.447   3.787
 4578SOL     OW14632   6.468   6.037   3.658
 4578SOL    HW114633   6.497   6.011   3.566
 4578SOL    HW214634   6.375   6.073   3.655
 4579SOL     OW14635   4.838   1.651   3.788
 4579SOL    HW114636   4.915   1.680   3.730
 4579SOL    HW214637   4.774   1.727   3.798
 4580SOL     OW14638   0.455   5.299   6.603
 4580SOL    HW114639   0.374   5.272   6.656
 4580SOL    HW214640   0.430   5.373   6.540
 4581SOL     OW14641   3.442   6.183   4.955
 4581SOL    HW114642   3.371   6.150   4.892
 4581SOL    HW214643   3.406   6.182   5.048
 4582SOL     OW14644   4.969   6.779   3.295
 4582SOL    HW114645   4.943   6.792   3.390
 4582SOL    HW214646   5.020   6.859   3.263
 4583SOL     OW14647   3.530   0.292   5.609
 4583SOL    HW114648   3.511   0.283   5.511
 4583SOL    HW214649   3.557   0.386   5.629
 4584SOL     OW14650   0.121   5.278   5.333
 4584SOL    HW114651   0.114   5.362   5.280
 4584SOL    HW214652   0.201   5.283   5.394
 4585SOL     OW14653   3.074   6.275   2.263
 4585SOL    HW114654   3.125   6.272   2.177
 4585SOL    HW214655   2.980   6.247   2.247
 4586SOL     OW14656   2.506   6.133   1.265
 4586SOL    HW114657   2.568   6.055   1.271
 4586SOL    HW214658   2.524   6.195   1.342
 4587SOL     OW14659   2.958   5.041   0.569
 4587SOL    HW114660   2.932   4.979   0.494
 4587SOL    HW214661   2.945   4.994   0.656
 4588SOL     OW14662   3.358   4.164   4.992
 4588SOL    HW114663   3.457   4.163   5.004
 4588SOL    HW214664   3.314   4.123   5.072
 4589SOL     OW14665   1.365   2.024   3.623
 4589SOL    HW114666   1.397   1.996   3.713
 4589SOL    HW214667   1.428   2.093   3.585
 4590SOL     OW14668   4.092   6.593   3.157
 4590SOL    HW114669   4.133   6.546   3.235
 4590SOL    HW214670   4.165   6.634   3.101
 4591SOL     OW14671   5.290   5.920   4.949
 4591SOL    HW114672   5.209   5.972   4.976
 4591SOL    HW214673   5.275   5.823   4.969
 4592SOL     OW14674   3.361   1.501   5.661
 4592SOL    HW114675   3.401   1.410   5.673
 4592SOL    HW214676   3.403   1.564   5.726
 4593SOL     OW14677   4.876   6.697   1.795
 4593SOL    HW114678   4.810   6.644   1.848
 4593SOL    HW214679   4.859   6.795   1.809
 4594SOL     OW14680   4.046   2.194   2.618
 4594SOL    HW114681   4.106   2.118   2.643
 4594SOL    HW214682   3.963   2.191   2.673
 4595SOL     OW14683   4.465   3.408   5.909
 4595SOL    HW114684   4.437   3.413   6.004
 4595SOL    HW214685   4.564   3.420   5.902
 4596SOL     OW14686   4.667   0.463   2.520
 4596SOL    HW114687   4.658   0.364   2.530
 4596SOL    HW214688   4.757   0.492   2.554
 4597SOL     OW14689   6.520   3.636   5.740
 4597SOL    HW114690   6.475   3.717   5.702
 4597SOL    HW214691   6.596   3.609   5.680
 4598SOL     OW14692   2.589   4.512   6.920
 4598SOL    HW114693   2.521   4.441   6.902
 4598SOL    HW214694   2.641   4.530   6.837
 4599SOL     OW14695   3.220   5.250   0.292
 4599SOL    HW114696   3.236   5.152   0.291
 4599SOL    HW214697   3.216   5.285   0.198
 4600SOL     OW14698   2.763   3.838   0.908
 4600SOL    HW114699   2.683   3.781   0.927
 4600SOL    HW214700   2.845   3.782   0.908
 4601SOL     OW14701   2.125   4.862   3.977
 4601SOL    HW114702   2.079   4.904   3.899
 4601SOL    HW214703   2.071   4.876   4.060
 4602SOL     OW14704   1.558   6.911   1.516
 4602SOL    HW114705   1.599   6.885   1.604
 4602SOL    HW214706   1.534   6.829   1.465
 4603SOL     OW14707   3.043   1.413   2.133
 4603SOL    HW114708   3.016   1.422   2.038
 4603SOL    HW214709   3.042   1.316   2.159
 4604SOL     OW14710   1.154   0.384   2.894
 4604SOL    HW114711   1.119   0.388   2.987
 4604SOL    HW214712   1.225   0.313   2.888
 4605SOL     OW14713   5.365   6.091   5.947
 4605SOL    HW114714   5.413   6.175   5.923
 4605SOL    HW214715   5.411   6.047   6.024
 4606SOL     OW14716   6.354   6.433   4.616
 4606SOL    HW114717   6.333   6.530   4.632
 4606SOL    HW214718   6.335   6.410   4.521
 4607SOL     OW14719   2.983   3.182   1.026
 4607SOL    HW114720   3.007   3.157   1.121
 4607SOL    HW214721   3.035   3.262   0.999
 4608SOL     OW14722   1.059   3.251   5.655
 4608SOL    HW114723   1.146   3.264   5.703
 4608SOL    HW214724   1.071   3.185   5.581
 4609SOL     OW14725   3.086   0.388   0.702
 4609SOL    HW114726   3.084   0.309   0.762
 4609SOL    HW214727   3.170   0.387   0.648
 4610SOL     OW14728   6.733   3.642   6.603
 4610SOL    HW114729   6.667   3.700   6.651
 4610SOL    HW214730   6.821   3.647   6.650
 4611SOL     OW14731   1.729   4.801   6.761
 4611SOL    HW114732   1.671   4.722   6.782
 4611SOL    HW214733   1.825   4.776   6.771
 4612SOL     OW14734   2.057   0.618   6.215
 4612SOL    HW114735   2.142   0.573   6.245
 4612SOL    HW214736   2.062   0.715   6.236
 4613SOL     OW14737   3.622   4.972   1.578
 4613SOL    HW114738   3.661   4.952   1.668
 4613SOL    HW214739   3.681   4.935   1.507
 4614SOL     OW14740   2.260   4.988   6.638
 4614SOL    HW114741   2.231   4.895   6.662
 4614SOL    HW214742   2.240   5.050   6.714
 4615SOL     OW14743   6.089   3.076   6.468
 4615SOL    HW114744   6.022   3.082   6.394
 4615SOL    HW214745   6.148   3.157   6.467
 4616SOL     OW14746   5.613   1.372   6.478
 4616SOL    HW114747   5.676   1.304   6.441
 4616SOL    HW214748   5.534   1.381   6.418
 4617SOL     OW14749   0.097   3.994   1.751
 4617SOL    HW114750   0.086   3.969   1.847
 4617SOL    HW214751   0.118   3.913   1.697
 4618SOL     OW14752   0.547   3.059   6.717
 4618SOL    HW114753   0.459   3.033   6.755
 4618SOL    HW214754   0.534   3.126   6.644
 4619SOL     OW14755   4.323   0.540   4.047
 4619SOL    HW114756   4.340   0.595   4.129
 4619SOL    HW214757   4.227   0.514   4.044
 4620SOL     OW14758   2.566   5.989   0.202
 4620SOL    HW114759   2.488   5.980   0.140
 4620SOL    HW214760   2.593   6.085   0.209
 4621SOL     OW14761   6.759   0.697   6.441
 4621SOL    HW114762   6.685   0.634   6.418
 4621SOL    HW214763   6.723   0.775   6.493
 4622SOL     OW14764   1.731   4.056   0.389
 4622SOL    HW114765   1.807   4.014   0.441
 4622SOL    HW214766   1.735   4.025   0.294
 4623SOL     OW14767   5.350   3.833   3.006
 4623SOL    HW114768   5.401   3.835   3.092
 4623SOL    HW214769   5.301   3.919   2.995
 4624SOL     OW14770   4.526   6.782   6.232
 4624SOL    HW114771   4.570   6.848   6.171
 4624SOL    HW214772   4.433   6.765   6.201
 4625SOL     OW14773   1.390   3.800   6.205
 4625SOL    HW114774   1.427   3.847   6.125
 4625SOL    HW214775   1.304   3.754   6.180
 4626SOL     OW14776   5.589   4.650   1.808
 4626SOL    HW114777   5.525   4.579   1.777
 4626SOL    HW214778   5.664   4.607   1.859
 4627SOL     OW14779   2.073   6.633   5.143
 4627SOL    HW114780   2.107   6.539   5.149
 4627SOL    HW214781   2.082   6.678   5.232
 4628SOL     OW14782   6.382   2.867   1.884
 4628SOL    HW114783   6.451   2.795   1.892
 4628SOL    HW214784   6.420   2.944   1.832
 4629SOL     OW14785   4.551   5.501   4.405
 4629SOL    HW114786   4.554   5.401   4.406
 4629SOL    HW214787   4.481   5.532   4.340
 4630SOL     OW14788   2.481   6.260   2.641
 4630SOL    HW114789   2.446   6.259   2.734
 4630SOL    HW214790   2.428   6.198   2.583
 4631SOL     OW14791   1.871   1.258   3.236
 4631SOL    HW114792   1.923   1.210   3.308
 4631SOL    HW214793   1.838   1.345   3.272
 4632SOL     OW14794   5.510   6.482   4.160
 4632SOL    HW114795   5.480   6.543   4.233
 4632SOL    HW214796   5.435   6.469   4.094
 4633SOL     OW14797   5.100   2.722   5.402
 4633SOL    HW114798   5.146   2.736   5.490
 4633SOL    HW214799   5.159   2.668   5.342
 4634SOL     OW14800   3.002   4.281   6.948
 4634SOL    HW114801   3.087   4.229   6.940
 4634SOL    HW214802   3.007   4.362   6.889
 4635SOL     OW14803   4.841   3.512   1.514
 4635SOL    HW114804   4.906   3.588   1.523
 4635SOL    HW214805   4.832   3.487   1.418
 4636SOL     OW14806   0.558   5.118   1.643
 4636SOL    HW114807   0.618   5.077   1.713
 4636SOL    HW214808   0.548   5.216   1.662
 4637SOL     OW14809   1.253   0.739   5.152
 4637SOL    HW114810   1.284   0.834   5.146
 4637SOL    HW214811   1.309   0.690   5.220
 4638SOL     OW14812   4.173   4.874   5.768
 4638SOL    HW114813   4.122   4.798   5.729
 4638SOL    HW214814   4.271   4.859   5.754
 4639SOL     OW14815   6.757   1.858   5.116
 4639SOL    HW114816   6.799   1.874   5.205
 4639SOL    HW214817   6.769   1.939   5.057
 4640SOL     OW14818   6.313   5.176   3.107
 4640SOL    HW114819   6.223   5.171   3.151
 4640SOL    HW214820   6.347   5.084   3.088
 4641SOL     OW14821   2.516   3.651   5.501
 4641SOL    HW114822   2.559   3.579   5.446
 4641SOL    HW214823   2.518   3.737   5.451
 4642SOL     OW14824   5.841   5.914   4.140
 4642SOL    HW114825   5.758   5.904   4.195
 4642SOL    HW214826   5.822   5.974   4.062
 4643SOL     OW14827   4.339   3.379   1.171
 4643SOL    HW114828   4.277   3.311   1.130
 4643SOL    HW214829   4.397   3.334   1.238
 4644SOL     OW14830   3.843   4.558   5.740
 4644SOL    HW114831   3.784   4.638   5.728
 4644SOL    HW214832   3.812   4.484   5.681
 4645SOL     OW14833   1.629   6.148   4.820
 4645SOL    HW114834   1.631   6.179   4.915
 4645SOL    HW214835   1.700   6.079   4.807
 4646SOL     OW14836   3.435   0.529   0.873
 4646SOL    HW114837   3.449   0.564   0.780
 4646SOL    HW214838   3.389   0.598   0.928
 4647SOL     OW14839   6.600   0.555   5.217
 4647SOL    HW114840   6.671   0.486   5.203
 4647SOL    HW214841   6.518   0.513   5.254
 4648SOL     OW14842   2.156   6.085   3.495
 4648SOL    HW114843   2.177   6.088   3.593
 4648SOL    HW214844   2.167   6.176   3.456
 4649SOL     OW14845   5.928   6.383   5.790
 4649SOL    HW114846   5.921   6.325   5.871
 4649SOL    HW214847   5.851   6.447   5.789
 4650SOL     OW14848   6.638   4.687   1.436
 4650SOL    HW114849   6.609   4.593   1.451
 4650SOL    HW214850   6.586   4.727   1.361
 4651SOL     OW14851   6.098   2.144   1.919
 4651SOL    HW114852   5.998   2.134   1.920
 4651SOL    HW214853   6.134   2.109   1.832
 4652SOL     OW14854   0.305   6.502   5.405
 4652SOL    HW114855   0.357   6.584   5.428
 4652SOL    HW214856   0.368   6.429   5.378
 4653SOL     OW14857   0.725   4.770   0.171
 4653SOL    HW114858   0.638   4.720   0.170
 4653SOL    HW214859   0.713   4.859   0.127
 4654SOL     OW14860   1.280   1.803   0.145
 4654SOL    HW114861   1.185   1.828   0.129
 4654SOL    HW214862   1.331   1.808   0.059
 4655SOL     OW14863   0.279   4.735   3.917
 4655SOL    HW114864   0.270   4.662   3.850
 4655SOL    HW214865   0.375   4.762   3.924
 4656SOL     OW14866   2.350   0.098   3.335
 4656SOL    HW114867   2.365   0.006   3.371
 4656SOL    HW214868   2.399   0.108   3.248
 4657SOL     OW14869   6.058   1.143   6.085
 4657SOL    HW114870   6.097   1.131   5.993
 4657SOL    HW214871   6.078   1.062   6.140
 4658SOL     OW14872   5.198   0.452   3.446
 4658SOL    HW114873   5.287   0.435   3.404
 4658SOL    HW214874   5.184   0.550   3.457
 4659SOL     OW14875   1.925   2.973   4.565
 4659SOL    HW114876   1.974   2.973   4.478
 4659SOL    HW214877   1.860   3.049   4.567
 4660SOL     OW14878   6.355   1.355   5.351
 4660SOL    HW114879   6.328   1.446   5.321
 4660SOL    HW214880   6.385   1.302   5.271
 4661SOL     OW14881   3.385   3.155   3.392
 4661SOL    HW114882   3.364   3.243   3.434
 4661SOL    HW214883   3.302   3.115   3.355
 4662SOL     OW14884   6.176   6.429   4.083
 4662SOL    HW114885   6.259   6.446   4.137
 4662SOL    HW214886   6.144   6.336   4.100
 4663SOL     OW14887   0.704   2.632   2.228
 4663SOL    HW114888   0.657   2.561   2.280
 4663SOL    HW214889   0.747   2.591   2.148
 4664SOL     OW14890   3.541   4.287   0.007
 4664SOL    HW114891   3.536   4.188   0.014
 4664SOL    HW214892   3.607   4.312   6.954
 4665SOL     OW14893   5.386   0.503   5.911
 4665SOL    HW114894   5.351   0.550   5.830
 4665SOL    HW214895   5.470   0.548   5.942
 4666SOL     OW14896   1.736   1.430   0.448
 4666SOL    HW114897   1.725   1.335   0.419
 4666SOL    HW214898   1.764   1.486   0.370
 4667SOL     OW14899   0.718   6.030   4.186
 4667SOL    HW114900   0.726   5.960   4.257
 4667SOL    HW214901   0.806   6.043   4.141
 4668SOL     OW14902   5.291   0.628   5.146
 4668SOL    HW114903   5.276   0.726   5.160
 4668SOL    HW214904   5.344   0.614   5.062
 4669SOL     OW14905   2.279   1.831   2.389
 4669SOL    HW114906   2.184   1.829   2.358
 4669SOL    HW214907   2.340   1.826   2.310
 4670SOL     OW14908   1.826   1.405   4.396
 4670SOL    HW114909   1.857   1.486   4.445
 4670SOL    HW214910   1.847   1.414   4.299
 4671SOL     OW14911   5.950   2.067   2.700
 4671SOL    HW114912   6.043   2.096   2.675
 4671SOL    HW214913   5.886   2.142   2.683
 4672SOL     OW14914   2.825   2.573   5.285
 4672SOL    HW114915   2.731   2.589   5.253
 4672SOL    HW214916   2.844   2.475   5.284
 4673SOL     OW14917   5.306   0.543   2.222
 4673SOL    HW114918   5.287   0.468   2.285
 4673SOL    HW214919   5.221   0.590   2.200
 4674SOL     OW14920   4.748   6.573   5.061
 4674SOL    HW114921   4.675   6.600   5.123
 4674SOL    HW214922   4.710   6.520   4.986
 4675SOL     OW14923   0.841   4.449   6.737
 4675SOL    HW114924   0.922   4.461   6.795
 4675SOL    HW214925   0.865   4.468   6.642
 4676SOL     OW14926   0.913   4.325   4.257
 4676SOL    HW114927   0.862   4.257   4.205
 4676SOL    HW214928   0.991   4.357   4.204
 4677SOL     OW14929   1.370   3.552   0.761
 4677SOL    HW114930   1.339   3.526   0.853
 4677SOL    HW214931   1.297   3.536   0.695
 4678SOL     OW14932   0.934   3.217   1.762
 4678SOL    HW114933   0.905   3.139   1.817
 4678SOL    HW214934   0.909   3.201   1.667
 4679SOL     OW14935   4.583   0.447   2.162
 4679SOL    HW114936   4.527   0.460   2.244
 4679SOL    HW214937   4.656   0.382   2.181
 4680SOL     OW14938   2.039   0.745   6.538
 4680SOL    HW114939   1.957   0.803   6.543
 4680SOL    HW214940   2.119   0.803   6.521
 4681SOL     OW14941   4.821   5.699   2.404
 4681SOL    HW114942   4.879   5.619   2.393
 4681SOL    HW214943   4.733   5.672   2.444
 4682SOL     OW14944   3.513   3.524   6.095
 4682SOL    HW114945   3.606   3.545   6.127
 4682SOL    HW214946   3.494   3.427   6.109
 4683SOL     OW14947   6.434   4.509   3.686
 4683SOL    HW114948   6.445   4.413   3.657
 4683SOL    HW214949   6.509   4.534   3.747
 4684SOL     OW14950   5.522   0.142   5.745
 4684SOL    HW114951   5.432   0.174   5.715
 4684SOL    HW214952   5.530   0.153   5.844
 4685SOL     OW14953   3.141   3.847   4.669
 4685SOL    HW114954   3.219   3.797   4.708
 4685SOL    HW214955   3.141   3.940   4.703
 4686SOL     OW14956   1.504   0.240   6.914
 4686SOL    HW114957   1.578   0.251   6.980
 4686SOL    HW214958   1.500   0.144   6.884
 4687SOL     OW14959   2.003   0.629   2.808
 4687SOL    HW114960   1.999   0.537   2.847
 4687SOL    HW214961   2.056   0.688   2.869
 4688SOL     OW14962   4.976   2.757   5.097
 4688SOL    HW114963   4.920   2.810   5.034
 4688SOL    HW214964   4.918   2.715   5.166
 4689SOL     OW14965   6.829   1.286   1.278
 4689SOL    HW114966   6.803   1.382   1.272
 4689SOL    HW214967   6.918   1.273   1.234
 4690SOL     OW14968   3.496   2.374   0.806
 4690SOL    HW114969   3.531   2.370   0.713
 4690SOL    HW214970   3.486   2.281   0.842
 4691SOL     OW14971   6.547   3.633   1.821
 4691SOL    HW114972   6.453   3.663   1.835
 4691SOL    HW214973   6.556   3.537   1.847
 4692SOL     OW14974   5.115   3.095   2.430
 4692SOL    HW114975   5.130   3.111   2.332
 4692SOL    HW214976   5.189   3.137   2.482
 4693SOL     OW14977   0.415   6.958   3.187
 4693SOL    HW114978   0.454   6.897   3.117
 4693SOL    HW214979   0.379   6.904   3.262
 4694SOL     OW14980   2.288   6.918   5.789
 4694SOL    HW114981   2.226   6.996   5.793
 4694SOL    HW214982   2.256   6.852   5.722
 4695SOL     OW14983   1.819   5.054   2.276
 4695SOL    HW114984   1.792   5.119   2.205
 4695SOL    HW214985   1.818   4.961   2.238
 4696SOL     OW14986   1.713   6.305   6.036
 4696SOL    HW114987   1.639   6.249   6.073
 4696SOL    HW214988   1.784   6.318   6.106
 4697SOL     OW14989   4.386   5.560   1.152
 4697SOL    HW114990   4.471   5.541   1.202
 4697SOL    HW214991   4.363   5.482   1.094
 4698SOL     OW14992   5.719   1.159   4.752
 4698SOL    HW114993   5.768   1.072   4.745
 4698SOL    HW214994   5.709   1.199   4.661
 4699SOL     OW14995   0.936   1.205   2.783
 4699SOL    HW114996   1.028   1.231   2.814
 4699SOL    HW214997   0.916   1.112   2.812
 4700SOL     OW14998   6.548   1.665   3.339
 4700SOL    HW114999   6.595   1.605   3.275
 4700SOL    HW215000   6.457   1.628   3.360
 4701SOL     OW15001   3.039   2.702   1.673
 4701SOL    HW115002   2.951   2.662   1.699
 4701SOL    HW215003   3.109   2.631   1.673
 4702SOL     OW15004   6.213   5.030   0.680
 4702SOL    HW115005   6.117   5.006   0.671
 4702SOL    HW215006   6.221   5.125   0.710
 4703SOL     OW15007   0.398   5.183   3.831
 4703SOL    HW115008   0.376   5.173   3.928
 4703SOL    HW215009   0.494   5.211   3.821
 4704SOL     OW15010   1.914   4.851   4.473
 4704SOL    HW115011   1.927   4.753   4.483
 4704SOL    HW215012   1.818   4.870   4.452
 4705SOL     OW15013   3.201   2.042   1.939
 4705SOL    HW115014   3.291   2.060   1.900
 4705SOL    HW215015   3.183   1.943   1.937
 4706SOL     OW15016   1.925   1.831   1.034
 4706SOL    HW115017   1.885   1.819   0.943
 4706SOL    HW215018   1.869   1.783   1.102
 4707SOL     OW15019   1.689   5.694   2.087
 4707SOL    HW115020   1.702   5.648   2.175
 4707SOL    HW215021   1.778   5.705   2.042
 4708SOL     OW15022   1.957   2.971   6.055
 4708SOL    HW115023   1.898   2.889   6.050
 4708SOL    HW215024   2.046   2.946   6.093
 4709SOL     OW15025   5.788   4.372   5.285
 4709SOL    HW115026   5.722   4.299   5.269
 4709SOL    HW215027   5.871   4.333   5.324
 4710SOL     OW15028   5.904   5.702   5.198
 4710SOL    HW115029   5.915   5.732   5.104
 4710SOL    HW215030   5.913   5.602   5.202
 4711SOL     OW15031   5.131   4.480   2.466
 4711SOL    HW115032   5.038   4.495   2.501
 4711SOL    HW215033   5.127   4.469   2.366
 4712SOL     OW15034   3.962   4.425   6.093
 4712SOL    HW115035   3.982   4.515   6.055
 4712SOL    HW215036   3.918   4.368   6.023
 4713SOL     OW15037   5.508   4.545   0.915
 4713SOL    HW115038   5.466   4.455   0.901
 4713SOL    HW215039   5.604   4.533   0.940
 4714SOL     OW15040   4.206   1.702   5.943
 4714SOL    HW115041   4.142   1.756   5.997
 4714SOL    HW215042   4.283   1.673   6.000
 4715SOL     OW15043   6.622   1.972   2.437
 4715SOL    HW115044   6.707   2.011   2.402
 4715SOL    HW215045   6.639   1.881   2.473
 4716SOL     OW15046   3.270   4.307   5.737
 4716SOL    HW115047   3.327   4.261   5.669
 4716SOL    HW215048   3.215   4.378   5.693
 4717SOL     OW15049   2.126   4.864   5.876
 4717SOL    HW115050   2.139   4.963   5.864
 4717SOL    HW215051   2.165   4.836   5.964
 4718SOL     OW15052   4.771   4.202   2.080
 4718SOL    HW115053   4.791   4.110   2.046
 4718SOL    HW215054   4.681   4.231   2.047
 4719SOL     OW15055   5.734   4.378   4.121
 4719SOL    HW115056   5.779   4.315   4.184
 4719SOL    HW215057   5.797   4.403   4.047
 4720SOL     OW15058   1.362   2.228   6.627
 4720SOL    HW115059   1.396   2.137   6.652
 4720SOL    HW215060   1.327   2.225   6.533
 4721SOL     OW15061   0.817   2.858   2.390
 4721SOL    HW115062   0.794   2.761   2.393
 4721SOL    HW215063   0.821   2.889   2.295
 4722SOL     OW15064   1.488   5.166   6.033
 4722SOL    HW115065   1.429   5.237   6.071
 4722SOL    HW215066   1.575   5.165   6.082
 4723SOL     OW15067   2.760   5.131   6.580
 4723SOL    HW115068   2.666   5.165   6.584
 4723SOL    HW215069   2.766   5.058   6.513
 4724SOL     OW15070   0.242   6.898   3.970
 4724SOL    HW115071   0.245   6.968   3.899
 4724SOL    HW215072   0.315   6.914   4.037
 4725SOL     OW15073   6.290   4.934   1.042
 4725SOL    HW115074   6.299   4.876   1.123
 4725SOL    HW215075   6.272   4.876   0.962
 4726SOL     OW15076   1.450   2.886   5.851
 4726SOL    HW115077   1.439   2.823   5.928
 4726SOL    HW215078   1.514   2.847   5.785
 4727SOL     OW15079   6.515   5.384   1.153
 4727SOL    HW115080   6.417   5.403   1.152
 4727SOL    HW215081   6.559   5.423   1.073
 4728SOL     OW15082   5.134   0.946   3.340
 4728SOL    HW115083   5.052   0.893   3.320
 4728SOL    HW215084   5.129   0.984   3.432
 4729SOL     OW15085   6.728   1.293   2.471
 4729SOL    HW115086   6.768   1.236   2.399
 4729SOL    HW215087   6.777   1.278   2.557
 4730SOL     OW15088   3.164   0.561   3.324
 4730SOL    HW115089   3.129   0.649   3.357
 4730SOL    HW215090   3.165   0.495   3.399
 4731SOL     OW15091   3.408   6.915   1.837
 4731SOL    HW115092   3.350   6.948   1.911
 4731SOL    HW215093   3.457   6.834   1.867
 4732SOL     OW15094   0.184   5.109   4.981
 4732SOL    HW115095   0.246   5.131   5.056
 4732SOL    HW215096   0.220   5.032   4.929
 4733SOL     OW15097   1.522   3.994   2.997
 4733SOL    HW115098   1.583   3.972   3.073
 4733SOL    HW215099   1.546   3.938   2.918
 4734SOL     OW15100   4.608   3.902   6.559
 4734SOL    HW115101   4.602   3.928   6.462
 4734SOL    HW215102   4.520   3.865   6.589
 4735SOL     OW15103   6.956   0.733   5.283
 4735SOL    HW115104   6.864   0.772   5.274
 4735SOL    HW215105   6.950   0.634   5.277
 4736SOL     OW15106   6.560   0.674   4.223
 4736SOL    HW115107   6.632   0.608   4.246
 4736SOL    HW215108   6.584   0.720   4.137
 4737SOL     OW15109   2.327   5.273   0.068
 4737SOL    HW115110   2.368   5.201   0.124
 4737SOL    HW215111   2.329   5.359   0.119
 4738SOL     OW15112   0.641   5.230   3.706
 4738SOL    HW115113   0.735   5.213   3.736
 4738SOL    HW215114   0.605   5.311   3.752
 4739SOL     OW15115   5.829   3.406   3.351
 4739SOL    HW115116   5.758   3.348   3.392
 4739SOL    HW215117   5.916   3.390   3.397
 4740SOL     OW15118   1.839   6.600   0.696
 4740SOL    HW115119   1.786   6.684   0.700
 4740SOL    HW215120   1.882   6.584   0.784
 4741SOL     OW15121   5.684   4.527   1.490
 4741SOL    HW115122   5.742   4.469   1.433
 4741SOL    HW215123   5.730   4.615   1.506
 4742SOL     OW15124   1.981   5.861   2.064
 4742SOL    HW115125   1.914   5.925   2.099
 4742SOL    HW215126   2.001   5.792   2.133
 4743SOL     OW15127   2.437   3.935   0.211
 4743SOL    HW115128   2.440   3.845   0.253
 4743SOL    HW215129   2.529   3.975   0.210
 4744SOL     OW15130   2.733   2.020   5.257
 4744SOL    HW115131   2.688   2.043   5.343
 4744SOL    HW215132   2.705   1.928   5.228
 4745SOL     OW15133   4.691   5.692   4.283
 4745SOL    HW115134   4.649   5.783   4.276
 4745SOL    HW215135   4.637   5.636   4.345
 4746SOL     OW15136   5.797   1.536   1.189
 4746SOL    HW115137   5.783   1.457   1.129
 4746SOL    HW215138   5.725   1.538   1.259
 4747SOL     OW15139   1.124   2.681   2.093
 4747SOL    HW115140   1.208   2.711   2.047
 4747SOL    HW215141   1.138   2.682   2.192
 4748SOL     OW15142   2.321   0.143   0.504
 4748SOL    HW115143   2.225   0.115   0.508
 4748SOL    HW215144   2.346   0.189   0.590
 4749SOL     OW15145   3.516   0.821   0.141
 4749SOL    HW115146   3.453   0.898   0.136
 4749SOL    HW215147   3.478   0.750   0.201
 4750SOL     OW15148   0.894   2.075   5.208
 4750SOL    HW115149   0.881   2.173   5.194
 4750SOL    HW215150   0.985   2.048   5.175
 4751SOL     OW15151   1.367   4.147   6.593
 4751SOL    HW115152   1.306   4.225   6.604
 4751SOL    HW215153   1.360   4.112   6.499
 4752SOL     OW15154   2.181   5.679   1.105
 4752SOL    HW115155   2.245   5.739   1.154
 4752SOL    HW215156   2.209   5.672   1.009
 4753SOL     OW15157   0.443   0.506   6.283
 4753SOL    HW115158   0.460   0.479   6.378
 4753SOL    HW215159   0.523   0.485   6.227
 4754SOL     OW15160   1.540   1.374   6.330
 4754SOL    HW115161   1.549   1.297   6.393
 4754SOL    HW215162   1.487   1.345   6.250
 4755SOL     OW15163   2.957   0.095   2.699
 4755SOL    HW115164   3.033   0.071   2.639
 4755SOL    HW215165   2.909   0.175   2.662
 4756SOL     OW15166   5.535   2.128   1.720
 4756SOL    HW115167   5.498   2.119   1.813
 4756SOL    HW215168   5.483   2.199   1.671
 4757SOL     OW15169   2.573   2.456   0.747
 4757SOL    HW115170   2.603   2.414   0.661
 4757SOL    HW215171   2.475   2.441   0.760
 4758SOL     OW15172   5.817   4.058   6.037
 4758SOL    HW115173   5.826   4.133   6.103
 4758SOL    HW215174   5.862   3.976   6.074
 4759SOL     OW15175   6.819   4.306   6.534
 4759SOL    HW115176   6.854   4.380   6.591
 4759SOL    HW215177   6.848   4.319   6.440
 4760SOL     OW15178   1.481   2.472   0.204
 4760SOL    HW115179   1.524   2.479   0.294
 4760SOL    HW215180   1.402   2.409   0.209
 4761SOL     OW15181   2.505   6.242   6.325
 4761SOL    HW115182   2.498   6.272   6.420
 4761SOL    HW215183   2.504   6.142   6.321
 4762SOL     OW15184   3.638   7.012   2.414
 4762SOL    HW115185   3.684   0.032   2.334
 4762SOL    HW215186   3.600   6.922   2.391
 4763SOL     OW15187   4.968   5.528   5.407
 4763SOL    HW115188   4.901   5.577   5.462
 4763SOL    HW215189   5.054   5.521   5.457
 4764SOL     OW15190   4.082   3.729   3.577
 4764SOL    HW115191   4.064   3.772   3.665
 4764SOL    HW215192   4.031   3.776   3.505
 4765SOL     OW15193   5.785   5.355   6.711
 4765SOL    HW115194   5.766   5.433   6.770
 4765SOL    HW215195   5.789   5.271   6.766
 4766SOL     OW15196   2.797   1.243   3.477
 4766SOL    HW115197   2.776   1.302   3.554
 4766SOL    HW215198   2.872   1.181   3.501
 4767SOL     OW15199   4.568   0.468   6.797
 4767SOL    HW115200   4.563   0.378   6.755
 4767SOL    HW215201   4.601   0.534   6.730
 4768SOL     OW15202   1.781   0.944   5.158
 4768SOL    HW115203   1.800   0.991   5.072
 4768SOL    HW215204   1.861   0.893   5.187
 4769SOL     OW15205   5.040   0.787   1.652
 4769SOL    HW115206   5.140   0.789   1.651
 4769SOL    HW215207   5.005   0.861   1.593
 4770SOL     OW15208   2.170   0.731   4.062
 4770SOL    HW115209   2.168   0.657   4.130
 4770SOL    HW215210   2.238   0.799   4.088
 4771SOL     OW15211   3.828   4.312   5.589
 4771SOL    HW115212   3.894   4.292   5.517
 4771SOL    HW215213   3.738   4.277   5.562
 4772SOL     OW15214   3.243   2.594   0.072
 4772SOL    HW115215   3.228   2.685   0.035
 4772SOL    HW215216   3.191   2.527   0.019
 4773SOL     OW15217   6.781   4.623   4.722
 4773SOL    HW115218   6.796   4.532   4.684
 4773SOL    HW215219   6.686   4.652   4.704
 4774SOL     OW15220   1.524   4.309   6.834
 4774SOL    HW115221   1.515   4.238   6.903
 4774SOL    HW215222   1.535   4.266   6.744
 4775SOL     OW15223   1.924   2.476   2.290
 4775SOL    HW115224   1.892   2.485   2.384
 4775SOL    HW215225   2.004   2.534   2.276
 4776SOL     OW15226   4.358   5.054   1.947
 4776SOL    HW115227   4.373   4.957   1.931
 4776SOL    HW215228   4.427   5.107   1.897
 4777SOL     OW15229   2.366   3.977   1.481
 4777SOL    HW115230   2.381   4.075   1.491
 4777SOL    HW215231   2.449   3.928   1.508
 4778SOL     OW15232   5.194   3.337   2.814
 4778SOL    HW115233   5.099   3.365   2.800
 4778SOL    HW215234   5.238   3.399   2.878
 4779SOL     OW15235   4.818   1.049   2.645
 4779SOL    HW115236   4.886   0.982   2.675
 4779SOL    HW215237   4.864   1.125   2.598
 4780SOL     OW15238   2.225   1.419   5.592
 4780SOL    HW115239   2.162   1.345   5.567
 4780SOL    HW215240   2.193   1.463   5.676
 4781SOL     OW15241   1.988   5.394   2.918
 4781SOL    HW115242   2.037   5.379   2.833
 4781SOL    HW215243   2.024   5.475   2.965
 4782SOL     OW15244   6.170   6.212   0.277
 4782SOL    HW115245   6.264   6.179   0.274
 4782SOL    HW215246   6.110   6.140   0.312
 4783SOL     OW15247   5.976   3.790   2.619
 4783SOL    HW115248   5.978   3.808   2.520
 4783SOL    HW215249   5.902   3.844   2.660
 4784SOL     OW15250   5.086   4.912   5.113
 4784SOL    HW115251   5.088   4.837   5.179
 4784SOL    HW215252   5.168   4.909   5.056
 4785SOL     OW15253   5.818   6.640   0.840
 4785SOL    HW115254   5.854   6.731   0.820
 4785SOL    HW215255   5.844   6.577   0.766
 4786SOL     OW15256   1.368   3.808   2.232
 4786SOL    HW115257   1.270   3.795   2.220
 4786SOL    HW215258   1.387   3.839   2.325
 4787SOL     OW15259   3.905   2.149   3.272
 4787SOL    HW115260   3.967   2.088   3.321
 4787SOL    HW215261   3.958   2.226   3.235
 4788SOL     OW15262   2.131   0.069   4.872
 4788SOL    HW115263   2.092   0.153   4.911
 4788SOL    HW215264   2.090   0.052   4.783
 4789SOL     OW15265   5.041   6.113   0.369
 4789SOL    HW115266   5.140   6.122   0.368
 4789SOL    HW215267   4.999   6.197   0.402
 4790SOL     OW15268   5.284   0.138   6.646
 4790SOL    HW115269   5.206   0.076   6.651
 4790SOL    HW215270   5.325   0.147   6.737
 4791SOL     OW15271   3.978   1.975   3.590
 4791SOL    HW115272   4.019   1.981   3.499
 4791SOL    HW215273   3.881   2.001   3.585
 4792SOL     OW15274   3.148   2.767   0.943
 4792SOL    HW115275   3.140   2.796   1.038
 4792SOL    HW215276   3.099   2.680   0.930
 4793SOL     OW15277   0.334   0.575   6.737
 4793SOL    HW115278   0.361   0.672   6.734
 4793SOL    HW215279   0.333   0.544   6.832
 4794SOL     OW15280   4.977   1.306   2.027
 4794SOL    HW115281   4.949   1.374   1.960
 4794SOL    HW215282   5.077   1.306   2.035
 4795SOL     OW15283   6.010   2.925   4.173
 4795SOL    HW115284   6.049   3.013   4.200
 4795SOL    HW215285   5.973   2.932   4.080
 4796SOL     OW15286   5.558   3.684   0.150
 4796SOL    HW115287   5.514   3.602   0.115
 4796SOL    HW215288   5.497   3.730   0.215
 4797SOL     OW15289   1.018   5.681   4.913
 4797SOL    HW115290   0.948   5.660   4.845
 4797SOL    HW215291   1.100   5.716   4.867
 4798SOL     OW15292   6.637   5.073   5.850
 4798SOL    HW115293   6.724   5.042   5.812
 4798SOL    HW215294   6.629   5.042   5.945
 4799SOL     OW15295   4.890   1.457   4.340
 4799SOL    HW115296   4.835   1.536   4.367
 4799SOL    HW215297   4.878   1.384   4.408
 4800SOL     OW15298   1.899   3.081   4.007
 4800SOL    HW115299   1.996   3.059   4.004
 4800SOL    HW215300   1.858   3.069   3.917
 4801SOL     OW15301   6.995   2.290   0.952
 4801SOL    HW115302   6.939   2.371   0.936
 4801SOL    HW215303   6.938   2.216   0.986
 4802SOL     OW15304   1.344   0.609   1.918
 4802SOL    HW115305   1.413   0.644   1.981
 4802SOL    HW215306   1.375   0.622   1.824
 4803SOL     OW15307   1.430   0.197   0.552
 4803SOL    HW115308   1.335   0.218   0.530
 4803SOL    HW215309   1.490   0.254   0.497
 4804SOL     OW15310   4.609   5.844   0.103
 4804SOL    HW115311   4.596   5.837   0.004
 4804SOL    HW215312   4.696   5.801   0.129
 4805SOL     OW15313   6.946   6.913   1.775
 4805SOL    HW115314   6.993   6.961   1.701
 4805SOL    HW215315   7.011   6.888   1.846
 4806SOL     OW15316   0.041   2.216   3.729
 4806SOL    HW115317   0.013   2.134   3.680
 4806SOL    HW215318   0.006   2.212   3.823
 4807SOL     OW15319   1.099   0.118   2.601
 4807SOL    HW115320   1.169   0.062   2.645
 4807SOL    HW215321   1.035   0.059   2.552
 4808SOL     OW15322   6.539   2.487   0.621
 4808SOL    HW115323   6.572   2.402   0.663
 4808SOL    HW215324   6.466   2.525   0.678
 4809SOL     OW15325   4.655   6.927   0.790
 4809SOL    HW115326   4.598   7.005   0.764
 4809SOL    HW215327   4.751   6.956   0.797
 4810SOL     OW15328   2.121   6.446   0.260
 4810SOL    HW115329   2.081   6.466   0.350
 4810SOL    HW215330   2.050   6.411   0.199
 4811SOL     OW15331   5.188   3.719   3.443
 4811SOL    HW115332   5.151   3.777   3.515
 4811SOL    HW215333   5.120   3.649   3.418
 4812SOL     OW15334   6.259   5.112   3.975
 4812SOL    HW115335   6.215   5.025   3.951
 4812SOL    HW215336   6.302   5.103   4.065
 4813SOL     OW15337   5.535   3.275   2.817
 4813SOL    HW115338   5.479   3.213   2.763
 4813SOL    HW215339   5.512   3.265   2.914
 4814SOL     OW15340   6.739   2.779   1.248
 4814SOL    HW115341   6.728   2.869   1.290
 4814SOL    HW215342   6.723   2.708   1.317
 4815SOL     OW15343   4.719   0.338   3.328
 4815SOL    HW115344   4.677   0.275   3.263
 4815SOL    HW215345   4.747   0.288   3.410
 4816SOL     OW15346   5.356   4.731   3.569
 4816SOL    HW115347   5.380   4.777   3.654
 4816SOL    HW215348   5.269   4.683   3.579
 4817SOL     OW15349   5.830   1.803   0.251
 4817SOL    HW115350   5.809   1.790   0.154
 4817SOL    HW215351   5.883   1.725   0.285
 4818SOL     OW15352   6.989   5.929   3.667
 4818SOL    HW115353   0.013   5.982   3.739
 4818SOL    HW215354   6.970   5.836   3.700
 4819SOL     OW15355   2.033   3.055   0.734
 4819SOL    HW115356   2.015   3.010   0.647
 4819SOL    HW215357   2.085   3.139   0.719
 4820SOL     OW15358   6.596   3.226   2.068
 4820SOL    HW115359   6.516   3.178   2.103
 4820SOL    HW215360   6.664   3.235   2.141
 4821SOL     OW15361   0.581   5.458   3.828
 4821SOL    HW115362   0.490   5.499   3.831
 4821SOL    HW215363   0.641   5.506   3.892
 4822SOL     OW15364   2.321   4.396   4.135
 4822SOL    HW115365   2.405   4.452   4.131
 4822SOL    HW215366   2.248   4.449   4.178
 4823SOL     OW15367   1.357   2.225   0.726
 4823SOL    HW115368   1.278   2.166   0.706
 4823SOL    HW215369   1.400   2.251   0.640
 4824SOL     OW15370   6.685   1.997   7.013
 4824SOL    HW115371   6.599   2.010   6.962
 4824SOL    HW215372   6.673   2.029   0.089
 4825SOL     OW15373   1.192   6.658   3.840
 4825SOL    HW115374   1.123   6.637   3.909
 4825SOL    HW215375   1.149   6.705   3.763
 4826SOL     OW15376   4.357   5.987   0.682
 4826SOL    HW115377   4.392   6.080   0.690
 4826SOL    HW215378   4.432   5.922   0.688
 4827SOL     OW15379   5.852   1.151   1.208
 4827SOL    HW115380   5.879   1.055   1.200
 4827SOL    HW215381   5.809   1.166   1.298
 4828SOL     OW15382   4.771   1.167   6.681
 4828SOL    HW115383   4.692   1.139   6.734
 4828SOL    HW215384   4.777   1.112   6.597
 4829SOL     OW15385   4.248   5.902   5.557
 4829SOL    HW115386   4.320   5.929   5.622
 4829SOL    HW215387   4.268   5.943   5.468
 4830SOL     OW15388   1.630   6.705   3.534
 4830SOL    HW115389   1.686   6.743   3.606
 4830SOL    HW215390   1.682   6.703   3.448
 4831SOL     OW15391   3.628   4.816   5.810
 4831SOL    HW115392   3.584   4.874   5.741
 4831SOL    HW215393   3.676   4.874   5.875
 4832SOL     OW15394   4.168   3.468   4.940
 4832SOL    HW115395   4.214   3.424   5.018
 4832SOL    HW215396   4.212   3.556   4.922
 4833SOL     OW15397   5.847   2.389   5.127
 4833SOL    HW115398   5.749   2.379   5.143
 4833SOL    HW215399   5.894   2.397   5.215
 4834SOL     OW15400   0.979   4.971   0.911
 4834SOL    HW115401   0.938   5.035   0.976
 4834SOL    HW215402   0.910   4.905   0.881
 4835SOL     OW15403   6.869   3.345   5.790
 4835SOL    HW115404   6.921   3.412   5.843
 4835SOL    HW215405   6.787   3.388   5.752
 4836SOL     OW15406   4.581   1.251   5.491
 4836SOL    HW115407   4.596   1.179   5.424
 4836SOL    HW215408   4.660   1.256   5.553
 4837SOL     OW15409   1.452   3.180   4.864
 4837SOL    HW115410   1.498   3.111   4.808
 4837SOL    HW215411   1.353   3.171   4.852
 4838SOL     OW15412   1.812   4.087   5.970
 4838SOL    HW115413   1.853   4.006   6.013
 4838SOL    HW215414   1.840   4.092   5.874
 4839SOL     OW15415   3.015   1.135   2.222
 4839SOL    HW115416   2.941   1.153   2.287
 4839SOL    HW215417   3.101   1.122   2.270
 4840SOL     OW15418   4.495   2.579   3.968
 4840SOL    HW115419   4.406   2.541   3.994
 4840SOL    HW215420   4.522   2.542   3.879
 4841SOL     OW15421   3.220   5.484   3.364
 4841SOL    HW115422   3.266   5.566   3.331
 4841SOL    HW215423   3.123   5.488   3.342
 4842SOL     OW15424   4.749   5.876   3.595
 4842SOL    HW115425   4.773   5.972   3.604
 4842SOL    HW215426   4.822   5.820   3.635
 4843SOL     OW15427   5.464   1.902   0.886
 4843SOL    HW115428   5.475   1.886   0.984
 4843SOL    HW215429   5.533   1.849   0.836
 4844SOL     OW15430   1.156   4.937   6.488
 4844SOL    HW115431   1.254   4.933   6.468
 4844SOL    HW215432   1.116   4.846   6.475
 4845SOL     OW15433   5.082   4.032   5.036
 4845SOL    HW115434   5.113   4.042   4.942
 4845SOL    HW215435   4.983   4.022   5.038
 4846SOL     OW15436   6.441   4.074   4.696
 4846SOL    HW115437   6.499   4.148   4.661
 4846SOL    HW215438   6.345   4.092   4.673
 4847SOL     OW15439   3.315   0.023   0.434
 4847SOL    HW115440   3.396   7.009   0.385
 4847SOL    HW215441   3.338   0.039   0.530
 4848SOL     OW15442   4.279   1.329   3.806
 4848SOL    HW115443   4.362   1.288   3.770
 4848SOL    HW215444   4.201   1.271   3.783
 4849SOL     OW15445   1.475   5.808   1.994
 4849SOL    HW115446   1.554   5.759   2.031
 4849SOL    HW215447   1.446   5.879   2.059
 4850SOL     OW15448   3.521   6.749   2.266
 4850SOL    HW115449   3.427   6.783   2.253
 4850SOL    HW215450   3.575   6.769   2.185
 4851SOL     OW15451   4.512   4.438   6.862
 4851SOL    HW115452   4.496   4.426   6.960
 4851SOL    HW215453   4.579   4.371   6.831
 4852SOL     OW15454   4.862   4.495   5.630
 4852SOL    HW115455   4.850   4.402   5.596
 4852SOL    HW215456   4.803   4.509   5.709
 4853SOL     OW15457   3.771   0.459   2.617
 4853SOL    HW115458   3.755   0.453   2.716
 4853SOL    HW215459   3.860   0.418   2.596
 4854SOL     OW15460   4.238   6.573   2.327
 4854SOL    HW115461   4.223   6.542   2.421
 4854SOL    HW215462   4.310   6.518   2.285
 4855SOL     OW15463   4.051   4.688   5.567
 4855SOL    HW115464   3.955   4.714   5.556
 4855SOL    HW215465   4.057   4.608   5.627
 4856SOL     OW15466   0.751   2.396   2.665
 4856SOL    HW115467   0.715   2.337   2.592
 4856SOL    HW215468   0.675   2.428   2.722
 4857SOL     OW15469   2.760   2.126   5.772
 4857SOL    HW115470   2.717   2.040   5.798
 4857SOL    HW215471   2.850   2.109   5.734
 4858SOL     OW15472   1.385   5.199   4.313
 4858SOL    HW115473   1.424   5.115   4.277
 4858SOL    HW215474   1.452   5.273   4.307
 4859SOL     OW15475   6.423   5.605   3.452
 4859SOL    HW115476   6.504   5.546   3.443
 4859SOL    HW215477   6.438   5.671   3.525
 4860SOL     OW15478   4.044   5.259   1.168
 4860SOL    HW115479   3.949   5.287   1.153
 4860SOL    HW215480   4.083   5.226   1.082
 4861SOL     OW15481   5.839   4.958   4.923
 4861SOL    HW115482   5.826   4.865   4.890
 4861SOL    HW215483   5.768   4.980   4.991
 4862SOL     OW15484   2.015   5.435   4.589
 4862SOL    HW115485   2.027   5.346   4.547
 4862SOL    HW215486   1.957   5.426   4.671
 4863SOL     OW15487   5.882   1.659   2.259
 4863SOL    HW115488   5.898   1.594   2.185
 4863SOL    HW215489   5.876   1.610   2.346
 4864SOL     OW15490   2.415   3.018   1.482
 4864SOL    HW115491   2.425   3.079   1.403
 4864SOL    HW215492   2.326   2.973   1.478
 4865SOL     OW15493   3.636   6.755   5.064
 4865SOL    HW115494   3.608   6.789   5.154
 4865SOL    HW215495   3.692   6.673   5.076
 4866SOL     OW15496   0.622   5.271   1.270
 4866SOL    HW115497   0.624   5.230   1.361
 4866SOL    HW215498   0.527   5.280   1.239
 4867SOL     OW15499   5.805   5.082   6.053
 4867SOL    HW115500   5.848   5.024   5.984
 4867SOL    HW215501   5.711   5.052   6.068
 4868SOL     OW15502   1.927   6.187   1.895
 4868SOL    HW115503   1.854   6.186   1.963
 4868SOL    HW215504   2.005   6.134   1.929
 4869SOL     OW15505   0.374   1.776   1.988
 4869SOL    HW115506   0.456   1.735   1.951
 4869SOL    HW215507   0.377   1.773   2.088
 4870SOL     OW15508   6.006   1.186   0.803
 4870SOL    HW115509   5.955   1.249   0.745
 4870SOL    HW215510   6.005   1.094   0.763
 4871SOL     OW15511   1.746   2.430   5.702
 4871SOL    HW115512   1.812   2.505   5.693
 4871SOL    HW215513   1.794   2.345   5.723
 4872SOL     OW15514   1.997   2.380   2.842
 4872SOL    HW115515   1.961   2.287   2.839
 4872SOL    HW215516   2.030   2.406   2.752
 4873SOL     OW15517   0.943   6.645   5.238
 4873SOL    HW115518   0.891   6.720   5.197
 4873SOL    HW215519   1.010   6.683   5.303
 4874SOL     OW15520   5.780   1.972   4.254
 4874SOL    HW115521   5.772   2.066   4.222
 4874SOL    HW215522   5.736   1.964   4.344
 4875SOL     OW15523   0.058   3.236   0.281
 4875SOL    HW115524   0.073   3.215   0.378
 4875SOL    HW215525   0.141   3.217   0.229
 4876SOL     OW15526   6.704   1.192   0.133
 4876SOL    HW115527   6.715   1.258   0.059
 4876SOL    HW215528   6.794   1.163   0.166
 4877SOL     OW15529   4.662   2.226   1.352
 4877SOL    HW115530   4.603   2.164   1.403
 4877SOL    HW215531   4.645   2.320   1.380
 4878SOL     OW15532   1.350   2.848   2.037
 4878SOL    HW115533   1.438   2.847   2.085
 4878SOL    HW215534   1.357   2.905   1.956
 4879SOL     OW15535   3.836   6.015   3.868
 4879SOL    HW115536   3.787   5.985   3.950
 4879SOL    HW215537   3.771   6.029   3.793
 4880SOL     OW15538   6.723   1.606   6.153
 4880SOL    HW115539   6.742   1.509   6.137
 4880SOL    HW215540   6.679   1.645   6.072
 4881SOL     OW15541   2.824   6.391   5.970
 4881SOL    HW115542   2.877   6.465   6.011
 4881SOL    HW215543   2.876   6.305   5.976
 4882SOL     OW15544   5.632   5.701   6.370
 4882SOL    HW115545   5.648   5.770   6.299
 4882SOL    HW215546   5.711   5.640   6.376
 4883SOL     OW15547   5.773   5.707   0.074
 4883SOL    HW115548   5.845   5.747   0.017
 4883SOL    HW215549   5.806   5.622   0.115
 4884SOL     OW15550   3.443   6.453   1.595
 4884SOL    HW115551   3.395   6.539   1.578
 4884SOL    HW215552   3.529   6.472   1.643
 4885SOL     OW15553   1.521   0.386   2.266
 4885SOL    HW115554   1.524   0.485   2.278
 4885SOL    HW215555   1.456   0.363   2.194
 4886SOL     OW15556   5.861   0.864   5.411
 4886SOL    HW115557   5.850   0.880   5.312
 4886SOL    HW215558   5.951   0.825   5.429
 4887SOL     OW15559   0.186   1.768   5.292
 4887SOL    HW115560   0.202   1.739   5.387
 4887SOL    HW215561   0.198   1.690   5.231
 4888SOL     OW15562   4.426   5.974   1.313
 4888SOL    HW115563   4.367   5.902   1.349
 4888SOL    HW215564   4.513   5.974   1.362
 4889SOL     OW15565   1.671   3.527   6.800
 4889SOL    HW115566   1.717   3.475   6.727
 4889SOL    HW215567   1.604   3.588   6.759
 4890SOL     OW15568   0.316   0.227   4.691
 4890SOL    HW115569   0.399   0.199   4.739
 4890SOL    HW215570   0.330   0.217   4.592
 4891SOL     OW15571   1.117   5.206   0.855
 4891SOL    HW115572   1.068   5.119   0.854
 4891SOL    HW215573   1.215   5.189   0.850
 4892SOL     OW15574   1.812   6.022   2.195
 4892SOL    HW115575   1.792   6.120   2.191
 4892SOL    HW215576   1.798   5.989   2.288
 4893SOL     OW15577   0.141   4.183   6.516
 4893SOL    HW115578   0.184   4.211   6.602
 4893SOL    HW215579   0.076   4.254   6.487
 4894SOL     OW15580   0.621   6.637   3.287
 4894SOL    HW115581   0.623   6.653   3.386
 4894SOL    HW215582   0.648   6.543   3.268
 4895SOL     OW15583   6.251   4.218   7.017
 4895SOL    HW115584   6.203   4.257   6.938
 4895SOL    HW215585   6.259   4.288   0.071
 4896SOL     OW15586   4.130   0.137   4.190
 4896SOL    HW115587   4.204   0.127   4.256
 4896SOL    HW215588   4.052   0.184   4.233
 4897SOL     OW15589   2.697   5.564   6.425
 4897SOL    HW115590   2.786   5.587   6.464
 4897SOL    HW215591   2.710   5.516   6.338
 4898SOL     OW15592   5.213   2.696   4.371
 4898SOL    HW115593   5.124   2.729   4.340
 4898SOL    HW215594   5.235   2.611   4.322
 4899SOL     OW15595   5.926   3.978   4.540
 4899SOL    HW115596   5.955   3.949   4.449
 4899SOL    HW215597   5.920   3.897   4.600
 4900SOL     OW15598   0.849   6.411   5.152
 4900SOL    HW115599   0.765   6.465   5.140
 4900SOL    HW215600   0.918   6.467   5.197
 4901SOL     OW15601   6.250   6.279   3.374
 4901SOL    HW115602   6.278   6.374   3.388
 4901SOL    HW215603   6.160   6.278   3.330
 4902SOL     OW15604   3.684   5.149   0.670
 4902SOL    HW115605   3.677   5.179   0.765
 4902SOL    HW215606   3.716   5.055   0.666
 4903SOL     OW15607   5.931   5.047   6.279
 4903SOL    HW115608   5.863   5.064   6.350
 4903SOL    HW215609   5.894   5.073   6.190
 4904SOL     OW15610   2.970   0.677   3.678
 4904SOL    HW115611   3.062   0.647   3.651
 4904SOL    HW215612   2.977   0.749   3.746
 4905SOL     OW15613   6.282   3.732   3.046
 4905SOL    HW115614   6.312   3.776   2.961
 4905SOL    HW215615   6.345   3.658   3.069
 4906SOL     OW15616   4.686   0.208   1.843
 4906SOL    HW115617   4.686   0.298   1.888
 4906SOL    HW215618   4.774   0.194   1.797
 4907SOL     OW15619   2.681   2.975   1.599
 4907SOL    HW115620   2.595   3.011   1.565
 4907SOL    HW215621   2.664   2.890   1.649
 4908SOL     OW15622   5.221   5.264   6.486
 4908SOL    HW115623   5.314   5.255   6.523
 4908SOL    HW215624   5.187   5.356   6.503
 4909SOL     OW15625   6.365   6.622   5.591
 4909SOL    HW115626   6.320   6.711   5.592
 4909SOL    HW215627   6.323   6.564   5.521
 4910SOL     OW15628   5.374   6.664   5.488
 4910SOL    HW115629   5.442   6.636   5.420
 4910SOL    HW215630   5.343   6.756   5.469
 4911SOL     OW15631   0.350   4.057   6.364
 4911SOL    HW115632   0.307   3.968   6.351
 4911SOL    HW215633   0.291   4.115   6.419
 4912SOL     OW15634   2.177   3.073   1.349
 4912SOL    HW115635   2.143   3.105   1.261
 4912SOL    HW215636   2.160   2.975   1.358
 4913SOL     OW15637   2.885   3.157   1.992
 4913SOL    HW115638   2.849   3.166   1.899
 4913SOL    HW215639   2.812   3.130   2.054
 4914SOL     OW15640   1.386   6.706   2.690
 4914SOL    HW115641   1.471   6.732   2.645
 4914SOL    HW215642   1.322   6.784   2.689
 4915SOL     OW15643   3.664   6.511   3.954
 4915SOL    HW115644   3.661   6.538   3.858
 4915SOL    HW215645   3.742   6.555   3.999
 4916SOL     OW15646   1.382   2.045   2.129
 4916SOL    HW115647   1.446   1.969   2.143
 4916SOL    HW215648   1.419   2.128   2.170
 4917SOL     OW15649   0.920   4.488   6.490
 4917SOL    HW115650   0.969   4.573   6.472
 4917SOL    HW215651   0.844   4.479   6.425
 4918SOL     OW15652   2.473   6.657   4.110
 4918SOL    HW115653   2.474   6.704   4.199
 4918SOL    HW215654   2.411   6.705   4.048
 4919SOL     OW15655   2.213   2.849   1.125
 4919SOL    HW115656   2.311   2.830   1.118
 4919SOL    HW215657   2.196   2.944   1.098
 4920SOL     OW15658   3.568   1.912   6.917
 4920SOL    HW115659   3.535   1.860   6.838
 4920SOL    HW215660   3.518   1.884   6.999
 4921SOL     OW15661   6.809   4.927   2.494
 4921SOL    HW115662   6.861   4.953   2.413
 4921SOL    HW215663   6.734   4.866   2.469
 4922SOL     OW15664   1.103   2.714   6.038
 4922SOL    HW115665   1.113   2.813   6.037
 4922SOL    HW215666   1.041   2.685   5.965
 4923SOL     OW15667   3.279   2.017   6.849
 4923SOL    HW115668   3.325   2.098   6.887
 4923SOL    HW215669   3.311   2.000   6.756
 4924SOL     OW15670   0.327   3.020   4.227
 4924SOL    HW115671   0.301   3.090   4.293
 4924SOL    HW215672   0.419   2.987   4.248
 4925SOL     OW15673   4.342   5.217   5.132
 4925SOL    HW115674   4.336   5.176   5.041
 4925SOL    HW215675   4.278   5.170   5.193
 4926SOL     OW15676   4.203   3.359   0.489
 4926SOL    HW115677   4.198   3.354   0.389
 4926SOL    HW215678   4.111   3.370   0.527
 4927SOL     OW15679   2.953   3.690   2.219
 4927SOL    HW115680   3.024   3.630   2.254
 4927SOL    HW215681   2.950   3.774   2.274
 4928SOL     OW15682   7.008   1.381   6.960
 4928SOL    HW115683   7.011   1.465   7.014
 4928SOL    HW215684   0.082   1.341   6.954
 4929SOL     OW15685   0.483   4.160   4.542
 4929SOL    HW115686   0.525   4.248   4.518
 4929SOL    HW215687   0.542   4.085   4.509
 4930SOL     OW15688   0.132   3.614   6.952
 4930SOL    HW115689   0.154   3.573   6.863
 4930SOL    HW215690   0.090   3.545   7.011
 4931SOL     OW15691   5.549   6.779   0.900
 4931SOL    HW115692   5.542   6.837   0.982
 4931SOL    HW215693   5.628   6.719   0.909
 4932SOL     OW15694   3.573   1.331   1.060
 4932SOL    HW115695   3.512   1.386   1.003
 4932SOL    HW215696   3.623   1.390   1.123
 4933SOL     OW15697   3.061   0.163   5.112
 4933SOL    HW115698   3.021   0.099   5.177
 4933SOL    HW215699   3.111   0.112   5.041
 4934SOL     OW15700   1.975   5.950   5.216
 4934SOL    HW115701   2.069   5.927   5.240
 4934SOL    HW215702   1.922   5.964   5.299
 4935SOL     OW15703   2.000   2.590   0.581
 4935SOL    HW115704   2.053   2.633   0.654
 4935SOL    HW215705   2.060   2.566   0.505
 4936SOL     OW15706   6.648   4.236   1.554
 4936SOL    HW115707   6.646   4.143   1.590
 4936SOL    HW215708   6.732   4.251   1.502
 4937SOL     OW15709   0.674   3.427   5.044
 4937SOL    HW115710   0.768   3.420   5.009
 4937SOL    HW215711   0.644   3.336   5.075
 4938SOL     OW15712   3.607   4.181   1.126
 4938SOL    HW115713   3.662   4.128   1.061
 4938SOL    HW215714   3.657   4.264   1.152
 4939SOL     OW15715   0.963   1.327   1.294
 4939SOL    HW115716   0.981   1.406   1.235
 4939SOL    HW215717   0.885   1.276   1.258
 4940SOL     OW15718   1.373   1.635   5.304
 4940SOL    HW115719   1.426   1.556   5.336
 4940SOL    HW215720   1.369   1.703   5.376
 4941SOL     OW15721   4.175   2.043   5.479
 4941SOL    HW115722   4.265   1.999   5.488
 4941SOL    HW215723   4.104   1.974   5.470
 4942SOL     OW15724   0.320   1.033   2.182
 4942SOL    HW115725   0.342   0.960   2.247
 4942SOL    HW215726   0.224   1.028   2.156
 4943SOL     OW15727   4.986   2.321   6.199
 4943SOL    HW115728   5.037   2.332   6.114
 4943SOL    HW215729   5.048   2.333   6.277
 4944SOL     OW15730   0.897   5.178   0.546
 4944SOL    HW115731   0.903   5.241   0.624
 4944SOL    HW215732   0.832   5.105   0.567
 4945SOL     OW15733   2.250   7.011   6.058
 4945SOL    HW115734   2.269   6.982   5.964
 4945SOL    HW215735   2.320   0.059   6.087
 4946SOL     OW15736   2.841   5.804   0.517
 4946SOL    HW115737   2.926   5.752   0.527
 4946SOL    HW215738   2.794   5.774   0.434
 4947SOL     OW15739   1.100   0.143   1.259
 4947SOL    HW115740   1.140   0.149   1.350
 4947SOL    HW215741   1.117   0.228   1.209
 4948SOL     OW15742   1.574   2.818   2.200
 4948SOL    HW115743   1.671   2.799   2.186
 4948SOL    HW215744   1.537   2.752   2.266
 4949SOL     OW15745   6.440   4.770   6.427
 4949SOL    HW115746   6.436   4.745   6.330
 4949SOL    HW215747   6.353   4.751   6.471
 4950SOL     OW15748   3.865   4.031   6.171
 4950SOL    HW115749   3.887   4.057   6.077
 4950SOL    HW215750   3.791   3.965   6.171
 4951SOL     OW15751   5.349   5.446   3.174
 4951SOL    HW115752   5.261   5.494   3.168
 4951SOL    HW215753   5.337   5.363   3.228
 4952SOL     OW15754   1.019   0.963   6.792
 4952SOL    HW115755   1.031   0.871   6.755
 4952SOL    HW215756   1.032   0.961   6.891
 4953SOL     OW15757   1.734   1.147   5.937
 4953SOL    HW115758   1.693   1.161   5.847
 4953SOL    HW215759   1.667   1.102   5.997
 4954SOL     OW15760   3.308   3.482   5.411
 4954SOL    HW115761   3.347   3.395   5.383
 4954SOL    HW215762   3.226   3.466   5.466
 4955SOL     OW15763   3.891   6.302   0.049
 4955SOL    HW115764   3.903   6.244   6.986
 4955SOL    HW215765   3.963   6.371   0.051
 4956SOL     OW15766   2.406   0.335   4.290
 4956SOL    HW115767   2.479   0.400   4.309
 4956SOL    HW215768   2.401   0.268   4.364
 4957SOL     OW15769   5.746   5.642   6.777
 4957SOL    HW115770   5.829   5.671   6.730
 4957SOL    HW215771   5.745   5.679   6.870
 4958SOL     OW15772   3.457   5.383   6.977
 4958SOL    HW115773   3.499   5.435   6.902
 4958SOL    HW215774   3.494   5.291   6.979
 4959SOL     OW15775   0.411   2.000   3.226
 4959SOL    HW115776   0.372   2.091   3.237
 4959SOL    HW215777   0.508   2.008   3.205
 4960SOL     OW15778   4.776   4.354   4.137
 4960SOL    HW115779   4.762   4.439   4.188
 4960SOL    HW215780   4.834   4.372   4.058
 4961SOL     OW15781   3.702   3.372   2.322
 4961SOL    HW115782   3.766   3.448   2.325
 4961SOL    HW215783   3.699   3.334   2.229
 4962SOL     OW15784   1.540   2.386   0.507
 4962SOL    HW115785   1.635   2.420   0.506
 4962SOL    HW215786   1.536   2.297   0.462
 4963SOL     OW15787   0.384   3.796   6.953
 4963SOL    HW115788   0.315   3.725   6.946
 4963SOL    HW215789   0.451   3.772   0.005
 4964SOL     OW15790   1.631   4.818   4.091
 4964SOL    HW115791   1.696   4.792   4.020
 4964SOL    HW215792   1.553   4.866   4.049
 4965SOL     OW15793   2.571   0.459   3.214
 4965SOL    HW115794   2.667   0.481   3.226
 4965SOL    HW215795   2.520   0.485   3.296
 4966SOL     OW15796   4.369   6.966   5.329
 4966SOL    HW115797   4.300   7.008   5.270
 4966SOL    HW215798   4.459   6.976   5.287
 4967SOL     OW15799   4.427   4.552   3.591
 4967SOL    HW115800   4.338   4.559   3.547
 4967SOL    HW215801   4.450   4.637   3.637
 4968SOL     OW15802   6.684   3.178   3.624
 4968SOL    HW115803   6.643   3.269   3.631
 4968SOL    HW215804   6.625   3.119   3.569
 4969SOL     OW15805   0.396   5.654   4.148
 4969SOL    HW115806   0.454   5.579   4.179
 4969SOL    HW215807   0.425   5.684   4.057
 4970SOL     OW15808   2.129   1.345   1.180
 4970SOL    HW115809   2.096   1.344   1.275
 4970SOL    HW215810   2.228   1.332   1.179
 4971SOL     OW15811   0.432   5.843   2.012
 4971SOL    HW115812   0.448   5.932   1.967
 4971SOL    HW215813   0.440   5.770   1.944
 4972SOL     OW15814   0.100   4.017   0.310
 4972SOL    HW115815   0.082   3.956   0.233
 4972SOL    HW215816   0.132   3.963   0.388
 4973SOL     OW15817   5.123   2.346   6.430
 4973SOL    HW115818   5.105   2.375   6.524
 4973SOL    HW215819   5.204   2.393   6.395
 4974SOL     OW15820   3.302   6.984   5.506
 4974SOL    HW115821   3.312   0.043   5.443
 4974SOL    HW215822   3.268   7.018   5.594
 4975SOL     OW15823   5.921   4.105   1.639
 4975SOL    HW115824   5.897   4.012   1.664
 4975SOL    HW215825   5.975   4.147   1.712
 4976SOL     OW15826   1.096   0.291   3.705
 4976SOL    HW115827   1.019   0.341   3.744
 4976SOL    HW215828   1.095   0.197   3.737
 4977SOL     OW15829   1.358   3.536   4.999
 4977SOL    HW115830   1.341   3.533   5.097
 4977SOL    HW215831   1.297   3.472   4.952
 4978SOL     OW15832   6.069   5.284   4.526
 4978SOL    HW115833   6.065   5.354   4.598
 4978SOL    HW215834   6.047   5.195   4.565
 4979SOL     OW15835   3.596   6.730   6.412
 4979SOL    HW115836   3.548   6.806   6.456
 4979SOL    HW215837   3.560   6.644   6.448
 4980SOL     OW15838   5.892   2.942   3.947
 4980SOL    HW115839   5.956   2.961   3.872
 4980SOL    HW215840   5.862   2.847   3.942
 4981SOL     OW15841   3.746   6.313   3.213
 4981SOL    HW115842   3.769   6.215   3.206
 4981SOL    HW215843   3.777   6.348   3.301
 4982SOL     OW15844   4.423   1.967   4.791
 4982SOL    HW115845   4.350   2.031   4.768
 4982SOL    HW215846   4.404   1.877   4.752
 4983SOL     OW15847   5.870   3.489   2.953
 4983SOL    HW115848   5.872   3.447   2.862
 4983SOL    HW215849   5.777   3.484   2.990
 4984SOL     OW15850   4.940   3.682   5.254
 4984SOL    HW115851   4.903   3.636   5.174
 4984SOL    HW215852   4.876   3.673   5.331
 4985SOL     OW15853   5.627   0.384   2.268
 4985SOL    HW115854   5.570   0.383   2.186
 4985SOL    HW215855   5.596   0.457   2.329
 4986SOL     OW15856   1.598   5.537   1.271
 4986SOL    HW115857   1.602   5.460   1.207
 4986SOL    HW215858   1.690   5.561   1.301
 4987SOL     OW15859   2.093   3.738   2.297
 4987SOL    HW115860   2.087   3.642   2.271
 4987SOL    HW215861   2.172   3.780   2.252
 4988SOL     OW15862   6.326   5.505   4.181
 4988SOL    HW115863   6.346   5.535   4.087
 4988SOL    HW215864   6.274   5.576   4.228
 4989SOL     OW15865   6.961   6.639   3.617
 4989SOL    HW115866   6.906   6.721   3.623
 4989SOL    HW215867   7.005   6.634   3.527
 4990SOL     OW15868   5.023   1.790   5.475
 4990SOL    HW115869   5.050   1.870   5.421
 4990SOL    HW215870   5.055   1.707   5.429
 4991SOL     OW15871   2.062   5.667   5.677
 4991SOL    HW115872   1.991   5.601   5.651
 4991SOL    HW215873   2.152   5.627   5.659
 4992SOL     OW15874   2.475   3.004   5.598
 4992SOL    HW115875   2.426   2.948   5.664
 4992SOL    HW215876   2.433   3.094   5.592
 4993SOL     OW15877   2.193   5.180   4.043
 4993SOL    HW115878   2.117   5.133   4.088
 4993SOL    HW215879   2.205   5.270   4.085
 4994SOL     OW15880   3.143   5.183   5.528
 4994SOL    HW115881   3.079   5.112   5.559
 4994SOL    HW215882   3.091   5.265   5.503
 4995SOL     OW15883   0.396   1.454   5.681
 4995SOL    HW115884   0.481   1.440   5.629
 4995SOL    HW215885   0.332   1.506   5.625
 4996SOL     OW15886   7.016   0.625   4.640
 4996SOL    HW115887   0.011   0.722   4.621
 4996SOL    HW215888   6.936   0.591   4.591
 4997SOL     OW15889   4.332   1.294   0.578
 4997SOL    HW115890   4.291   1.239   0.651
 4997SOL    HW215891   4.355   1.234   0.501
 4998SOL     OW15892   1.154   3.464   3.428
 4998SOL    HW115893   1.170   3.562   3.416
 4998SOL    HW215894   1.057   3.448   3.442
 4999SOL     OW15895   0.132   2.956   3.736
 4999SOL    HW115896   0.038   2.965   3.704
 4999SOL    HW215897   0.154   2.860   3.750
 5000SOL     OW15898   3.076   6.358   2.966
 5000SOL    HW115899   3.147   6.338   3.034
 5000SOL    HW215900   3.041   6.451   2.982
 5001SOL     OW15901   0.266   5.806   3.384
 5001SOL    HW115902   0.260   5.827   3.482
 5001SOL    HW215903   0.262   5.892   3.332
 5002SOL     OW15904   1.106   4.483   4.121
 5002SOL    HW115905   1.187   4.542   4.128
 5002SOL    HW215906   1.059   4.501   4.035
 5003SOL     OW15907   3.447   0.952   1.730
 5003SOL    HW115908   3.507   0.927   1.805
 5003SOL    HW215909   3.494   0.938   1.643
 5004SOL     OW15910   4.439   6.161   0.432
 5004SOL    HW115911   4.433   6.064   0.406
 5004SOL    HW215912   4.506   6.172   0.505
 5005SOL     OW15913   3.918   3.164   0.935
 5005SOL    HW115914   3.935   3.183   1.032
 5005SOL    HW215915   4.006   3.153   0.887
 5006SOL     OW15916   5.206   0.443   2.652
 5006SOL    HW115917   5.271   0.384   2.700
 5006SOL    HW215918   5.192   0.408   2.560
 5007SOL     OW15919   6.139   5.097   2.376
 5007SOL    HW115920   6.237   5.077   2.371
 5007SOL    HW215921   6.114   5.159   2.302
 5008SOL     OW15922   4.907   6.755   3.553
 5008SOL    HW115923   4.903   6.829   3.619
 5008SOL    HW215924   4.988   6.699   3.570
 5009SOL     OW15925   0.225   1.612   6.958
 5009SOL    HW115926   0.168   1.661   0.006
 5009SOL    HW215927   0.317   1.651   6.959
 5010SOL     OW15928   5.169   4.078   0.883
 5010SOL    HW115929   5.231   4.075   0.804
 5010SOL    HW215930   5.206   4.141   0.951
 5011SOL     OW15931   1.704   2.443   6.394
 5011SOL    HW115932   1.747   2.405   6.477
 5011SOL    HW215933   1.696   2.542   6.404
 5012SOL     OW15934   6.293   2.183   6.256
 5012SOL    HW115935   6.232   2.120   6.305
 5012SOL    HW215936   6.357   2.224   6.321
 5013SOL     OW15937   5.789   6.539   5.405
 5013SOL    HW115938   5.858   6.476   5.371
 5013SOL    HW215939   5.777   6.527   5.503
 5014SOL     OW15940   6.102   3.951   0.850
 5014SOL    HW115941   6.156   3.937   0.767
 5014SOL    HW215942   6.162   3.949   0.930
 5015SOL     OW15943   6.124   5.513   4.696
 5015SOL    HW115944   6.204   5.571   4.679
 5015SOL    HW215945   6.047   5.571   4.721
 5016SOL     OW15946   1.494   2.435   6.735
 5016SOL    HW115947   1.559   2.384   6.791
 5016SOL    HW215948   1.433   2.371   6.688
 5017SOL     OW15949   1.219   2.405   2.142
 5017SOL    HW115950   1.149   2.344   2.104
 5017SOL    HW215951   1.194   2.500   2.122
 5018SOL     OW15952   0.840   1.080   0.121
 5018SOL    HW115953   0.767   1.020   0.155
 5018SOL    HW215954   0.876   1.134   0.197
 5019SOL     OW15955   1.526   3.739   3.959
 5019SOL    HW115956   1.434   3.726   3.996
 5019SOL    HW215957   1.568   3.820   4.000
 5020SOL     OW15958   1.681   6.829   3.772
 5020SOL    HW115959   1.727   6.762   3.830
 5020SOL    HW215960   1.584   6.805   3.763
 5021SOL     OW15961   2.079   0.531   1.501
 5021SOL    HW115962   2.151   0.475   1.459
 5021SOL    HW215963   2.120   0.615   1.537
 5022SOL     OW15964   0.017   2.712   0.788
 5022SOL    HW115965   0.004   2.634   0.727
 5022SOL    HW215966   0.042   2.679   0.879
 5023SOL     OW15967   0.308   3.073   2.643
 5023SOL    HW115968   0.407   3.086   2.639
 5023SOL    HW215969   0.279   3.069   2.739
 5024SOL     OW15970   4.727   4.310   6.779
 5024SOL    HW115971   4.813   4.354   6.806
 5024SOL    HW215972   4.741   4.211   6.771
 5025SOL     OW15973   4.990   1.870   5.004
 5025SOL    HW115974   5.051   1.791   4.995
 5025SOL    HW215975   4.979   1.892   5.101
 5026SOL     OW15976   5.109   6.331   4.881
 5026SOL    HW115977   5.114   6.274   4.799
 5026SOL    HW215978   5.123   6.274   4.962
 5027SOL     OW15979   4.916   6.522   0.748
 5027SOL    HW115980   4.887   6.514   0.843
 5027SOL    HW215981   4.836   6.530   0.689
 5028SOL     OW15982   6.312   1.605   2.860
 5028SOL    HW115983   6.342   1.611   2.955
 5028SOL    HW215984   6.274   1.693   2.831
 5029SOL     OW15985   5.456   2.764   2.575
 5029SOL    HW115986   5.421   2.670   2.574
 5029SOL    HW215987   5.379   2.828   2.582
 5030SOL     OW15988   0.228   3.346   0.939
 5030SOL    HW115989   0.179   3.387   0.862
 5030SOL    HW215990   0.291   3.413   0.978
 5031SOL     OW15991   6.358   0.333   6.283
 5031SOL    HW115992   6.300   0.350   6.362
 5031SOL    HW215993   6.330   0.248   6.239
 5032SOL     OW15994   2.834   4.371   6.195
 5032SOL    HW115995   2.777   4.313   6.254
 5032SOL    HW215996   2.819   4.346   6.099
 5033SOL     OW15997   1.952   6.300   5.385
 5033SOL    HW115998   1.915   6.302   5.291
 5033SOL    HW215999   2.050   6.282   5.382
 5034SOL     OW16000   4.015   5.753   4.012
 5034SOL    HW116001   3.985   5.692   3.939
 5034SOL    HW216002   4.066   5.830   3.972
 5035SOL     OW16003   2.036   3.509   3.210
 5035SOL    HW116004   1.965   3.441   3.193
 5035SOL    HW216005   2.055   3.514   3.308
 5036SOL     OW16006   1.175   3.558   4.600
 5036SOL    HW116007   1.206   3.467   4.571
 5036SOL    HW216008   1.117   3.597   4.529
 5037SOL     OW16009   5.116   5.119   0.931
 5037SOL    HW116010   5.036   5.175   0.954
 5037SOL    HW216011   5.101   5.025   0.962
 5038SOL     OW16012   2.953   3.653   3.861
 5038SOL    HW116013   2.955   3.739   3.910
 5038SOL    HW216014   2.943   3.670   3.763
 5039SOL     OW16015   0.575   3.360   6.827
 5039SOL    HW116016   0.542   3.269   6.804
 5039SOL    HW216017   0.519   3.429   6.782
 5040SOL     OW16018   0.431   1.944   5.302
 5040SOL    HW116019   0.422   1.871   5.370
 5040SOL    HW216020   0.448   1.903   5.212
 5041SOL     OW16021   6.623   2.229   1.828
 5041SOL    HW116022   6.717   2.260   1.816
 5041SOL    HW216023   6.603   2.159   1.760
 5042SOL     OW16024   1.066   2.002   6.029
 5042SOL    HW116025   1.116   2.031   5.948
 5042SOL    HW216026   0.984   2.057   6.039
 5043SOL     OW16027   2.714   6.665   1.801
 5043SOL    HW116028   2.797   6.701   1.758
 5043SOL    HW216029   2.730   6.650   1.898
 5044SOL     OW16030   0.038   6.059   7.005
 5044SOL    HW116031   0.131   6.096   7.015
 5044SOL    HW216032   0.022   6.037   6.908
 5045SOL     OW16033   5.480   3.005   1.104
 5045SOL    HW116034   5.529   3.029   1.188
 5045SOL    HW216035   5.513   3.062   1.029
 5046SOL     OW16036   3.996   3.045   2.154
 5046SOL    HW116037   3.989   3.048   2.054
 5046SOL    HW216038   3.913   3.005   2.192
 5047SOL     OW16039   1.827   4.164   3.494
 5047SOL    HW116040   1.846   4.067   3.479
 5047SOL    HW216041   1.848   4.187   3.589
 5048SOL     OW16042   2.766   0.482   5.618
 5048SOL    HW116043   2.698   0.455   5.686
 5048SOL    HW216044   2.736   0.452   5.527
 5049SOL     OW16045   3.876   1.417   6.544
 5049SOL    HW116046   3.901   1.459   6.457
 5049SOL    HW216047   3.813   1.477   6.593
 5050SOL     OW16048   1.471   0.657   0.844
 5050SOL    HW116049   1.426   0.577   0.885
 5050SOL    HW216050   1.521   0.707   0.914
 5051SOL     OW16051   4.558   4.668   0.801
 5051SOL    HW116052   4.499   4.587   0.805
 5051SOL    HW216053   4.526   4.735   0.868
 5052SOL     OW16054   2.064   3.419   4.551
 5052SOL    HW116055   2.110   3.330   4.557
 5052SOL    HW216056   2.076   3.457   4.460
 5053SOL     OW16057   6.270   0.447   0.856
 5053SOL    HW116058   6.310   0.368   0.902
 5053SOL    HW216059   6.248   0.424   0.761
 5054SOL     OW16060   4.280   5.353   3.575
 5054SOL    HW116061   4.199   5.297   3.558
 5054SOL    HW216062   4.351   5.297   3.617
 5055SOL     OW16063   0.299   3.776   5.333
 5055SOL    HW116064   0.210   3.737   5.311
 5055SOL    HW216065   0.352   3.786   5.248
 5056SOL     OW16066   6.380   4.438   3.283
 5056SOL    HW116067   6.342   4.347   3.270
 5056SOL    HW216068   6.460   4.434   3.343
 5057SOL     OW16069   6.987   6.024   2.467
 5057SOL    HW116070   6.930   6.081   2.525
 5057SOL    HW216071   0.043   6.079   2.429
 5058SOL     OW16072   2.441   5.870   5.948
 5058SOL    HW116073   2.383   5.922   5.885
 5058SOL    HW216074   2.482   5.793   5.898
 5059SOL     OW16075   6.655   0.737   1.948
 5059SOL    HW116076   6.714   0.663   1.980
 5059SOL    HW216077   6.699   0.825   1.966
 5060SOL     OW16078   0.323   2.309   6.577
 5060SOL    HW116079   0.296   2.263   6.492
 5060SOL    HW216080   0.255   2.291   6.647
 5061SOL     OW16081   5.400   3.211   0.490
 5061SOL    HW116082   5.471   3.238   0.555
 5061SOL    HW216083   5.430   3.130   0.439
 5062SOL     OW16084   6.699   0.289   0.321
 5062SOL    HW116085   6.793   0.275   0.354
 5062SOL    HW216086   6.660   0.370   0.365
 5063SOL     OW16087   1.406   6.554   2.432
 5063SOL    HW116088   1.469   6.506   2.494
 5063SOL    HW216089   1.344   6.611   2.486
 5064SOL     OW16090   4.953   3.797   6.846
 5064SOL    HW116091   5.032   3.741   6.821
 5064SOL    HW216092   4.959   3.822   6.943
 5065SOL     OW16093   3.058   6.695   6.249
 5065SOL    HW116094   3.033   6.705   6.152
 5065SOL    HW216095   2.998   6.629   6.293
 5066SOL     OW16096   4.573   4.959   0.629
 5066SOL    HW116097   4.595   4.998   0.539
 5066SOL    HW216098   4.587   4.860   0.626
 5067SOL     OW16099   5.160   1.362   6.516
 5067SOL    HW116100   5.123   1.269   6.515
 5067SOL    HW216101   5.217   1.375   6.435
 5068SOL     OW16102   3.809   4.661   0.944
 5068SOL    HW116103   3.739   4.702   0.886
 5068SOL    HW216104   3.795   4.562   0.948
 5069SOL     OW16105   6.672   5.252   2.974
 5069SOL    HW116106   6.607   5.296   3.037
 5069SOL    HW216107   6.661   5.290   2.883
 5070SOL     OW16108   5.078   2.535   3.576
 5070SOL    HW116109   5.065   2.439   3.550
 5070SOL    HW216110   5.127   2.583   3.504
 5071SOL     OW16111   4.979   1.020   1.065
 5071SOL    HW116112   4.887   1.006   1.027
 5071SOL    HW216113   5.005   0.941   1.120
 5072SOL     OW16114   0.580   3.617   1.813
 5072SOL    HW116115   0.641   3.541   1.837
 5072SOL    HW216116   0.634   3.696   1.787
 5073SOL     OW16117   3.637   2.108   3.338
 5073SOL    HW116118   3.727   2.123   3.297
 5073SOL    HW216119   3.647   2.093   3.437
 5074SOL     OW16120   4.366   4.462   5.374
 5074SOL    HW116121   4.368   4.362   5.375
 5074SOL    HW216122   4.379   4.496   5.281
 5075SOL     OW16123   0.084   6.915   3.613
 5075SOL    HW116124   0.122   6.985   3.673
 5075SOL    HW216125   0.132   6.829   3.627
 5076SOL     OW16126   4.704   0.386   1.027
 5076SOL    HW116127   4.608   0.367   1.048
 5076SOL    HW216128   4.712   0.415   0.932
 5077SOL     OW16129   6.804   2.356   2.429
 5077SOL    HW116130   6.803   2.424   2.356
 5077SOL    HW216131   6.711   2.327   2.451
 5078SOL     OW16132   6.873   1.217   4.579
 5078SOL    HW116133   6.849   1.267   4.662
 5078SOL    HW216134   6.973   1.206   4.575
 5079SOL     OW16135   4.611   4.762   4.623
 5079SOL    HW116136   4.570   4.672   4.618
 5079SOL    HW216137   4.557   4.821   4.684
 5080SOL     OW16138   5.769   1.105   6.075
 5080SOL    HW116139   5.743   1.041   6.003
 5080SOL    HW216140   5.868   1.120   6.072
 5081SOL     OW16141   2.939   3.203   2.980
 5081SOL    HW116142   2.849   3.174   3.011
 5081SOL    HW216143   3.007   3.134   3.006
 5082SOL     OW16144   0.661   1.368   5.581
 5082SOL    HW116145   0.720   1.301   5.626
 5082SOL    HW216146   0.641   1.337   5.488
 5083SOL     OW16147   0.973   4.008   2.036
 5083SOL    HW116148   0.912   3.960   1.973
 5083SOL    HW216149   0.935   4.005   2.128
 5084SOL     OW16150   0.909   5.870   2.275
 5084SOL    HW116151   0.871   5.868   2.182
 5084SOL    HW216152   0.931   5.964   2.300
 5085SOL     OW16153   6.815   3.876   7.011
 5085SOL    HW116154   6.756   3.875   6.930
 5085SOL    HW216155   6.819   3.969   0.030
 5086SOL     OW16156   6.452   5.544   4.916
 5086SOL    HW116157   6.508   5.574   4.838
 5086SOL    HW216158   6.390   5.472   4.886
 5087SOL     OW16159   5.621   5.348   5.357
 5087SOL    HW116160   5.683   5.337   5.280
 5087SOL    HW216161   5.668   5.395   5.432
 5088SOL     OW16162   6.500   0.987   6.965
 5088SOL    HW116163   6.521   0.891   6.950
 5088SOL    HW216164   6.458   0.998   0.037
 5089SOL     OW16165   5.572   2.556   4.097
 5089SOL    HW116166   5.507   2.489   4.063
 5089SOL    HW216167   5.611   2.523   4.183
 5090SOL     OW16168   1.361   5.066   0.430
 5090SOL    HW116169   1.271   5.073   0.385
 5090SOL    HW216170   1.431   5.100   0.368
 5091SOL     OW16171   0.840   6.128   3.398
 5091SOL    HW116172   0.847   6.118   3.498
 5091SOL    HW216173   0.868   6.042   3.355
 5092SOL     OW16174   3.544   2.601   1.484
 5092SOL    HW116175   3.538   2.597   1.584
 5092SOL    HW216176   3.541   2.697   1.455
 5093SOL     OW16177   0.951   1.207   1.761
 5093SOL    HW116178   0.934   1.109   1.754
 5093SOL    HW216179   0.865   1.257   1.762
 5094SOL     OW16180   0.242   0.166   6.444
 5094SOL    HW116181   0.244   0.090   6.509
 5094SOL    HW216182   0.227   0.129   6.352
 5095SOL     OW16183   3.369   0.480   5.199
 5095SOL    HW116184   3.433   0.549   5.234
 5095SOL    HW216185   3.277   0.500   5.233
 5096SOL     OW16186   3.725   6.212   2.775
 5096SOL    HW116187   3.629   6.239   2.774
 5096SOL    HW216188   3.771   6.249   2.695
 5097SOL     OW16189   1.202   1.907   6.673
 5097SOL    HW116190   1.234   1.938   6.762
 5097SOL    HW216191   1.126   1.842   6.685
 5098SOL     OW16192   0.183   2.622   2.891
 5098SOL    HW116193   0.204   2.702   2.835
 5098SOL    HW216194   0.196   2.644   2.988
 5099SOL     OW16195   0.519   1.122   4.364
 5099SOL    HW116196   0.614   1.098   4.346
 5099SOL    HW216197   0.459   1.071   4.301
 5100SOL     OW16198   4.594   5.086   5.645
 5100SOL    HW116199   4.665   5.108   5.711
 5100SOL    HW216200   4.507   5.070   5.693
 5101SOL     OW16201   5.743   6.300   0.800
 5101SOL    HW116202   5.678   6.257   0.738
 5101SOL    HW216203   5.693   6.348   0.872
 5102SOL     OW16204   3.222   5.554   4.049
 5102SOL    HW116205   3.250   5.609   3.970
 5102SOL    HW216206   3.289   5.565   4.122
 5103SOL     OW16207   1.290   1.461   3.881
 5103SOL    HW116208   1.257   1.400   3.809
 5103SOL    HW216209   1.232   1.452   3.962
 5104SOL     OW16210   0.713   0.837   0.714
 5104SOL    HW116211   0.778   0.782   0.768
 5104SOL    HW216212   0.740   0.933   0.718
 5105SOL     OW16213   1.105   3.003   6.681
 5105SOL    HW116214   1.030   2.942   6.708
 5105SOL    HW216215   1.084   3.043   6.591
 5106SOL     OW16216   2.078   6.885   2.439
 5106SOL    HW116217   2.136   6.847   2.511
 5106SOL    HW216218   2.136   6.917   2.364
 5107SOL     OW16219   2.259   6.926   6.691
 5107SOL    HW116220   2.236   6.912   6.595
 5107SOL    HW216221   2.269   0.005   6.709
 5108SOL     OW16222   3.830   4.010   4.668
 5108SOL    HW116223   3.787   4.048   4.586
 5108SOL    HW216224   3.789   3.921   4.688
 5109SOL     OW16225   0.132   2.068   2.656
 5109SOL    HW116226   0.120   1.969   2.649
 5109SOL    HW216227   0.042   2.112   2.659
 5110SOL     OW16228   2.579   6.411   5.378
 5110SOL    HW116229   2.541   6.320   5.394
 5110SOL    HW216230   2.656   6.426   5.440
 5111SOL     OW16231   1.482   0.580   6.643
 5111SOL    HW116232   1.550   0.576   6.717
 5111SOL    HW216233   1.524   0.550   6.557
 5112SOL     OW16234   0.144   0.279   2.866
 5112SOL    HW116235   0.241   0.306   2.864
 5112SOL    HW216236   0.136   0.185   2.901
 5113SOL     OW16237   0.634   1.048   6.367
 5113SOL    HW116238   0.611   1.104   6.288
 5113SOL    HW216239   0.688   0.969   6.338
 5114SOL     OW16240   4.781   5.634   6.470
 5114SOL    HW116241   4.806   5.568   6.541
 5114SOL    HW216242   4.756   5.721   6.513
 5115SOL     OW16243   2.571   3.885   5.355
 5115SOL    HW116244   2.670   3.894   5.368
 5115SOL    HW216245   2.548   3.912   5.262
 5116SOL     OW16246   6.843   4.040   1.225
 5116SOL    HW116247   6.800   4.117   1.178
 5116SOL    HW216248   6.852   3.963   1.161
 5117SOL     OW16249   2.347   5.235   2.957
 5117SOL    HW116250   2.311   5.202   3.044
 5117SOL    HW216251   2.397   5.162   2.912
 5118SOL     OW16252   3.972   0.052   1.548
 5118SOL    HW116253   4.026   0.052   1.632
 5118SOL    HW216254   3.960   0.146   1.517
 5119SOL     OW16255   6.000   0.875   2.280
 5119SOL    HW116256   5.974   0.781   2.303
 5119SOL    HW216257   5.962   0.899   2.191
 5120SOL     OW16258   3.245   1.579   2.196
 5120SOL    HW116259   3.154   1.538   2.190
 5120SOL    HW216260   3.314   1.507   2.198
 5121SOL     OW16261   0.510   3.829   4.125
 5121SOL    HW116262   0.518   3.735   4.159
 5121SOL    HW216263   0.419   3.865   4.147
 5122SOL     OW16264   2.283   5.560   3.174
 5122SOL    HW116265   2.201   5.579   3.120
 5122SOL    HW216266   2.265   5.580   3.270
 5123SOL     OW16267   6.050   3.018   2.494
 5123SOL    HW116268   5.985   3.093   2.482
 5123SOL    HW216269   6.006   2.942   2.541
 5124SOL     OW16270   3.249   6.064   0.565
 5124SOL    HW116271   3.336   6.097   0.601
 5124SOL    HW216272   3.217   5.987   0.620
 5125SOL     OW16273   0.616   1.946   6.009
 5125SOL    HW116274   0.577   1.869   6.060
 5125SOL    HW216275   0.630   1.920   5.914
 5126SOL     OW16276   4.239   1.717   0.240
 5126SOL    HW116277   4.181   1.792   0.271
 5126SOL    HW216278   4.195   1.629   0.260
 5127SOL     OW16279   4.643   3.269   6.673
 5127SOL    HW116280   4.618   3.344   6.612
 5127SOL    HW216281   4.684   3.195   6.620
 5128SOL     OW16282   0.252   0.722   6.280
 5128SOL    HW116283   0.319   0.649   6.269
 5128SOL    HW216284   0.213   0.746   6.191
 5129SOL     OW16285   5.061   3.507   3.851
 5129SOL    HW116286   4.978   3.530   3.801
 5129SOL    HW216287   5.047   3.525   3.949
 5130SOL     OW16288   2.492   6.381   4.860
 5130SOL    HW116289   2.444   6.467   4.878
 5130SOL    HW216290   2.549   6.357   4.939
 5131SOL     OW16291   3.430   4.911   2.990
 5131SOL    HW116292   3.366   4.906   3.067
 5131SOL    HW216293   3.524   4.903   3.024
 5132SOL     OW16294   3.767   2.246   6.394
 5132SOL    HW116295   3.671   2.223   6.407
 5132SOL    HW216296   3.774   2.338   6.353
 5133SOL     OW16297   4.183   4.422   6.255
 5133SOL    HW116298   4.116   4.414   6.181
 5133SOL    HW216299   4.252   4.351   6.245
 5134SOL     OW16300   6.087   5.977   0.413
 5134SOL    HW116301   6.123   5.941   0.327
 5134SOL    HW216302   6.037   5.905   0.461
 5135SOL     OW16303   0.079   3.385   2.182
 5135SOL    HW116304   0.038   3.357   2.270
 5135SOL    HW216305   0.171   3.348   2.175
 5136SOL     OW16306   0.382   0.273   4.216
 5136SOL    HW116307   0.292   0.233   4.230
 5136SOL    HW216308   0.427   0.285   4.305
 5137SOL     OW16309   5.438   0.765   2.620
 5137SOL    HW116310   5.466   0.853   2.582
 5137SOL    HW216311   5.339   0.758   2.619
 5138SOL     OW16312   3.035   3.849   2.444
 5138SOL    HW116313   3.046   3.942   2.409
 5138SOL    HW216314   3.125   3.810   2.462
 5139SOL     OW16315   5.211   0.337   5.044
 5139SOL    HW116316   5.273   0.372   5.114
 5139SOL    HW216317   5.184   0.244   5.067
 5140SOL     OW16318   2.674   3.728   6.246
 5140SOL    HW116319   2.714   3.638   6.263
 5140SOL    HW216320   2.745   3.798   6.248
 5141SOL     OW16321   0.790   3.107   1.174
 5141SOL    HW116322   0.797   3.052   1.090
 5141SOL    HW216323   0.738   3.057   1.243
 5142SOL     OW16324   0.396   6.679   2.532
 5142SOL    HW116325   0.410   6.684   2.433
 5142SOL    HW216326   0.438   6.759   2.575
 5143SOL     OW16327   6.397   6.673   2.741
 5143SOL    HW116328   6.336   6.753   2.742
 5143SOL    HW216329   6.344   6.592   2.717
 5144SOL     OW16330   1.995   2.875   5.394
 5144SOL    HW116331   2.007   2.794   5.337
 5144SOL    HW216332   2.023   2.956   5.342
 5145SOL     OW16333   1.485   5.415   5.408
 5145SOL    HW116334   1.454   5.333   5.359
 5145SOL    HW216335   1.555   5.389   5.474
 5146SOL     OW16336   5.555   6.164   7.007
 5146SOL    HW116337   5.648   6.155   6.972
 5146SOL    HW216338   5.553   6.234   0.060
 5147SOL     OW16339   5.163   1.279   3.396
 5147SOL    HW116340   5.118   1.306   3.311
 5147SOL    HW216341   5.095   1.241   3.459
 5148SOL     OW16342   5.985   1.821   0.951
 5148SOL    HW116343   5.949   1.831   0.858
 5148SOL    HW216344   6.031   1.733   0.959
 5149SOL     OW16345   3.523   6.055   3.881
 5149SOL    HW116346   3.459   6.132   3.885
 5149SOL    HW216347   3.571   6.047   3.969
 5150SOL     OW16348   6.753   0.658   3.539
 5150SOL    HW116349   6.774   0.582   3.477
 5150SOL    HW216350   6.746   0.623   3.633
 5151SOL     OW16351   5.511   4.829   2.026
 5151SOL    HW116352   5.414   4.834   2.051
 5151SOL    HW216353   5.519   4.786   1.936
 5152SOL     OW16354   2.335   1.796   0.424
 5152SOL    HW116355   2.380   1.854   0.492
 5152SOL    HW216356   2.309   1.850   0.345
 5153SOL     OW16357   2.619   2.583   0.220
 5153SOL    HW116358   2.523   2.607   0.205
 5153SOL    HW216359   2.629   2.484   0.220
 5154SOL     OW16360   0.474   2.648   0.341
 5154SOL    HW116361   0.444   2.730   0.389
 5154SOL    HW216362   0.454   2.656   0.243
 5155SOL     OW16363   1.591   0.927   0.251
 5155SOL    HW116364   1.573   0.931   0.153
 5155SOL    HW216365   1.684   0.894   0.267
 5156SOL     OW16366   5.344   5.332   6.221
 5156SOL    HW116367   5.256   5.374   6.200
 5156SOL    HW216368   5.336   5.275   6.302
 5157SOL     OW16369   3.413   1.447   1.972
 5157SOL    HW116370   3.386   1.363   2.020
 5157SOL    HW216371   3.363   1.453   1.886
 5158SOL     OW16372   1.637   2.617   2.737
 5158SOL    HW116373   1.538   2.619   2.721
 5158SOL    HW216374   1.658   2.663   2.823
 5159SOL     OW16375   6.748   3.100   5.161
 5159SOL    HW116376   6.735   3.167   5.234
 5159SOL    HW216377   6.837   3.056   5.170
 5160SOL     OW16378   6.666   0.241   2.674
 5160SOL    HW116379   6.610   0.303   2.621
 5160SOL    HW216380   6.645   0.252   2.772
 5161SOL     OW16381   1.029   1.723   6.761
 5161SOL    HW116382   1.061   1.635   6.725
 5161SOL    HW216383   0.931   1.717   6.781
 5162SOL     OW16384   0.367   6.938   5.600
 5162SOL    HW116385   0.377   6.995   5.681
 5162SOL    HW216386   0.375   6.995   5.518
 5163SOL     OW16387   3.194   0.804   1.647
 5163SOL    HW116388   3.271   0.854   1.686
 5163SOL    HW216389   3.129   0.867   1.606
 5164SOL     OW16390   2.604   3.490   0.404
 5164SOL    HW116391   2.663   3.521   0.479
 5164SOL    HW216392   2.566   3.400   0.426
 5165SOL     OW16393   1.435   5.200   5.660
 5165SOL    HW116394   1.337   5.220   5.667
 5165SOL    HW216395   1.487   5.279   5.691
 5166SOL     OW16396   6.933   6.099   5.702
 5166SOL    HW116397   6.982   6.138   5.624
 5166SOL    HW216398   6.835   6.101   5.685
 5167SOL     OW16399   6.246   3.499   6.051
 5167SOL    HW116400   6.188   3.512   6.132
 5167SOL    HW216401   6.188   3.493   5.970
 5168SOL     OW16402   5.103   1.893   3.207
 5168SOL    HW116403   5.065   1.895   3.299
 5168SOL    HW216404   5.045   1.947   3.145
 5169SOL     OW16405   4.942   5.538   4.357
 5169SOL    HW116406   4.859   5.586   4.329
 5169SOL    HW216407   4.930   5.500   4.448
 5170SOL     OW16408   2.137   3.710   6.250
 5170SOL    HW116409   2.129   3.755   6.340
 5170SOL    HW216410   2.228   3.669   6.241
 5171SOL     OW16411   2.410   6.707   5.915
 5171SOL    HW116412   2.332   6.760   5.882
 5171SOL    HW216413   2.384   6.611   5.927
 5172SOL     OW16414   5.773   5.877   5.969
 5172SOL    HW116415   5.808   5.794   6.011
 5172SOL    HW216416   5.683   5.859   5.928
 5173SOL     OW16417   3.991   6.181   4.054
 5173SOL    HW116418   4.057   6.116   4.091
 5173SOL    HW216419   3.948   6.141   3.972
 5174SOL     OW16420   0.892   5.925   2.752
 5174SOL    HW116421   0.931   6.013   2.778
 5174SOL    HW216422   0.818   5.900   2.815
 5175SOL     OW16423   2.619   1.366   6.813
 5175SOL    HW116424   2.697   1.370   6.875
 5175SOL    HW216425   2.631   1.289   6.749
 5176SOL     OW16426   5.950   6.421   6.222
 5176SOL    HW116427   6.014   6.481   6.176
 5176SOL    HW216428   5.887   6.475   6.278
 5177SOL     OW16429   5.520   6.100   0.743
 5177SOL    HW116430   5.431   6.135   0.714
 5177SOL    HW216431   5.525   6.103   0.843
 5178SOL     OW16432   0.540   3.744   1.251
 5178SOL    HW116433   0.529   3.843   1.251
 5178SOL    HW216434   0.615   3.720   1.313
 5179SOL     OW16435   4.349   5.123   2.609
 5179SOL    HW116436   4.400   5.068   2.542
 5179SOL    HW216437   4.396   5.121   2.697
 5180SOL     OW16438   2.524   4.781   2.121
 5180SOL    HW116439   2.440   4.828   2.147
 5180SOL    HW216440   2.503   4.714   2.049
 5181SOL     OW16441   6.782   1.518   5.808
 5181SOL    HW116442   6.743   1.602   5.845
 5181SOL    HW216443   6.713   1.472   5.751
 5182SOL     OW16444   2.267   6.420   2.099
 5182SOL    HW116445   2.229   6.500   2.145
 5182SOL    HW216446   2.227   6.412   2.007
 5183SOL     OW16447   5.397   2.018   3.542
 5183SOL    HW116448   5.460   2.011   3.465
 5183SOL    HW216449   5.439   1.981   3.625
 5184SOL     OW16450   2.999   1.559   2.493
 5184SOL    HW116451   2.993   1.605   2.405
 5184SOL    HW216452   3.070   1.602   2.548
 5185SOL     OW16453   6.374   0.191   1.704
 5185SOL    HW116454   6.367   0.280   1.749
 5185SOL    HW216455   6.346   0.199   1.608
 5186SOL     OW16456   5.994   2.450   6.708
 5186SOL    HW116457   5.970   2.547   6.702
 5186SOL    HW216458   6.016   2.427   6.803
 5187SOL     OW16459   1.049   4.401   4.684
 5187SOL    HW116460   1.070   4.355   4.771
 5187SOL    HW216461   1.075   4.342   4.608
 5188SOL     OW16462   0.094   7.010   1.576
 5188SOL    HW116463   0.097   0.089   1.553
 5188SOL    HW216464   0.089   6.956   1.492
 5189SOL     OW16465   5.203   5.712   6.911
 5189SOL    HW116466   5.198   5.633   6.849
 5189SOL    HW216467   5.177   5.795   6.861
 5190SOL     OW16468   1.478   4.854   0.903
 5190SOL    HW116469   1.486   4.795   0.823
 5190SOL    HW216470   1.425   4.936   0.879
 5191SOL     OW16471   2.898   4.019   1.709
 5191SOL    HW116472   2.839   3.955   1.659
 5191SOL    HW216473   2.961   3.967   1.767
 5192SOL     OW16474   0.914   4.420   2.826
 5192SOL    HW116475   0.995   4.382   2.872
 5192SOL    HW216476   0.866   4.347   2.778
 5193SOL     OW16477   3.904   0.563   4.900
 5193SOL    HW116478   3.927   0.552   4.997
 5193SOL    HW216479   3.904   0.473   4.855
 5194SOL     OW16480   4.656   1.744   5.073
 5194SOL    HW116481   4.700   1.669   5.024
 5194SOL    HW216482   4.718   1.822   5.077
 5195SOL     OW16483   1.799   1.375   5.556
 5195SOL    HW116484   1.816   1.431   5.637
 5195SOL    HW216485   1.879   1.317   5.538
 5196SOL     OW16486   5.899   6.297   3.046
 5196SOL    HW116487   5.904   6.233   3.122
 5196SOL    HW216488   5.804   6.305   3.016
 5197SOL     OW16489   1.928   3.780   5.205
 5197SOL    HW116490   2.014   3.776   5.255
 5197SOL    HW216491   1.868   3.848   5.247
 5198SOL     OW16492   6.273   5.737   3.897
 5198SOL    HW116493   6.333   5.774   3.968
 5198SOL    HW216494   6.180   5.730   3.931
 5199SOL     OW16495   1.119   5.238   1.175
 5199SOL    HW116496   1.127   5.333   1.143
 5199SOL    HW216497   1.053   5.189   1.118
 5200SOL     OW16498   6.341   3.597   5.001
 5200SOL    HW116499   6.267   3.530   4.996
 5200SOL    HW216500   6.305   3.685   5.033
 5201SOL     OW16501   0.949   6.213   4.793
 5201SOL    HW116502   1.046   6.201   4.771
 5201SOL    HW216503   0.933   6.186   4.887
 5202SOL     OW16504   0.273   4.174   1.338
 5202SOL    HW116505   0.224   4.092   1.308
 5202SOL    HW216506   0.212   4.253   1.330
 5203SOL     OW16507   6.748   3.267   6.366
 5203SOL    HW116508   6.776   3.172   6.384
 5203SOL    HW216509   6.699   3.303   6.446
 5204SOL     OW16510   5.471   5.561   6.778
 5204SOL    HW116511   5.451   5.521   6.868
 5204SOL    HW216512   5.570   5.566   6.765
 5205SOL     OW16513   2.872   6.068   0.426
 5205SOL    HW116514   2.848   5.975   0.401
 5205SOL    HW216515   2.904   6.070   0.521
 5206SOL     OW16516   0.339   4.417   4.815
 5206SOL    HW116517   0.393   4.475   4.876
 5206SOL    HW216518   0.242   4.421   4.842
 5207SOL     OW16519   1.304   5.418   2.095
 5207SOL    HW116520   1.219   5.470   2.109
 5207SOL    HW216521   1.323   5.411   1.997
 5208SOL     OW16522   4.833   1.597   6.981
 5208SOL    HW116523   4.773   1.589   0.043
 5208SOL    HW216524   4.837   1.509   6.934
 5209SOL     OW16525   5.803   4.806   3.047
 5209SOL    HW116526   5.871   4.842   3.110
 5209SOL    HW216527   5.836   4.815   2.953
 5210SOL     OW16528   5.145   3.920   3.222
 5210SOL    HW116529   5.171   3.824   3.217
 5210SOL    HW216530   5.049   3.927   3.251
 5211SOL     OW16531   3.281   3.781   2.507
 5211SOL    HW116532   3.315   3.830   2.588
 5211SOL    HW216533   3.354   3.723   2.471
 5212SOL     OW16534   0.663   0.264   6.561
 5212SOL    HW116535   0.575   0.309   6.551
 5212SOL    HW216536   0.718   0.313   6.628
 5213SOL     OW16537   4.713   2.141   6.072
 5213SOL    HW116538   4.744   2.125   6.166
 5213SOL    HW216539   4.789   2.124   6.009
 5214SOL     OW16540   4.536   2.054   0.071
 5214SOL    HW116541   4.595   2.018   0.143
 5214SOL    HW216542   4.582   2.132   0.027
 5215SOL     OW16543   5.557   5.619   3.990
 5215SOL    HW116544   5.559   5.649   4.086
 5215SOL    HW216545   5.644   5.578   3.966
 5216SOL     OW16546   4.197   6.150   1.408
 5216SOL    HW116547   4.103   6.118   1.393
 5216SOL    HW216548   4.260   6.097   1.350
 5217SOL     OW16549   3.066   5.004   3.579
 5217SOL    HW116550   3.161   4.986   3.604
 5217SOL    HW216551   3.052   5.103   3.569
 5218SOL     OW16552   1.758   0.320   3.407
 5218SOL    HW116553   1.805   0.303   3.494
 5218SOL    HW216554   1.788   0.252   3.340
 5219SOL     OW16555   3.187   0.269   1.332
 5219SOL    HW116556   3.232   0.188   1.370
 5219SOL    HW216557   3.245   0.349   1.346
 5220SOL     OW16558   0.787   6.737   2.287
 5220SOL    HW116559   0.698   6.695   2.305
 5220SOL    HW216560   0.773   6.827   2.245
 5221SOL     OW16561   4.629   0.878   0.423
 5221SOL    HW116562   4.685   0.795   0.420
 5221SOL    HW216563   4.649   0.928   0.506
 5222SOL     OW16564   0.746   6.511   2.455
 5222SOL    HW116565   0.822   6.452   2.429
 5222SOL    HW216566   0.778   6.580   2.520
 5223SOL     OW16567   4.404   6.671   1.349
 5223SOL    HW116568   4.417   6.654   1.447
 5223SOL    HW216569   4.317   6.631   1.320
 5224SOL     OW16570   5.320   0.639   3.812
 5224SOL    HW116571   5.287   0.662   3.721
 5224SOL    HW216572   5.381   0.560   3.806
 5225SOL     OW16573   0.369   0.009   5.319
 5225SOL    HW116574   0.337   6.961   5.251
 5225SOL    HW216575   0.447   0.060   5.283
 5226SOL     OW16576   2.476   0.683   3.918
 5226SOL    HW116577   2.486   0.739   4.000
 5226SOL    HW216578   2.491   0.587   3.941
 5227SOL     OW16579   5.262   3.346   4.520
 5227SOL    HW116580   5.221   3.374   4.607
 5227SOL    HW216581   5.237   3.251   4.501
 5228SOL     OW16582   5.220   0.115   1.433
 5228SOL    HW116583   5.170   0.167   1.364
 5228SOL    HW216584   5.318   0.122   1.415
 5229SOL     OW16585   0.192   3.994   3.541
 5229SOL    HW116586   0.152   3.914   3.584
 5229SOL    HW216587   0.122   4.065   3.531
 5230SOL     OW16588   0.558   1.484   6.380
 5230SOL    HW116589   0.641   1.477   6.437
 5230SOL    HW216590   0.477   1.482   6.439
 5231SOL     OW16591   2.947   3.379   3.689
 5231SOL    HW116592   2.943   3.479   3.691
 5231SOL    HW216593   2.983   3.345   3.777
 5232SOL     OW16594   5.079   2.876   4.802
 5232SOL    HW116595   5.099   2.787   4.844
 5232SOL    HW216596   5.139   2.946   4.843
 5233SOL     OW16597   0.893   6.938   3.016
 5233SOL    HW116598   0.890   6.866   3.085
 5233SOL    HW216599   0.962   7.006   3.041
 5234SOL     OW16600   4.137   4.940   1.519
 5234SOL    HW116601   4.078   4.984   1.452
 5234SOL    HW216602   4.178   4.858   1.479
 5235SOL     OW16603   1.047   2.650   1.693
 5235SOL    HW116604   1.120   2.582   1.685
 5235SOL    HW216605   1.049   2.711   1.614
 5236SOL     OW16606   6.519   3.487   0.105
 5236SOL    HW116607   6.592   3.530   0.159
 5236SOL    HW216608   6.451   3.556   0.081
 5237SOL     OW16609   2.161   1.998   3.043
 5237SOL    HW116610   2.111   1.914   3.066
 5237SOL    HW216611   2.160   2.010   2.943
 5238SOL     OW16612   2.166   3.240   0.557
 5238SOL    HW116613   2.163   3.335   0.586
 5238SOL    HW216614   2.205   3.235   0.465
 5239SOL     OW16615   2.861   3.500   5.332
 5239SOL    HW116616   2.923   3.492   5.253
 5239SOL    HW216617   2.777   3.449   5.314
 5240SOL     OW16618   3.736   1.891   4.834
 5240SOL    HW116619   3.642   1.905   4.803
 5240SOL    HW216620   3.785   1.978   4.832
 5241SOL     OW16621   3.558   5.567   5.429
 5241SOL    HW116622   3.574   5.565   5.330
 5241SOL    HW216623   3.591   5.654   5.466
 5242SOL     OW16624   3.986   6.943   5.580
 5242SOL    HW116625   3.988   6.873   5.508
 5242SOL    HW216626   3.895   6.945   5.622
 5243SOL     OW16627   1.214   3.981   0.697
 5243SOL    HW116628   1.242   4.017   0.609
 5243SOL    HW216629   1.148   3.907   0.684
 5244SOL     OW16630   5.766   3.593   6.777
 5244SOL    HW116631   5.804   3.575   6.686
 5244SOL    HW216632   5.667   3.603   6.770
 5245SOL     OW16633   4.724   3.936   5.976
 5245SOL    HW116634   4.820   3.940   5.948
 5245SOL    HW216635   4.691   3.842   5.968
 5246SOL     OW16636   1.660   3.339   3.262
 5246SOL    HW116637   1.699   3.322   3.352
 5246SOL    HW216638   1.727   3.315   3.191
 5247SOL     OW16639   0.598   4.858   0.457
 5247SOL    HW116640   0.632   4.780   0.511
 5247SOL    HW216641   0.650   4.864   0.371
 5248SOL     OW16642   5.004   1.034   0.413
 5248SOL    HW116643   5.055   0.970   0.354
 5248SOL    HW216644   4.915   1.053   0.373
 5249SOL     OW16645   1.237   5.739   6.911
 5249SOL    HW116646   1.189   5.751   6.998
 5249SOL    HW216647   1.303   5.813   6.899
 5250SOL     OW16648   1.178   1.657   5.872
 5250SOL    HW116649   1.166   1.603   5.789
 5250SOL    HW216650   1.107   1.727   5.877
 5251SOL     OW16651   0.273   3.080   1.035
 5251SOL    HW116652   0.292   3.049   1.128
 5251SOL    HW216653   0.303   3.175   1.024
 5252SOL     OW16654   5.043   6.262   1.178
 5252SOL    HW116655   5.092   6.280   1.263
 5252SOL    HW216656   4.945   6.270   1.194
 5253SOL     OW16657   5.931   2.869   3.668
 5253SOL    HW116658   5.838   2.836   3.683
 5253SOL    HW216659   5.930   2.941   3.598
 5254SOL     OW16660   5.575   0.597   4.353
 5254SOL    HW116661   5.673   0.576   4.341
 5254SOL    HW216662   5.537   0.624   4.265
 5255SOL     OW16663   2.694   5.557   3.371
 5255SOL    HW116664   2.675   5.622   3.445
 5255SOL    HW216665   2.667   5.598   3.284
 5256SOL     OW16666   4.996   6.143   1.877
 5256SOL    HW116667   5.032   6.233   1.903
 5256SOL    HW216668   4.934   6.110   1.948
 5257SOL     OW16669   3.024   1.320   2.938
 5257SOL    HW116670   2.956   1.247   2.930
 5257SOL    HW216671   2.977   1.407   2.957
 5258SOL     OW16672   5.713   1.644   1.745
 5258SOL    HW116673   5.684   1.730   1.702
 5258SOL    HW216674   5.634   1.599   1.786
 5259SOL     OW16675   6.066   4.779   1.588
 5259SOL    HW116676   5.994   4.774   1.518
 5259SOL    HW216677   6.153   4.801   1.544
 5260SOL     OW16678   4.525   2.762   1.428
 5260SOL    HW116679   4.585   2.742   1.350
 5260SOL    HW216680   4.512   2.678   1.481
 5261SOL     OW16681   2.541   2.652   5.282
 5261SOL    HW116682   2.520   2.634   5.185
 5261SOL    HW216683   2.512   2.744   5.306
 5262SOL     OW16684   1.307   0.358   1.839
 5262SOL    HW116685   1.249   0.380   1.760
 5262SOL    HW216686   1.345   0.442   1.878
 5263SOL     OW16687   1.539   6.752   6.691
 5263SOL    HW116688   1.591   6.710   6.616
 5263SOL    HW216689   1.449   6.710   6.696
 5264SOL     OW16690   1.016   1.009   1.196
 5264SOL    HW116691   0.971   1.089   1.234
 5264SOL    HW216692   1.115   1.024   1.194
 5265SOL     OW16693   5.148   4.754   4.165
 5265SOL    HW116694   5.216   4.738   4.236
 5265SOL    HW216695   5.090   4.674   4.154
 5266SOL     OW16696   1.451   0.161   1.145
 5266SOL    HW116697   1.408   0.222   1.212
 5266SOL    HW216698   1.525   0.111   1.189
 5267SOL     OW16699   4.283   3.752   5.209
 5267SOL    HW116700   4.332   3.668   5.184
 5267SOL    HW216701   4.212   3.771   5.142
 5268SOL     OW16702   5.700   5.288   5.741
 5268SOL    HW116703   5.615   5.241   5.767
 5268SOL    HW216704   5.750   5.231   5.675
 5269SOL     OW16705   2.158   5.254   5.549
 5269SOL    HW116706   2.195   5.164   5.572
 5269SOL    HW216707   2.099   5.247   5.469
 5270SOL     OW16708   6.600   2.348   3.390
 5270SOL    HW116709   6.644   2.280   3.450
 5270SOL    HW216710   6.505   2.322   3.374
 5271SOL     OW16711   5.747   3.553   5.598
 5271SOL    HW116712   5.767   3.502   5.515
 5271SOL    HW216713   5.717   3.646   5.575
 5272SOL     OW16714   2.060   2.169   4.051
 5272SOL    HW116715   2.109   2.187   3.966
 5272SOL    HW216716   1.966   2.200   4.042
 5273SOL     OW16717   6.490   0.459   5.670
 5273SOL    HW116718   6.404   0.505   5.652
 5273SOL    HW216719   6.474   0.376   5.722
 5274SOL     OW16720   0.191   5.352   4.305
 5274SOL    HW116721   0.126   5.326   4.234
 5274SOL    HW216722   0.149   5.341   4.395
 5275SOL     OW16723   2.285   6.463   0.032
 5275SOL    HW116724   2.380   6.477   0.062
 5275SOL    HW216725   2.227   6.448   0.112
 5276SOL     OW16726   0.790   6.978   0.412
 5276SOL    HW116727   0.858   7.007   0.479
 5276SOL    HW216728   0.766   6.882   0.428
 5277SOL     OW16729   0.384   1.371   2.097
 5277SOL    HW116730   0.462   1.314   2.124
 5277SOL    HW216731   0.323   1.318   2.039
 5278SOL     OW16732   0.752   4.837   5.813
 5278SOL    HW116733   0.658   4.807   5.833
 5278SOL    HW216734   0.756   4.873   5.720
 5279SOL     OW16735   2.381   6.710   6.789
 5279SOL    HW116736   2.351   6.787   6.732
 5279SOL    HW216737   2.303   6.675   6.842
 5280SOL     OW16738   4.354   6.596   5.849
 5280SOL    HW116739   4.449   6.579   5.874
 5280SOL    HW216740   4.347   6.683   5.801
 5281SOL     OW16741   2.943   6.886   5.029
 5281SOL    HW116742   2.884   6.956   5.069
 5281SOL    HW216743   2.962   6.816   5.098
 5282SOL     OW16744   0.154   6.254   0.536
 5282SOL    HW116745   0.159   6.185   0.464
 5282SOL    HW216746   0.169   6.211   0.624
 5283SOL     OW16747   1.552   0.913   4.052
 5283SOL    HW116748   1.592   0.959   4.130
 5283SOL    HW216749   1.467   0.868   4.080
 5284SOL     OW16750   4.803   3.003   2.361
 5284SOL    HW116751   4.874   2.933   2.359
 5284SOL    HW216752   4.761   3.011   2.270
 5285SOL     OW16753   1.594   2.162   4.548
 5285SOL    HW116754   1.623   2.258   4.552
 5285SOL    HW216755   1.589   2.125   4.641
 5286SOL     OW16756   6.657   3.008   1.024
 5286SOL    HW116757   6.734   3.058   1.064
 5286SOL    HW216758   6.682   2.912   1.011
 5287SOL     OW16759   0.781   5.407   1.540
 5287SOL    HW116760   0.843   5.483   1.556
 5287SOL    HW216761   0.833   5.326   1.512
 5288SOL     OW16762   4.278   0.665   1.391
 5288SOL    HW116763   4.341   0.676   1.467
 5288SOL    HW216764   4.186   0.645   1.426
 5289SOL     OW16765   2.234   4.788   6.110
 5289SOL    HW116766   2.323   4.820   6.079
 5289SOL    HW216767   2.246   4.719   6.181
 5290SOL     OW16768   1.567   2.933   4.930
 5290SOL    HW116769   1.608   3.016   4.965
 5290SOL    HW216770   1.636   2.861   4.925
 5291SOL     OW16771   2.612   5.381   4.610
 5291SOL    HW116772   2.602   5.426   4.698
 5291SOL    HW216773   2.617   5.282   4.623
 5292SOL     OW16774   0.151   3.837   4.907
 5292SOL    HW116775   0.198   3.766   4.854
 5292SOL    HW216776   0.218   3.889   4.960
 5293SOL     OW16777   2.226   0.194   3.871
 5293SOL    HW116778   2.246   0.268   3.935
 5293SOL    HW216779   2.292   0.197   3.796
 5294SOL     OW16780   4.912   6.953   4.091
 5294SOL    HW116781   4.974   0.013   4.078
 5294SOL    HW216782   4.827   6.985   4.131
 5295SOL     OW16783   2.046   0.848   1.330
 5295SOL    HW116784   2.132   0.864   1.282
 5295SOL    HW216785   1.999   0.771   1.288
 5296SOL     OW16786   4.832   4.831   1.923
 5296SOL    HW116787   4.920   4.867   1.952
 5296SOL    HW216788   4.846   4.753   1.862
 5297SOL     OW16789   3.502   5.368   6.050
 5297SOL    HW116790   3.416   5.415   6.068
 5297SOL    HW216791   3.489   5.303   5.975
 5298SOL     OW16792   3.018   1.584   0.139
 5298SOL    HW116793   3.063   1.500   0.166
 5298SOL    HW216794   3.081   1.640   0.085
 5299SOL     OW16795   2.437   0.808   1.423
 5299SOL    HW116796   2.417   0.894   1.470
 5299SOL    HW216797   2.399   0.811   1.330
 5300SOL     OW16798   3.122   5.309   6.553
 5300SOL    HW116799   3.176   5.375   6.500
 5300SOL    HW216800   3.098   5.350   6.641
 5301SOL     OW16801   6.277   6.880   5.623
 5301SOL    HW116802   6.216   6.867   5.545
 5301SOL    HW216803   6.366   6.913   5.591
 5302SOL     OW16804   5.105   5.492   2.747
 5302SOL    HW116805   5.031   5.559   2.753
 5302SOL    HW216806   5.115   5.445   2.834
 5303SOL     OW16807   1.373   6.122   5.402
 5303SOL    HW116808   1.412   6.065   5.474
 5303SOL    HW216809   1.446   6.151   5.340
 5304SOL     OW16810   0.701   0.617   3.392
 5304SOL    HW116811   0.797   0.616   3.418
 5304SOL    HW216812   0.651   0.548   3.445
 5305SOL     OW16813   6.875   5.517   4.817
 5305SOL    HW116814   6.942   5.483   4.883
 5305SOL    HW216815   6.841   5.440   4.762
 5306SOL     OW16816   0.830   2.122   6.049
 5306SOL    HW116817   0.767   2.044   6.047
 5306SOL    HW216818   0.801   2.190   5.982
 5307SOL     OW16819   0.192   1.436   1.533
 5307SOL    HW116820   0.173   1.493   1.454
 5307SOL    HW216821   0.225   1.493   1.609
 5308SOL     OW16822   1.920   4.354   2.660
 5308SOL    HW116823   1.984   4.319   2.728
 5308SOL    HW216824   1.846   4.288   2.646
 5309SOL     OW16825   5.873   6.047   3.473
 5309SOL    HW116826   5.790   6.026   3.526
 5309SOL    HW216827   5.912   6.133   3.506
 5310SOL     OW16828   6.486   2.176   3.109
 5310SOL    HW116829   6.556   2.248   3.110
 5310SOL    HW216830   6.399   2.214   3.079
 5311SOL     OW16831   6.185   0.369   0.187
 5311SOL    HW116832   6.188   0.411   0.278
 5311SOL    HW216833   6.108   0.406   0.135
 5312SOL     OW16834   6.266   6.453   0.803
 5312SOL    HW116835   6.173   6.442   0.839
 5312SOL    HW216836   6.276   6.400   0.719
 5313SOL     OW16837   1.306   0.079   5.811
 5313SOL    HW116838   1.280   0.082   5.908
 5313SOL    HW216839   1.386   0.137   5.796
 5314SOL     OW16840   5.683   1.907   1.651
 5314SOL    HW116841   5.682   1.903   1.551
 5314SOL    HW216842   5.638   1.991   1.681
 5315SOL     OW16843   4.034   2.199   3.730
 5315SOL    HW116844   4.017   2.120   3.672
 5315SOL    HW216845   3.957   2.211   3.792
 5316SOL     OW16846   0.513   2.901   4.880
 5316SOL    HW116847   0.436   2.851   4.921
 5316SOL    HW216848   0.552   2.847   4.806
 5317SOL     OW16849   5.580   3.352   6.631
 5317SOL    HW116850   5.582   3.322   6.727
 5317SOL    HW216851   5.486   3.345   6.596
 5318SOL     OW16852   0.414   4.156   5.547
 5318SOL    HW116853   0.335   4.180   5.492
 5318SOL    HW216854   0.411   4.058   5.570
 5319SOL     OW16855   3.605   6.212   2.323
 5319SOL    HW116856   3.658   6.288   2.359
 5319SOL    HW216857   3.550   6.243   2.245
 5320SOL     OW16858   4.693   5.734   1.090
 5320SOL    HW116859   4.684   5.675   1.010
 5320SOL    HW216860   4.637   5.816   1.077
 5321SOL     OW16861   1.694   4.261   5.586
 5321SOL    HW116862   1.739   4.302   5.506
 5321SOL    HW216863   1.602   4.231   5.561
 5322SOL     OW16864   3.871   6.401   2.140
 5322SOL    HW116865   3.805   6.421   2.213
 5322SOL    HW216866   3.933   6.478   2.128
 5323SOL     OW16867   4.345   0.275   6.188
 5323SOL    HW116868   4.266   0.233   6.142
 5323SOL    HW216869   4.313   0.342   6.255
 5324SOL     OW16870   1.604   1.829   1.768
 5324SOL    HW116871   1.561   1.854   1.682
 5324SOL    HW216872   1.546   1.764   1.817
 5325SOL     OW16873   2.077   2.539   5.109
 5325SOL    HW116874   2.140   2.540   5.186
 5325SOL    HW216875   2.041   2.631   5.094
 5326SOL     OW16876   6.281   0.072   1.115
 5326SOL    HW116877   6.269   6.992   1.132
 5326SOL    HW216878   6.378   0.095   1.118
 5327SOL     OW16879   0.280   2.667   5.560
 5327SOL    HW116880   0.259   2.659   5.657
 5327SOL    HW216881   0.348   2.739   5.547
 5328SOL     OW16882   4.756   5.166   0.208
 5328SOL    HW116883   4.718   5.211   0.128
 5328SOL    HW216884   4.853   5.147   0.193
 5329SOL     OW16885   2.283   6.689   6.167
 5329SOL    HW116886   2.215   6.670   6.096
 5329SOL    HW216887   2.368   6.721   6.125
 5330SOL     OW16888   2.846   4.812   1.094
 5330SOL    HW116889   2.814   4.749   1.165
 5330SOL    HW216890   2.875   4.898   1.136
 5331SOL     OW16891   6.497   1.219   6.818
 5331SOL    HW116892   6.533   1.294   6.874
 5331SOL    HW216893   6.510   1.132   6.867
 5332SOL     OW16894   0.391   5.154   1.434
 5332SOL    HW116895   0.316   5.174   1.497
 5332SOL    HW216896   0.468   5.116   1.484
 5333SOL     OW16897   1.151   6.287   5.293
 5333SOL    HW116898   1.234   6.234   5.312
 5333SOL    HW216899   1.085   6.230   5.245
 5334SOL     OW16900   3.636   6.857   4.795
 5334SOL    HW116901   3.604   6.943   4.757
 5334SOL    HW216902   3.615   6.853   4.893
 5335SOL     OW16903   6.768   6.009   0.079
 5335SOL    HW116904   6.861   6.028   0.048
 5335SOL    HW216905   6.711   6.090   0.065
 5336SOL     OW16906   1.230   4.641   1.498
 5336SOL    HW116907   1.305   4.636   1.564
 5336SOL    HW216908   1.202   4.737   1.487
 5337SOL     OW16909   5.042   4.407   1.381
 5337SOL    HW116910   5.041   4.420   1.282
 5337SOL    HW216911   5.020   4.312   1.403
 5338SOL     OW16912   5.361   2.647   0.145
 5338SOL    HW116913   5.294   2.573   0.132
 5338SOL    HW216914   5.336   2.724   0.087
 5339SOL     OW16915   6.274   0.427   1.786
 5339SOL    HW116916   6.196   0.488   1.773
 5339SOL    HW216917   6.334   0.464   1.857
 5340SOL     OW16918   5.230   2.594   6.344
 5340SOL    HW116919   5.139   2.591   6.304
 5340SOL    HW216920   5.242   2.679   6.395
 5341SOL     OW16921   4.915   0.677   0.530
 5341SOL    HW116922   4.982   0.628   0.474
 5341SOL    HW216923   4.963   0.737   0.594
 5342SOL     OW16924   3.061   0.508   6.286
 5342SOL    HW116925   3.117   0.558   6.352
 5342SOL    HW216926   3.116   0.488   6.205
 5343SOL     OW16927   3.471   4.146   1.818
 5343SOL    HW116928   3.563   4.179   1.797
 5343SOL    HW216929   3.468   4.115   1.913
 5344SOL     OW16930   2.255   2.659   2.699
 5344SOL    HW116931   2.257   2.635   2.796
 5344SOL    HW216932   2.178   2.720   2.682
 5345SOL     OW16933   4.764   0.624   2.814
 5345SOL    HW116934   4.819   0.688   2.867
 5345SOL    HW216935   4.669   0.656   2.813
 5346SOL     OW16936   2.764   6.938   3.699
 5346SOL    HW116937   2.775   7.011   3.632
 5346SOL    HW216938   2.739   6.977   3.787
 5347SOL     OW16939   6.583   1.552   1.572
 5347SOL    HW116940   6.627   1.555   1.482
 5347SOL    HW216941   6.555   1.644   1.598
 5348SOL     OW16942   6.569   1.514   0.333
 5348SOL    HW116943   6.495   1.555   0.388
 5348SOL    HW216944   6.558   1.542   0.238
 5349SOL     OW16945   6.102   0.270   1.248
 5349SOL    HW116946   6.080   0.339   1.180
 5349SOL    HW216947   6.159   0.199   1.207
 5350SOL     OW16948   2.567   0.225   6.322
 5350SOL    HW116949   2.572   0.319   6.289
 5350SOL    HW216950   2.571   0.162   6.245
 5351SOL     OW16951   4.082   0.813   1.768
 5351SOL    HW116952   4.013   0.885   1.768
 5351SOL    HW216953   4.051   0.737   1.825
 5352SOL     OW16954   3.328   6.309   3.623
 5352SOL    HW116955   3.353   6.278   3.532
 5352SOL    HW216956   3.328   6.409   3.626
 5353SOL     OW16957   6.005   0.374   5.985
 5353SOL    HW116958   6.052   0.341   6.067
 5353SOL    HW216959   5.995   0.474   5.991
 5354SOL     OW16960   1.631   3.495   0.822
 5354SOL    HW116961   1.676   3.414   0.784
 5354SOL    HW216962   1.535   3.497   0.795
 5355SOL     OW16963   4.133   1.468   6.087
 5355SOL    HW116964   4.091   1.455   5.997
 5355SOL    HW216965   4.222   1.511   6.076
 5356SOL     OW16966   6.284   3.359   0.945
 5356SOL    HW116967   6.337   3.439   0.919
 5356SOL    HW216968   6.222   3.334   0.871
 5357SOL     OW16969   4.263   5.670   0.615
 5357SOL    HW116970   4.206   5.606   0.565
 5357SOL    HW216971   4.207   5.746   0.649
 5358SOL     OW16972   4.975   4.135   1.511
 5358SOL    HW116973   4.892   4.100   1.467
 5358SOL    HW216974   4.981   4.099   1.605
 5359SOL     OW16975   3.075   6.972   0.116
 5359SOL    HW116976   3.142   0.012   0.162
 5359SOL    HW216977   3.075   6.881   0.158
 5360SOL     OW16978   4.203   1.361   0.057
 5360SOL    HW116979   4.161   1.292   7.016
 5360SOL    HW216980   4.301   1.367   0.037
 5361SOL     OW16981   1.470   0.951   6.364
 5361SOL    HW116982   1.458   0.897   6.447
 5361SOL    HW216983   1.523   1.033   6.386
 5362SOL     OW16984   4.245   5.621   3.540
 5362SOL    HW116985   4.260   5.523   3.550
 5362SOL    HW216986   4.273   5.668   3.624
 5363SOL     OW16987   0.409   5.550   4.507
 5363SOL    HW116988   0.401   5.466   4.561
 5363SOL    HW216989   0.320   5.594   4.499
 5364SOL     OW16990   1.407   5.969   6.860
 5364SOL    HW116991   1.392   6.067   6.868
 5364SOL    HW216992   1.450   5.949   6.772
 5365SOL     OW16993   3.755   1.976   5.977
 5365SOL    HW116994   3.672   1.938   6.018
 5365SOL    HW216995   3.815   2.011   6.049
 5366SOL     OW16996   3.394   3.946   6.315
 5366SOL    HW116997   3.434   4.034   6.339
 5366SOL    HW216998   3.407   3.929   6.217
 5367SOL     OW16999   0.318   4.592   1.177
 5367SOL    HW117000   0.333   4.500   1.215
 5367SOL    HW217001   0.403   4.644   1.185
 5368SOL     OW17002   0.491   0.674   3.977
 5368SOL    HW117003   0.440   0.665   3.892
 5368SOL    HW217004   0.433   0.646   4.054
 5369SOL     OW17005   2.069   3.382   2.190
 5369SOL    HW117006   2.137   3.410   2.122
 5369SOL    HW217007   1.997   3.329   2.146
 5370SOL     OW17008   3.892   2.970   1.332
 5370SOL    HW117009   3.970   2.946   1.274
 5370SOL    HW217010   3.924   3.016   1.415
 5371SOL     OW17011   1.852   4.164   4.862
 5371SOL    HW117012   1.812   4.082   4.823
 5371SOL    HW217013   1.930   4.140   4.921
 5372SOL     OW17014   3.143   6.348   2.697
 5372SOL    HW117015   3.113   6.349   2.793
 5372SOL    HW217016   3.069   6.316   2.639
 5373SOL     OW17017   1.523   5.232   3.947
 5373SOL    HW117018   1.564   5.237   3.855
 5373SOL    HW217019   1.510   5.136   3.972
 5374SOL     OW17020   2.932   2.559   0.600
 5374SOL    HW117021   3.030   2.581   0.596
 5374SOL    HW217022   2.885   2.603   0.524
 5375SOL     OW17023   0.804   3.731   5.085
 5375SOL    HW117024   0.798   3.738   4.986
 5375SOL    HW217025   0.760   3.646   5.115
 5376SOL     OW17026   2.880   4.536   6.424
 5376SOL    HW117027   2.872   4.484   6.338
 5376SOL    HW217028   2.804   4.600   6.431
 5377SOL     OW17029   0.714   1.990   1.996
 5377SOL    HW117030   0.693   2.039   1.911
 5377SOL    HW217031   0.793   1.930   1.981
 5378SOL     OW17032   5.138   0.221   7.009
 5378SOL    HW117033   5.224   0.191   6.967
 5378SOL    HW217034   5.079   0.143   0.006
 5379SOL     OW17035   0.384   6.692   0.526
 5379SOL    HW117036   0.454   6.625   0.502
 5379SOL    HW217037   0.426   6.771   0.571
 5380SOL     OW17038   1.956   1.190   4.743
 5380SOL    HW117039   1.889   1.165   4.673
 5380SOL    HW217040   1.999   1.277   4.719
 5381SOL     OW17041   5.905   3.833   1.702
 5381SOL    HW117042   6.001   3.861   1.702
 5381SOL    HW217043   5.868   3.841   1.795
 5382SOL     OW17044   1.713   0.017   1.747
 5382SOL    HW117045   1.767   6.986   1.816
 5382SOL    HW217046   1.669   0.096   1.789
 5383SOL     OW17047   2.345   2.056   4.547
 5383SOL    HW117048   2.389   1.967   4.534
 5383SOL    HW217049   2.412   2.128   4.531
 5384SOL     OW17050   5.521   6.702   4.332
 5384SOL    HW117051   5.601   6.646   4.349
 5384SOL    HW217052   5.527   6.787   4.385
 5385SOL     OW17053   3.425   4.064   3.007
 5385SOL    HW117054   3.434   4.042   2.910
 5385SOL    HW217055   3.515   4.070   3.049
 5386SOL     OW17056   5.954   6.901   5.590
 5386SOL    HW117057   5.909   6.854   5.514
 5386SOL    HW217058   5.910   6.990   5.604
 5387SOL     OW17059   3.772   4.839   1.344
 5387SOL    HW117060   3.724   4.848   1.256
 5387SOL    HW217061   3.867   4.867   1.333
 5388SOL     OW17062   6.015   5.967   2.935
 5388SOL    HW117063   5.994   5.890   2.995
 5388SOL    HW217064   6.028   5.934   2.842
 5389SOL     OW17065   6.001   3.158   1.286
 5389SOL    HW117066   5.950   3.215   1.351
 5389SOL    HW217067   6.073   3.213   1.242
 5390SOL     OW17068   6.191   5.087   6.059
 5390SOL    HW117069   6.264   5.110   6.123
 5390SOL    HW217070   6.114   5.149   6.072
 5391SOL     OW17071   3.363   3.719   6.800
 5391SOL    HW117072   3.365   3.743   6.703
 5391SOL    HW217073   3.270   3.726   6.834
 5392SOL     OW17074   0.273   2.792   2.617
 5392SOL    HW117075   0.175   2.786   2.599
 5392SOL    HW217076   0.302   2.887   2.614
 5393SOL     OW17077   6.483   6.946   6.136
 5393SOL    HW117078   6.526   6.899   6.059
 5393SOL    HW217079   6.427   0.003   6.102
 5394SOL     OW17080   2.111   3.681   5.847
 5394SOL    HW117081   2.100   3.600   5.905
 5394SOL    HW217082   2.205   3.716   5.855
 5395SOL     OW17083   4.479   0.482   1.281
 5395SOL    HW117084   4.486   0.414   1.354
 5395SOL    HW217085   4.407   0.548   1.304
 5396SOL     OW17086   4.477   2.513   1.550
 5396SOL    HW117087   4.413   2.524   1.626
 5396SOL    HW217088   4.448   2.435   1.494
 5397SOL     OW17089   1.294   2.506   1.633
 5397SOL    HW117090   1.384   2.473   1.662
 5397SOL    HW217091   1.242   2.430   1.593
 5398SOL     OW17092   3.177   2.952   2.415
 5398SOL    HW117093   3.163   2.854   2.401
 5398SOL    HW217094   3.137   3.002   2.338
 5399SOL     OW17095   0.934   5.309   6.919
 5399SOL    HW117096   0.942   5.386   6.857
 5399SOL    HW217097   0.963   5.337   7.011
 5400SOL     OW17098   2.150   3.370   6.900
 5400SOL    HW117099   2.056   3.389   6.926
 5400SOL    HW217100   2.152   3.301   6.828
 5401SOL     OW17101   6.355   1.959   0.707
 5401SOL    HW117102   6.375   2.014   0.788
 5401SOL    HW217103   6.326   1.868   0.735
 5402SOL     OW17104   1.151   6.135   2.337
 5402SOL    HW117105   1.211   6.083   2.275
 5402SOL    HW217106   1.172   6.111   2.431
 5403SOL     OW17107   6.058   2.864   6.759
 5403SOL    HW117108   5.986   2.906   6.704
 5403SOL    HW217109   6.144   2.865   6.708
 5404SOL     OW17110   1.237   3.031   3.291
 5404SOL    HW117111   1.277   3.122   3.297
 5404SOL    HW217112   1.310   2.963   3.278
 5405SOL     OW17113   6.901   4.295   5.200
 5405SOL    HW117114   6.838   4.355   5.151
 5405SOL    HW217115   6.853   4.252   5.276
 5406SOL     OW17116   1.469   6.833   4.017
 5406SOL    HW117117   1.449   6.744   4.060
 5406SOL    HW217118   1.483   6.820   3.919
 5407SOL     OW17119   4.293   3.272   6.837
 5407SOL    HW117120   4.320   3.177   6.820
 5407SOL    HW217121   4.353   3.334   6.786
 5408SOL     OW17122   3.541   1.272   6.960
 5408SOL    HW117123   3.591   1.195   6.921
 5408SOL    HW217124   3.486   1.240   0.019
 5409SOL     OW17125   4.937   0.676   1.895
 5409SOL    HW117126   4.937   0.743   1.821
 5409SOL    HW217127   4.851   0.625   1.894
 5410SOL     OW17128   1.441   2.846   3.261
 5410SOL    HW117129   1.423   2.786   3.183
 5410SOL    HW217130   1.434   2.793   3.345
 5411SOL     OW17131   2.235   4.633   4.677
 5411SOL    HW117132   2.334   4.638   4.664
 5411SOL    HW217133   2.207   4.700   4.745
 5412SOL     OW17134   6.321   2.110   2.133
 5412SOL    HW117135   6.400   2.166   2.107
 5412SOL    HW217136   6.257   2.105   2.056
 5413SOL     OW17137   1.670   6.813   2.618
 5413SOL    HW117138   1.670   6.790   2.521
 5413SOL    HW217139   1.748   6.872   2.639
 5414SOL     OW17140   3.794   0.140   5.837
 5414SOL    HW117141   3.817   0.160   5.742
 5414SOL    HW217142   3.846   0.060   5.868
 5415SOL     OW17143   6.316   3.690   2.635
 5415SOL    HW117144   6.255   3.623   2.676
 5415SOL    HW217145   6.315   3.774   2.689
 5416SOL     OW17146   4.049   5.208   4.143
 5416SOL    HW117147   4.047   5.198   4.242
 5416SOL    HW217148   3.957   5.230   4.109
 5417SOL     OW17149   3.152   0.055   5.749
 5417SOL    HW117150   3.107   6.984   5.756
 5417SOL    HW217151   3.112   0.118   5.815
 5418SOL     OW17152   3.679   1.180   3.379
 5418SOL    HW117153   3.683   1.126   3.295
 5418SOL    HW217154   3.615   1.138   3.443
 5419SOL     OW17155   3.227   4.075   6.990
 5419SOL    HW117156   3.182   3.987   7.006
 5419SOL    HW217157   3.286   4.069   6.909
 5420SOL     OW17158   1.068   2.334   3.230
 5420SOL    HW117159   1.163   2.364   3.222
 5420SOL    HW217160   1.017   2.399   3.286
 5421SOL     OW17161   1.953   2.239   0.447
 5421SOL    HW117162   1.881   2.219   0.513
 5421SOL    HW217163   1.957   2.337   0.429
 5422SOL     OW17164   0.927   3.690   0.254
 5422SOL    HW117165   0.877   3.631   0.190
 5422SOL    HW217166   1.019   3.707   0.217
 5423SOL     OW17167   5.067   3.179   5.453
 5423SOL    HW117168   5.122   3.144   5.528
 5423SOL    HW217169   5.018   3.103   5.410
 5424SOL     OW17170   5.514   3.300   5.520
 5424SOL    HW117171   5.465   3.386   5.536
 5424SOL    HW217172   5.585   3.289   5.590
 5425SOL     OW17173   5.011   1.113   4.930
 5425SOL    HW117174   5.091   1.100   4.872
 5425SOL    HW217175   4.928   1.091   4.878
 5426SOL     OW17176   0.626   6.770   4.822
 5426SOL    HW117177   0.663   6.857   4.855
 5426SOL    HW217178   0.530   6.782   4.797
 5427SOL     OW17179   4.310   0.096   6.961
 5427SOL    HW117180   4.291   0.018   0.003
 5427SOL    HW217181   4.308   0.067   6.866
 5428SOL     OW17182   1.797   1.098   6.870
 5428SOL    HW117183   1.861   1.026   6.846
 5428SOL    HW217184   1.845   1.186   6.873
 5429SOL     OW17185   0.760   2.421   6.099
 5429SOL    HW117186   0.808   2.336   6.123
 5429SOL    HW217187   0.780   2.491   6.168
 5430SOL     OW17188   2.083   2.855   5.661
 5430SOL    HW117189   2.048   2.864   5.568
 5430SOL    HW217190   2.062   2.939   5.712
 5431SOL     OW17191   3.808   5.917   4.637
 5431SOL    HW117192   3.732   5.954   4.690
 5431SOL    HW217193   3.860   5.992   4.596
 5432SOL     OW17194   5.560   5.488   1.367
 5432SOL    HW117195   5.518   5.554   1.306
 5432SOL    HW217196   5.503   5.475   1.448
 5433SOL     OW17197   0.430   1.756   4.062
 5433SOL    HW117198   0.332   1.735   4.073
 5433SOL    HW217199   0.477   1.674   4.029
 5434SOL     OW17200   2.580   6.872   4.890
 5434SOL    HW117201   2.585   6.782   4.845
 5434SOL    HW217202   2.582   6.859   4.989
 5435SOL     OW17203   4.903   1.462   1.818
 5435SOL    HW117204   4.840   1.538   1.802
 5435SOL    HW217205   4.887   1.391   1.749
 5436SOL     OW17206   5.373   3.735   2.579
 5436SOL    HW117207   5.375   3.636   2.594
 5436SOL    HW217208   5.427   3.781   2.650
 5437SOL     OW17209   3.796   4.791   6.351
 5437SOL    HW117210   3.855   4.754   6.422
 5437SOL    HW217211   3.722   4.727   6.332
 5438SOL     OW17212   6.835   0.768   1.139
 5438SOL    HW117213   6.848   0.796   1.234
 5438SOL    HW217214   6.760   0.702   1.134
 5439SOL     OW17215   1.432   3.168   0.626
 5439SOL    HW117216   1.401   3.141   0.535
 5439SOL    HW217217   1.352   3.185   0.684
 5440SOL     OW17218   2.012   1.359   1.452
 5440SOL    HW117219   2.006   1.260   1.464
 5440SOL    HW217220   2.027   1.403   1.540
 5441SOL     OW17221   3.909   1.692   4.080
 5441SOL    HW117222   3.815   1.719   4.098
 5441SOL    HW217223   3.925   1.690   3.981
 5442SOL     OW17224   3.300   0.973   2.083
 5442SOL    HW117225   3.339   1.062   2.108
 5442SOL    HW217226   3.215   0.987   2.032
 5443SOL     OW17227   2.073   6.615   6.013
 5443SOL    HW117228   2.077   6.545   5.942
 5443SOL    HW217229   1.979   6.649   6.022
 5444SOL     OW17230   0.394   1.244   3.326
 5444SOL    HW117231   0.386   1.145   3.322
 5444SOL    HW217232   0.376   1.276   3.419
 5445SOL     OW17233   6.392   3.145   2.237
 5445SOL    HW117234   6.306   3.192   2.217
 5445SOL    HW217235   6.427   3.174   2.326
 5446SOL     OW17236   6.546   6.116   5.842
 5446SOL    HW117237   6.604   6.196   5.861
 5446SOL    HW217238   6.461   6.147   5.800
 5447SOL     OW17239   3.057   2.415   1.266
 5447SOL    HW117240   3.113   2.463   1.333
 5447SOL    HW217241   2.987   2.477   1.230
 5448SOL     OW17242   5.710   1.847   6.516
 5448SOL    HW117243   5.802   1.871   6.547
 5448SOL    HW217244   5.699   1.869   6.420
 5449SOL     OW17245   0.350   2.810   6.618
 5449SOL    HW117246   0.322   2.869   6.543
 5449SOL    HW217247   0.311   2.718   6.604
 5450SOL     OW17248   2.300   5.954   0.943
 5450SOL    HW117249   2.338   6.046   0.954
 5450SOL    HW217250   2.356   5.889   0.994
 5451SOL     OW17251   2.412   0.699   2.837
 5451SOL    HW117252   2.404   0.665   2.744
 5451SOL    HW217253   2.351   0.778   2.849
 5452SOL     OW17254   2.358   3.808   5.855
 5452SOL    HW117255   2.450   3.829   5.887
 5452SOL    HW217256   2.352   3.823   5.757
 5453SOL     OW17257   0.589   5.259   5.895
 5453SOL    HW117258   0.642   5.233   5.976
 5453SOL    HW217259   0.505   5.305   5.924
 5454SOL     OW17260   0.711   3.990   5.095
 5454SOL    HW117261   0.630   3.997   5.153
 5454SOL    HW217262   0.736   3.894   5.084
 5455SOL     OW17263   6.568   2.160   0.650
 5455SOL    HW117264   6.468   2.157   0.652
 5455SOL    HW217265   6.603   2.186   0.740
 5456SOL     OW17266   3.474   6.886   1.561
 5456SOL    HW117267   3.445   6.873   1.656
 5456SOL    HW217268   3.574   6.876   1.556
 5457SOL     OW17269   6.486   3.792   1.000
 5457SOL    HW117270   6.417   3.837   1.056
 5457SOL    HW217271   6.552   3.859   0.967
 5458SOL     OW17272   1.652   4.371   5.877
 5458SOL    HW117273   1.691   4.335   5.793
 5458SOL    HW217274   1.711   4.349   5.954
 5459SOL     OW17275   2.485   4.143   6.147
 5459SOL    HW117276   2.395   4.171   6.116
 5459SOL    HW217277   2.521   4.071   6.087
 5460SOL     OW17278   3.732   7.002   4.113
 5460SOL    HW117279   3.668   0.057   4.136
 5460SOL    HW217280   3.799   0.018   4.048
 5461SOL     OW17281   4.621   6.970   4.896
 5461SOL    HW117282   4.648   6.978   4.992
 5461SOL    HW217283   4.685   0.003   4.839
 5462SOL     OW17284   0.107   0.498   1.002
 5462SOL    HW117285   0.074   0.498   1.097
 5462SOL    HW217286   0.128   0.592   0.974
 5463SOL     OW17287   6.951   3.209   0.923
 5463SOL    HW117288   6.974   3.125   0.872
 5463SOL    HW217289   0.018   3.256   0.949
 5464SOL     OW17290   1.592   6.178   4.561
 5464SOL    HW117291   1.576   6.146   4.655
 5464SOL    HW217292   1.507   6.168   4.508
 5465SOL     OW17293   2.939   5.688   6.817
 5465SOL    HW117294   3.016   5.741   6.853
 5465SOL    HW217295   2.882   5.656   6.892
 5466SOL     OW17296   5.551   5.822   4.541
 5466SOL    HW117297   5.518   5.887   4.609
 5466SOL    HW217298   5.512   5.732   4.560
 5467SOL     OW17299   5.915   1.468   2.060
 5467SOL    HW117300   5.958   1.436   1.975
 5467SOL    HW217301   5.912   1.392   2.126
 5468SOL     OW17302   4.174   1.151   6.438
 5468SOL    HW117303   4.256   1.094   6.429
 5468SOL    HW217304   4.199   1.236   6.486
 5469SOL     OW17305   5.005   4.500   1.716
 5469SOL    HW117306   4.998   4.439   1.637
 5469SOL    HW217307   5.016   4.445   1.799
 5470SOL     OW17308   0.618   4.762   3.402
 5470SOL    HW117309   0.676   4.821   3.346
 5470SOL    HW217310   0.667   4.679   3.427
 5471SOL     OW17311   6.261   4.453   2.137
 5471SOL    HW117312   6.186   4.516   2.115
 5471SOL    HW217313   6.266   4.440   2.236
 5472SOL     OW17314   3.554   5.263   5.065
 5472SOL    HW117315   3.591   5.171   5.080
 5472SOL    HW217316   3.613   5.311   5.000
 5473SOL     OW17317   1.369   4.199   3.559
 5473SOL    HW117318   1.432   4.273   3.533
 5473SOL    HW217319   1.277   4.220   3.525
 5474SOL     OW17320   1.459   6.071   3.034
 5474SOL    HW117321   1.485   6.053   2.939
 5474SOL    HW217322   1.523   6.137   3.074
 5475SOL     OW17323   3.421   2.902   1.651
 5475SOL    HW117324   3.322   2.919   1.650
 5475SOL    HW217325   3.445   2.853   1.735
 5476SOL     OW17326   1.891   3.196   6.867
 5476SOL    HW117327   1.954   3.196   6.944
 5476SOL    HW217328   1.804   3.157   6.895
 5477SOL     OW17329   2.222   2.310   2.408
 5477SOL    HW117330   2.259   2.395   2.371
 5477SOL    HW217331   2.281   2.233   2.381
 5478SOL     OW17332   7.008   5.428   5.594
 5478SOL    HW117333   6.972   5.346   5.551
 5478SOL    HW217334   6.940   5.467   5.655
 5479SOL     OW17335   4.752   6.754   5.399
 5479SOL    HW117336   4.832   6.696   5.387
 5479SOL    HW217337   4.761   6.805   5.485
 5480SOL     OW17338   0.447   2.462   5.687
 5480SOL    HW117339   0.374   2.400   5.660
 5480SOL    HW217340   0.431   2.552   5.647
 5481SOL     OW17341   4.322   6.414   3.621
 5481SOL    HW117342   4.415   6.426   3.656
 5481SOL    HW217343   4.276   6.503   3.617
 5482SOL     OW17344   1.673   5.947   1.752
 5482SOL    HW117345   1.658   5.867   1.693
 5482SOL    HW217346   1.764   5.941   1.793
 5483SOL     OW17347   0.930   2.272   6.281
 5483SOL    HW117348   0.928   2.194   6.218
 5483SOL    HW217349   0.855   2.264   6.346
 5484SOL     OW17350   5.407   0.286   4.773
 5484SOL    HW117351   5.492   0.338   4.767
 5484SOL    HW217352   5.381   0.275   4.869
 5485SOL     OW17353   3.591   0.534   4.498
 5485SOL    HW117354   3.591   0.611   4.435
 5485SOL    HW217355   3.667   0.473   4.476
 5486SOL     OW17356   3.577   4.937   3.951
 5486SOL    HW117357   3.511   5.012   3.948
 5486SOL    HW217358   3.551   4.872   4.022
 5487SOL     OW17359   3.011   5.766   5.254
 5487SOL    HW117360   3.052   5.849   5.294
 5487SOL    HW217361   2.973   5.787   5.165
 5488SOL     OW17362   5.095   2.065   6.478
 5488SOL    HW117363   5.102   2.018   6.390
 5488SOL    HW217364   5.109   2.163   6.464
 5489SOL     OW17365   0.230   2.431   4.060
 5489SOL    HW117366   0.279   2.492   4.122
 5489SOL    HW217367   0.292   2.400   3.988
 5490SOL     OW17368   0.689   4.998   1.832
 5490SOL    HW117369   0.632   5.027   1.909
 5490SOL    HW217370   0.730   4.909   1.852
 5491SOL     OW17371   5.947   4.104   0.702
 5491SOL    HW117372   6.007   4.172   0.661
 5491SOL    HW217373   6.001   4.037   0.752
 5492SOL     OW17374   0.568   1.952   6.680
 5492SOL    HW117375   0.661   1.924   6.706
 5492SOL    HW217376   0.557   1.943   6.581
 5493SOL     OW17377   4.116   4.233   6.901
 5493SOL    HW117378   4.114   4.222   6.802
 5493SOL    HW217379   4.157   4.321   6.925
 5494SOL     OW17380   5.950   2.390   5.472
 5494SOL    HW117381   6.043   2.391   5.509
 5494SOL    HW217382   5.886   2.365   5.545
 5495SOL     OW17383   6.077   0.450   0.431
 5495SOL    HW117384   5.998   0.419   0.483
 5495SOL    HW217385   6.062   0.544   0.400
 5496SOL     OW17386   3.970   6.490   6.130
 5496SOL    HW117387   3.921   6.534   6.054
 5496SOL    HW217388   4.021   6.412   6.094
 5497SOL     OW17389   0.811   0.402   5.655
 5497SOL    HW117390   0.717   0.404   5.622
 5497SOL    HW217391   0.873   0.428   5.580
 5498SOL     OW17392   0.951   5.636   1.484
 5498SOL    HW117393   0.879   5.704   1.471
 5498SOL    HW217394   0.996   5.619   1.397
 5499SOL     OW17395   2.044   0.351   3.670
 5499SOL    HW117396   2.048   0.433   3.728
 5499SOL    HW217397   1.957   0.305   3.685
 5500SOL     OW17398   1.940   6.397   1.485
 5500SOL    HW117399   1.875   6.473   1.485
 5500SOL    HW217400   1.891   6.311   1.475
 5501SOL     OW17401   5.041   3.364   0.289
 5501SOL    HW117402   5.132   3.406   0.290
 5501SOL    HW217403   5.047   3.275   0.245
 5502SOL     OW17404   4.655   3.204   6.943
 5502SOL    HW117405   4.626   3.229   6.850
 5502SOL    HW217406   4.575   3.180   6.997
 5503SOL     OW17407   6.092   3.630   1.018
 5503SOL    HW117408   6.075   3.589   0.929
 5503SOL    HW217409   6.021   3.603   1.082
 5504SOL     OW17410   3.030   2.030   6.945
 5504SOL    HW117411   3.124   2.048   6.915
 5504SOL    HW217412   2.986   1.965   6.883
 5505SOL     OW17413   2.600   5.109   2.220
 5505SOL    HW117414   2.542   5.057   2.282
 5505SOL    HW217415   2.632   5.050   2.146
 5506SOL     OW17416   6.267   2.497   5.889
 5506SOL    HW117417   6.358   2.496   5.847
 5506SOL    HW217418   6.198   2.492   5.817
 5507SOL     OW17419   3.995   6.701   0.553
 5507SOL    HW117420   4.026   6.794   0.572
 5507SOL    HW217421   4.057   6.659   0.488
 5508SOL     OW17422   6.768   1.607   6.418
 5508SOL    HW117423   6.840   1.675   6.434
 5508SOL    HW217424   6.743   1.608   6.321
 5509SOL     OW17425   6.335   4.009   0.121
 5509SOL    HW117426   6.303   4.083   0.061
 5509SOL    HW217427   6.387   3.943   0.068
 5510SOL     OW17428   5.201   5.828   0.156
 5510SOL    HW117429   5.204   5.782   0.067
 5510SOL    HW217430   5.281   5.887   0.166
 5511SOL     OW17431   1.071   2.634   6.301
 5511SOL    HW117432   0.973   2.619   6.297
 5511SOL    HW217433   1.102   2.677   6.216
 5512SOL     OW17434   2.754   6.788   2.431
 5512SOL    HW117435   2.765   6.699   2.386
 5512SOL    HW217436   2.842   6.835   2.433
 5513SOL     OW17437   3.863   4.289   6.548
 5513SOL    HW117438   3.912   4.370   6.583
 5513SOL    HW217439   3.819   4.312   6.462
 5514SOL     OW17440   3.461   1.170   0.724
 5514SOL    HW117441   3.379   1.199   0.774
 5514SOL    HW217442   3.461   1.071   0.714
 5515SOL     OW17443   3.515   5.130   2.639
 5515SOL    HW117444   3.506   5.100   2.544
 5515SOL    HW217445   3.466   5.067   2.699
 5516SOL     OW17446   1.208   2.450   5.991
 5516SOL    HW117447   1.157   2.533   6.011
 5516SOL    HW217448   1.158   2.395   5.925
 5517SOL     OW17449   0.693   1.948   3.824
 5517SOL    HW117450   0.742   1.886   3.763
 5517SOL    HW217451   0.623   1.898   3.874
 5518SOL     OW17452   4.694   4.457   5.832
 5518SOL    HW117453   4.664   4.361   5.839
 5518SOL    HW217454   4.628   4.508   5.778
 5519SOL     OW17455   5.368   2.529   5.805
 5519SOL    HW117456   5.430   2.592   5.853
 5519SOL    HW217457   5.279   2.528   5.851
 5520SOL     OW17458   5.059   5.901   1.301
 5520SOL    HW117459   5.050   5.816   1.354
 5520SOL    HW217460   5.002   5.972   1.343
 5521SOL     OW17461   4.358   0.114   2.179
 5521SOL    HW117462   4.375   0.187   2.113
 5521SOL    HW217463   4.283   0.140   2.240
 5522SOL     OW17464   5.059   6.453   6.726
 5522SOL    HW117465   5.127   6.391   6.763
 5522SOL    HW217466   4.979   6.401   6.696
 5523SOL     OW17467   5.213   2.052   0.517
 5523SOL    HW117468   5.253   2.115   0.450
 5523SOL    HW217469   5.113   2.055   0.509
 5524SOL     OW17470   2.672   1.427   3.244
 5524SOL    HW117471   2.633   1.513   3.277
 5524SOL    HW217472   2.718   1.380   3.319
 5525SOL     OW17473   0.047   1.415   1.163
 5525SOL    HW117474   0.118   1.346   1.151
 5525SOL    HW217475   0.074   1.478   1.235
 5526SOL     OW17476   5.077   4.316   4.263
 5526SOL    HW117477   5.007   4.374   4.305
 5526SOL    HW217478   5.167   4.342   4.299
 5527SOL     OW17479   6.515   0.400   2.504
 5527SOL    HW117480   6.441   0.336   2.522
 5527SOL    HW217481   6.491   0.490   2.541
 5528SOL     OW17482   1.360   1.530   0.009
 5528SOL    HW117483   1.268   1.569   0.006
 5528SOL    HW217484   1.414   1.578   0.077
 5529SOL     OW17485   3.433   0.217   1.863
 5529SOL    HW117486   3.413   0.182   1.771
 5529SOL    HW217487   3.532   0.220   1.876
 5530SOL     OW17488   0.808   1.586   1.447
 5530SOL    HW117489   0.769   1.553   1.361
 5530SOL    HW217490   0.895   1.632   1.429
 5531SOL     OW17491   1.405   4.720   0.273
 5531SOL    HW117492   1.434   4.721   0.368
 5531SOL    HW217493   1.438   4.636   0.229
 5532SOL     OW17494   6.999   4.370   6.008
 5532SOL    HW117495   0.072   4.334   6.028
 5532SOL    HW217496   6.985   4.455   6.060
 5533SOL     OW17497   3.443   0.843   2.950
 5533SOL    HW117498   3.396   0.889   3.025
 5533SOL    HW217499   3.428   0.894   2.865
 5534SOL     OW17500   1.619   0.266   4.331
 5534SOL    HW117501   1.567   0.326   4.271
 5534SOL    HW217502   1.577   0.264   4.421
 5535SOL     OW17503   0.323   2.017   2.321
 5535SOL    HW117504   0.328   2.079   2.399
 5535SOL    HW217505   0.239   1.963   2.327
 5536SOL     OW17506   4.849   0.043   4.480
 5536SOL    HW117507   4.872   0.110   4.550
 5536SOL    HW217508   4.934   0.002   4.444
 5537SOL     OW17509   2.516   2.450   2.991
 5537SOL    HW117510   2.494   2.372   2.931
 5537SOL    HW217511   2.441   2.516   2.987
 5538SOL     OW17512   4.377   5.717   4.009
 5538SOL    HW117513   4.347   5.734   4.103
 5538SOL    HW217514   4.473   5.691   4.009
 5539SOL     OW17515   2.216   4.221   0.174
 5539SOL    HW117516   2.310   4.215   0.139
 5539SOL    HW217517   2.153   4.180   0.107
 5540SOL     OW17518   3.611   5.561   1.092
 5540SOL    HW117519   3.676   5.549   1.018
 5540SOL    HW217520   3.586   5.658   1.100
 5541SOL     OW17521   4.695   0.513   6.558
 5541SOL    HW117522   4.689   0.495   6.460
 5541SOL    HW217523   4.735   0.603   6.573
 5542SOL     OW17524   5.525   4.558   6.265
 5542SOL    HW117525   5.503   4.537   6.170
 5542SOL    HW217526   5.441   4.559   6.320
 5543SOL     OW17527   0.375   2.085   5.032
 5543SOL    HW117528   0.344   2.180   5.025
 5543SOL    HW217529   0.296   2.025   5.041
 5544SOL     OW17530   5.503   0.408   6.855
 5544SOL    HW117531   5.469   0.485   6.909
 5544SOL    HW217532   5.462   0.411   6.763
 5545SOL     OW17533   2.403   2.374   1.922
 5545SOL    HW117534   2.312   2.343   1.895
 5545SOL    HW217535   2.407   2.387   2.021
 5546SOL     OW17536   3.892   5.708   5.098
 5546SOL    HW117537   3.953   5.717   5.020
 5546SOL    HW217538   3.804   5.670   5.068
 5547SOL     OW17539   3.150   5.327   3.776
 5547SOL    HW117540   3.113   5.250   3.827
 5547SOL    HW217541   3.120   5.322   3.681
 5548SOL     OW17542   0.124   1.927   4.788
 5548SOL    HW117543   0.136   1.918   4.887
 5548SOL    HW217544   0.040   1.977   4.768
 5549SOL     OW17545   3.732   5.238   6.253
 5549SOL    HW117546   3.706   5.294   6.175
 5549SOL    HW217547   3.831   5.223   6.252
 5550SOL     OW17548   2.750   6.276   2.891
 5550SOL    HW117549   2.795   6.364   2.901
 5550SOL    HW217550   2.654   6.285   2.920
 5551SOL     OW17551   0.790   0.972   2.420
 5551SOL    HW117552   0.746   1.023   2.494
 5551SOL    HW217553   0.731   0.974   2.339
 5552SOL     OW17554   2.089   2.445   2.599
 5552SOL    HW117555   2.141   2.529   2.613
 5552SOL    HW217556   2.140   2.384   2.538
 5553SOL     OW17557   4.952   6.188   6.313
 5553SOL    HW117558   5.014   6.129   6.262
 5553SOL    HW217559   4.978   6.190   6.409
 5554SOL     OW17560   3.517   0.652   4.731
 5554SOL    HW117561   3.526   0.616   4.639
 5554SOL    HW217562   3.456   0.592   4.784
 5555SOL     OW17563   1.092   6.061   1.711
 5555SOL    HW117564   1.147   6.029   1.633
 5555SOL    HW217565   1.154   6.084   1.786
 5556SOL     OW17566   6.972   1.252   5.311
 5556SOL    HW117567   6.903   1.179   5.308
 5556SOL    HW217568   0.014   1.245   5.231
 5557SOL     OW17569   3.488   0.773   2.131
 5557SOL    HW117570   3.560   0.799   2.067
 5557SOL    HW217571   3.420   0.846   2.138
 5558SOL     OW17572   5.098   2.524   5.864
 5558SOL    HW117573   5.004   2.527   5.829
 5558SOL    HW217574   5.110   2.595   5.933
 5559SOL     OW17575   2.647   0.475   0.922
 5559SOL    HW117576   2.746   0.489   0.920
 5559SOL    HW217577   2.601   0.564   0.926
 5560SOL     OW17578   0.016   1.501   4.871
 5560SOL    HW117579   0.023   1.565   4.947
 5560SOL    HW217580   0.058   1.541   4.790
 5561SOL     OW17581   1.861   4.404   1.928
 5561SOL    HW117582   1.836   4.309   1.909
 5561SOL    HW217583   1.927   4.435   1.860
 5562SOL     OW17584   3.700   2.224   0.126
 5562SOL    HW117585   3.662   2.315   0.144
 5562SOL    HW217586   3.750   2.226   0.039
 5563SOL     OW17587   3.958   4.384   1.111
 5563SOL    HW117588   3.935   4.462   1.169
 5563SOL    HW217589   3.949   4.300   1.164
 5564SOL     OW17590   6.109   1.622   2.488
 5564SOL    HW117591   6.208   1.630   2.471
 5564SOL    HW217592   6.071   1.714   2.502
 5565SOL     OW17593   1.548   3.100   5.721
 5565SOL    HW117594   1.509   3.030   5.781
 5565SOL    HW217595   1.529   3.077   5.626
 5566SOL     OW17596   2.484   4.318   0.535
 5566SOL    HW117597   2.393   4.310   0.496
 5566SOL    HW217598   2.525   4.406   0.508
 5567SOL     OW17599   1.405   5.304   3.182
 5567SOL    HW117600   1.465   5.246   3.126
 5567SOL    HW217601   1.406   5.272   3.277
 5568SOL     OW17602   3.721   2.537   0.160
 5568SOL    HW117603   3.758   2.629   0.150
 5568SOL    HW217604   3.778   2.486   0.225
 5569SOL     OW17605   4.817   1.730   6.587
 5569SOL    HW117606   4.848   1.800   6.651
 5569SOL    HW217607   4.788   1.649   6.637
 5570SOL     OW17608   1.455   2.273   5.972
 5570SOL    HW117609   1.442   2.197   6.036
 5570SOL    HW217610   1.390   2.346   5.993
 5571SOL     OW17611   0.342   4.636   6.053
 5571SOL    HW117612   0.382   4.648   6.143
 5571SOL    HW217613   0.406   4.668   5.983
 5572SOL     OW17614   0.719   2.854   6.079
 5572SOL    HW117615   0.812   2.864   6.044
 5572SOL    HW217616   0.679   2.944   6.096
 5573SOL     OW17617   6.828   3.638   6.326
 5573SOL    HW117618   6.772   3.620   6.406
 5573SOL    HW217619   6.795   3.582   6.249
 5574SOL     OW17620   1.801   6.044   4.417
 5574SOL    HW117621   1.721   6.100   4.438
 5574SOL    HW217622   1.878   6.103   4.393
 5575SOL     OW17623   1.087   1.544   2.967
 5575SOL    HW117624   1.037   1.598   2.900
 5575SOL    HW217625   1.181   1.529   2.935
 5576SOL     OW17626   5.064   6.853   5.915
 5576SOL    HW117627   5.159   6.885   5.914
 5576SOL    HW217628   5.046   6.799   5.833
 5577SOL     OW17629   1.196   4.723   4.873
 5577SOL    HW117630   1.207   4.817   4.904
 5577SOL    HW217631   1.100   4.704   4.855
 5578SOL     OW17632   4.022   1.804   6.095
 5578SOL    HW117633   3.996   1.899   6.111
 5578SOL    HW217634   4.037   1.758   6.182
 5579SOL     OW17635   4.913   4.471   2.737
 5579SOL    HW117636   4.844   4.403   2.711
 5579SOL    HW217637   4.899   4.498   2.832
 5580SOL     OW17638   6.287   1.478   1.759
 5580SOL    HW117639   6.287   1.533   1.675
 5580SOL    HW217640   6.339   1.526   1.830
 5581SOL     OW17641   2.848   3.253   0.728
 5581SOL    HW117642   2.847   3.154   0.720
 5581SOL    HW217643   2.893   3.279   0.814
 5582SOL     OW17644   2.839   3.461   4.033
 5582SOL    HW117645   2.769   3.506   4.089
 5582SOL    HW217646   2.884   3.529   3.974
 5583SOL     OW17647   3.867   0.592   6.980
 5583SOL    HW117648   3.866   0.494   6.960
 5583SOL    HW217649   3.813   0.640   6.911
 5584SOL     OW17650   4.920   3.143   4.217
 5584SOL    HW117651   4.872   3.056   4.201
 5584SOL    HW217652   5.013   3.137   4.180
 5585SOL     OW17653   0.305   0.671   3.741
 5585SOL    HW117654   0.289   0.573   3.744
 5585SOL    HW217655   0.218   0.719   3.755
 5586SOL     OW17656   1.690   0.553   6.852
 5586SOL    HW117657   1.744   0.631   6.884
 5586SOL    HW217658   1.724   0.469   6.894
 5587SOL     OW17659   3.823   6.049   3.289
 5587SOL    HW117660   3.870   6.011   3.209
 5587SOL    HW217661   3.843   5.991   3.369
 5588SOL     OW17662   4.851   6.138   6.899
 5588SOL    HW117663   4.751   6.147   6.901
 5588SOL    HW217664   4.887   6.152   6.991
 5589SOL     OW17665   1.645   3.138   7.012
 5589SOL    HW117666   1.545   3.142   7.008
 5589SOL    HW217667   1.679   3.215   0.048
 5590SOL     OW17668   6.598   0.320   3.313
 5590SOL    HW117669   6.539   0.375   3.255
 5590SOL    HW217670   6.683   0.368   3.331
 5591SOL     OW17671   5.268   0.965   6.542
 5591SOL    HW117672   5.294   0.987   6.636
 5591SOL    HW217673   5.178   1.003   6.522
 5592SOL     OW17674   1.509   3.164   3.051
 5592SOL    HW117675   1.528   3.066   3.050
 5592SOL    HW217676   1.558   3.207   3.127
 5593SOL     OW17677   2.210   3.581   5.245
 5593SOL    HW117678   2.202   3.500   5.302
 5593SOL    HW217679   2.182   3.560   5.152
 5594SOL     OW17680   2.752   1.185   5.818
 5594SOL    HW117681   2.781   1.115   5.753
 5594SOL    HW217682   2.709   1.260   5.768
 5595SOL     OW17683   6.734   3.315   0.010
 5595SOL    HW117684   6.649   3.367   0.020
 5595SOL    HW217685   6.773   3.333   6.937
 5596SOL     OW17686   4.865   3.828   4.536
 5596SOL    HW117687   4.844   3.730   4.534
 5596SOL    HW217688   4.889   3.856   4.629
 5597SOL     OW17689   0.227   1.645   6.688
 5597SOL    HW117690   0.143   1.640   6.634
 5597SOL    HW217691   0.207   1.622   6.783
 5598SOL     OW17692   6.638   6.806   3.411
 5598SOL    HW117693   6.636   6.863   3.328
 5598SOL    HW217694   6.710   6.837   3.472
 5599SOL     OW17695   5.226   3.434   3.196
 5599SOL    HW117696   5.256   3.417   3.290
 5599SOL    HW217697   5.148   3.496   3.196
 5600SOL     OW17698   1.871   3.251   1.987
 5600SOL    HW117699   1.775   3.275   1.968
 5600SOL    HW217700   1.883   3.152   1.979
 5601SOL     OW17701   5.506   2.595   6.277
 5601SOL    HW117702   5.564   2.652   6.335
 5601SOL    HW217703   5.416   2.586   6.319
 5602SOL     OW17704   5.800   1.224   2.775
 5602SOL    HW117705   5.799   1.246   2.873
 5602SOL    HW217706   5.746   1.292   2.726
 5603SOL     OW17707   3.464   1.528   5.954
 5603SOL    HW117708   3.411   1.613   5.953
 5603SOL    HW217709   3.524   1.524   5.875
 5604SOL     OW17710   1.345   4.714   3.558
 5604SOL    HW117711   1.427   4.656   3.562
 5604SOL    HW217712   1.264   4.658   3.573
 5605SOL     OW17713   3.258   6.328   4.631
 5605SOL    HW117714   3.327   6.359   4.565
 5605SOL    HW217715   3.181   6.287   4.582
 5606SOL     OW17716   4.522   3.872   1.345
 5606SOL    HW117717   4.432   3.914   1.356
 5606SOL    HW217718   4.516   3.774   1.362
 5607SOL     OW17719   1.197   2.134   2.536
 5607SOL    HW117720   1.109   2.179   2.523
 5607SOL    HW217721   1.268   2.186   2.490
 5608SOL     OW17722   6.491   6.557   3.733
 5608SOL    HW117723   6.397   6.528   3.749
 5608SOL    HW217724   6.554   6.486   3.768
 5609SOL     OW17725   6.689   1.245   0.490
 5609SOL    HW117726   6.631   1.178   0.443
 5609SOL    HW217727   6.677   1.335   0.447
 5610SOL     OW17728   5.471   6.571   6.532
 5610SOL    HW117729   5.513   6.616   6.453
 5610SOL    HW217730   5.537   6.510   6.575
 5611SOL     OW17731   6.709   3.751   1.622
 5611SOL    HW117732   6.686   3.751   1.525
 5611SOL    HW217733   6.637   3.705   1.673
 5612SOL     OW17734   4.853   2.408   1.547
 5612SOL    HW117735   4.889   2.315   1.561
 5612SOL    HW217736   4.789   2.430   1.621
 5613SOL     OW17737   6.765   5.274   5.164
 5613SOL    HW117738   6.720   5.250   5.250
 5613SOL    HW217739   6.834   5.205   5.142
 5614SOL     OW17740   5.791   2.527   4.608
 5614SOL    HW117741   5.692   2.517   4.599
 5614SOL    HW217742   5.819   2.500   4.700
 5615SOL     OW17743   0.798   3.353   2.646
 5615SOL    HW117744   0.797   3.260   2.682
 5615SOL    HW217745   0.760   3.354   2.553
 5616SOL     OW17746   1.892   3.098   1.427
 5616SOL    HW117747   1.932   3.163   1.492
 5616SOL    HW217748   1.853   3.148   1.350
 5617SOL     OW17749   0.407   5.125   5.115
 5617SOL    HW117750   0.501   5.113   5.083
 5617SOL    HW217751   0.392   5.070   5.197
 5618SOL     OW17752   4.863   0.839   3.014
 5618SOL    HW117753   4.781   0.893   3.000
 5618SOL    HW217754   4.939   0.879   2.962
 5619SOL     OW17755   3.513   4.165   4.199
 5619SOL    HW117756   3.464   4.242   4.160
 5619SOL    HW217757   3.484   4.080   4.154
 5620SOL     OW17758   4.421   4.997   5.447
 5620SOL    HW117759   4.386   4.904   5.442
 5620SOL    HW217760   4.486   5.004   5.523
 5621SOL     OW17761   1.122   3.488   6.761
 5621SOL    HW117762   1.052   3.439   6.813
 5621SOL    HW217763   1.212   3.452   6.785
 5622SOL     OW17764   5.922   5.745   3.083
 5622SOL    HW117765   5.999   5.683   3.073
 5622SOL    HW217766   5.861   5.736   3.004
 5623SOL     OW17767   4.623   4.824   3.157
 5623SOL    HW117768   4.559   4.894   3.188
 5623SOL    HW217769   4.601   4.797   3.063
 5624SOL     OW17770   4.878   4.015   3.799
 5624SOL    HW117771   4.925   4.048   3.880
 5624SOL    HW217772   4.900   4.074   3.721
 5625SOL     OW17773   3.801   6.880   6.290
 5625SOL    HW117774   3.896   6.855   6.309
 5625SOL    HW217775   3.741   6.807   6.321
 5626SOL     OW17776   2.171   4.424   5.667
 5626SOL    HW117777   2.255   4.473   5.644
 5626SOL    HW217778   2.124   4.472   5.741
 5627SOL     OW17779   1.158   5.460   0.996
 5627SOL    HW117780   1.253   5.464   0.965
 5627SOL    HW217781   1.103   5.410   0.930
 5628SOL     OW17782   0.646   2.439   0.434
 5628SOL    HW117783   0.737   2.473   0.409
 5628SOL    HW217784   0.578   2.510   0.416
 5629SOL     OW17785   0.236   3.476   4.475
 5629SOL    HW117786   0.303   3.540   4.512
 5629SOL    HW217787   0.280   3.418   4.406
 5630SOL     OW17788   1.099   4.487   6.850
 5630SOL    HW117789   1.082   4.474   6.947
 5630SOL    HW217790   1.181   4.542   6.837
 5631SOL     OW17791   3.428   0.513   2.856
 5631SOL    HW117792   3.401   0.603   2.891
 5631SOL    HW217793   3.366   0.443   2.892
 5632SOL     OW17794   3.495   6.903   6.604
 5632SOL    HW117795   3.459   6.996   6.595
 5632SOL    HW217796   3.419   6.838   6.607
 5633SOL     OW17797   1.461   5.520   4.967
 5633SOL    HW117798   1.397   5.478   4.903
 5633SOL    HW217799   1.545   5.465   4.971
 5634SOL     OW17800   2.554   0.268   1.955
 5634SOL    HW117801   2.474   0.312   1.995
 5634SOL    HW217802   2.548   0.271   1.855
 5635SOL     OW17803   3.943   0.205   2.116
 5635SOL    HW117804   3.995   0.186   2.033
 5635SOL    HW217805   4.002   0.252   2.182
 5636SOL     OW17806   4.813   0.578   4.437
 5636SOL    HW117807   4.743   0.575   4.366
 5636SOL    HW217808   4.865   0.492   4.437
 5637SOL     OW17809   5.737   7.004   5.333
 5637SOL    HW117810   5.660   6.963   5.283
 5637SOL    HW217811   5.704   0.019   5.421
 5638SOL     OW17812   1.001   5.540   6.710
 5638SOL    HW117813   1.002   5.640   6.704
 5638SOL    HW217814   1.087   5.508   6.748
 5639SOL     OW17815   3.112   7.011   1.880
 5639SOL    HW117816   3.149   0.031   1.795
 5639SOL    HW217817   3.045   0.055   1.919
 5640SOL     OW17818   3.877   6.620   4.116
 5640SOL    HW117819   3.913   6.705   4.156
 5640SOL    HW217820   3.954   6.560   4.092
 5641SOL     OW17821   6.739   5.038   3.446
 5641SOL    HW117822   6.785   5.092   3.375
 5641SOL    HW217823   6.688   5.099   3.506
 5642SOL     OW17824   2.336   1.817   6.378
 5642SOL    HW117825   2.302   1.823   6.472
 5642SOL    HW217826   2.282   1.877   6.320
 5643SOL     OW17827   4.851   2.967   3.275
 5643SOL    HW117828   4.861   3.066   3.276
 5643SOL    HW217829   4.903   2.927   3.351
 5644SOL     OW17830   3.233   0.768   6.111
 5644SOL    HW117831   3.302   0.753   6.040
 5644SOL    HW217832   3.275   0.810   6.191
 5645SOL     OW17833   6.272   6.220   3.838
 5645SOL    HW117834   6.225   6.163   3.771
 5645SOL    HW217835   6.276   6.314   3.806
 5646SOL     OW17836   6.727   0.669   2.520
 5646SOL    HW117837   6.727   0.620   2.607
 5646SOL    HW217838   6.634   0.701   2.500
 5647SOL     OW17839   5.891   3.570   6.126
 5647SOL    HW117840   5.871   3.475   6.103
 5647SOL    HW217841   5.868   3.629   6.049
 5648SOL     OW17842   1.622   1.770   4.003
 5648SOL    HW117843   1.705   1.825   3.998
 5648SOL    HW217844   1.607   1.724   3.915
 5649SOL     OW17845   6.772   0.495   4.287
 5649SOL    HW117846   6.854   0.552   4.289
 5649SOL    HW217847   6.752   0.461   4.379
 5650SOL     OW17848   6.179   4.891   5.004
 5650SOL    HW117849   6.115   4.857   5.073
 5650SOL    HW217850   6.212   4.981   5.031
 5651SOL     OW17851   6.187   0.412   2.463
 5651SOL    HW117852   6.176   0.441   2.367
 5651SOL    HW217853   6.136   0.474   2.522
 5652SOL     OW17854   4.617   4.189   0.019
 5652SOL    HW117855   4.568   4.157   6.956
 5652SOL    HW217856   4.592   4.283   0.039
 5653SOL     OW17857   2.236   6.178   6.908
 5653SOL    HW117858   2.256   6.256   6.967
 5653SOL    HW217859   2.264   6.199   6.814
 5654SOL     OW17860   2.257   6.739   0.469
 5654SOL    HW117861   2.199   6.738   0.387
 5654SOL    HW217862   2.222   6.807   0.533
 5655SOL     OW17863   6.524   5.666   2.616
 5655SOL    HW117864   6.616   5.680   2.581
 5655SOL    HW217865   6.486   5.583   2.575
 5656SOL     OW17866   3.461   4.994   6.187
 5656SOL    HW117867   3.476   5.067   6.254
 5656SOL    HW217868   3.471   4.905   6.232
 5657SOL     OW17869   4.774   5.490   2.033
 5657SOL    HW117870   4.699   5.465   1.972
 5657SOL    HW217871   4.847   5.422   2.026
 5658SOL     OW17872   4.727   6.256   6.116
 5658SOL    HW117873   4.640   6.216   6.147
 5658SOL    HW217874   4.799   6.233   6.182
 5659SOL     OW17875   3.377   3.902   2.164
 5659SOL    HW117876   3.354   3.852   2.248
 5659SOL    HW217877   3.448   3.970   2.184
 5660SOL     OW17878   6.788   5.753   1.447
 5660SOL    HW117879   6.781   5.824   1.517
 5660SOL    HW217880   6.786   5.795   1.357
 5661SOL     OW17881   6.451   6.120   4.533
 5661SOL    HW117882   6.399   6.047   4.576
 5661SOL    HW217883   6.549   6.108   4.552
 5662SOL     OW17884   1.490   3.966   4.381
 5662SOL    HW117885   1.439   3.925   4.457
 5662SOL    HW217886   1.549   4.039   4.415
 5663SOL     OW17887   2.337   3.664   0.636
 5663SOL    HW117888   2.374   3.607   0.710
 5663SOL    HW217889   2.346   3.761   0.661
 5664SOL     OW17890   6.462   6.633   1.512
 5664SOL    HW117891   6.389   6.682   1.464
 5664SOL    HW217892   6.429   6.605   1.602
 5665SOL     OW17893   1.999   0.785   5.552
 5665SOL    HW117894   1.916   0.837   5.574
 5665SOL    HW217895   2.073   0.815   5.611
 5666SOL     OW17896   5.621   6.173   6.381
 5666SOL    HW117897   5.578   6.144   6.467
 5666SOL    HW217898   5.684   6.101   6.350
 5667SOL     OW17899   5.368   4.286   2.614
 5667SOL    HW117900   5.323   4.207   2.572
 5667SOL    HW217901   5.303   4.362   2.621
 5668SOL     OW17902   6.238   2.369   6.928
 5668SOL    HW117903   6.273   2.413   7.010
 5668SOL    HW217904   6.274   2.416   6.847
 5669SOL     OW17905   6.753   2.470   4.909
 5669SOL    HW117906   6.757   2.556   4.961
 5669SOL    HW217907   6.749   2.491   4.811
 5670SOL     OW17908   1.654   3.006   1.973
 5670SOL    HW117909   1.620   3.021   2.065
 5670SOL    HW217910   1.589   3.042   1.906
 5671SOL     OW17911   1.027   0.726   5.767
 5671SOL    HW117912   0.960   0.662   5.805
 5671SOL    HW217913   1.092   0.752   5.838
 5672SOL     OW17914   4.213   4.376   5.669
 5672SOL    HW117915   4.191   4.289   5.714
 5672SOL    HW217916   4.182   4.373   5.574
 5673SOL     OW17917   1.717   6.706   1.758
 5673SOL    HW117918   1.700   6.785   1.816
 5673SOL    HW217919   1.763   6.634   1.811
 5674SOL     OW17920   0.894   2.870   0.986
 5674SOL    HW117921   0.931   2.840   0.897
 5674SOL    HW217922   0.969   2.902   1.044
 5675SOL     OW17923   4.410   0.892   5.701
 5675SOL    HW117924   4.396   0.982   5.660
 5675SOL    HW217925   4.370   0.890   5.793
 5676SOL     OW17926   2.181   6.324   2.506
 5676SOL    HW117927   2.203   6.244   2.450
 5676SOL    HW217928   2.197   6.303   2.602
 5677SOL     OW17929   6.428   0.128   2.627
 5677SOL    HW117930   6.422   0.057   2.557
 5677SOL    HW217931   6.519   0.126   2.668
 5678SOL     OW17932   1.311   5.174   2.878
 5678SOL    HW117933   1.345   5.267   2.893
 5678SOL    HW217934   1.347   5.139   2.791
 5679SOL     OW17935   3.693   5.816   5.511
 5679SOL    HW117936   3.685   5.909   5.476
 5679SOL    HW217937   3.788   5.798   5.538
 5680SOL     OW17938   1.886   6.657   6.510
 5680SOL    HW117939   1.786   6.653   6.508
 5680SOL    HW217940   1.917   6.735   6.456
 5681SOL     OW17941   2.767   3.742   0.189
 5681SOL    HW117942   2.842   3.799   0.154
 5681SOL    HW217943   2.758   3.756   0.287
 5682SOL     OW17944   1.867   3.814   4.578
 5682SOL    HW117945   1.934   3.756   4.623
 5682SOL    HW217946   1.784   3.761   4.560
 5683SOL     OW17947   4.207   2.999   5.394
 5683SOL    HW117948   4.180   3.013   5.489
 5683SOL    HW217949   4.220   2.902   5.376
 5684SOL     OW17950   3.065   3.962   3.325
 5684SOL    HW117951   3.153   3.996   3.357
 5684SOL    HW217952   3.058   3.976   3.226
 5685SOL     OW17953   0.180   6.576   1.397
 5685SOL    HW117954   0.144   6.669   1.390
 5685SOL    HW217955   0.273   6.574   1.361
 5686SOL     OW17956   3.158   4.602   6.472
 5686SOL    HW117957   3.063   4.581   6.446
 5686SOL    HW217958   3.163   4.698   6.499
 5687SOL     OW17959   4.595   6.099   6.452
 5687SOL    HW117960   4.540   6.182   6.462
 5687SOL    HW217961   4.536   6.020   6.437
 5688SOL     OW17962   5.117   1.577   2.434
 5688SOL    HW117963   5.105   1.509   2.360
 5688SOL    HW217964   5.209   1.614   2.430
 5689SOL     OW17965   3.725   3.001   5.366
 5689SOL    HW117966   3.636   2.963   5.391
 5689SOL    HW217967   3.798   2.944   5.406
 5690SOL     OW17968   3.659   0.728   3.066
 5690SOL    HW117969   3.569   0.765   3.043
 5690SOL    HW217970   3.651   0.631   3.088
 5691SOL     OW17971   3.523   0.572   4.038
 5691SOL    HW117972   3.585   0.648   4.017
 5691SOL    HW217973   3.576   0.492   4.065
 5692SOL     OW17974   5.742   2.858   0.024
 5692SOL    HW117975   5.784   2.824   6.958
 5692SOL    HW217976   5.758   2.792   0.098
 5693SOL     OW17977   5.284   3.030   1.908
 5693SOL    HW117978   5.308   3.111   1.854
 5693SOL    HW217979   5.344   3.025   1.988
 5694SOL     OW17980   1.384   2.239   4.887
 5694SOL    HW117981   1.302   2.226   4.944
 5694SOL    HW217982   1.453   2.287   4.940
 5695SOL     OW17983   1.877   3.733   3.238
 5695SOL    HW117984   1.878   3.754   3.335
 5695SOL    HW217985   1.956   3.675   3.215
 5696SOL     OW17986   3.526   1.395   6.718
 5696SOL    HW117987   3.569   1.330   6.656
 5696SOL    HW217988   3.528   1.358   6.811
 5697SOL     OW17989   6.753   3.899   0.374
 5697SOL    HW117990   6.826   3.916   0.441
 5697SOL    HW217991   6.670   3.869   0.421
 5698SOL     OW17992   1.529   4.138   3.777
 5698SOL    HW117993   1.476   4.164   3.696
 5698SOL    HW217994   1.599   4.072   3.751
 5699SOL     OW17995   0.711   2.305   5.117
 5699SOL    HW117996   0.621   2.285   5.156
 5699SOL    HW217997   0.712   2.283   5.020
 5700SOL     OW17998   1.228   4.829   4.585
 5700SOL    HW117999   1.155   4.819   4.518
 5700SOL    HW218000   1.202   4.784   4.671
 5701SOL     OW18001   4.755   2.836   2.864
 5701SOL    HW118002   4.836   2.803   2.816
 5701SOL    HW218003   4.682   2.854   2.798
 5702SOL     OW18004   3.721   0.316   0.260
 5702SOL    HW118005   3.769   0.403   0.258
 5702SOL    HW218006   3.787   0.241   0.260
 5703SOL     OW18007   4.938   4.270   2.297
 5703SOL    HW118008   4.846   4.258   2.260
 5703SOL    HW218009   4.966   4.187   2.346
 5704SOL     OW18010   5.277   4.638   3.293
 5704SOL    HW118011   5.320   4.649   3.204
 5704SOL    HW218012   5.316   4.703   3.358
 5705SOL     OW18013   6.761   0.927   4.054
 5705SOL    HW118014   6.768   1.007   4.113
 5705SOL    HW218015   6.664   0.904   4.041
 5706SOL     OW18016   2.353   1.457   6.902
 5706SOL    HW118017   2.349   1.459   7.002
 5706SOL    HW218018   2.437   1.413   6.873
 5707SOL     OW18019   3.744   1.400   0.866
 5707SOL    HW118020   3.726   1.397   0.767
 5707SOL    HW218021   3.673   1.350   0.914
 5708SOL     OW18022   0.810   6.950   0.791
 5708SOL    HW118023   0.737   6.896   0.832
 5708SOL    HW218024   0.830   0.012   0.848
 5709SOL     OW18025   0.877   2.179   0.993
 5709SOL    HW118026   0.823   2.255   0.958
 5709SOL    HW218027   0.937   2.212   1.067
 5710SOL     OW18028   3.537   4.870   6.890
 5710SOL    HW118029   3.455   4.823   6.923
 5710SOL    HW218030   3.538   4.869   6.790
 5711SOL     OW18031   5.362   1.478   4.826
 5711SOL    HW118032   5.399   1.569   4.848
 5711SOL    HW218033   5.434   1.410   4.838
 5712SOL     OW18034   5.650   6.755   6.383
 5712SOL    HW118035   5.641   6.824   6.455
 5712SOL    HW218036   5.596   6.783   6.304
 5713SOL     OW18037   0.526   3.256   2.709
 5713SOL    HW118038   0.616   3.276   2.670
 5713SOL    HW218039   0.504   3.324   2.779
 5714SOL     OW18040   2.185   0.560   0.100
 5714SOL    HW118041   2.245   0.496   0.053
 5714SOL    HW218042   2.101   0.514   0.128
 5715SOL     OW18043   0.685   6.477   3.737
 5715SOL    HW118044   0.680   6.440   3.644
 5715SOL    HW218045   0.604   6.532   3.756
 5716SOL     OW18046   2.034   2.192   5.415
 5716SOL    HW118047   2.006   2.245   5.335
 5716SOL    HW218048   1.955   2.139   5.449
 5717SOL     OW18049   0.851   3.265   5.837
 5717SOL    HW118050   0.776   3.203   5.815
 5717SOL    HW218051   0.922   3.259   5.767
 5718SOL     OW18052   3.124   5.876   5.972
 5718SOL    HW118053   3.157   5.790   5.933
 5718SOL    HW218054   3.026   5.868   5.991
 5719SOL     OW18055   2.487   0.848   6.971
 5719SOL    HW118056   2.547   0.768   6.983
 5719SOL    HW218057   2.538   0.931   6.993
 5720SOL     OW18058   1.839   6.037   3.763
 5720SOL    HW118059   1.884   6.011   3.678
 5720SOL    HW218060   1.865   5.974   3.836
 5721SOL     OW18061   6.468   5.007   6.852
 5721SOL    HW118062   6.491   4.946   6.928
 5721SOL    HW218063   6.551   5.035   6.805
 5722SOL     OW18064   5.229   1.129   4.773
 5722SOL    HW118065   5.316   1.133   4.823
 5722SOL    HW218066   5.235   1.187   4.692
 5723SOL     OW18067   0.006   4.656   1.269
 5723SOL    HW118068   6.940   4.705   1.247
 5723SOL    HW218069   0.081   4.693   1.215
 5724SOL     OW18070   4.968   2.966   5.850
 5724SOL    HW118071   5.036   2.995   5.783
 5724SOL    HW218072   4.876   2.988   5.816
 5725SOL     OW18073   5.542   6.639   5.276
 5725SOL    HW118074   5.492   6.600   5.198
 5725SOL    HW218075   5.615   6.577   5.303
 5726SOL     OW18076   3.711   5.187   5.824
 5726SOL    HW118077   3.625   5.234   5.841
 5726SOL    HW218078   3.773   5.247   5.774
 5727SOL     OW18079   6.029   2.134   3.696
 5727SOL    HW118080   5.981   2.206   3.646
 5727SOL    HW218081   6.039   2.161   3.792
 5728SOL     OW18082   3.850   0.844   4.565
 5728SOL    HW118083   3.902   0.929   4.560
 5728SOL    HW218084   3.817   0.830   4.659
 5729SOL     OW18085   2.407   2.313   4.196
 5729SOL    HW118086   2.430   2.249   4.269
 5729SOL    HW218087   2.328   2.369   4.224
 5730SOL     OW18088   4.229   4.497   6.896
 5730SOL    HW118089   4.212   4.548   6.980
 5730SOL    HW218090   4.328   4.495   6.878
 5731SOL     OW18091   4.439   0.767   4.828
 5731SOL    HW118092   4.450   0.772   4.927
 5731SOL    HW218093   4.495   0.836   4.784
 5732SOL     OW18094   5.953   4.354   3.943
 5732SOL    HW118095   5.898   4.304   3.877
 5732SOL    HW218096   6.044   4.372   3.904
 5733SOL     OW18097   2.345   6.693   1.743
 5733SOL    HW118098   2.263   6.637   1.738
 5733SOL    HW218099   2.385   6.684   1.834
 5734SOL     OW18100   1.923   6.873   5.788
 5734SOL    HW118101   1.843   6.871   5.729
 5734SOL    HW218102   1.932   6.784   5.835
 5735SOL     OW18103   5.420   1.607   0.440
 5735SOL    HW118104   5.422   1.606   0.540
 5735SOL    HW218105   5.432   1.701   0.407
 5736SOL     OW18106   5.191   3.665   6.778
 5736SOL    HW118107   5.242   3.684   6.693
 5736SOL    HW218108   5.133   3.586   6.764
 5737SOL     OW18109   5.196   6.029   2.532
 5737SOL    HW118110   5.284   6.045   2.576
 5737SOL    HW218111   5.128   6.007   2.601
 5738SOL     OW18112   3.210   1.322   1.279
 5738SOL    HW118113   3.146   1.346   1.352
 5738SOL    HW218114   3.292   1.378   1.286
 5739SOL     OW18115   2.283   0.958   5.546
 5739SOL    HW118116   2.377   0.994   5.544
 5739SOL    HW218117   2.227   1.009   5.481
 5740SOL     OW18118   4.834   3.102   2.833
 5740SOL    HW118119   4.775   3.022   2.843
 5740SOL    HW218120   4.868   3.107   2.739
 5741SOL     OW18121   1.615   3.398   3.965
 5741SOL    HW118122   1.672   3.464   4.013
 5741SOL    HW218123   1.672   3.344   3.903
 5742SOL     OW18124   5.824   5.346   2.291
 5742SOL    HW118125   5.910   5.366   2.245
 5742SOL    HW218126   5.821   5.395   2.379
 5743SOL     OW18127   4.143   6.348   6.725
 5743SOL    HW118128   4.231   6.333   6.679
 5743SOL    HW218129   4.100   6.430   6.688
 5744SOL     OW18130   5.565   5.922   3.200
 5744SOL    HW118131   5.539   5.865   3.279
 5744SOL    HW218132   5.515   5.891   3.119
 5745SOL     OW18133   1.112   3.758   2.229
 5745SOL    HW118134   1.037   3.782   2.168
 5745SOL    HW218135   1.076   3.732   2.319
 5746SOL     OW18136   5.685   0.503   3.407
 5746SOL    HW118137   5.778   0.472   3.424
 5746SOL    HW218138   5.683   0.603   3.402
 5747SOL     OW18139   2.256   6.876   1.580
 5747SOL    HW118140   2.289   6.824   1.659
 5747SOL    HW218141   2.222   6.813   1.511
 5748SOL     OW18142   6.296   6.748   0.167
 5748SOL    HW118143   6.312   6.654   0.136
 5748SOL    HW218144   6.255   6.746   0.258
 5749SOL     OW18145   2.298   6.486   6.606
 5749SOL    HW118146   2.230   6.518   6.541
 5749SOL    HW218147   2.318   6.560   6.671
 5750SOL     OW18148   6.330   2.869   3.849
 5750SOL    HW118149   6.271   2.789   3.852
 5750SOL    HW218150   6.320   2.920   3.934
 5751SOL     OW18151   0.266   3.657   3.848
 5751SOL    HW118152   0.180   3.661   3.798
 5751SOL    HW218153   0.260   3.715   3.930
 5752SOL     OW18154   6.039   1.446   6.711
 5752SOL    HW118155   5.957   1.398   6.741
 5752SOL    HW218156   6.111   1.380   6.689
 5753SOL     OW18157   3.551   3.390   4.512
 5753SOL    HW118158   3.520   3.309   4.461
 5753SOL    HW218159   3.483   3.463   4.503
 5754SOL     OW18160   6.371   6.685   0.805
 5754SOL    HW118161   6.341   6.591   0.789
 5754SOL    HW218162   6.462   6.685   0.847
 5755SOL     OW18163   0.469   3.220   6.509
 5755SOL    HW118164   0.431   3.300   6.555
 5755SOL    HW218165   0.533   3.249   6.438
 5756SOL     OW18166   6.379   6.586   1.770
 5756SOL    HW118167   6.301   6.536   1.808
 5756SOL    HW218168   6.396   6.667   1.827
 5757SOL     OW18169   0.963   1.916   4.001
 5757SOL    HW118170   0.906   1.838   3.975
 5757SOL    HW218171   1.019   1.944   3.923
 5758SOL     OW18172   6.626   0.109   2.913
 5758SOL    HW118173   6.687   0.030   2.917
 5758SOL    HW218174   6.533   0.082   2.936
 5759SOL     OW18175   2.110   6.363   3.403
 5759SOL    HW118176   2.089   6.391   3.497
 5759SOL    HW218177   2.125   6.444   3.346
 5760SOL     OW18178   0.351   1.998   0.451
 5760SOL    HW118179   0.411   1.983   0.530
 5760SOL    HW218180   0.366   1.926   0.383
 5761SOL     OW18181   6.436   6.840   5.169
 5761SOL    HW118182   6.477   6.753   5.196
 5761SOL    HW218183   6.353   6.857   5.223
 5762SOL     OW18184   0.951   5.679   5.602
 5762SOL    HW118185   0.885   5.748   5.573
 5762SOL    HW218186   0.912   5.626   5.678
 5763SOL     OW18187   4.815   0.425   0.191
 5763SOL    HW118188   4.893   0.371   0.223
 5763SOL    HW218189   4.760   0.453   0.269
 5764SOL     OW18190   3.732   6.265   4.261
 5764SOL    HW118191   3.637   6.235   4.246
 5764SOL    HW218192   3.780   6.268   4.174
 5765SOL     OW18193   6.880   6.171   2.651
 5765SOL    HW118194   6.814   6.229   2.602
 5765SOL    HW218195   6.866   6.181   2.749
 5766SOL     OW18196   0.732   0.721   4.837
 5766SOL    HW118197   0.790   0.753   4.913
 5766SOL    HW218198   0.783   0.656   4.781
 5767SOL     OW18199   5.968   6.577   0.300
 5767SOL    HW118200   6.056   6.557   0.258
 5767SOL    HW218201   5.971   6.551   0.396
 5768SOL     OW18202   0.989   0.878   4.972
 5768SOL    HW118203   1.048   0.947   4.930
 5768SOL    HW218204   1.041   0.794   4.988
 5769SOL     OW18205   1.224   2.936   5.655
 5769SOL    HW118206   1.217   2.877   5.575
 5769SOL    HW218207   1.293   2.900   5.717
 5770SOL     OW18208   1.458   4.250   2.598
 5770SOL    HW118209   1.445   4.349   2.596
 5770SOL    HW218210   1.370   4.205   2.609
 5771SOL     OW18211   2.907   5.766   2.958
 5771SOL    HW118212   2.949   5.844   2.911
 5771SOL    HW218213   2.924   5.683   2.905
 5772SOL     OW18214   2.583   0.506   2.950
 5772SOL    HW118215   2.512   0.571   2.924
 5772SOL    HW218216   2.566   0.474   3.043
 5773SOL     OW18217   5.733   0.527   4.129
 5773SOL    HW118218   5.798   0.499   4.199
 5773SOL    HW218219   5.751   0.477   4.044
 5774SOL     OW18220   1.114   6.031   3.598
 5774SOL    HW118221   1.106   6.097   3.523
 5774SOL    HW218222   1.101   6.078   3.685
 5775SOL     OW18223   5.282   5.037   2.491
 5775SOL    HW118224   5.301   5.099   2.567
 5775SOL    HW218225   5.346   4.960   2.494
 5776SOL     OW18226   3.680   0.760   3.903
 5776SOL    HW118227   3.710   0.681   3.849
 5776SOL    HW218228   3.748   0.833   3.895
 5777SOL     OW18229   0.991   0.545   1.732
 5777SOL    HW118230   1.044   0.489   1.669
 5777SOL    HW218231   0.979   0.496   1.818
 5778SOL     OW18232   0.439   1.221   0.048
 5778SOL    HW118233   0.462   1.244   0.142
 5778SOL    HW218234   0.517   1.178   0.003
 5779SOL     OW18235   5.636   1.741   0.794
 5779SOL    HW118236   5.596   1.680   0.862
 5779SOL    HW218237   5.606   1.714   0.703
 5780SOL     OW18238   5.178   4.973   4.433
 5780SOL    HW118239   5.139   4.887   4.467
 5780SOL    HW218240   5.259   4.997   4.487
 5781SOL     OW18241   1.380   5.978   5.893
 5781SOL    HW118242   1.456   5.932   5.848
 5781SOL    HW218243   1.328   6.030   5.826
 5782SOL     OW18244   6.023   0.917   0.714
 5782SOL    HW118245   6.016   0.941   0.617
 5782SOL    HW218246   5.972   0.833   0.731
 5783SOL     OW18247   2.505   2.568   6.522
 5783SOL    HW118248   2.456   2.655   6.528
 5783SOL    HW218249   2.572   2.572   6.447
 5784SOL     OW18250   6.822   6.628   0.564
 5784SOL    HW118251   6.884   6.697   0.599
 5784SOL    HW218252   6.764   6.668   0.493
 5785SOL     OW18253   1.326   2.098   1.859
 5785SOL    HW118254   1.383   2.158   1.914
 5785SOL    HW218255   1.369   2.008   1.852
 5786SOL     OW18256   6.580   5.670   1.916
 5786SOL    HW118257   6.522   5.672   1.998
 5786SOL    HW218258   6.577   5.759   1.871
 5787SOL     OW18259   1.778   3.358   6.363
 5787SOL    HW118260   1.807   3.293   6.293
 5787SOL    HW218261   1.823   3.446   6.347
 5788SOL     OW18262   3.266   0.345   3.770
 5788SOL    HW118263   3.229   0.313   3.857
 5788SOL    HW218264   3.314   0.432   3.783
 5789SOL     OW18265   3.170   4.852   5.958
 5789SOL    HW118266   3.174   4.807   5.869
 5789SOL    HW218267   3.262   4.869   5.991
 5790SOL     OW18268   1.255   4.034   4.218
 5790SOL    HW118269   1.331   3.995   4.269
 5790SOL    HW218270   1.249   4.132   4.236
 5791SOL     OW18271   1.460   0.857   3.312
 5791SOL    HW118272   1.481   0.925   3.382
 5791SOL    HW218273   1.542   0.803   3.292
 5792SOL     OW18274   0.057   2.377   2.833
 5792SOL    HW118275   0.025   2.373   2.738
 5792SOL    HW218276   0.073   2.472   2.859
 5793SOL     OW18277   6.258   0.978   4.845
 5793SOL    HW118278   6.264   0.898   4.905
 5793SOL    HW218279   6.256   0.949   4.749
 5794SOL     OW18280   6.810   4.034   6.604
 5794SOL    HW118281   6.896   3.983   6.603
 5794SOL    HW218282   6.828   4.131   6.584
 5795SOL     OW18283   6.673   4.648   6.707
 5795SOL    HW118284   6.675   4.703   6.624
 5795SOL    HW218285   6.578   4.626   6.730
 5796SOL     OW18286   2.919   2.287   0.686
 5796SOL    HW118287   2.896   2.384   0.680
 5796SOL    HW218288   3.015   2.274   0.660
 5797SOL     OW18289   3.155   2.868   5.352
 5797SOL    HW118290   3.058   2.854   5.370
 5797SOL    HW218291   3.200   2.780   5.338
 5798SOL     OW18292   6.288   5.271   4.337
 5798SOL    HW118293   6.199   5.285   4.381
 5798SOL    HW218294   6.299   5.337   4.263
 5799SOL     OW18295   5.520   0.714   4.088
 5799SOL    HW118296   5.446   0.703   4.021
 5799SOL    HW218297   5.591   0.646   4.069
 5800SOL     OW18298   5.983   5.957   6.388
 5800SOL    HW118299   6.061   5.957   6.326
 5800SOL    HW218300   5.997   6.027   6.459
 5801SOL     OW18301   1.639   1.363   2.296
 5801SOL    HW118302   1.593   1.276   2.317
 5801SOL    HW218303   1.660   1.367   2.198
 5802SOL     OW18304   0.125   2.694   4.619
 5802SOL    HW118305   0.210   2.728   4.579
 5802SOL    HW218306   0.106   2.744   4.704
 5803SOL     OW18307   1.922   4.995   1.105
 5803SOL    HW118308   1.933   5.044   1.192
 5803SOL    HW218309   1.983   5.034   1.036
 5804SOL     OW18310   0.559   2.519   6.413
 5804SOL    HW118311   0.509   2.459   6.350
 5804SOL    HW218312   0.511   2.606   6.421
 5805SOL     OW18313   5.239   3.320   6.787
 5805SOL    HW118314   5.328   3.297   6.827
 5805SOL    HW218315   5.247   3.322   6.687
 5806SOL     OW18316   6.428   6.970   6.521
 5806SOL    HW118317   6.444   0.041   6.479
 5806SOL    HW218318   6.330   6.947   6.515
 5807SOL     OW18319   2.868   4.190   1.366
 5807SOL    HW118320   2.926   4.254   1.316
 5807SOL    HW218321   2.900   4.182   1.460
 5808SOL     OW18322   6.192   1.373   3.547
 5808SOL    HW118323   6.282   1.336   3.521
 5808SOL    HW218324   6.202   1.469   3.572
 5809SOL     OW18325   0.478   2.651   3.371
 5809SOL    HW118326   0.560   2.594   3.365
 5809SOL    HW218327   0.425   2.626   3.452
 5810SOL     OW18328   2.908   2.257   2.821
 5810SOL    HW118329   2.995   2.210   2.806
 5810SOL    HW218330   2.878   2.300   2.736
 5811SOL     OW18331   2.832   0.159   2.376
 5811SOL    HW118332   2.776   0.184   2.456
 5811SOL    HW218333   2.782   0.181   2.292
 5812SOL     OW18334   4.206   0.602   4.786
 5812SOL    HW118335   4.162   0.532   4.842
 5812SOL    HW218336   4.290   0.632   4.830
 5813SOL     OW18337   1.839   1.847   5.303
 5813SOL    HW118338   1.849   1.920   5.371
 5813SOL    HW218339   1.870   1.760   5.343
 5814SOL     OW18340   0.310   5.551   1.464
 5814SOL    HW118341   0.273   5.467   1.503
 5814SOL    HW218342   0.236   5.606   1.426
 5815SOL     OW18343   4.176   6.765   4.224
 5815SOL    HW118344   4.091   6.816   4.238
 5815SOL    HW218345   4.239   6.786   4.299
 5816SOL     OW18346   5.526   6.714   0.288
 5816SOL    HW118347   5.532   6.619   0.318
 5816SOL    HW218348   5.473   6.719   0.204
 5817SOL     OW18349   6.207   2.809   6.534
 5817SOL    HW118350   6.167   2.880   6.477
 5817SOL    HW218351   6.208   2.722   6.484
 5818SOL     OW18352   6.469   6.371   5.230
 5818SOL    HW118353   6.386   6.334   5.271
 5818SOL    HW218354   6.548   6.317   5.259
 5819SOL     OW18355   6.138   0.098   0.875
 5819SOL    HW118356   6.108   0.113   0.969
 5819SOL    HW218357   6.231   0.062   0.875
 5820SOL     OW18358   5.800   4.813   2.039
 5820SOL    HW118359   5.701   4.826   2.031
 5820SOL    HW218360   5.828   4.733   1.987
 5821SOL     OW18361   2.762   0.327   2.613
 5821SOL    HW118362   2.757   0.378   2.699
 5821SOL    HW218363   2.831   0.369   2.554
 5822SOL     OW18364   0.173   0.862   2.739
 5822SOL    HW118365   0.189   0.942   2.798
 5822SOL    HW218366   0.089   0.875   2.688
 5823SOL     OW18367   1.955   2.920   4.293
 5823SOL    HW118368   1.911   3.007   4.269
 5823SOL    HW218369   1.922   2.848   4.232
 5824SOL     OW18370   5.086   0.357   3.957
 5824SOL    HW118371   5.176   0.349   3.999
 5824SOL    HW218372   5.095   0.352   3.857
 5825SOL     OW18373   3.634   1.618   1.894
 5825SOL    HW118374   3.623   1.705   1.942
 5825SOL    HW218375   3.550   1.564   1.902
 5826SOL     OW18376   0.464   6.633   3.740
 5826SOL    HW118377   0.485   6.694   3.664
 5826SOL    HW218378   0.369   6.602   3.733
 5827SOL     OW18379   1.985   4.616   5.564
 5827SOL    HW118380   1.984   4.627   5.663
 5827SOL    HW218381   2.071   4.574   5.535
 5828SOL     OW18382   6.118   2.312   1.244
 5828SOL    HW118383   6.211   2.300   1.209
 5828SOL    HW218384   6.122   2.344   1.339
 5829SOL     OW18385   1.927   1.746   1.426
 5829SOL    HW118386   1.951   1.715   1.518
 5829SOL    HW218387   1.917   1.845   1.425
 5830SOL     OW18388   2.203   0.289   5.584
 5830SOL    HW118389   2.212   0.314   5.680
 5830SOL    HW218390   2.108   0.299   5.556
 5831SOL     OW18391   5.649   5.563   2.921
 5831SOL    HW118392   5.728   5.601   2.873
 5831SOL    HW218393   5.605   5.493   2.865
 5832SOL     OW18394   3.411   3.194   4.341
 5832SOL    HW118395   3.361   3.112   4.312
 5832SOL    HW218396   3.508   3.183   4.320
 5833SOL     OW18397   2.975   3.598   5.028
 5833SOL    HW118398   2.912   3.619   4.953
 5833SOL    HW218399   3.068   3.590   4.992
 5834SOL     OW18400   5.985   0.980   6.998
 5834SOL    HW118401   5.953   1.062   0.027
 5834SOL    HW218402   6.008   1.002   6.904
 5835SOL     OW18403   5.252   3.051   4.490
 5835SOL    HW118404   5.152   3.043   4.489
 5835SOL    HW218405   5.292   2.971   4.534
 5836SOL     OW18406   3.061   6.913   3.280
 5836SOL    HW118407   2.984   6.866   3.238
 5836SOL    HW218408   3.142   6.902   3.222
 5837SOL     OW18409   4.392   4.162   6.027
 5837SOL    HW118410   4.355   4.172   6.120
 5837SOL    HW218411   4.316   4.148   5.964
 5838SOL     OW18412   0.861   0.756   5.526
 5838SOL    HW118413   0.890   0.667   5.490
 5838SOL    HW218414   0.880   0.762   5.623
 5839SOL     OW18415   0.077   2.303   2.298
 5839SOL    HW118416   0.102   2.265   2.209
 5839SOL    HW218417   0.056   2.400   2.289
 5840SOL     OW18418   3.326   5.462   0.453
 5840SOL    HW118419   3.357   5.407   0.530
 5840SOL    HW218420   3.292   5.401   0.381
 5841SOL     OW18421   6.146   1.864   3.385
 5841SOL    HW118422   6.046   1.855   3.383
 5841SOL    HW218423   6.170   1.958   3.410
 5842SOL     OW18424   3.937   2.291   1.014
 5842SOL    HW118425   3.938   2.369   0.952
 5842SOL    HW218426   3.899   2.318   1.102
 5843SOL     OW18427   0.805   2.921   1.468
 5843SOL    HW118428   0.888   2.866   1.476
 5843SOL    HW218429   0.758   2.897   1.383
 5844SOL     OW18430   1.726   6.375   6.415
 5844SOL    HW118431   1.795   6.376   6.342
 5844SOL    HW218432   1.724   6.284   6.456
 5845SOL     OW18433   1.948   2.740   4.666
 5845SOL    HW118434   1.933   2.838   4.654
 5845SOL    HW218435   2.045   2.720   4.655
 5846SOL     OW18436   0.194   3.747   6.460
 5846SOL    HW118437   0.283   3.714   6.429
 5846SOL    HW218438   0.133   3.669   6.475
 5847SOL     OW18439   1.256   2.345   4.298
 5847SOL    HW118440   1.228   2.441   4.311
 5847SOL    HW218441   1.253   2.298   4.386
 5848SOL     OW18442   0.903   4.617   3.640
 5848SOL    HW118443   0.830   4.563   3.596
 5848SOL    HW218444   0.900   4.602   3.739
 5849SOL     OW18445   3.015   6.944   6.039
 5849SOL    HW118446   2.943   6.983   6.095
 5849SOL    HW218447   3.102   6.989   6.060
 5850SOL     OW18448   1.010   4.483   3.093
 5850SOL    HW118449   1.068   4.529   3.160
 5850SOL    HW218450   0.937   4.434   3.139
 5851SOL     OW18451   6.126   3.185   2.100
 5851SOL    HW118452   6.092   3.093   2.118
 5851SOL    HW218453   6.092   3.217   2.012
 5852SOL     OW18454   3.842   6.686   3.199
 5852SOL    HW118455   3.934   6.656   3.173
 5852SOL    HW218456   3.825   6.664   3.295
 5853SOL     OW18457   5.143   4.349   5.324
 5853SOL    HW118458   5.214   4.362   5.393
 5853SOL    HW218459   5.176   4.381   5.235
 5854SOL     OW18460   0.872   1.406   6.612
 5854SOL    HW118461   0.963   1.412   6.651
 5854SOL    HW218462   0.871   1.449   6.522
 5855SOL     OW18463   1.476   1.988   4.766
 5855SOL    HW118464   1.436   2.065   4.816
 5855SOL    HW218465   1.413   1.911   4.768
 5856SOL     OW18466   1.082   5.381   3.641
 5856SOL    HW118467   1.129   5.412   3.724
 5856SOL    HW218468   1.044   5.460   3.593
 5857SOL     OW18469   0.245   2.501   5.325
 5857SOL    HW118470   0.255   2.552   5.410
 5857SOL    HW218471   0.152   2.464   5.319
 5858SOL     OW18472   2.800   6.422   3.773
 5858SOL    HW118473   2.773   6.326   3.780
 5858SOL    HW218474   2.724   6.480   3.801
 5859SOL     OW18475   5.807   5.381   1.710
 5859SOL    HW118476   5.789   5.465   1.762
 5859SOL    HW218477   5.727   5.359   1.654
 5860SOL     OW18478   6.896   3.997   0.888
 5860SOL    HW118479   6.985   4.042   0.885
 5860SOL    HW218480   6.901   3.918   0.949
 5861SOL     OW18481   6.171   1.308   3.825
 5861SOL    HW118482   6.188   1.403   3.851
 5861SOL    HW218483   6.167   1.301   3.725
 5862SOL     OW18484   5.203   4.908   3.955
 5862SOL    HW118485   5.175   4.991   4.002
 5862SOL    HW218486   5.200   4.831   4.018
 5863SOL     OW18487   2.065   1.649   0.462
 5863SOL    HW118488   2.081   1.552   0.481
 5863SOL    HW218489   2.145   1.687   0.414
 5864SOL     OW18490   4.508   5.210   0.753
 5864SOL    HW118491   4.497   5.112   0.740
 5864SOL    HW218492   4.466   5.259   0.676
 5865SOL     OW18493   4.149   0.757   2.851
 5865SOL    HW118494   4.068   0.703   2.871
 5865SOL    HW218495   4.184   0.734   2.760
 5866SOL     OW18496   3.592   1.568   6.986
 5866SOL    HW118497   3.584   1.468   6.981
 5866SOL    HW218498   3.543   1.609   6.910
 5867SOL     OW18499   6.477   3.034   1.693
 5867SOL    HW118500   6.429   3.121   1.698
 5867SOL    HW218501   6.460   2.992   1.603
 5868SOL     OW18502   0.714   6.612   5.021
 5868SOL    HW118503   0.678   6.652   4.937
 5868SOL    HW218504   0.663   6.647   5.100
 5869SOL     OW18505   2.553   4.532   3.880
 5869SOL    HW118506   2.643   4.571   3.862
 5869SOL    HW218507   2.523   4.558   3.972
 5870SOL     OW18508   4.952   5.974   4.022
 5870SOL    HW118509   4.979   5.929   4.107
 5870SOL    HW218510   4.862   6.015   4.034
 5871SOL     OW18511   2.972   3.883   0.689
 5871SOL    HW118512   3.041   3.838   0.746
 5871SOL    HW218513   2.922   3.950   0.743
 5872SOL     OW18514   4.281   5.447   3.931
 5872SOL    HW118515   4.263   5.525   3.992
 5872SOL    HW218516   4.343   5.477   3.858
 5873SOL     OW18517   1.995   2.814   0.101
 5873SOL    HW118518   2.071   2.753   0.081
 5873SOL    HW218519   1.914   2.760   0.125
 5874SOL     OW18520   0.655   4.596   6.080
 5874SOL    HW118521   0.676   4.528   6.150
 5874SOL    HW218522   0.652   4.687   6.122
 5875SOL     OW18523   3.702   2.011   1.005
 5875SOL    HW118524   3.786   2.013   0.951
 5875SOL    HW218525   3.708   2.079   1.078
 5876SOL     OW18526   4.602   3.673   6.027
 5876SOL    HW118527   4.613   3.674   5.928
 5876SOL    HW218528   4.535   3.604   6.053
 5877SOL     OW18529   5.431   0.079   2.568
 5877SOL    HW118530   5.359   0.010   2.575
 5877SOL    HW218531   5.520   0.033   2.558
 5878SOL     OW18532   4.892   3.632   2.903
 5878SOL    HW118533   4.935   3.714   2.865
 5878SOL    HW218534   4.890   3.561   2.833
 5879SOL     OW18535   3.116   4.716   5.275
 5879SOL    HW118536   3.028   4.693   5.235
 5879SOL    HW218537   3.172   4.633   5.283
 5880SOL     OW18538   6.023   2.733   0.197
 5880SOL    HW118539   6.067   2.679   0.269
 5880SOL    HW218540   6.043   2.830   0.211
 5881SOL     OW18541   1.341   6.078   2.551
 5881SOL    HW118542   1.391   5.992   2.560
 5881SOL    HW218543   1.363   6.137   2.629
 5882SOL     OW18544   1.433   5.152   5.288
 5882SOL    HW118545   1.446   5.063   5.331
 5882SOL    HW218546   1.336   5.166   5.269
 5883SOL     OW18547   0.032   5.818   0.133
 5883SOL    HW118548   0.048   5.885   0.061
 5883SOL    HW218549   0.119   5.794   0.176
 5884SOL     OW18550   6.862   1.160   2.293
 5884SOL    HW118551   6.953   1.201   2.289
 5884SOL    HW218552   6.802   1.206   2.226
 5885SOL     OW18553   0.174   5.843   1.608
 5885SOL    HW118554   0.113   5.915   1.574
 5885SOL    HW218555   0.164   5.761   1.550
 5886SOL     OW18556   2.087   4.829   3.459
 5886SOL    HW118557   2.162   4.870   3.406
 5886SOL    HW218558   2.047   4.899   3.518
 5887SOL     OW18559   2.830   4.152   0.525
 5887SOL    HW118560   2.791   4.152   0.618
 5887SOL    HW218561   2.919   4.198   0.527
 5888SOL     OW18562   2.881   5.779   1.212
 5888SOL    HW118563   2.888   5.731   1.299
 5888SOL    HW218564   2.954   5.848   1.206
 5889SOL     OW18565   5.056   1.659   2.139
 5889SOL    HW118566   5.009   1.641   2.225
 5889SOL    HW218567   5.106   1.577   2.111
 5890SOL     OW18568   2.449   4.401   3.457
 5890SOL    HW118569   2.485   4.338   3.388
 5890SOL    HW218570   2.518   4.469   3.480
 5891SOL     OW18571   2.499   3.121   6.660
 5891SOL    HW118572   2.539   3.177   6.587
 5891SOL    HW218573   2.475   3.031   6.624
 5892SOL     OW18574   0.688   2.296   0.670
 5892SOL    HW118575   0.664   2.342   0.756
 5892SOL    HW218576   0.651   2.347   0.593
 5893SOL     OW18577   0.552   5.992   1.779
 5893SOL    HW118578   0.649   5.971   1.776
 5893SOL    HW218579   0.515   5.995   1.686
 5894SOL     OW18580   2.505   5.182   6.667
 5894SOL    HW118581   2.437   5.175   6.594
 5894SOL    HW218582   2.472   5.243   6.739
 5895SOL     OW18583   5.994   3.354   3.884
 5895SOL    HW118584   5.905   3.338   3.925
 5895SOL    HW218585   6.032   3.440   3.919
 5896SOL     OW18586   5.551   2.812   1.396
 5896SOL    HW118587   5.520   2.725   1.358
 5896SOL    HW218588   5.641   2.835   1.359
 5897SOL     OW18589   3.346   3.057   0.535
 5897SOL    HW118590   3.250   3.055   0.508
 5897SOL    HW218591   3.395   2.983   0.489
 5898SOL     OW18592   3.342   1.011   6.985
 5898SOL    HW118593   3.343   1.059   6.897
 5898SOL    HW218594   3.289   0.928   6.977
 5899SOL     OW18595   0.583   0.069   6.993
 5899SOL    HW118596   0.662   0.084   0.035
 5899SOL    HW218597   0.615   0.034   6.905
 5900SOL     OW18598   5.729   6.624   2.407
 5900SOL    HW118599   5.659   6.676   2.358
 5900SOL    HW218600   5.686   6.573   2.482
 5901SOL     OW18601   1.997   0.748   4.748
 5901SOL    HW118602   1.897   0.750   4.752
 5901SOL    HW218603   2.027   0.668   4.695
 5902SOL     OW18604   3.690   3.793   6.208
 5902SOL    HW118605   3.720   3.698   6.208
 5902SOL    HW218606   3.694   3.830   6.301
 5903SOL     OW18607   5.884   1.895   5.336
 5903SOL    HW118608   5.848   1.875   5.428
 5903SOL    HW218609   5.909   1.810   5.291
 5904SOL     OW18610   6.869   5.047   1.624
 5904SOL    HW118611   6.851   4.977   1.693
 5904SOL    HW218612   6.828   5.134   1.653
 5905SOL     OW18613   6.531   2.417   4.611
 5905SOL    HW118614   6.508   2.349   4.681
 5905SOL    HW218615   6.490   2.505   4.635
 5906SOL     OW18616   4.477   0.639   5.250
 5906SOL    HW118617   4.475   0.540   5.264
 5906SOL    HW218618   4.411   0.683   5.311
 5907SOL     OW18619   0.948   3.431   6.048
 5907SOL    HW118620   1.039   3.420   6.088
 5907SOL    HW218621   0.921   3.347   6.001
 5908SOL     OW18622   4.334   3.904   0.182
 5908SOL    HW118623   4.267   3.961   0.134
 5908SOL    HW218624   4.423   3.915   0.139
 5909SOL     OW18625   5.903   4.944   3.507
 5909SOL    HW118626   5.829   4.878   3.518
 5909SOL    HW218627   5.933   4.975   3.597
 5910SOL     OW18628   2.799   4.627   1.471
 5910SOL    HW118629   2.826   4.721   1.448
 5910SOL    HW218630   2.727   4.630   1.541
 5911SOL     OW18631   5.876   0.555   5.707
 5911SOL    HW118632   5.941   0.596   5.771
 5911SOL    HW218633   5.918   0.476   5.662
 5912SOL     OW18634   0.477   3.339   5.860
 5912SOL    HW118635   0.425   3.422   5.840
 5912SOL    HW218636   0.420   3.259   5.842
 5913SOL     OW18637   2.202   2.577   4.343
 5913SOL    HW118638   2.119   2.526   4.323
 5913SOL    HW218639   2.188   2.674   4.321
 5914SOL     OW18640   1.037   5.777   0.397
 5914SOL    HW118641   1.001   5.704   0.454
 5914SOL    HW218642   0.967   5.848   0.385
 5915SOL     OW18643   5.689   4.085   4.257
 5915SOL    HW118644   5.596   4.114   4.234
 5915SOL    HW218645   5.689   4.045   4.349
 5916SOL     OW18646   2.990   1.024   6.798
 5916SOL    HW118647   2.923   1.043   6.727
 5916SOL    HW218648   2.948   1.036   6.888
 5917SOL     OW18649   3.589   4.066   2.039
 5917SOL    HW118650   3.660   3.997   2.048
 5917SOL    HW218651   3.598   4.133   2.112
 5918SOL     OW18652   2.835   1.963   4.032
 5918SOL    HW118653   2.751   1.954   4.085
 5918SOL    HW218654   2.909   1.993   4.092
 5919SOL     OW18655   1.611   1.885   0.067
 5919SOL    HW118656   1.710   1.874   0.067
 5919SOL    HW218657   1.572   1.829   0.141
 5920SOL     OW18658   2.714   5.285   6.850
 5920SOL    HW118659   2.620   5.290   6.884
 5920SOL    HW218660   2.713   5.275   6.751
 5921SOL     OW18661   4.025   5.836   4.837
 5921SOL    HW118662   3.949   5.854   4.776
 5921SOL    HW218663   4.044   5.918   4.892
 5922SOL     OW18664   6.809   5.330   2.210
 5922SOL    HW118665   6.904   5.352   2.232
 5922SOL    HW218666   6.755   5.414   2.203
 5923SOL     OW18667   0.744   1.080   3.284
 5923SOL    HW118668   0.827   1.117   3.242
 5923SOL    HW218669   0.692   1.154   3.326
 5924SOL     OW18670   5.831   2.095   4.660
 5924SOL    HW118671   5.850   2.151   4.740
 5924SOL    HW218672   5.876   2.134   4.580
 5925SOL     OW18673   6.618   5.822   0.730
 5925SOL    HW118674   6.709   5.826   0.689
 5925SOL    HW218675   6.578   5.914   0.732
 5926SOL     OW18676   3.444   6.565   1.884
 5926SOL    HW118677   3.452   6.543   1.981
 5926SOL    HW218678   3.530   6.544   1.837
 5927SOL     OW18679   2.361   4.886   1.609
 5927SOL    HW118680   2.438   4.947   1.629
 5927SOL    HW218681   2.276   4.927   1.644
 5928SOL     OW18682   0.671   6.178   0.995
 5928SOL    HW118683   0.674   6.079   0.979
 5928SOL    HW218684   0.669   6.196   1.093
 5929SOL     OW18685   0.119   6.816   5.602
 5929SOL    HW118686   0.215   6.841   5.596
 5929SOL    HW218687   0.106   6.724   5.566
 5930SOL     OW18688   6.188   1.576   5.356
 5930SOL    HW118689   6.119   1.614   5.417
 5930SOL    HW218690   6.235   1.650   5.308
 5931SOL     OW18691   5.418   5.149   0.874
 5931SOL    HW118692   5.351   5.081   0.903
 5931SOL    HW218693   5.414   5.228   0.935
 5932SOL     OW18694   2.280   6.990   0.121
 5932SOL    HW118695   2.366   0.008   0.085
 5932SOL    HW218696   2.210   6.993   0.050
 5933SOL     OW18697   6.243   2.630   2.739
 5933SOL    HW118698   6.150   2.596   2.726
 5933SOL    HW218699   6.241   2.712   2.796
 5934SOL     OW18700   4.144   3.317   2.119
 5934SOL    HW118701   4.133   3.218   2.127
 5934SOL    HW218702   4.108   3.362   2.201
 5935SOL     OW18703   3.729   2.925   3.117
 5935SOL    HW118704   3.748   3.022   3.135
 5935SOL    HW218705   3.761   2.901   3.026
 5936SOL     OW18706   6.777   6.073   6.396
 5936SOL    HW118707   6.712   6.137   6.356
 5936SOL    HW218708   6.755   6.057   6.492
 5937SOL     OW18709   0.812   4.310   6.967
 5937SOL    HW118710   0.773   4.320   6.875
 5937SOL    HW218711   0.740   4.320   0.017
 5938SOL     OW18712   2.420   4.614   0.564
 5938SOL    HW118713   2.331   4.568   0.566
 5938SOL    HW218714   2.423   4.676   0.486
 5939SOL     OW18715   1.526   0.653   2.331
 5939SOL    HW118716   1.431   0.686   2.335
 5939SOL    HW218717   1.565   0.655   2.423
 5940SOL     OW18718   4.075   4.837   3.285
 5940SOL    HW118719   4.089   4.934   3.267
 5940SOL    HW218720   4.087   4.785   3.200
 5941SOL     OW18721   6.211   2.424   3.499
 5941SOL    HW118722   6.225   2.449   3.404
 5941SOL    HW218723   6.194   2.326   3.506
 5942SOL     OW18724   6.743   1.066   4.865
 5942SOL    HW118725   6.649   1.091   4.841
 5942SOL    HW218726   6.796   1.150   4.880
 5943SOL     OW18727   1.738   5.378   1.058
 5943SOL    HW118728   1.814   5.441   1.041
 5943SOL    HW218729   1.774   5.286   1.074
 5944SOL     OW18730   5.462   2.475   2.768
 5944SOL    HW118731   5.373   2.476   2.723
 5944SOL    HW218732   5.498   2.382   2.769
 5945SOL     OW18733   6.756   5.489   6.406
 5945SOL    HW118734   6.753   5.392   6.432
 5945SOL    HW218735   6.703   5.502   6.322
 5946SOL     OW18736   3.678   2.674   5.286
 5946SOL    HW118737   3.757   2.721   5.325
 5946SOL    HW218738   3.692   2.575   5.294
 5947SOL     OW18739   4.957   4.014   2.456
 5947SOL    HW118740   4.939   3.939   2.392
 5947SOL    HW218741   4.890   4.010   2.531
 5948SOL     OW18742   3.413   5.274   3.170
 5948SOL    HW118743   3.402   5.276   3.270
 5948SOL    HW218744   3.490   5.332   3.145
 5949SOL     OW18745   4.856   4.478   3.315
 5949SOL    HW118746   4.816   4.388   3.300
 5949SOL    HW218747   4.783   4.547   3.316
 5950SOL     OW18748   6.527   2.510   4.195
 5950SOL    HW118749   6.612   2.504   4.143
 5950SOL    HW218750   6.514   2.426   4.247
 5951SOL     OW18751   1.931   0.884   4.045
 5951SOL    HW118752   1.870   0.875   4.124
 5951SOL    HW218753   2.012   0.827   4.058
 5952SOL     OW18754   0.433   5.977   4.528
 5952SOL    HW118755   0.465   6.072   4.531
 5952SOL    HW218756   0.464   5.934   4.442
 5953SOL     OW18757   0.587   3.104   6.123
 5953SOL    HW118758   0.622   3.111   6.216
 5953SOL    HW218759   0.573   3.195   6.085
 5954SOL     OW18760   1.405   4.853   6.400
 5954SOL    HW118761   1.382   4.763   6.436
 5954SOL    HW218762   1.372   4.860   6.305
 5955SOL     OW18763   4.522   5.108   2.909
 5955SOL    HW118764   4.587   5.032   2.910
 5955SOL    HW218765   4.532   5.162   2.992
 5956SOL     OW18766   6.893   2.354   0.034
 5956SOL    HW118767   6.823   2.407   0.080
 5956SOL    HW218768   6.980   2.365   0.081
 5957SOL     OW18769   4.238   6.816   5.711
 5957SOL    HW118770   4.281   6.906   5.714
 5957SOL    HW218771   4.147   6.823   5.671
 5958SOL     OW18772   1.126   5.727   2.287
 5958SOL    HW118773   1.046   5.781   2.261
 5958SOL    HW218774   1.195   5.787   2.326
 5959SOL     OW18775   2.056   1.057   6.237
 5959SOL    HW118776   2.024   1.019   6.324
 5959SOL    HW218777   2.005   1.013   6.162
 5960SOL     OW18778   3.568   6.078   5.473
 5960SOL    HW118779   3.637   6.146   5.449
 5960SOL    HW218780   3.542   6.026   5.392
 5961SOL     OW18781   2.550   1.085   5.558
 5961SOL    HW118782   2.543   1.168   5.502
 5961SOL    HW218783   2.582   1.010   5.500
 5962SOL     OW18784   5.340   4.285   2.276
 5962SOL    HW118785   5.434   4.253   2.266
 5962SOL    HW218786   5.312   4.279   2.372
 5963SOL     OW18787   4.237   4.442   1.713
 5963SOL    HW118788   4.273   4.479   1.628
 5963SOL    HW218789   4.296   4.369   1.747
 5964SOL     OW18790   1.386   3.536   5.731
 5964SOL    HW118791   1.431   3.581   5.808
 5964SOL    HW218792   1.371   3.602   5.658
 5965SOL     OW18793   2.238   1.886   4.203
 5965SOL    HW118794   2.262   1.888   4.106
 5965SOL    HW218795   2.202   1.975   4.231
 5966SOL     OW18796   1.607   5.899   4.241
 5966SOL    HW118797   1.667   5.852   4.176
 5966SOL    HW218798   1.662   5.936   4.317
 5967SOL     OW18799   4.483   5.534   1.567
 5967SOL    HW118800   4.459   5.628   1.544
 5967SOL    HW218801   4.399   5.482   1.582
 5968SOL     OW18802   0.831   1.647   4.002
 5968SOL    HW118803   0.843   1.691   4.091
 5968SOL    HW218804   0.908   1.585   3.985
 5969SOL     OW18805   6.824   1.907   2.879
 5969SOL    HW118806   6.807   2.005   2.868
 5969SOL    HW218807   6.751   1.855   2.834
 5970SOL     OW18808   2.012   3.796   3.744
 5970SOL    HW118809   2.050   3.771   3.833
 5970SOL    HW218810   2.049   3.885   3.716
 5971SOL     OW18811   3.269   5.758   3.596
 5971SOL    HW118812   3.311   5.814   3.667
 5971SOL    HW218813   3.339   5.702   3.551
 5972SOL     OW18814   5.662   0.390   1.634
 5972SOL    HW118815   5.676   0.345   1.722
 5972SOL    HW218816   5.750   0.403   1.589
 5973SOL     OW18817   2.343   4.505   3.207
 5973SOL    HW118818   2.375   4.599   3.193
 5973SOL    HW218819   2.370   4.474   3.298
 5974SOL     OW18820   0.663   4.198   6.751
 5974SOL    HW118821   0.756   4.163   6.737
 5974SOL    HW218822   0.619   4.210   6.662
 5975SOL     OW18823   1.967   2.549   6.014
 5975SOL    HW118824   2.013   2.590   6.093
 5975SOL    HW218825   2.033   2.492   5.963
 5976SOL     OW18826   3.371   3.143   4.806
 5976SOL    HW118827   3.384   3.046   4.783
 5976SOL    HW218828   3.353   3.152   4.903
 5977SOL     OW18829   0.546   3.487   3.323
 5977SOL    HW118830   0.559   3.395   3.286
 5977SOL    HW218831   0.605   3.552   3.275
 5978SOL     OW18832   5.051   5.388   2.250
 5978SOL    HW118833   5.020   5.389   2.345
 5978SOL    HW218834   5.008   5.312   2.201
 5979SOL     OW18835   0.937   0.932   1.710
 5979SOL    HW118836   0.969   0.905   1.801
 5979SOL    HW218837   0.966   0.865   1.642
 5980SOL     OW18838   6.020   2.753   5.776
 5980SOL    HW118839   6.114   2.735   5.745
 5980SOL    HW218840   6.022   2.791   5.868
 5981SOL     OW18841   3.544   1.912   0.560
 5981SOL    HW118842   3.494   1.827   0.577
 5981SOL    HW218843   3.511   1.982   0.623
 5982SOL     OW18844   6.348   2.590   0.076
 5982SOL    HW118845   6.388   2.652   0.008
 5982SOL    HW218846   6.405   2.589   0.158
 5983SOL     OW18847   1.001   0.141   4.951
 5983SOL    HW118848   1.032   0.179   5.038
 5983SOL    HW218849   1.078   0.097   4.904
 5984SOL     OW18850   0.711   0.191   6.073
 5984SOL    HW118851   0.760   0.182   5.986
 5984SOL    HW218852   0.672   0.283   6.079
 5985SOL     OW18853   5.766   3.211   3.972
 5985SOL    HW118854   5.735   3.194   4.066
 5985SOL    HW218855   5.774   3.124   3.924
 5986SOL     OW18856   2.902   3.455   2.885
 5986SOL    HW118857   2.846   3.460   2.803
 5986SOL    HW218858   2.921   3.359   2.907
 5987SOL     OW18859   4.478   0.238   5.786
 5987SOL    HW118860   4.486   0.162   5.723
 5987SOL    HW218861   4.521   0.320   5.746
 5988SOL     OW18862   3.716   6.898   5.729
 5988SOL    HW118863   3.679   6.852   5.810
 5988SOL    HW218864   3.739   6.829   5.660
 5989SOL     OW18865   3.171   1.746   6.954
 5989SOL    HW118866   3.182   1.840   6.987
 5989SOL    HW218867   3.253   1.694   6.975
 5990SOL     OW18868   3.795   5.211   3.200
 5990SOL    HW118869   3.735   5.139   3.166
 5990SOL    HW218870   3.886   5.172   3.219
 5991SOL     OW18871   3.375   4.966   3.377
 5991SOL    HW118872   3.331   5.055   3.365
 5991SOL    HW218873   3.348   4.927   3.465
 5992SOL     OW18874   4.305   1.932   4.373
 5992SOL    HW118875   4.389   1.887   4.343
 5992SOL    HW218876   4.240   1.863   4.406
 5993SOL     OW18877   2.604   4.927   4.016
 5993SOL    HW118878   2.545   4.874   3.955
 5993SOL    HW218879   2.547   4.976   4.082
 5994SOL     OW18880   6.023   2.817   0.496
 5994SOL    HW118881   6.088   2.742   0.482
 5994SOL    HW218882   6.004   2.825   0.594
 5995SOL     OW18883   0.395   3.886   1.986
 5995SOL    HW118884   0.332   3.811   2.006
 5995SOL    HW218885   0.485   3.865   2.025
 5996SOL     OW18886   1.288   5.872   6.124
 5996SOL    HW118887   1.316   5.912   6.037
 5996SOL    HW218888   1.358   5.808   6.155
 5997SOL     OW18889   0.618   0.717   1.516
 5997SOL    HW118890   0.681   0.792   1.497
 5997SOL    HW218891   0.669   0.631   1.521
 5998SOL     OW18892   4.981   2.469   3.091
 5998SOL    HW118893   4.979   2.562   3.126
 5998SOL    HW218894   4.962   2.470   2.993
 5999SOL     OW18895   2.352   2.664   2.992
 5999SOL    HW118896   2.356   2.737   2.923
 5999SOL    HW218897   2.295   2.694   3.069
 6000SOL     OW18898   4.879   0.793   3.491
 6000SOL    HW118899   4.829   0.752   3.567
 6000SOL    HW218900   4.947   0.857   3.526
 6001SOL     OW18901   6.269   1.448   0.482
 6001SOL    HW118902   6.282   1.445   0.383
 6001SOL    HW218903   6.316   1.370   0.524
 6002SOL     OW18904   1.682   0.136   2.379
 6002SOL    HW118905   1.759   0.197   2.400
 6002SOL    HW218906   1.616   0.184   2.321
 6003SOL     OW18907   4.937   4.097   4.053
 6003SOL    HW118908   4.866   4.102   4.123
 6003SOL    HW218909   5.004   4.170   4.068
 6004SOL     OW18910   0.182   3.156   1.558
 6004SOL    HW118911   0.196   3.114   1.648
 6004SOL    HW218912   0.160   3.253   1.570
 6005SOL     OW18913   1.478   6.251   2.341
 6005SOL    HW118914   1.525   6.329   2.383
 6005SOL    HW218915   1.432   6.197   2.411
 6006SOL     OW18916   2.655   5.717   6.986
 6006SOL    HW118917   2.728   5.649   6.992
 6006SOL    HW218918   2.600   5.716   0.052
 6007SOL     OW18919   5.107   3.824   4.378
 6007SOL    HW118920   5.019   3.785   4.405
 6007SOL    HW218921   5.180   3.779   4.427
 6008SOL     OW18922   4.743   4.010   1.438
 6008SOL    HW118923   4.678   3.944   1.399
 6008SOL    HW218924   4.734   4.011   1.537
 6009SOL     OW18925   4.699   2.065   5.118
 6009SOL    HW118926   4.776   2.129   5.117
 6009SOL    HW218927   4.624   2.102   5.062
 6010SOL     OW18928   1.997   4.329   3.346
 6010SOL    HW118929   1.923   4.270   3.379
 6010SOL    HW218930   1.964   4.383   3.269
 6011SOL     OW18931   6.249   2.078   1.684
 6011SOL    HW118932   6.244   1.978   1.677
 6011SOL    HW218933   6.250   2.118   1.592
 6012SOL     OW18934   0.406   2.883   1.423
 6012SOL    HW118935   0.385   2.972   1.383
 6012SOL    HW218936   0.353   2.872   1.508
 6013SOL     OW18937   5.346   0.330   2.403
 6013SOL    HW118938   5.372   0.237   2.427
 6013SOL    HW218939   5.412   0.394   2.443
 6014SOL     OW18940   6.635   0.945   0.903
 6014SOL    HW118941   6.576   0.890   0.962
 6014SOL    HW218942   6.583   0.975   0.823
 6015SOL     OW18943   5.762   0.121   4.125
 6015SOL    HW118944   5.732   0.157   4.037
 6015SOL    HW218945   5.848   0.164   4.151
 6016SOL     OW18946   1.960   0.264   5.263
 6016SOL    HW118947   1.898   0.276   5.340
 6016SOL    HW218948   1.955   0.344   5.203
 6017SOL     OW18949   0.215   3.726   2.687
 6017SOL    HW118950   0.180   3.700   2.777
 6017SOL    HW218951   0.315   3.728   2.690
 6018SOL     OW18952   3.018   4.820   1.526
 6018SOL    HW118953   3.051   4.734   1.564
 6018SOL    HW218954   2.977   4.876   1.599
 6019SOL     OW18955   6.470   6.271   3.161
 6019SOL    HW118956   6.462   6.369   3.143
 6019SOL    HW218957   6.400   6.243   3.227
 6020SOL     OW18958   1.841   6.591   2.929
 6020SOL    HW118959   1.935   6.601   2.894
 6020SOL    HW218960   1.778   6.639   2.869
 6021SOL     OW18961   3.551   0.739   3.430
 6021SOL    HW118962   3.559   0.674   3.506
 6021SOL    HW218963   3.525   0.689   3.347
 6022SOL     OW18964   4.084   0.832   5.674
 6022SOL    HW118965   4.019   0.856   5.746
 6022SOL    HW218966   4.177   0.841   5.709
 6023SOL     OW18967   0.309   2.084   2.031
 6023SOL    HW118968   0.347   2.015   1.969
 6023SOL    HW218969   0.337   2.064   2.125
 6024SOL     OW18970   6.422   5.555   2.852
 6024SOL    HW118971   6.385   5.594   2.936
 6024SOL    HW218972   6.466   5.626   2.798
 6025SOL     OW18973   4.431   2.196   2.515
 6025SOL    HW118974   4.469   2.134   2.447
 6025SOL    HW218975   4.349   2.239   2.478
 6026SOL     OW18976   0.828   4.438   5.699
 6026SOL    HW118977   0.836   4.370   5.626
 6026SOL    HW218978   0.740   4.428   5.744
 6027SOL     OW18979   4.310   3.731   0.710
 6027SOL    HW118980   4.252   3.661   0.669
 6027SOL    HW218981   4.253   3.804   0.746
 6028SOL     OW18982   0.564   4.595   6.799
 6028SOL    HW118983   0.552   4.679   6.853
 6028SOL    HW218984   0.661   4.572   6.795
 6029SOL     OW18985   1.240   5.322   1.637
 6029SOL    HW118986   1.270   5.327   1.541
 6029SOL    HW218987   1.178   5.397   1.657
 6030SOL     OW18988   1.786   6.468   1.894
 6030SOL    HW118989   1.812   6.376   1.865
 6030SOL    HW218990   1.837   6.493   1.976
 6031SOL     OW18991   4.790   0.979   4.210
 6031SOL    HW118992   4.832   1.038   4.279
 6031SOL    HW218993   4.802   0.883   4.237
 6032SOL     OW18994   0.950   2.599   2.588
 6032SOL    HW118995   1.024   2.536   2.609
 6032SOL    HW218996   0.868   2.573   2.638
 6033SOL     OW18997   0.660   7.002   4.603
 6033SOL    HW118998   0.710   7.017   4.518
 6033SOL    HW218999   0.678   6.909   4.636
 6034SOL     OW19000   2.479   4.525   4.862
 6034SOL    HW119001   2.542   4.518   4.940
 6034SOL    HW219002   2.402   4.464   4.877
 6035SOL     OW19003   5.151   0.038   3.721
 6035SOL    HW119004   5.179   7.010   3.806
 6035SOL    HW219005   5.055   0.017   3.703
 6036SOL     OW19006   6.561   0.619   4.636
 6036SOL    HW119007   6.624   0.691   4.664
 6036SOL    HW219008   6.474   0.659   4.609
 6037SOL     OW19009   0.273   5.607   4.790
 6037SOL    HW119010   0.311   5.636   4.877
 6037SOL    HW219011   0.251   5.509   4.794
 6038SOL     OW19012   6.617   4.197   6.776
 6038SOL    HW119013   6.681   4.256   6.727
 6038SOL    HW219014   6.585   4.125   6.714
 6039SOL     OW19015   3.766   3.226   4.207
 6039SOL    HW119016   3.730   3.313   4.173
 6039SOL    HW219017   3.865   3.234   4.219
 6040SOL     OW19018   1.296   1.055   1.204
 6040SOL    HW119019   1.336   1.116   1.272
 6040SOL    HW219020   1.345   1.064   1.117
 6041SOL     OW19021   0.638   2.944   0.119
 6041SOL    HW119022   0.665   3.002   0.196
 6041SOL    HW219023   0.539   2.949   0.107
 6042SOL     OW19024   4.941   5.282   4.835
 6042SOL    HW119025   4.860   5.321   4.880
 6042SOL    HW219026   4.974   5.203   4.887
 6043SOL     OW19027   0.409   4.394   3.990
 6043SOL    HW119028   0.450   4.413   3.901
 6043SOL    HW219029   0.314   4.367   3.978
 6044SOL     OW19030   1.829   0.419   1.445
 6044SOL    HW119031   1.765   0.430   1.521
 6044SOL    HW219032   1.915   0.466   1.466
 6045SOL     OW19033   6.515   4.115   0.476
 6045SOL    HW119034   6.513   4.020   0.444
 6045SOL    HW219035   6.579   4.124   0.552
 6046SOL     OW19036   1.714   3.855   6.631
 6046SOL    HW119037   1.787   3.793   6.661
 6046SOL    HW219038   1.665   3.815   6.554
 6047SOL     OW19039   0.652   5.528   4.884
 6047SOL    HW119040   0.659   5.569   4.793
 6047SOL    HW219041   0.569   5.559   4.929
 6048SOL     OW19042   4.483   6.219   4.568
 6048SOL    HW119043   4.397   6.206   4.618
 6048SOL    HW219044   4.546   6.273   4.624
 6049SOL     OW19045   6.672   5.636   0.265
 6049SOL    HW119046   6.705   5.556   0.316
 6049SOL    HW219047   6.719   5.718   0.297
 6050SOL     OW19048   5.646   4.591   5.426
 6050SOL    HW119049   5.718   4.541   5.378
 6050SOL    HW219050   5.607   4.533   5.497
 6051SOL     OW19051   3.339   2.137   3.967
 6051SOL    HW119052   3.264   2.187   3.923
 6051SOL    HW219053   3.306   2.096   4.052
 6052SOL     OW19054   0.126   1.850   0.168
 6052SOL    HW119055   0.092   1.858   0.262
 6052SOL    HW219056   0.081   1.918   0.111
 6053SOL     OW19057   1.426   0.385   6.185
 6053SOL    HW119058   1.448   0.446   6.109
 6053SOL    HW219059   1.469   0.296   6.170
 6054SOL     OW19060   0.995   4.385   6.173
 6054SOL    HW119061   0.998   4.383   6.073
 6054SOL    HW219062   1.061   4.451   6.207
 6055SOL     OW19063   5.468   0.103   2.987
 6055SOL    HW119064   5.490   0.051   3.069
 6055SOL    HW219065   5.528   0.073   2.912
 6056SOL     OW19066   5.520   3.167   6.124
 6056SOL    HW119067   5.486   3.215   6.043
 6056SOL    HW219068   5.447   3.111   6.162
 6057SOL     OW19069   3.768   0.986   6.534
 6057SOL    HW119070   3.822   1.054   6.586
 6057SOL    HW219071   3.830   0.922   6.489
 6058SOL     OW19072   5.337   1.767   5.035
 6058SOL    HW119073   5.409   1.705   5.065
 6058SOL    HW219074   5.363   1.809   4.949
 6059SOL     OW19075   0.078   6.342   6.460
 6059SOL    HW119076   0.090   6.258   6.513
 6059SOL    HW219077   0.158   6.401   6.471
 6060SOL     OW19078   3.146   5.993   6.434
 6060SOL    HW119079   3.197   6.014   6.517
 6060SOL    HW219080   3.056   5.956   6.459
 6061SOL     OW19081   2.028   1.612   6.936
 6061SOL    HW119082   2.111   1.598   6.882
 6061SOL    HW219083   2.034   1.698   6.986
 6062SOL     OW19084   1.436   0.015   4.239
 6062SOL    HW119085   1.407   0.074   4.164
 6062SOL    HW219086   1.438   6.938   4.207
 6063SOL     OW19087   5.952   5.850   6.963
 6063SOL    HW119088   5.904   5.926   7.007
 6063SOL    HW219089   6.001   5.885   6.883
 6064SOL     OW19090   0.852   4.845   2.312
 6064SOL    HW119091   0.759   4.880   2.303
 6064SOL    HW219092   0.853   4.747   2.292
 6065SOL     OW19093   5.635   6.958   1.827
 6065SOL    HW119094   5.605   6.870   1.789
 6065SOL    HW219095   5.691   6.941   1.908
 6066SOL     OW19096   4.088   1.653   5.677
 6066SOL    HW119097   4.066   1.726   5.613
 6066SOL    HW219098   4.126   1.692   5.761
 6067SOL     OW19099   4.688   2.086   6.650
 6067SOL    HW119100   4.775   2.110   6.693
 6067SOL    HW219101   4.636   2.026   6.712
 6068SOL     OW19102   5.284   1.133   5.613
 6068SOL    HW119103   5.376   1.099   5.629
 6068SOL    HW219104   5.217   1.064   5.641
 6069SOL     OW19105   6.197   5.196   3.686
 6069SOL    HW119106   6.261   5.155   3.621
 6069SOL    HW219107   6.198   5.295   3.675
 6070SOL     OW19108   4.824   3.397   0.472
 6070SOL    HW119109   4.887   3.361   0.404
 6070SOL    HW219110   4.848   3.362   0.563
 6071SOL     OW19111   5.243   6.791   5.131
 6071SOL    HW119112   5.149   6.758   5.133
 6071SOL    HW219113   5.250   6.876   5.183
 6072SOL     OW19114   6.226   1.652   1.125
 6072SOL    HW119115   6.293   1.717   1.087
 6072SOL    HW219116   6.171   1.698   1.194
 6073SOL     OW19117   6.265   1.012   1.614
 6073SOL    HW119118   6.304   1.086   1.669
 6073SOL    HW219119   6.315   1.005   1.528
 6074SOL     OW19120   0.985   0.517   5.460
 6074SOL    HW119121   1.078   0.520   5.495
 6074SOL    HW219122   0.987   0.501   5.361
 6075SOL     OW19123   4.868   3.499   6.331
 6075SOL    HW119124   4.776   3.537   6.320
 6075SOL    HW219125   4.874   3.450   6.418
 6076SOL     OW19126   2.842   0.422   3.684
 6076SOL    HW119127   2.742   0.428   3.685
 6076SOL    HW219128   2.881   0.511   3.708
 6077SOL     OW19129   4.443   4.820   2.918
 6077SOL    HW119130   4.396   4.885   2.977
 6077SOL    HW219131   4.381   4.746   2.894
 6078SOL     OW19132   1.724   3.973   3.706
 6078SOL    HW119133   1.748   3.904   3.638
 6078SOL    HW219134   1.788   3.968   3.783
 6079SOL     OW19135   3.232   1.880   0.831
 6079SOL    HW119136   3.156   1.944   0.846
 6079SOL    HW219137   3.307   1.903   0.892
 6080SOL     OW19138   5.857   3.122   3.208
 6080SOL    HW119139   5.896   3.151   3.296
 6080SOL    HW219140   5.800   3.195   3.171
 6081SOL     OW19141   0.479   4.092   2.352
 6081SOL    HW119142   0.415   4.086   2.275
 6081SOL    HW219143   0.475   4.007   2.405
 6082SOL     OW19144   4.068   1.777   4.800
 6082SOL    HW119145   4.092   1.682   4.777
 6082SOL    HW219146   4.072   1.790   4.899
 6083SOL     OW19147   2.005   6.293   6.832
 6083SOL    HW119148   1.933   6.234   6.795
 6083SOL    HW219149   2.091   6.242   6.835
 6084SOL     OW19150   0.043   5.362   6.335
 6084SOL    HW119151   6.998   5.435   6.309
 6084SOL    HW219152   0.025   5.281   6.280
 6085SOL     OW19153   4.866   5.128   1.540
 6085SOL    HW119154   4.879   5.029   1.532
 6085SOL    HW219155   4.935   5.176   1.485
 6086SOL     OW19156   3.259   1.662   2.633
 6086SOL    HW119157   3.239   1.750   2.676
 6086SOL    HW219158   3.312   1.676   2.549
 6087SOL     OW19159   3.738   0.322   0.617
 6087SOL    HW119160   3.774   0.262   0.546
 6087SOL    HW219161   3.675   0.388   0.576
 6088SOL     OW19162   6.704   0.472   4.912
 6088SOL    HW119163   6.669   0.520   4.993
 6088SOL    HW219164   6.797   0.440   4.931
 6089SOL     OW19165   6.625   3.761   1.352
 6089SOL    HW119166   6.628   3.684   1.289
 6089SOL    HW219167   6.673   3.839   1.312
 6090SOL     OW19168   6.823   5.838   4.294
 6090SOL    HW119169   6.846   5.935   4.287
 6090SOL    HW219170   6.807   5.814   4.390
 6091SOL     OW19171   6.545   2.532   1.728
 6091SOL    HW119172   6.498   2.607   1.774
 6091SOL    HW219173   6.644   2.541   1.743
 6092SOL     OW19174   1.331   3.295   1.167
 6092SOL    HW119175   1.408   3.359   1.158
 6092SOL    HW219176   1.357   3.206   1.130
 6093SOL     OW19177   1.018   4.319   0.781
 6093SOL    HW119178   1.075   4.399   0.800
 6093SOL    HW219179   1.031   4.292   0.686
 6094SOL     OW19180   0.455   1.392   0.832
 6094SOL    HW119181   0.462   1.450   0.913
 6094SOL    HW219182   0.405   1.441   0.760
 6095SOL     OW19183   6.224   3.998   4.989
 6095SOL    HW119184   6.174   3.949   4.917
 6095SOL    HW219185   6.271   3.932   5.048
 6096SOL     OW19186   5.261   2.050   2.667
 6096SOL    HW119187   5.267   2.057   2.567
 6096SOL    HW219188   5.349   2.075   2.707
 6097SOL     OW19189   3.382   2.057   2.900
 6097SOL    HW119190   3.345   1.965   2.912
 6097SOL    HW219191   3.459   2.071   2.963
 6098SOL     OW19192   0.849   0.396   6.738
 6098SOL    HW119193   0.763   0.403   6.789
 6098SOL    HW219194   0.925   0.392   6.803
 6099SOL     OW19195   5.779   4.466   4.715
 6099SOL    HW119196   5.738   4.422   4.635
 6099SOL    HW219197   5.826   4.398   4.771
 6100SOL     OW19198   0.040   2.876   0.402
 6100SOL    HW119199   7.009   2.942   0.460
 6100SOL    HW219200   6.998   2.847   0.328
 6101SOL     OW19201   6.622   6.559   3.481
 6101SOL    HW119202   6.626   6.657   3.462
 6101SOL    HW219203   6.587   6.544   3.573
 6102SOL     OW19204   2.980   6.562   4.839
 6102SOL    HW119205   2.946   6.560   4.933
 6102SOL    HW219206   2.970   6.654   4.802
 6103SOL     OW19207   5.563   1.644   5.122
 6103SOL    HW119208   5.609   1.655   5.034
 6103SOL    HW219209   5.631   1.626   5.193
 6104SOL     OW19210   1.789   2.925   1.066
 6104SOL    HW119211   1.860   2.905   1.133
 6104SOL    HW219212   1.767   2.842   1.015
 6105SOL     OW19213   2.978   5.001   4.530
 6105SOL    HW119214   3.014   5.050   4.609
 6105SOL    HW219215   2.934   4.916   4.561
 6106SOL     OW19216   2.305   4.791   4.186
 6106SOL    HW119217   2.254   4.826   4.108
 6106SOL    HW219218   2.261   4.821   4.271
 6107SOL     OW19219   2.309   5.089   5.784
 6107SOL    HW119220   2.305   5.178   5.828
 6107SOL    HW219221   2.324   5.018   5.852
 6108SOL     OW19222   5.553   1.683   4.827
 6108SOL    HW119223   5.572   1.702   4.730
 6108SOL    HW219224   5.567   1.766   4.880
 6109SOL     OW19225   6.996   4.231   1.799
 6109SOL    HW119226   7.017   4.150   1.745
 6109SOL    HW219227   6.897   4.249   1.795
 6110SOL     OW19228   3.371   2.045   3.402
 6110SOL    HW119229   3.457   2.087   3.373
 6110SOL    HW219230   3.377   2.019   3.498
 6111SOL     OW19231   0.023   4.231   3.753
 6111SOL    HW119232   0.084   4.154   3.769
 6111SOL    HW219233   0.011   4.244   3.655
 6112SOL     OW19234   1.300   1.724   1.249
 6112SOL    HW119235   1.374   1.792   1.251
 6112SOL    HW219236   1.338   1.634   1.231
 6113SOL     OW19237   1.561   4.899   5.050
 6113SOL    HW119238   1.575   4.878   5.147
 6113SOL    HW219239   1.496   4.974   5.042
 6114SOL     OW19240   4.354   4.470   0.741
 6114SOL    HW119241   4.361   4.379   0.699
 6114SOL    HW219242   4.273   4.473   0.800
 6115SOL     OW19243   6.628   4.930   2.182
 6115SOL    HW119244   6.710   4.910   2.128
 6115SOL    HW219245   6.552   4.951   2.121
 6116SOL     OW19246   3.799   2.125   1.238
 6116SOL    HW119247   3.888   2.081   1.248
 6116SOL    HW219248   3.757   2.135   1.329
 6117SOL     OW19249   5.641   6.337   3.834
 6117SOL    HW119250   5.561   6.313   3.889
 6117SOL    HW219251   5.723   6.297   3.877
 6118SOL     OW19252   6.703   0.016   3.227
 6118SOL    HW119253   6.748   0.104   3.241
 6118SOL    HW219254   6.624   0.028   3.166
 6119SOL     OW19255   5.202   5.524   4.350
 6119SOL    HW119256   5.228   5.508   4.255
 6119SOL    HW219257   5.103   5.511   4.360
 6120SOL     OW19258   2.340   1.664   3.262
 6120SOL    HW119259   2.404   1.698   3.193
 6120SOL    HW219260   2.351   1.565   3.272
 6121SOL     OW19261   0.069   1.853   4.420
 6121SOL    HW119262   0.021   1.837   4.506
 6121SOL    HW219263   0.154   1.904   4.439
 6122SOL     OW19264   3.892   5.853   4.255
 6122SOL    HW119265   3.905   5.802   4.340
 6122SOL    HW219266   3.929   5.801   4.178
 6123SOL     OW19267   5.342   1.462   2.859
 6123SOL    HW119268   5.286   1.385   2.890
 6123SOL    HW219269   5.285   1.526   2.807
 6124SOL     OW19270   2.961   0.421   4.639
 6124SOL    HW119271   2.965   0.326   4.608
 6124SOL    HW219272   2.965   0.423   4.738
 6125SOL     OW19273   1.409   4.449   2.392
 6125SOL    HW119274   1.329   4.471   2.448
 6125SOL    HW219275   1.430   4.526   2.332
 6126SOL     OW19276   3.516   6.745   2.692
 6126SOL    HW119277   3.473   6.814   2.750
 6126SOL    HW219278   3.450   6.674   2.669
 6127SOL     OW19279   1.733   5.156   1.855
 6127SOL    HW119280   1.816   5.211   1.862
 6127SOL    HW219281   1.693   5.168   1.764
 6128SOL     OW19282   5.132   4.033   1.291
 6128SOL    HW119283   5.227   4.004   1.305
 6128SOL    HW219284   5.097   4.074   1.375
 6129SOL     OW19285   6.242   3.833   3.541
 6129SOL    HW119286   6.154   3.871   3.571
 6129SOL    HW219287   6.262   3.867   3.449
 6130SOL     OW19288   5.602   3.523   2.712
 6130SOL    HW119289   5.555   3.438   2.737
 6130SOL    HW219290   5.609   3.582   2.792
 6131SOL     OW19291   6.330   0.861   5.388
 6131SOL    HW119292   6.423   0.833   5.410
 6131SOL    HW219293   6.323   0.961   5.396
 6132SOL     OW19294   0.286   2.476   0.450
 6132SOL    HW119295   0.345   2.501   0.374
 6132SOL    HW219296   0.253   2.383   0.438
 6133SOL     OW19297   1.214   4.798   0.094
 6133SOL    HW119298   1.131   4.763   0.138
 6133SOL    HW219299   1.293   4.770   0.147
 6134SOL     OW19300   4.850   3.976   6.677
 6134SOL    HW119301   4.766   3.948   6.631
 6134SOL    HW219302   4.880   3.904   6.740
 6135SOL     OW19303   5.669   0.076   2.781
 6135SOL    HW119304   5.671   6.994   2.777
 6135SOL    HW219305   5.744   0.113   2.727
 6136SOL     OW19306   1.409   1.684   2.541
 6136SOL    HW119307   1.326   1.734   2.513
 6136SOL    HW219308   1.462   1.741   2.604
 6137SOL     OW19309   3.781   6.962   6.555
 6137SOL    HW119310   3.798   6.952   6.457
 6137SOL    HW219311   3.688   6.933   6.576
 6138SOL     OW19312   5.063   0.630   2.801
 6138SOL    HW119313   4.965   0.612   2.791
 6138SOL    HW219314   5.114   0.555   2.760
 6139SOL     OW19315   2.767   6.131   3.752
 6139SOL    HW119316   2.862   6.128   3.721
 6139SOL    HW219317   2.707   6.151   3.675
 6140SOL     OW19318   2.359   5.479   1.312
 6140SOL    HW119319   2.288   5.412   1.291
 6140SOL    HW219320   2.420   5.490   1.234
 6141SOL     OW19321   0.664   5.743   5.281
 6141SOL    HW119322   0.663   5.695   5.368
 6141SOL    HW219323   0.709   5.687   5.212
 6142SOL     OW19324   0.051   3.680   3.685
 6142SOL    HW119325   6.992   3.618   3.699
 6142SOL    HW219326   0.058   3.704   3.588
 6143SOL     OW19327   6.073   5.347   6.393
 6143SOL    HW119328   6.016   5.275   6.355
 6143SOL    HW219329   6.089   5.329   6.490
 6144SOL     OW19330   0.055   5.377   4.030
 6144SOL    HW119331   0.104   5.391   3.944
 6144SOL    HW219332   7.004   5.449   4.041
 6145SOL     OW19333   5.610   5.189   3.190
 6145SOL    HW119334   5.622   5.281   3.155
 6145SOL    HW219335   5.695   5.160   3.235
 6146SOL     OW19336   5.704   1.747   3.631
 6146SOL    HW119337   5.717   1.823   3.567
 6146SOL    HW219338   5.789   1.728   3.679
 6147SOL     OW19339   1.039   3.844   3.588
 6147SOL    HW119340   1.094   3.844   3.672
 6147SOL    HW219341   1.097   3.817   3.511
 6148SOL     OW19342   6.382   6.093   2.806
 6148SOL    HW119343   6.466   6.133   2.844
 6148SOL    HW219344   6.332   6.045   2.878
 6149SOL     OW19345   1.183   5.566   4.580
 6149SOL    HW119346   1.090   5.552   4.545
 6149SOL    HW219347   1.194   5.513   4.665
 6150SOL     OW19348   4.273   6.452   6.219
 6150SOL    HW119349   4.248   6.396   6.141
 6150SOL    HW219350   4.250   6.548   6.201
 6151SOL     OW19351   4.843   0.097   5.340
 6151SOL    HW119352   4.890   0.076   5.426
 6151SOL    HW219353   4.850   0.195   5.322
 6152SOL     OW19354   6.393   4.203   5.650
 6152SOL    HW119355   6.321   4.160   5.705
 6152SOL    HW219356   6.480   4.197   5.698
 6153SOL     OW19357   3.761   5.503   5.714
 6153SOL    HW119358   3.708   5.441   5.656
 6153SOL    HW219359   3.841   5.535   5.664
 6154SOL     OW19360   5.374   3.210   3.090
 6154SOL    HW119361   5.316   3.128   3.084
 6154SOL    HW219362   5.330   3.278   3.148
 6155SOL     OW19363   2.509   4.558   4.582
 6155SOL    HW119364   2.472   4.473   4.546
 6155SOL    HW219365   2.502   4.557   4.682
 6156SOL     OW19366   5.666   0.381   4.859
 6156SOL    HW119367   5.730   0.361   4.933
 6156SOL    HW219368   5.716   0.383   4.772
 6157SOL     OW19369   0.827   1.182   4.631
 6157SOL    HW119370   0.926   1.195   4.622
 6157SOL    HW219371   0.780   1.266   4.602
 6158SOL     OW19372   5.388   0.147   6.924
 6158SOL    HW119373   5.453   0.218   6.900
 6158SOL    HW219374   5.430   0.082   6.987
 6159SOL     OW19375   5.007   3.424   6.835
 6159SOL    HW119376   4.972   3.378   6.916
 6159SOL    HW219377   5.107   3.413   6.830
 6160SOL     OW19378   6.476   5.264   7.006
 6160SOL    HW119379   6.477   5.166   6.990
 6160SOL    HW219380   6.564   5.293   0.025
 6161SOL     OW19381   5.762   0.169   6.197
 6161SOL    HW119382   5.853   0.209   6.202
 6161SOL    HW219383   5.755   0.112   6.115
 6162SOL     OW19384   5.394   5.134   4.097
 6162SOL    HW119385   5.422   5.142   4.001
 6162SOL    HW219386   5.431   5.049   4.135
 6163SOL     OW19387   6.323   3.893   2.816
 6163SOL    HW119388   6.256   3.966   2.833
 6163SOL    HW219389   6.414   3.925   2.840
 6164SOL     OW19390   4.547   3.209   1.359
 6164SOL    HW119391   4.481   3.134   1.353
 6164SOL    HW219392   4.628   3.179   1.410
 6165SOL     OW19393   4.074   0.423   1.252
 6165SOL    HW119394   4.077   0.485   1.174
 6165SOL    HW219395   4.159   0.369   1.256
 6166SOL     OW19396   3.201   0.593   0.497
 6166SOL    HW119397   3.184   0.692   0.491
 6166SOL    HW219398   3.118   0.543   0.472
 6167SOL     OW19399   6.666   5.466   3.456
 6167SOL    HW119400   6.747   5.458   3.398
 6167SOL    HW219401   6.640   5.375   3.489
 6168SOL     OW19402   0.093   2.808   1.420
 6168SOL    HW119403   0.149   2.829   1.340
 6168SOL    HW219404   0.034   2.885   1.441
 6169SOL     OW19405   1.530   3.960   1.053
 6169SOL    HW119406   1.564   3.874   1.015
 6169SOL    HW219407   1.455   3.994   0.996
 6170SOL     OW19408   6.688   1.901   3.472
 6170SOL    HW119409   6.658   1.815   3.430
 6170SOL    HW219410   6.620   1.972   3.452
 6171SOL     OW19411   5.887   1.539   6.495
 6171SOL    HW119412   5.946   1.512   6.571
 6171SOL    HW219413   5.813   1.473   6.486
 6172SOL     OW19414   0.182   4.541   3.686
 6172SOL    HW119415   0.217   4.490   3.607
 6172SOL    HW219416   0.105   4.599   3.657
 6173SOL     OW19417   5.366   6.408   2.923
 6173SOL    HW119418   5.373   6.309   2.937
 6173SOL    HW219419   5.270   6.433   2.907
 6174SOL     OW19420   0.012   2.148   3.384
 6174SOL    HW119421   0.110   2.164   3.371
 6174SOL    HW219422   7.017   2.082   3.458
 6175SOL     OW19423   4.026   2.026   6.968
 6175SOL    HW119424   3.964   1.985   6.902
 6175SOL    HW219425   4.115   2.041   6.926
 6176SOL     OW19426   2.881   4.668   6.019
 6176SOL    HW119427   2.902   4.576   6.053
 6176SOL    HW219428   2.966   4.718   6.004
 6177SOL     OW19429   5.730   5.595   1.861
 6177SOL    HW119430   5.724   5.648   1.946
 6177SOL    HW219431   5.641   5.553   1.842
 6178SOL     OW19432   4.183   4.817   2.008
 6178SOL    HW119433   4.241   4.747   1.967
 6178SOL    HW219434   4.087   4.798   1.985
 6179SOL     OW19435   4.725   5.795   4.951
 6179SOL    HW119436   4.656   5.826   4.885
 6179SOL    HW219437   4.715   5.847   5.036
 6180SOL     OW19438   2.226   3.775   0.054
 6180SOL    HW119439   2.284   3.800   0.132
 6180SOL    HW219440   2.143   3.731   0.087
 6181SOL     OW19441   6.698   6.664   6.966
 6181SOL    HW119442   6.771   6.670   0.016
 6181SOL    HW219443   6.734   6.690   6.876
 6182SOL     OW19444   3.491   2.731   6.408
 6182SOL    HW119445   3.442   2.818   6.412
 6182SOL    HW219446   3.588   2.748   6.388
 6183SOL     OW19447   0.308   0.449   6.966
 6183SOL    HW119448   0.387   0.434   0.009
 6183SOL    HW219449   0.224   0.432   7.017
 6184SOL     OW19450   3.134   6.766   5.523
 6184SOL    HW119451   3.080   6.791   5.604
 6184SOL    HW219452   3.210   6.829   5.513
 6185SOL     OW19453   3.781   2.936   4.195
 6185SOL    HW119454   3.763   2.894   4.284
 6185SOL    HW219455   3.759   3.034   4.200
 6186SOL     OW19456   1.059   1.789   2.559
 6186SOL    HW119457   1.097   1.850   2.489
 6186SOL    HW219458   0.965   1.765   2.536
 6187SOL     OW19459   3.548   1.838   6.093
 6187SOL    HW119460   3.597   1.773   6.151
 6187SOL    HW219461   3.501   1.788   6.020
 6188SOL     OW19462   1.848   1.448   5.830
 6188SOL    HW119463   1.796   1.513   5.884
 6188SOL    HW219464   1.843   1.357   5.872
 6189SOL     OW19465   6.510   5.590   0.562
 6189SOL    HW119466   6.594   5.588   0.507
 6189SOL    HW219467   6.524   5.648   0.642
 6190SOL     OW19468   0.862   3.443   3.461
 6190SOL    HW119469   0.852   3.540   3.484
 6190SOL    HW219470   0.783   3.392   3.497
 6191SOL     OW19471   3.029   4.527   0.176
 6191SOL    HW119472   3.117   4.521   0.222
 6191SOL    HW219473   2.981   4.439   0.185
 6192SOL     OW19474   3.335   1.661   1.546
 6192SOL    HW119475   3.341   1.561   1.537
 6192SOL    HW219476   3.377   1.705   1.467
 6193SOL     OW19477   4.486   5.647   6.514
 6193SOL    HW119478   4.565   5.659   6.454
 6193SOL    HW219479   4.511   5.672   6.608
 6194SOL     OW19480   5.249   0.059   5.919
 6194SOL    HW119481   5.338   0.103   5.935
 6194SOL    HW219482   5.183   0.128   5.888
 6195SOL     OW19483   4.337   5.634   5.798
 6195SOL    HW119484   4.355   5.603   5.705
 6195SOL    HW219485   4.252   5.686   5.800
 6196SOL     OW19486   0.023   3.586   3.421
 6196SOL    HW119487   6.999   3.521   3.357
 6196SOL    HW219488   0.062   3.536   3.498
 6197SOL     OW19489   1.130   5.555   0.573
 6197SOL    HW119490   1.069   5.533   0.649
 6197SOL    HW219491   1.171   5.644   0.588
 6198SOL     OW19492   6.267   1.498   6.409
 6198SOL    HW119493   6.363   1.471   6.400
 6198SOL    HW219494   6.213   1.457   6.336
 6199SOL     OW19495   2.225   6.872   6.387
 6199SOL    HW119496   2.190   6.952   6.339
 6199SOL    HW219497   2.227   6.794   6.324
 6200SOL     OW19498   1.621   6.679   0.203
 6200SOL    HW119499   1.712   6.662   0.239
 6200SOL    HW219500   1.559   6.606   0.235
 6201SOL     OW19501   0.298   4.823   3.392
 6201SOL    HW119502   0.392   4.850   3.410
 6201SOL    HW219503   0.241   4.843   3.471
 6202SOL     OW19504   5.568   1.225   1.965
 6202SOL    HW119505   5.634   1.195   1.895
 6202SOL    HW219506   5.551   1.150   2.029
 6203SOL     OW19507   6.920   1.606   2.213
 6203SOL    HW119508   6.990   1.549   2.170
 6203SOL    HW219509   6.831   1.587   2.171
 6204SOL     OW19510   1.213   6.077   4.747
 6204SOL    HW119511   1.207   6.090   4.845
 6204SOL    HW219512   1.221   5.979   4.727
 6205SOL     OW19513   6.637   4.386   3.413
 6205SOL    HW119514   6.682   4.335   3.339
 6205SOL    HW219515   6.594   4.321   3.476
 6206SOL     OW19516   5.111   1.977   3.501
 6206SOL    HW119517   5.204   1.980   3.537
 6206SOL    HW219518   5.056   1.912   3.553
 6207SOL     OW19519   1.873   5.706   3.708
 6207SOL    HW119520   1.788   5.738   3.667
 6207SOL    HW219521   1.950   5.753   3.664
 6208SOL     OW19522   3.544   4.243   6.656
 6208SOL    HW119523   3.616   4.199   6.710
 6208SOL    HW219524   3.498   4.313   6.712
 6209SOL     OW19525   3.514   1.140   2.438
 6209SOL    HW119526   3.514   1.223   2.494
 6209SOL    HW219527   3.609   1.110   2.424
 6210SOL     OW19528   5.820   1.073   4.099
 6210SOL    HW119529   5.854   1.110   4.012
 6210SOL    HW219530   5.865   0.986   4.119
 6211SOL     OW19531   5.242   2.697   5.155
 6211SOL    HW119532   5.147   2.725   5.142
 6211SOL    HW219533   5.260   2.614   5.102
 6212SOL     OW19534   5.523   4.062   4.972
 6212SOL    HW119535   5.493   4.115   4.892
 6212SOL    HW219536   5.490   3.968   4.965
 6213SOL     OW19537   4.831   5.715   0.216
 6213SOL    HW119538   4.893   5.759   0.281
 6213SOL    HW219539   4.856   5.618   0.208
 6214SOL     OW19540   6.711   6.709   6.114
 6214SOL    HW119541   6.763   6.641   6.062
 6214SOL    HW219542   6.774   6.768   6.164
 6215SOL     OW19543   6.000   2.171   4.891
 6215SOL    HW119544   6.077   2.191   4.953
 6215SOL    HW219545   6.008   2.078   4.857
 6216SOL     OW19546   5.336   2.439   5.528
 6216SOL    HW119547   5.327   2.465   5.624
 6216SOL    HW219548   5.255   2.390   5.498
 6217SOL     OW19549   6.789   4.197   2.055
 6217SOL    HW119550   6.806   4.235   1.965
 6217SOL    HW219551   6.874   4.195   2.107
 6218SOL     OW19552   4.808   6.523   1.052
 6218SOL    HW119553   4.815   6.445   1.114
 6218SOL    HW219554   4.740   6.588   1.086
 6219SOL     OW19555   2.568   0.669   0.382
 6219SOL    HW119556   2.664   0.663   0.356
 6219SOL    HW219557   2.519   0.588   0.347
 6220SOL     OW19558   3.147   0.872   2.357
 6220SOL    HW119559   3.167   0.970   2.364
 6220SOL    HW219560   3.187   0.835   2.274
 6221SOL     OW19561   4.597   5.113   5.244
 6221SOL    HW119562   4.559   5.071   5.327
 6221SOL    HW219563   4.537   5.187   5.214
 6222SOL     OW19564   6.454   1.702   2.228
 6222SOL    HW119565   6.359   1.684   2.200
 6222SOL    HW219566   6.467   1.670   2.322
 6223SOL     OW19567   6.531   5.217   3.851
 6223SOL    HW119568   6.448   5.168   3.878
 6223SOL    HW219569   6.594   5.222   3.929
 6224SOL     OW19570   4.077   6.926   0.105
 6224SOL    HW119571   4.109   6.863   0.034
 6224SOL    HW219572   3.986   6.899   0.136
 6225SOL     OW19573   5.051   5.922   6.783
 6225SOL    HW119574   4.982   5.990   6.806
 6225SOL    HW219575   5.094   5.945   6.696
 6226SOL     OW19576   0.964   1.119   4.147
 6226SOL    HW119577   0.897   1.163   4.088
 6226SOL    HW219578   0.964   1.020   4.130
 6227SOL     OW19579   2.078   4.361   6.321
 6227SOL    HW119580   2.057   4.379   6.225
 6227SOL    HW219581   2.064   4.445   6.374
 6228SOL     OW19582   0.373   3.349   4.280
 6228SOL    HW119583   0.404   3.275   4.339
 6228SOL    HW219584   0.382   3.323   4.184
 6229SOL     OW19585   0.250   4.079   5.089
 6229SOL    HW119586   0.328   4.092   5.027
 6229SOL    HW219587   0.203   4.166   5.101
 6230SOL     OW19588   1.018   0.750   1.542
 6230SOL    HW119589   1.036   0.679   1.610
 6230SOL    HW219590   0.987   0.707   1.457
 6231SOL     OW19591   2.027   5.757   5.925
 6231SOL    HW119592   2.037   5.724   5.831
 6231SOL    HW219593   1.975   5.842   5.925
 6232SOL     OW19594   4.259   0.297   6.648
 6232SOL    HW119595   4.206   0.354   6.711
 6232SOL    HW219596   4.235   0.201   6.663
 6233SOL     OW19597   0.134   4.433   1.342
 6233SOL    HW119598   0.092   4.523   1.328
 6233SOL    HW219599   0.160   4.422   1.438
 6234SOL     OW19600   4.675   5.695   3.351
 6234SOL    HW119601   4.747   5.747   3.397
 6234SOL    HW219602   4.713   5.651   3.270
 6235SOL     OW19603   0.076   0.705   1.446
 6235SOL    HW119604   0.171   0.726   1.467
 6235SOL    HW219605   0.031   0.786   1.409
 6236SOL     OW19606   6.606   5.929   1.797
 6236SOL    HW119607   6.641   6.023   1.793
 6236SOL    HW219608   6.553   5.910   1.714
 6237SOL     OW19609   4.117   1.412   2.363
 6237SOL    HW119610   4.148   1.394   2.270
 6237SOL    HW219611   4.161   1.496   2.396
 6238SOL     OW19612   2.594   0.535   3.639
 6238SOL    HW119613   2.533   0.463   3.606
 6238SOL    HW219614   2.542   0.602   3.691
 6239SOL     OW19615   3.720   1.464   3.752
 6239SOL    HW119616   3.743   1.439   3.846
 6239SOL    HW219617   3.790   1.429   3.690
 6240SOL     OW19618   4.039   3.509   3.980
 6240SOL    HW119619   3.942   3.492   3.960
 6240SOL    HW219620   4.049   3.597   4.026
 6241SOL     OW19621   4.014   0.034   3.134
 6241SOL    HW119622   4.064   7.001   3.063
 6241SOL    HW219623   4.077   0.099   3.177
 6242SOL     OW19624   3.301   2.134   4.686
 6242SOL    HW119625   3.204   2.134   4.712
 6242SOL    HW219626   3.347   2.211   4.729
 6243SOL     OW19627   3.294   1.147   0.202
 6243SOL    HW119628   3.307   1.087   0.123
 6243SOL    HW219629   3.334   1.105   0.283
 6244SOL     OW19630   4.698   2.345   1.980
 6244SOL    HW119631   4.708   2.369   1.883
 6244SOL    HW219632   4.785   2.361   2.027
 6245SOL     OW19633   6.870   4.815   2.088
 6245SOL    HW119634   6.840   4.732   2.134
 6245SOL    HW219635   6.810   4.834   2.011
 6246SOL     OW19636   0.805   5.573   5.103
 6246SOL    HW119637   0.867   5.635   5.055
 6246SOL    HW219638   0.745   5.528   5.038
 6247SOL     OW19639   5.792   5.224   2.637
 6247SOL    HW119640   5.877   5.174   2.622
 6247SOL    HW219641   5.726   5.165   2.684
 6248SOL     OW19642   4.696   2.990   5.808
 6248SOL    HW119643   4.651   2.901   5.806
 6248SOL    HW219644   4.628   3.062   5.801
 6249SOL     OW19645   5.665   2.564   3.466
 6249SOL    HW119646   5.567   2.586   3.462
 6249SOL    HW219647   5.686   2.492   3.401
 6250SOL     OW19648   5.104   0.329   5.851
 6250SOL    HW119649   5.026   0.345   5.791
 6250SOL    HW219650   5.113   0.405   5.915
 6251SOL     OW19651   2.511   0.829   4.140
 6251SOL    HW119652   2.453   0.900   4.101
 6251SOL    HW219653   2.606   0.859   4.139
 6252SOL     OW19654   3.249   5.100   0.570
 6252SOL    HW119655   3.150   5.114   0.572
 6252SOL    HW219656   3.277   5.072   0.477
 6253SOL     OW19657   5.302   6.304   3.294
 6253SOL    HW119658   5.247   6.386   3.276
 6253SOL    HW219659   5.398   6.323   3.274
 6254SOL     OW19660   0.050   0.121   1.985
 6254SOL    HW119661   0.018   0.163   2.070
 6254SOL    HW219662   7.011   0.151   1.909
 6255SOL     OW19663   2.123   0.654   0.749
 6255SOL    HW119664   2.166   0.619   0.666
 6255SOL    HW219665   2.024   0.665   0.733
 6256SOL     OW19666   6.564   4.789   2.426
 6256SOL    HW119667   6.589   4.819   2.334
 6256SOL    HW219668   6.537   4.693   2.424
 6257SOL     OW19669   4.065   4.185   0.908
 6257SOL    HW119670   4.024   4.232   0.829
 6257SOL    HW219671   4.051   4.240   0.990
 6258SOL     OW19672   4.007   4.976   4.808
 6258SOL    HW119673   4.026   4.956   4.904
 6258SOL    HW219674   4.090   4.966   4.754
 6259SOL     OW19675   4.558   0.794   4.533
 6259SOL    HW119676   4.577   0.785   4.435
 6259SOL    HW219677   4.459   0.807   4.546
 6260SOL     OW19678   3.449   2.225   6.925
 6260SOL    HW119679   3.395   2.288   6.980
 6260SOL    HW219680   3.543   2.224   6.958
 6261SOL     OW19681   4.165   6.721   0.949
 6261SOL    HW119682   4.231   6.779   0.996
 6261SOL    HW219683   4.214   6.658   0.888
 6262SOL     OW19684   6.254   0.948   3.008
 6262SOL    HW119685   6.172   1.005   3.005
 6262SOL    HW219686   6.329   0.995   2.961
 6263SOL     OW19687   6.221   5.938   6.240
 6263SOL    HW119688   6.262   6.021   6.279
 6263SOL    HW219689   6.290   5.866   6.234
 6264SOL     OW19690   0.909   6.330   0.974
 6264SOL    HW119691   0.815   6.320   1.008
 6264SOL    HW219692   0.973   6.317   1.050
 6265SOL     OW19693   3.985   6.584   6.665
 6265SOL    HW119694   4.026   6.674   6.651
 6265SOL    HW219695   3.892   6.595   6.702
 6266SOL     OW19696   2.888   5.179   2.930
 6266SOL    HW119697   2.810   5.124   2.901
 6266SOL    HW219698   2.973   5.130   2.908
 6267SOL     OW19699   0.451   6.362   4.922
 6267SOL    HW119700   0.453   6.361   5.022
 6267SOL    HW219701   0.508   6.288   4.886
 6268SOL     OW19702   3.090   1.586   1.811
 6268SOL    HW119703   3.108   1.668   1.865
 6268SOL    HW219704   3.157   1.515   1.833
 6269SOL     OW19705   6.941   6.228   0.209
 6269SOL    HW119706   6.963   6.325   0.200
 6269SOL    HW219707   6.975   6.179   0.130
 6270SOL     OW19708   1.367   6.534   0.795
 6270SOL    HW119709   1.451   6.537   0.850
 6270SOL    HW219710   1.381   6.472   0.717
 6271SOL     OW19711   6.986   3.427   5.507
 6271SOL    HW119712   0.059   3.419   5.548
 6271SOL    HW219713   6.969   3.522   5.481
 6272SOL     OW19714   0.695   1.355   0.695
 6272SOL    HW119715   0.692   1.393   0.603
 6272SOL    HW219716   0.606   1.368   0.740
 6273SOL     OW19717   1.031   6.491   3.265
 6273SOL    HW119718   1.056   6.515   3.359
 6273SOL    HW219719   0.993   6.398   3.263
 6274SOL     OW19720   2.881   5.709   4.315
 6274SOL    HW119721   2.846   5.616   4.306
 6274SOL    HW219722   2.863   5.761   4.232
 6275SOL     OW19723   2.926   5.697   1.488
 6275SOL    HW119724   2.910   5.750   1.571
 6275SOL    HW219725   3.004   5.636   1.501
 6276SOL     OW19726   1.870   4.794   2.522
 6276SOL    HW119727   1.867   4.802   2.422
 6276SOL    HW219728   1.876   4.698   2.548
 6277SOL     OW19729   4.693   2.501   1.735
 6277SOL    HW119730   4.621   2.520   1.668
 6277SOL    HW219731   4.693   2.573   1.805
 6278SOL     OW19732   3.100   3.045   0.419
 6278SOL    HW119733   3.049   3.112   0.472
 6278SOL    HW219734   3.036   2.983   0.373
 6279SOL     OW19735   1.454   6.635   1.929
 6279SOL    HW119736   1.550   6.649   1.905
 6279SOL    HW219737   1.443   6.546   1.972
 6280SOL     OW19738   5.072   0.968   7.016
 6280SOL    HW119739   5.036   0.893   6.961
 6280SOL    HW219740   5.129   0.930   0.072
 6281SOL     OW19741   5.488   3.979   5.683
 6281SOL    HW119742   5.509   4.068   5.722
 6281SOL    HW219743   5.436   3.925   5.750
 6282SOL     OW19744   0.425   3.886   5.578
 6282SOL    HW119745   0.399   3.829   5.500
 6282SOL    HW219746   0.524   3.882   5.591
 6283SOL     OW19747   2.369   0.373   3.996
 6283SOL    HW119748   2.462   0.388   3.965
 6283SOL    HW219749   2.368   0.362   4.096
 6284SOL     OW19750   1.603   4.128   6.315
 6284SOL    HW119751   1.666   4.184   6.369
 6284SOL    HW219752   1.646   4.040   6.294
 6285SOL     OW19753   1.287   4.103   3.213
 6285SOL    HW119754   1.334   4.043   3.278
 6285SOL    HW219755   1.353   4.168   3.175
 6286SOL     OW19756   1.029   2.961   6.989
 6286SOL    HW119757   0.984   2.906   6.919
 6286SOL    HW219758   1.025   3.058   6.963
 6287SOL     OW19759   4.611   5.155   4.868
 6287SOL    HW119760   4.665   5.229   4.908
 6287SOL    HW219761   4.514   5.174   4.880
 6288SOL     OW19762   3.128   3.755   5.678
 6288SOL    HW119763   3.123   3.852   5.657
 6288SOL    HW219764   3.050   3.707   5.638
 6289SOL     OW19765   2.668   4.867   5.194
 6289SOL    HW119766   2.657   4.966   5.190
 6289SOL    HW219767   2.624   4.825   5.114
 6290SOL     OW19768   6.395   6.985   2.975
 6290SOL    HW119769   6.323   6.942   3.029
 6290SOL    HW219770   6.453   6.914   2.935
 6291SOL     OW19771   3.015   3.271   2.323
 6291SOL    HW119772   3.030   3.236   2.415
 6291SOL    HW219773   2.951   3.347   2.326
 6292SOL     OW19774   1.119   4.218   4.893
 6292SOL    HW119775   1.121   4.213   4.993
 6292SOL    HW219776   1.057   4.148   4.857
 6293SOL     OW19777   2.888   1.222   0.418
 6293SOL    HW119778   2.856   1.316   0.408
 6293SOL    HW219779   2.816   1.167   0.462
 6294SOL     OW19780   1.792   0.462   2.113
 6294SOL    HW119781   1.731   0.398   2.160
 6294SOL    HW219782   1.834   0.523   2.180
 6295SOL     OW19783   4.407   2.518   5.709
 6295SOL    HW119784   4.405   2.552   5.615
 6295SOL    HW219785   4.500   2.529   5.746
 6296SOL     OW19786   0.030   2.603   0.494
 6296SOL    HW119787   0.103   2.536   0.482
 6296SOL    HW219788   0.068   2.686   0.536
 6297SOL     OW19789   6.940   0.895   4.459
 6297SOL    HW119790   6.924   0.991   4.436
 6297SOL    HW219791   0.013   0.885   4.499
 6298SOL     OW19792   6.698   0.255   6.417
 6298SOL    HW119793   6.699   0.322   6.344
 6298SOL    HW219794   6.616   0.267   6.472
 6299SOL     OW19795   3.176   1.478   3.966
 6299SOL    HW119796   3.267   1.443   3.988
 6299SOL    HW219797   3.116   1.402   3.942
 6300SOL     OW19798   2.914   2.203   1.171
 6300SOL    HW119799   2.973   2.283   1.184
 6300SOL    HW219800   2.861   2.214   1.088
 6301SOL     OW19801   4.050   6.319   1.078
 6301SOL    HW119802   4.041   6.262   0.996
 6301SOL    HW219803   3.981   6.291   1.145
 6302SOL     OW19804   1.542   3.632   0.256
 6302SOL    HW119805   1.617   3.695   0.239
 6302SOL    HW219806   1.556   3.586   0.344
 6303SOL     OW19807   6.551   4.920   4.974
 6303SOL    HW119808   6.531   5.010   5.013
 6303SOL    HW219809   6.467   4.881   4.936
 6304SOL     OW19810   2.113   2.082   4.406
 6304SOL    HW119811   2.041   2.033   4.456
 6304SOL    HW219812   2.200   2.069   4.453
 6305SOL     OW19813   0.660   5.591   5.502
 6305SOL    HW119814   0.690   5.497   5.513
 6305SOL    HW219815   0.668   5.639   5.589
 6306SOL     OW19816   0.633   4.241   4.274
 6306SOL    HW119817   0.614   4.197   4.187
 6306SOL    HW219818   0.574   4.321   4.285
 6307SOL     OW19819   2.878   3.463   3.340
 6307SOL    HW119820   2.795   3.408   3.334
 6307SOL    HW219821   2.927   3.440   3.425
 6308SOL     OW19822   0.692   1.178   1.439
 6308SOL    HW119823   0.678   1.247   1.509
 6308SOL    HW219824   0.623   1.190   1.367
 6309SOL     OW19825   1.876   5.641   5.122
 6309SOL    HW119826   1.909   5.686   5.205
 6309SOL    HW219827   1.952   5.596   5.075
 6310SOL     OW19828   0.882   6.721   3.197
 6310SOL    HW119829   0.785   6.698   3.210
 6310SOL    HW219830   0.938   6.643   3.225
 6311SOL     OW19831   6.442   1.163   6.097
 6311SOL    HW119832   6.424   1.111   6.180
 6311SOL    HW219833   6.522   1.222   6.111
 6312SOL     OW19834   3.581   5.822   1.322
 6312SOL    HW119835   3.664   5.768   1.305
 6312SOL    HW219836   3.600   5.891   1.392
 6313SOL     OW19837   5.285   4.690   2.558
 6313SOL    HW119838   5.241   4.702   2.647
 6313SOL    HW219839   5.251   4.605   2.516
 6314SOL     OW19840   2.119   6.619   3.291
 6314SOL    HW119841   2.067   6.617   3.376
 6314SOL    HW219842   2.066   6.667   3.221
 6315SOL     OW19843   2.257   2.791   3.227
 6315SOL    HW119844   2.241   2.888   3.208
 6315SOL    HW219845   2.169   2.745   3.242
 6316SOL     OW19846   4.164   0.398   5.023
 6316SOL    HW119847   4.090   0.336   4.994
 6316SOL    HW219848   4.176   0.391   5.122
 6317SOL     OW19849   4.793   4.191   3.043
 6317SOL    HW119850   4.887   4.210   3.071
 6317SOL    HW219851   4.731   4.209   3.120
 6318SOL     OW19852   6.021   0.190   0.313
 6318SOL    HW119853   6.059   0.280   0.293
 6318SOL    HW219854   5.921   0.197   0.315
 6319SOL     OW19855   4.937   2.709   4.289
 6319SOL    HW119856   4.878   2.739   4.214
 6319SOL    HW219857   4.883   2.700   4.372
 6320SOL     OW19858   6.228   1.750   6.561
 6320SOL    HW119859   6.255   1.662   6.521
 6320SOL    HW219860   6.235   1.745   6.660
 6321SOL     OW19861   1.041   3.804   0.599
 6321SOL    HW119862   1.076   3.711   0.588
 6321SOL    HW219863   0.957   3.815   0.546
 6322SOL     OW19864   1.842   1.713   2.461
 6322SOL    HW119865   1.749   1.684   2.438
 6322SOL    HW219866   1.900   1.633   2.473
 6323SOL     OW19867   1.998   5.963   0.996
 6323SOL    HW119868   2.069   5.945   0.928
 6323SOL    HW219869   2.000   6.059   1.022
 6324SOL     OW19870   5.055   3.907   1.057
 6324SOL    HW119871   5.076   3.924   1.153
 6324SOL    HW219872   5.120   3.957   0.999
 6325SOL     OW19873   1.137   3.327   4.053
 6325SOL    HW119874   1.084   3.254   4.010
 6325SOL    HW219875   1.230   3.295   4.070
 6326SOL     OW19876   4.740   5.406   4.960
 6326SOL    HW119877   4.672   5.468   4.921
 6326SOL    HW219878   4.752   5.426   5.057
 6327SOL     OW19879   0.646   0.736   2.612
 6327SOL    HW119880   0.593   0.684   2.544
 6327SOL    HW219881   0.608   0.828   2.621
 6328SOL     OW19882   3.847   3.481   5.111
 6328SOL    HW119883   3.761   3.445   5.077
 6328SOL    HW219884   3.894   3.531   5.037
 6329SOL     OW19885   6.993   3.132   4.834
 6329SOL    HW119886   0.022   3.167   4.915
 6329SOL    HW219887   7.003   3.197   4.759
 6330SOL     OW19888   4.176   1.789   3.668
 6330SOL    HW119889   4.113   1.843   3.612
 6330SOL    HW219890   4.125   1.740   3.738
 6331SOL     OW19891   1.837   3.752   3.529
 6331SOL    HW119892   1.773   3.677   3.547
 6331SOL    HW219893   1.906   3.754   3.601
 6332SOL     OW19894   4.401   1.795   0.061
 6332SOL    HW119895   4.442   1.881   0.089
 6332SOL    HW219896   4.334   1.766   0.129
 6333SOL     OW19897   5.839   0.906   0.268
 6333SOL    HW119898   5.832   0.977   0.199
 6333SOL    HW219899   5.752   0.856   0.274
 6334SOL     OW19900   2.095   1.437   1.717
 6334SOL    HW119901   1.996   1.428   1.734
 6334SOL    HW219902   2.145   1.376   1.778
 6335SOL     OW19903   6.052   2.627   5.356
 6335SOL    HW119904   6.006   2.551   5.401
 6335SOL    HW219905   6.108   2.677   5.423
 6336SOL     OW19906   0.427   4.976   6.112
 6336SOL    HW119907   0.342   4.960   6.062
 6336SOL    HW219908   0.437   5.073   6.132
 6337SOL     OW19909   6.290   0.065   5.294
 6337SOL    HW119910   6.236   7.015   5.344
 6337SOL    HW219911   6.381   0.071   5.335
 6338SOL     OW19912   0.789   0.473   2.462
 6338SOL    HW119913   0.840   0.391   2.437
 6338SOL    HW219914   0.846   0.554   2.448
 6339SOL     OW19915   0.090   4.359   3.049
 6339SOL    HW119916   0.063   4.320   2.961
 6339SOL    HW219917   0.063   4.456   3.051
 6340SOL     OW19918   2.287   5.299   6.437
 6340SOL    HW119919   2.307   5.230   6.368
 6340SOL    HW219920   2.334   5.384   6.414
 6341SOL     OW19921   0.614   4.541   2.738
 6341SOL    HW119922   0.532   4.562   2.791
 6341SOL    HW219923   0.684   4.504   2.798
 6342SOL     OW19924   2.267   0.372   1.408
 6342SOL    HW119925   2.364   0.388   1.390
 6342SOL    HW219926   2.256   0.281   1.450
 6343SOL     OW19927   1.764   4.957   7.000
 6343SOL    HW119928   1.692   5.027   6.997
 6343SOL    HW219929   1.761   4.903   6.917
 6344SOL     OW19930   1.202   1.193   4.254
 6344SOL    HW119931   1.113   1.158   4.226
 6344SOL    HW219932   1.269   1.173   4.183
 6345SOL     OW19933   0.279   3.136   3.035
 6345SOL    HW119934   0.190   3.096   3.013
 6345SOL    HW219935   0.351   3.070   3.016
 6346SOL     OW19936   0.730   4.676   3.984
 6346SOL    HW119937   0.733   4.762   4.036
 6346SOL    HW219938   0.649   4.624   4.011
 6347SOL     OW19939   2.315   2.059   3.264
 6347SOL    HW119940   2.350   2.150   3.242
 6347SOL    HW219941   2.255   2.027   3.190
 6348SOL     OW19942   1.398   3.004   0.111
 6348SOL    HW119943   1.343   2.990   0.028
 6348SOL    HW219944   1.449   2.921   0.131
 6349SOL     OW19945   6.134   1.516   0.912
 6349SOL    HW119946   6.186   1.559   0.986
 6349SOL    HW219947   6.109   1.423   0.939
 6350SOL     OW19948   0.504   6.614   1.345
 6350SOL    HW119949   0.601   6.639   1.341
 6350SOL    HW219950   0.484   6.576   1.435
 6351SOL     OW19951   6.220   2.506   1.934
 6351SOL    HW119952   6.239   2.415   1.897
 6351SOL    HW219953   6.291   2.530   2.000
 6352SOL     OW19954   4.318   0.597   4.551
 6352SOL    HW119955   4.410   0.581   4.585
 6352SOL    HW219956   4.253   0.595   4.627
 6353SOL     OW19957   3.853   6.194   5.896
 6353SOL    HW119958   3.901   6.182   5.983
 6353SOL    HW219959   3.823   6.105   5.862
 6354SOL     OW19960   5.724   4.609   2.432
 6354SOL    HW119961   5.661   4.664   2.376
 6354SOL    HW219962   5.794   4.668   2.472
 6355SOL     OW19963   5.163   6.465   0.099
 6355SOL    HW119964   5.071   6.499   0.084
 6355SOL    HW219965   5.169   6.370   0.068
 6356SOL     OW19966   0.819   6.523   5.850
 6356SOL    HW119967   0.730   6.512   5.806
 6356SOL    HW219968   0.862   6.433   5.861
 6357SOL     OW19969   4.983   1.743   2.867
 6357SOL    HW119970   4.895   1.729   2.911
 6357SOL    HW219971   4.994   1.839   2.842
 6358SOL     OW19972   1.305   1.763   4.768
 6358SOL    HW119973   1.317   1.750   4.866
 6358SOL    HW219974   1.350   1.690   4.718
 6359SOL     OW19975   5.713   4.469   1.122
 6359SOL    HW119976   5.651   4.535   1.164
 6359SOL    HW219977   5.789   4.451   1.184
 6360SOL     OW19978   2.524   2.834   0.805
 6360SOL    HW119979   2.520   2.782   0.891
 6360SOL    HW219980   2.584   2.786   0.741
 6361SOL     OW19981   0.448   2.444   2.532
 6361SOL    HW119982   0.405   2.359   2.562
 6361SOL    HW219983   0.464   2.503   2.612
 6362SOL     OW19984   2.341   5.386   0.676
 6362SOL    HW119985   2.426   5.434   0.698
 6362SOL    HW219986   2.346   5.291   0.709
 6363SOL     OW19987   0.771   2.484   1.722
 6363SOL    HW119988   0.741   2.537   1.801
 6363SOL    HW219989   0.852   2.527   1.682
 6364SOL     OW19990   2.511   1.292   4.574
 6364SOL    HW119991   2.470   1.291   4.483
 6364SOL    HW219992   2.491   1.206   4.621
 6365SOL     OW19993   6.561   6.970   2.275
 6365SOL    HW119994   6.629   7.007   2.213
 6365SOL    HW219995   6.602   6.954   2.365
 6366SOL     OW19996   5.665   1.393   4.905
 6366SOL    HW119997   5.680   1.332   4.828
 6366SOL    HW219998   5.726   1.472   4.898
 6367SOL     OW19999   1.183   2.690   4.841
 6367SOL    HW120000   1.230   2.777   4.825
 6367SOL    HW220001   1.246   2.614   4.827
 6368SOL     OW20002   4.909   3.076   5.055
 6368SOL    HW120003   5.007   3.068   5.070
 6368SOL    HW220004   4.881   3.172   5.062
 6369SOL     OW20005   3.305   4.385   0.816
 6369SOL    HW120006   3.254   4.300   0.800
 6369SOL    HW220007   3.280   4.422   0.906
 6370SOL     OW20008   5.858   3.711   4.631
 6370SOL    HW120009   5.924   3.666   4.692
 6370SOL    HW220010   5.869   3.676   4.538
 6371SOL     OW20011   6.109   4.511   1.081
 6371SOL    HW120012   6.076   4.428   1.036
 6371SOL    HW220013   6.209   4.510   1.082
 6372SOL     OW20014   6.422   1.478   1.208
 6372SOL    HW120015   6.354   1.547   1.185
 6372SOL    HW220016   6.501   1.487   1.147
 6373SOL     OW20017   5.174   1.858   1.231
 6373SOL    HW120018   5.083   1.854   1.189
 6373SOL    HW220019   5.192   1.952   1.260
 6374SOL     OW20020   3.888   2.733   6.912
 6374SOL    HW120021   3.954   2.808   6.903
 6374SOL    HW220022   3.899   2.670   6.835
 6375SOL     OW20023   5.244   1.474   1.973
 6375SOL    HW120024   5.341   1.494   1.991
 6375SOL    HW220025   5.235   1.422   1.888
 6376SOL     OW20026   2.684   6.893   0.715
 6376SOL    HW120027   2.686   6.899   0.616
 6376SOL    HW220028   2.620   6.821   0.743
 6377SOL     OW20029   7.018   0.818   0.282
 6377SOL    HW120030   0.094   0.843   0.263
 6377SOL    HW220031   7.010   0.785   0.376
 6378SOL     OW20032   5.922   3.816   3.200
 6378SOL    HW120033   5.925   3.899   3.256
 6378SOL    HW220034   5.914   3.842   3.104
 6379SOL     OW20035   2.841   5.526   7.005
 6379SOL    HW120036   2.860   5.491   0.078
 6379SOL    HW220037   2.779   5.463   6.957
 6380SOL     OW20038   2.218   2.964   4.794
 6380SOL    HW120039   2.199   2.866   4.785
 6380SOL    HW220040   2.279   2.980   4.872
 6381SOL     OW20041   3.119   4.134   0.770
 6381SOL    HW120042   3.166   4.046   0.759
 6381SOL    HW220043   3.092   4.169   0.681
 6382SOL     OW20044   1.884   0.993   0.897
 6382SOL    HW120045   1.873   0.964   0.992
 6382SOL    HW220046   1.828   1.074   0.881
 6383SOL     OW20047   2.676   2.096   2.879
 6383SOL    HW120048   2.680   2.017   2.819
 6383SOL    HW220049   2.754   2.156   2.861
 6384SOL     OW20050   6.741   1.576   2.542
 6384SOL    HW120051   6.741   1.486   2.499
 6384SOL    HW220052   6.803   1.637   2.492
 6385SOL     OW20053   0.173   3.809   1.562
 6385SOL    HW120054   0.272   3.803   1.578
 6385SOL    HW220055   0.156   3.867   1.482
 6386SOL     OW20056   2.923   4.260   0.199
 6386SOL    HW120057   2.938   4.269   0.101
 6386SOL    HW220058   3.011   4.268   0.247
 6387SOL     OW20059   6.401   1.151   5.743
 6387SOL    HW120060   6.353   1.153   5.655
 6387SOL    HW220061   6.436   1.059   5.759
 6388SOL     OW20062   6.237   5.177   1.994
 6388SOL    HW120063   6.278   5.089   1.969
 6388SOL    HW220064   6.190   5.216   1.914
 6389SOL     OW20065   6.640   6.672   0.881
 6389SOL    HW120066   6.664   6.759   0.838
 6389SOL    HW220067   6.685   6.597   0.833
 6390SOL     OW20068   4.940   6.597   0.065
 6390SOL    HW120069   4.878   6.534   0.020
 6390SOL    HW220070   4.988   6.651   7.014
 6391SOL     OW20071   1.484   2.142   5.268
 6391SOL    HW120072   1.572   2.189   5.264
 6391SOL    HW220073   1.498   2.044   5.252
 6392SOL     OW20074   5.005   6.357   3.779
 6392SOL    HW120075   4.911   6.323   3.785
 6392SOL    HW220076   5.052   6.312   3.704
 6393SOL     OW20077   2.655   5.334   0.187
 6393SOL    HW120078   2.615   5.267   0.250
 6393SOL    HW220079   2.619   5.425   0.209
 6394SOL     OW20080   1.463   5.658   1.760
 6394SOL    HW120081   1.469   5.704   1.849
 6394SOL    HW220082   1.444   5.561   1.775
 6395SOL     OW20083   1.384   4.191   4.878
 6395SOL    HW120084   1.446   4.269   4.869
 6395SOL    HW220085   1.290   4.223   4.879
 6396SOL     OW20086   0.907   3.099   4.753
 6396SOL    HW120087   0.880   3.131   4.844
 6396SOL    HW220088   0.884   3.169   4.685
 6397SOL     OW20089   6.802   3.349   4.508
 6397SOL    HW120090   6.872   3.343   4.437
 6397SOL    HW220091   6.843   3.382   4.593
 6398SOL     OW20092   0.959   0.345   2.694
 6398SOL    HW120093   0.972   0.251   2.663
 6398SOL    HW220094   1.009   0.360   2.779
 6399SOL     OW20095   2.866   6.996   6.966
 6399SOL    HW120096   2.955   6.981   7.010
 6399SOL    HW220097   2.811   6.913   6.972
 6400SOL     OW20098   1.048   6.162   2.793
 6400SOL    HW120099   1.072   6.164   2.890
 6400SOL    HW220100   1.054   6.254   2.756
 6401SOL     OW20101   3.872   4.950   1.812
 6401SOL    HW120102   3.945   5.015   1.788
 6401SOL    HW220103   3.885   4.866   1.759
 6402SOL     OW20104   4.017   3.719   5.833
 6402SOL    HW120105   4.094   3.656   5.843
 6402SOL    HW220106   3.940   3.671   5.792
 6403SOL     OW20107   4.018   5.316   5.764
 6403SOL    HW120108   4.100   5.286   5.812
 6403SOL    HW220109   4.007   5.415   5.774
 6404SOL     OW20110   4.713   5.553   6.226
 6404SOL    HW120111   4.738   5.578   6.320
 6404SOL    HW220112   4.729   5.455   6.213
 6405SOL     OW20113   4.346   0.992   2.718
 6405SOL    HW120114   4.306   1.046   2.792
 6405SOL    HW220115   4.273   0.948   2.667
 6406SOL     OW20116   0.310   3.576   2.258
 6406SOL    HW120117   0.311   3.476   2.258
 6406SOL    HW220118   0.242   3.609   2.324
 6407SOL     OW20119   0.528   6.972   1.798
 6407SOL    HW120120   0.463   0.009   1.850
 6407SOL    HW220121   0.540   7.013   1.707
 6408SOL     OW20122   6.999   1.542   1.813
 6408SOL    HW120123   6.902   1.564   1.821
 6408SOL    HW220124   0.035   1.626   1.816
 6409SOL     OW20125   6.172   4.449   3.819
 6409SOL    HW120126   6.216   4.362   3.798
 6409SOL    HW220127   6.160   4.501   3.734
 6410SOL     OW20128   1.453   0.665   7.002
 6410SOL    HW120129   1.495   0.650   0.073
 6410SOL    HW220130   1.519   0.640   6.930
 6411SOL     OW20131   1.226   2.759   4.486
 6411SOL    HW120132   1.268   2.848   4.468
 6411SOL    HW220133   1.298   2.689   4.492
 6412SOL     OW20134   4.387   0.362   6.985
 6412SOL    HW120135   4.435   0.411   6.912
 6412SOL    HW220136   4.378   0.266   6.960
 6413SOL     OW20137   4.926   5.781   3.039
 6413SOL    HW120138   4.878   5.868   3.033
 6413SOL    HW220139   5.017   5.795   3.079
 6414SOL     OW20140   3.451   0.302   0.333
 6414SOL    HW120141   3.450   0.250   0.418
 6414SOL    HW220142   3.546   0.317   0.304
 6415SOL     OW20143   0.000   1.935   3.585
 6415SOL    HW120144   6.946   1.940   3.654
 6415SOL    HW220145   0.087   1.911   3.629
 6416SOL     OW20146   2.872   4.749   0.149
 6416SOL    HW120147   2.915   4.659   0.153
 6416SOL    HW220148   2.781   4.740   0.110
 6417SOL     OW20149   4.270   3.614   6.566
 6417SOL    HW120150   4.210   3.561   6.626
 6417SOL    HW220151   4.214   3.672   6.506
 6418SOL     OW20152   4.955   5.470   0.188
 6418SOL    HW120153   4.957   5.423   0.100
 6418SOL    HW220154   5.007   5.417   0.255
 6419SOL     OW20155   1.629   6.614   6.448
 6419SOL    HW120156   1.551   6.608   6.384
 6419SOL    HW220157   1.679   6.527   6.448
 6420SOL     OW20158   2.229   5.026   3.275
 6420SOL    HW120159   2.157   5.096   3.278
 6420SOL    HW220160   2.312   5.061   3.318
 6421SOL     OW20161   5.269   6.753   1.396
 6421SOL    HW120162   5.211   6.731   1.475
 6421SOL    HW220163   5.353   6.798   1.428
 6422SOL     OW20164   1.043   1.294   4.906
 6422SOL    HW120165   1.036   1.275   5.004
 6422SOL    HW220166   0.998   1.381   4.886
 6423SOL     OW20167   1.374   3.738   4.609
 6423SOL    HW120168   1.355   3.797   4.688
 6423SOL    HW220169   1.301   3.671   4.599
 6424SOL     OW20170   6.450   3.883   5.550
 6424SOL    HW120171   6.380   3.949   5.523
 6424SOL    HW220172   6.541   3.924   5.539
 6425SOL     OW20173   1.189   6.919   5.250
 6425SOL    HW120174   1.186   6.841   5.312
 6425SOL    HW220175   1.151   7.000   5.295
 6426SOL     OW20176   3.963   5.564   3.811
 6426SOL    HW120177   3.981   5.585   3.715
 6426SOL    HW220178   3.993   5.471   3.831
 6427SOL     OW20179   3.630   3.612   3.478
 6427SOL    HW120180   3.699   3.576   3.541
 6427SOL    HW220181   3.542   3.568   3.497
 6428SOL     OW20182   6.369   2.401   0.404
 6428SOL    HW120183   6.327   2.321   0.449
 6428SOL    HW220184   6.446   2.433   0.459
 6429SOL     OW20185   2.565   1.894   4.762
 6429SOL    HW120186   2.525   1.973   4.809
 6429SOL    HW220187   2.495   1.823   4.751
 6430SOL     OW20188   6.126   1.463   4.833
 6430SOL    HW120189   6.099   1.469   4.929
 6430SOL    HW220190   6.096   1.544   4.785
 6431SOL     OW20191   3.202   4.898   3.169
 6431SOL    HW120192   3.271   4.894   3.242
 6431SOL    HW220193   3.111   4.906   3.210
 6432SOL     OW20194   4.363   3.029   6.792
 6432SOL    HW120195   4.359   3.030   6.692
 6432SOL    HW220196   4.423   2.955   6.822
 6433SOL     OW20197   3.994   5.175   6.164
 6433SOL    HW120198   4.031   5.138   6.079
 6433SOL    HW220199   4.062   5.235   6.206
 6434SOL     OW20200   6.382   4.628   6.193
 6434SOL    HW120201   6.442   4.673   6.128
 6434SOL    HW220202   6.388   4.528   6.181
 6435SOL     OW20203   4.418   1.586   1.034
 6435SOL    HW120204   4.338   1.633   0.997
 6435SOL    HW220205   4.468   1.647   1.096
 6436SOL     OW20206   0.678   2.411   3.646
 6436SOL    HW120207   0.611   2.410   3.572
 6436SOL    HW220208   0.742   2.334   3.634
 6437SOL     OW20209   1.634   2.906   6.643
 6437SOL    HW120210   1.679   2.915   6.732
 6437SOL    HW220211   1.658   2.818   6.602
 6438SOL     OW20212   0.300   5.345   1.140
 6438SOL    HW120213   0.334   5.412   1.206
 6438SOL    HW220214   0.260   5.393   1.062
 6439SOL     OW20215   4.547   6.326   3.194
 6439SOL    HW120216   4.545   6.315   3.095
 6439SOL    HW220217   4.543   6.236   3.238
 6440SOL     OW20218   2.396   2.344   5.738
 6440SOL    HW120219   2.342   2.277   5.687
 6440SOL    HW220220   2.450   2.399   5.673
 6441SOL     OW20221   1.581   1.923   1.519
 6441SOL    HW120222   1.669   1.967   1.538
 6441SOL    HW220223   1.583   1.881   1.428
 6442SOL     OW20224   2.812   1.783   4.495
 6442SOL    HW120225   2.898   1.738   4.516
 6442SOL    HW220226   2.797   1.857   4.560
 6443SOL     OW20227   2.833   2.567   5.998
 6443SOL    HW120228   2.778   2.601   5.922
 6443SOL    HW220229   2.773   2.523   6.066
 6444SOL     OW20230   0.059   3.879   5.200
 6444SOL    HW120231   0.066   3.910   5.105
 6444SOL    HW220232   0.127   3.926   5.256
 6445SOL     OW20233   3.326   3.212   3.679
 6445SOL    HW120234   3.234   3.179   3.660
 6445SOL    HW220235   3.389   3.134   3.684
 6446SOL     OW20236   1.373   0.506   1.471
 6446SOL    HW120237   1.384   0.543   1.379
 6446SOL    HW220238   1.409   0.413   1.475
 6447SOL     OW20239   6.342   3.753   1.409
 6447SOL    HW120240   6.314   3.793   1.497
 6447SOL    HW220241   6.440   3.768   1.396
 6448SOL     OW20242   4.039   4.207   1.472
 6448SOL    HW120243   3.979   4.140   1.427
 6448SOL    HW220244   4.070   4.170   1.560
 6449SOL     OW20245   4.214   5.449   0.368
 6449SOL    HW120246   4.264   5.508   0.305
 6449SOL    HW220247   4.122   5.485   0.382
 6450SOL     OW20248   4.420   3.300   0.620
 6450SOL    HW120249   4.477   3.376   0.651
 6450SOL    HW220250   4.333   3.336   0.585
 6451SOL     OW20251   4.241   2.592   1.389
 6451SOL    HW120252   4.218   2.653   1.465
 6451SOL    HW220253   4.190   2.620   1.307
 6452SOL     OW20254   4.485   2.152   4.506
 6452SOL    HW120255   4.525   2.078   4.560
 6452SOL    HW220256   4.476   2.124   4.411
 6453SOL     OW20257   2.626   0.876   2.832
 6453SOL    HW120258   2.558   0.803   2.837
 6453SOL    HW220259   2.619   0.935   2.913
 6454SOL     OW20260   5.250   4.027   5.270
 6454SOL    HW120261   5.338   4.070   5.249
 6454SOL    HW220262   5.186   4.045   5.195
 6455SOL     OW20263   0.070   2.841   4.841
 6455SOL    HW120264   0.131   2.867   4.915
 6455SOL    HW220265   7.017   2.911   4.830
 6456SOL     OW20266   6.308   1.613   3.394
 6456SOL    HW120267   6.283   1.543   3.326
 6456SOL    HW220268   6.238   1.685   3.394
 6457SOL     OW20269   1.617   5.793   3.570
 6457SOL    HW120270   1.612   5.760   3.476
 6457SOL    HW220271   1.572   5.882   3.577
 6458SOL     OW20272   1.181   0.615   4.925
 6458SOL    HW120273   1.206   0.670   5.004
 6458SOL    HW220274   1.093   0.570   4.942
 6459SOL     OW20275   0.745   3.532   3.067
 6459SOL    HW120276   0.713   3.446   3.107
 6459SOL    HW220277   0.840   3.547   3.094
 6460SOL     OW20278   1.725   5.315   5.505
 6460SOL    HW120279   1.776   5.367   5.573
 6460SOL    HW220280   1.748   5.218   5.513
 6461SOL     OW20281   0.162   6.895   1.917
 6461SOL    HW120282   0.123   6.979   1.955
 6461SOL    HW220283   0.215   6.917   1.835
 6462SOL     OW20284   2.601   3.920   5.942
 6462SOL    HW120285   2.649   3.964   5.866
 6462SOL    HW220286   2.662   3.853   5.985
 6463SOL     OW20287   4.712   3.122   1.553
 6463SOL    HW120288   4.724   3.024   1.570
 6463SOL    HW220289   4.785   3.172   1.599
 6464SOL     OW20290   1.210   3.737   3.361
 6464SOL    HW120291   1.206   3.784   3.273
 6464SOL    HW220292   1.290   3.769   3.412
 6465SOL     OW20293   2.362   1.532   2.949
 6465SOL    HW120294   2.271   1.530   2.907
 6465SOL    HW220295   2.391   1.627   2.959
 6466SOL     OW20296   6.425   5.367   6.524
 6466SOL    HW120297   6.441   5.312   6.442
 6466SOL    HW220298   6.505   5.424   6.543
 6467SOL     OW20299   2.572   3.599   6.019
 6467SOL    HW120300   2.649   3.664   6.019
 6467SOL    HW220301   2.591   3.526   6.084
 6468SOL     OW20302   0.874   0.845   1.005
 6468SOL    HW120303   0.947   0.896   1.051
 6468SOL    HW220304   0.789   0.898   1.007
 6469SOL     OW20305   2.411   0.930   0.781
 6469SOL    HW120306   2.420   0.877   0.697
 6469SOL    HW220307   2.332   0.897   0.833
 6470SOL     OW20308   5.647   1.069   6.888
 6470SOL    HW120309   5.692   1.010   6.821
 6470SOL    HW220310   5.572   1.019   6.931
 6471SOL     OW20311   1.278   6.199   5.740
 6471SOL    HW120312   1.296   6.211   5.838
 6471SOL    HW220313   1.346   6.249   5.687
 6472SOL     OW20314   0.808   6.592   1.407
 6472SOL    HW120315   0.786   6.535   1.486
 6472SOL    HW220316   0.887   6.650   1.429
 6473SOL     OW20317   2.981   1.937   3.781
 6473SOL    HW120318   2.941   1.939   3.873
 6473SOL    HW220319   2.908   1.935   3.713
 6474SOL     OW20320   3.925   6.859   4.257
 6474SOL    HW120321   3.896   6.835   4.350
 6474SOL    HW220322   3.862   6.927   4.219
 6475SOL     OW20323   5.483   5.735   3.387
 6475SOL    HW120324   5.457   5.732   3.484
 6475SOL    HW220325   5.488   5.642   3.352
 6476SOL     OW20326   5.588   4.198   5.197
 6476SOL    HW120327   5.544   4.152   5.120
 6476SOL    HW220328   5.548   4.166   5.283
 6477SOL     OW20329   0.985   6.823   0.641
 6477SOL    HW120330   0.904   6.864   0.685
 6477SOL    HW220331   1.009   6.739   0.689
 6478SOL     OW20332   1.733   6.051   0.163
 6478SOL    HW120333   1.779   6.052   0.252
 6478SOL    HW220334   1.689   6.140   0.148
 6479SOL     OW20335   4.530   6.039   4.054
 6479SOL    HW120336   4.623   6.076   4.045
 6479SOL    HW220337   4.519   5.996   4.143
 6480SOL     OW20338   3.509   1.234   5.075
 6480SOL    HW120339   3.423   1.194   5.106
 6480SOL    HW220340   3.492   1.324   5.037
 6481SOL     OW20341   3.944   3.312   1.924
 6481SOL    HW120342   4.039   3.339   1.941
 6481SOL    HW220343   3.882   3.376   1.968
 6482SOL     OW20344   5.563   2.812   4.196
 6482SOL    HW120345   5.662   2.820   4.204
 6482SOL    HW220346   5.539   2.721   4.163
 6483SOL     OW20347   1.816   5.546   5.669
 6483SOL    HW120348   1.761   5.512   5.745
 6483SOL    HW220349   1.761   5.608   5.613
 6484SOL     OW20350   3.951   0.779   3.103
 6484SOL    HW120351   4.045   0.809   3.092
 6484SOL    HW220352   3.923   0.726   3.023
 6485SOL     OW20353   1.950   4.963   4.746
 6485SOL    HW120354   1.974   4.929   4.656
 6485SOL    HW220355   1.881   4.903   4.787
 6486SOL     OW20356   6.975   4.465   2.348
 6486SOL    HW120357   0.026   4.400   2.379
 6486SOL    HW220358   6.946   4.522   2.425
 6487SOL     OW20359   5.908   5.463   4.363
 6487SOL    HW120360   5.992   5.441   4.413
 6487SOL    HW220361   5.871   5.550   4.396
 6488SOL     OW20362   3.415   5.146   3.926
 6488SOL    HW120363   3.442   5.216   3.992
 6488SOL    HW220364   3.436   5.178   3.833
 6489SOL     OW20365   6.373   3.189   5.384
 6489SOL    HW120366   6.314   3.270   5.392
 6489SOL    HW220367   6.468   3.215   5.404
 6490SOL     OW20368   1.871   3.473   7.006
 6490SOL    HW120369   1.812   3.479   6.925
 6490SOL    HW220370   1.827   3.416   0.057
 6491SOL     OW20371   1.096   0.400   2.174
 6491SOL    HW120372   1.116   0.497   2.166
 6491SOL    HW220373   1.053   0.382   2.263
 6492SOL     OW20374   3.876   3.199   3.642
 6492SOL    HW120375   3.946   3.247   3.695
 6492SOL    HW220376   3.853   3.113   3.687
 6493SOL     OW20377   1.733   4.587   4.231
 6493SOL    HW120378   1.824   4.582   4.190
 6493SOL    HW220379   1.684   4.667   4.194
 6494SOL     OW20380   6.089   1.261   1.516
 6494SOL    HW120381   6.129   1.172   1.541
 6494SOL    HW220382   6.162   1.328   1.502
 6495SOL     OW20383   5.996   6.601   2.468
 6495SOL    HW120384   5.917   6.598   2.406
 6495SOL    HW220385   5.997   6.688   2.517
 6496SOL     OW20386   2.817   2.803   1.362
 6496SOL    HW120387   2.887   2.820   1.432
 6496SOL    HW220388   2.756   2.882   1.357
 6497SOL     OW20389   0.350   2.453   0.723
 6497SOL    HW120390   0.409   2.529   0.750
 6497SOL    HW220391   0.326   2.462   0.626
 6498SOL     OW20392   2.583   4.793   4.499
 6498SOL    HW120393   2.568   4.698   4.526
 6498SOL    HW220394   2.503   4.847   4.523
 6499SOL     OW20395   6.115   2.395   2.470
 6499SOL    HW120396   6.153   2.317   2.522
 6499SOL    HW220397   6.125   2.378   2.372
 6500SOL     OW20398   1.715   4.165   2.675
 6500SOL    HW120399   1.615   4.162   2.665
 6500SOL    HW220400   1.740   4.131   2.765
 6501SOL     OW20401   6.307   1.330   2.764
 6501SOL    HW120402   6.303   1.419   2.810
 6501SOL    HW220403   6.362   1.338   2.681
 6502SOL     OW20404   1.140   2.711   2.360
 6502SOL    HW120405   1.186   2.792   2.396
 6502SOL    HW220406   1.082   2.672   2.431
 6503SOL     OW20407   0.241   2.284   5.642
 6503SOL    HW120408   0.194   2.233   5.570
 6503SOL    HW220409   0.174   2.333   5.698
 6504SOL     OW20410   3.902   6.575   6.379
 6504SOL    HW120411   3.965   6.566   6.455
 6504SOL    HW220412   3.950   6.557   6.293
 6505SOL     OW20413   0.931   6.743   0.080
 6505SOL    HW120414   0.834   6.743   0.054
 6505SOL    HW220415   0.938   6.750   0.180
 6506SOL     OW20416   0.324   4.128   1.623
 6506SOL    HW120417   0.307   4.169   1.534
 6506SOL    HW220418   0.243   4.137   1.680
 6507SOL     OW20419   5.032   5.429   0.804
 6507SOL    HW120420   4.934   5.407   0.810
 6507SOL    HW220421   5.046   5.499   0.734
 6508SOL     OW20422   6.994   0.674   4.281
 6508SOL    HW120423   6.967   0.743   4.349
 6508SOL    HW220424   6.998   0.717   4.190
 6509SOL     OW20425   2.517   1.611   0.396
 6509SOL    HW120426   2.532   1.538   0.462
 6509SOL    HW220427   2.443   1.670   0.427
 6510SOL     OW20428   3.408   4.871   4.195
 6510SOL    HW120429   3.322   4.903   4.234
 6510SOL    HW220430   3.476   4.862   4.268
 6511SOL     OW20431   3.524   3.011   0.239
 6511SOL    HW120432   3.550   3.096   0.284
 6511SOL    HW220433   3.538   2.934   0.301
 6512SOL     OW20434   4.884   0.950   1.520
 6512SOL    HW120435   4.835   0.989   1.598
 6512SOL    HW220436   4.819   0.923   1.450
 6513SOL     OW20437   3.102   5.266   1.999
 6513SOL    HW120438   3.030   5.214   1.954
 6513SOL    HW220439   3.191   5.236   1.965
 6514SOL     OW20440   5.206   5.771   5.977
 6514SOL    HW120441   5.149   5.778   5.895
 6514SOL    HW220442   5.291   5.724   5.954
 6515SOL     OW20443   1.063   5.174   2.399
 6515SOL    HW120444   1.053   5.274   2.394
 6515SOL    HW220445   1.067   5.146   2.495
 6516SOL     OW20446   5.794   0.991   3.523
 6516SOL    HW120447   5.844   1.077   3.507
 6516SOL    HW220448   5.784   0.978   3.622
 6517SOL     OW20449   6.693   4.459   0.749
 6517SOL    HW120450   6.704   4.527   0.821
 6517SOL    HW220451   6.783   4.426   0.720
 6518SOL     OW20452   1.265   1.509   2.264
 6518SOL    HW120453   1.216   1.576   2.207
 6518SOL    HW220454   1.231   1.515   2.358
 6519SOL     OW20455   1.327   1.739   3.876
 6519SOL    HW120456   1.328   1.640   3.866
 6519SOL    HW220457   1.251   1.777   3.823
 6520SOL     OW20458   5.626   6.417   6.700
 6520SOL    HW120459   5.645   6.440   6.795
 6520SOL    HW220460   5.709   6.381   6.657
 6521SOL     OW20461   1.390   4.466   4.480
 6521SOL    HW120462   1.362   4.393   4.543
 6521SOL    HW220463   1.488   4.458   4.462
 6522SOL     OW20464   2.423   2.876   5.383
 6522SOL    HW120465   2.462   2.914   5.467
 6522SOL    HW220466   2.438   2.939   5.307
 6523SOL     OW20467   5.152   6.807   0.425
 6523SOL    HW120468   5.136   6.709   0.429
 6523SOL    HW220469   5.133   6.848   0.514
 6524SOL     OW20470   3.313   2.349   1.197
 6524SOL    HW120471   3.213   2.349   1.202
 6524SOL    HW220472   3.346   2.443   1.189
 6525SOL     OW20473   2.378   4.860   3.861
 6525SOL    HW120474   2.290   4.861   3.909
 6525SOL    HW220475   2.384   4.779   3.802
 6526SOL     OW20476   6.619   6.486   0.681
 6526SOL    HW120477   6.643   6.390   0.672
 6526SOL    HW220478   6.696   6.543   0.653
 6527SOL     OW20479   5.379   2.519   0.661
 6527SOL    HW120480   5.417   2.604   0.698
 6527SOL    HW220481   5.281   2.516   0.681
 6528SOL     OW20482   4.682   6.460   0.251
 6528SOL    HW120483   4.682   6.417   0.161
 6528SOL    HW220484   4.710   6.393   0.320
 6529SOL     OW20485   4.353   6.925   1.608
 6529SOL    HW120486   4.405   7.008   1.628
 6529SOL    HW220487   4.370   6.857   1.679
 6530SOL     OW20488   0.162   2.192   4.178
 6530SOL    HW120489   0.095   2.209   4.250
 6530SOL    HW220490   0.195   2.279   4.142
 6531SOL     OW20491   3.510   3.733   3.863
 6531SOL    HW120492   3.535   3.704   3.770
 6531SOL    HW220493   3.412   3.723   3.876
 6532SOL     OW20494   1.095   5.696   0.122
 6532SOL    HW120495   1.097   5.712   0.221
 6532SOL    HW220496   1.044   5.612   0.103
 6533SOL     OW20497   4.886   5.222   1.028
 6533SOL    HW120498   4.845   5.228   0.937
 6533SOL    HW220499   4.922   5.312   1.054
 6534SOL     OW20500   6.368   3.322   3.905
 6534SOL    HW120501   6.358   3.259   3.828
 6534SOL    HW220502   6.464   3.347   3.915
 6535SOL     OW20503   5.510   3.620   6.732
 6535SOL    HW120504   5.439   3.606   6.800
 6535SOL    HW220505   5.504   3.550   6.661
 6536SOL     OW20506   0.304   5.015   5.334
 6536SOL    HW120507   0.297   4.997   5.432
 6536SOL    HW220508   0.241   5.089   5.310
 6537SOL     OW20509   6.570   5.489   4.470
 6537SOL    HW120510   6.487   5.540   4.491
 6537SOL    HW220511   6.563   5.451   4.377
 6538SOL     OW20512   1.663   3.153   3.538
 6538SOL    HW120513   1.705   3.133   3.449
 6538SOL    HW220514   1.588   3.088   3.554
 6539SOL     OW20515   5.281   0.264   5.658
 6539SOL    HW120516   5.223   0.280   5.578
 6539SOL    HW220517   5.225   0.269   5.741
 6540SOL     OW20518   1.011   2.441   5.424
 6540SOL    HW120519   1.018   2.404   5.331
 6540SOL    HW220520   1.100   2.432   5.469
 6541SOL     OW20521   4.054   1.450   5.477
 6541SOL    HW120522   4.117   1.505   5.532
 6541SOL    HW220523   4.069   1.469   5.380
 6542SOL     OW20524   2.191   4.625   2.110
 6542SOL    HW120525   2.270   4.574   2.143
 6542SOL    HW220526   2.133   4.566   2.055
 6543SOL     OW20527   3.953   1.699   3.814
 6543SOL    HW120528   3.931   1.793   3.842
 6543SOL    HW220529   3.899   1.675   3.733
 6544SOL     OW20530   0.920   0.615   1.277
 6544SOL    HW120531   0.885   0.534   1.323
 6544SOL    HW220532   0.850   0.652   1.215
 6545SOL     OW20533   5.827   5.299   0.983
 6545SOL    HW120534   5.820   5.386   1.033
 6545SOL    HW220535   5.759   5.298   0.910
 6546SOL     OW20536   4.329   5.170   4.860
 6546SOL    HW120537   4.309   5.105   4.787
 6546SOL    HW220538   4.272   5.251   4.850
 6547SOL     OW20539   1.282   6.551   5.282
 6547SOL    HW120540   1.298   6.576   5.186
 6547SOL    HW220541   1.246   6.458   5.287
 6548SOL     OW20542   1.280   2.015   5.815
 6548SOL    HW120543   1.276   1.945   5.744
 6548SOL    HW220544   1.268   2.105   5.774
 6549SOL     OW20545   3.189   1.407   3.174
 6549SOL    HW120546   3.178   1.394   3.075
 6549SOL    HW220547   3.180   1.505   3.195
 6550SOL     OW20548   5.997   7.007   1.943
 6550SOL    HW120549   6.014   6.911   1.919
 6550SOL    HW220550   5.974   7.013   2.040
 6551SOL     OW20551   2.635   4.863   1.316
 6551SOL    HW120552   2.603   4.891   1.407
 6551SOL    HW220553   2.558   4.832   1.261
 6552SOL     OW20554   2.186   3.699   6.817
 6552SOL    HW120555   2.168   3.747   6.903
 6552SOL    HW220556   2.230   3.761   6.753
 6553SOL     OW20557   0.317   1.510   3.442
 6553SOL    HW120558   0.218   1.501   3.451
 6553SOL    HW220559   0.338   1.596   3.395
 6554SOL     OW20560   1.374   1.792   4.135
 6554SOL    HW120561   1.470   1.770   4.118
 6554SOL    HW220562   1.326   1.805   4.048
 6555SOL     OW20563   1.805   3.712   2.217
 6555SOL    HW120564   1.873   3.652   2.176
 6555SOL    HW220565   1.851   3.790   2.260
 6556SOL     OW20566   4.972   3.519   3.403
 6556SOL    HW120567   4.944   3.547   3.311
 6556SOL    HW220568   4.961   3.420   3.412
 6557SOL     OW20569   2.101   6.574   2.827
 6557SOL    HW120570   2.101   6.604   2.732
 6557SOL    HW220571   2.158   6.636   2.881
 6558SOL     OW20572   5.482   5.592   0.943
 6558SOL    HW120573   5.565   5.610   0.889
 6558SOL    HW220574   5.421   5.532   0.892
 6559SOL     OW20575   0.419   1.663   6.074
 6559SOL    HW120576   0.376   1.586   6.121
 6559SOL    HW220577   0.390   1.749   6.115
 6560SOL     OW20578   6.826   4.781   6.001
 6560SOL    HW120579   6.863   4.838   5.928
 6560SOL    HW220580   6.740   4.740   5.971
 6561SOL     OW20581   2.805   5.504   0.394
 6561SOL    HW120582   2.832   5.422   0.342
 6561SOL    HW220583   2.793   5.480   0.490
 6562SOL     OW20584   4.484   2.564   1.250
 6562SOL    HW120585   4.442   2.621   1.180
 6562SOL    HW220586   4.421   2.554   1.327
 6563SOL     OW20587   6.009   5.465   5.328
 6563SOL    HW120588   6.047   5.493   5.416
 6563SOL    HW220589   5.970   5.373   5.335
 6564SOL     OW20590   5.106   3.891   2.044
 6564SOL    HW120591   5.096   3.984   2.081
 6564SOL    HW220592   5.202   3.865   2.044
 6565SOL     OW20593   5.286   5.697   2.245
 6565SOL    HW120594   5.291   5.609   2.293
 6565SOL    HW220595   5.208   5.749   2.279
 6566SOL     OW20596   5.351   5.460   3.839
 6566SOL    HW120597   5.402   5.493   3.918
 6566SOL    HW220598   5.400   5.382   3.798
 6567SOL     OW20599   3.193   0.818   2.624
 6567SOL    HW120600   3.181   0.859   2.533
 6567SOL    HW220601   3.236   0.884   2.685
 6568SOL     OW20602   4.901   1.527   0.346
 6568SOL    HW120603   4.959   1.458   0.302
 6568SOL    HW220604   4.910   1.520   0.445
 6569SOL     OW20605   1.432   3.984   3.432
 6569SOL    HW120606   1.433   3.920   3.508
 6569SOL    HW220607   1.447   4.077   3.466
 6570SOL     OW20608   4.399   0.001   2.707
 6570SOL    HW120609   4.395   0.101   2.709
 6570SOL    HW220610   4.364   6.986   2.619
 6571SOL     OW20611   3.253   6.833   3.093
 6571SOL    HW120612   3.273   6.735   3.097
 6571SOL    HW220613   3.306   6.875   3.019
 6572SOL     OW20614   1.299   6.318   3.718
 6572SOL    HW120615   1.227   6.376   3.758
 6572SOL    HW220616   1.331   6.253   3.786
 6573SOL     OW20617   1.347   2.469   3.541
 6573SOL    HW120618   1.281   2.442   3.610
 6573SOL    HW220619   1.408   2.393   3.521
 6574SOL     OW20620   0.781   4.844   1.432
 6574SOL    HW120621   0.719   4.888   1.368
 6574SOL    HW220622   0.829   4.769   1.386
 6575SOL     OW20623   0.170   0.968   3.997
 6575SOL    HW120624   0.139   1.033   3.927
 6575SOL    HW220625   0.266   0.944   3.980
 6576SOL     OW20626   3.840   6.969   2.178
 6576SOL    HW120627   3.874   6.928   2.263
 6576SOL    HW220628   3.886   0.038   2.162
 6577SOL     OW20629   3.485   0.893   5.545
 6577SOL    HW120630   3.481   0.929   5.452
 6577SOL    HW220631   3.576   0.912   5.584
 6578SOL     OW20632   0.781   5.944   7.006
 6578SOL    HW120633   0.849   5.871   7.003
 6578SOL    HW220634   0.719   5.935   6.929
 6579SOL     OW20635   1.625   1.481   3.387
 6579SOL    HW120636   1.578   1.488   3.476
 6579SOL    HW220637   1.558   1.495   3.314
 6580SOL     OW20638   3.232   2.861   6.993
 6580SOL    HW120639   3.242   2.896   6.900
 6580SOL    HW220640   3.248   2.934   0.041
 6581SOL     OW20641   0.323   2.625   2.318
 6581SOL    HW120642   0.348   2.565   2.393
 6581SOL    HW220643   0.298   2.571   2.238
 6582SOL     OW20644   4.129   0.440   3.303
 6582SOL    HW120645   4.031   0.453   3.315
 6582SOL    HW220646   4.145   0.354   3.254
 6583SOL     OW20647   2.143   3.935   1.349
 6583SOL    HW120648   2.228   3.955   1.398
 6583SOL    HW220649   2.075   4.005   1.371
 6584SOL     OW20650   4.109   3.392   6.351
 6584SOL    HW120651   4.152   3.417   6.438
 6584SOL    HW220652   4.136   3.299   6.325
 6585SOL     OW20653   5.708   0.208   1.827
 6585SOL    HW120654   5.807   0.203   1.844
 6585SOL    HW220655   5.670   0.116   1.827
 6586SOL     OW20656   6.684   2.009   0.269
 6586SOL    HW120657   6.746   1.950   0.319
 6586SOL    HW220658   6.654   2.084   0.328
 6587SOL     OW20659   2.638   4.953   5.544
 6587SOL    HW120660   2.581   4.871   5.547
 6587SOL    HW220661   2.729   4.932   5.581
 6588SOL     OW20662   1.025   1.676   0.935
 6588SOL    HW120663   1.045   1.774   0.923
 6588SOL    HW220664   0.991   1.638   0.849
 6589SOL     OW20665   5.585   6.895   0.655
 6589SOL    HW120666   5.511   6.913   0.591
 6589SOL    HW220667   5.553   6.835   0.728
 6590SOL     OW20668   1.320   6.151   4.516
 6590SOL    HW120669   1.275   6.135   4.604
 6590SOL    HW220670   1.263   6.115   4.443
 6591SOL     OW20671   6.350   3.368   3.605
 6591SOL    HW120672   6.340   3.271   3.586
 6591SOL    HW220673   6.441   3.386   3.644
 6592SOL     OW20674   0.311   0.607   4.455
 6592SOL    HW120675   0.278   0.513   4.467
 6592SOL    HW220676   0.380   0.627   4.525
 6593SOL     OW20677   1.061   0.682   3.175
 6593SOL    HW120678   1.112   0.765   3.201
 6593SOL    HW220679   1.053   0.678   3.075
 6594SOL     OW20680   5.513   0.292   6.560
 6594SOL    HW120681   5.425   0.249   6.581
 6594SOL    HW220682   5.581   0.221   6.542
 6595SOL     OW20683   1.623   1.294   4.985
 6595SOL    HW120684   1.572   1.300   4.899
 6595SOL    HW220685   1.695   1.225   4.976
 6596SOL     OW20686   5.434   0.756   3.070
 6596SOL    HW120687   5.462   0.672   3.116
 6596SOL    HW220688   5.337   0.751   3.048
 6597SOL     OW20689   1.150   4.883   1.395
 6597SOL    HW120690   1.169   4.942   1.473
 6597SOL    HW220691   1.189   4.923   1.312
 6598SOL     OW20692   1.434   5.395   1.826
 6598SOL    HW120693   1.487   5.328   1.878
 6598SOL    HW220694   1.365   5.348   1.771
 6599SOL     OW20695   0.802   5.965   6.342
 6599SOL    HW120696   0.812   6.030   6.418
 6599SOL    HW220697   0.889   5.953   6.296
 6600SOL     OW20698   5.045   6.870   4.342
 6600SOL    HW120699   5.023   6.782   4.383
 6600SOL    HW220700   5.010   6.873   4.248
 6601SOL     OW20701   0.953   2.873   2.700
 6601SOL    HW120702   0.935   2.813   2.622
 6601SOL    HW220703   1.046   2.909   2.692
 6602SOL     OW20704   5.846   6.323   0.454
 6602SOL    HW120705   5.878   6.415   0.478
 6602SOL    HW220706   5.884   6.257   0.518
 6603SOL     OW20707   0.246   4.586   2.444
 6603SOL    HW120708   0.323   4.593   2.380
 6603SOL    HW220709   0.190   4.668   2.438
 6604SOL     OW20710   1.390   5.270   2.531
 6604SOL    HW120711   1.310   5.326   2.548
 6604SOL    HW220712   1.464   5.296   2.594
 6605SOL     OW20713   0.075   5.379   0.942
 6605SOL    HW120714   0.132   5.316   0.890
 6605SOL    HW220715   0.031   5.331   1.018
 6606SOL     OW20716   1.402   4.681   2.981
 6606SOL    HW120717   1.401   4.657   3.078
 6606SOL    HW220718   1.412   4.780   2.971
 6607SOL     OW20719   6.323   3.588   4.023
 6607SOL    HW120720   6.372   3.503   4.003
 6607SOL    HW220721   6.258   3.572   4.098
 6608SOL     OW20722   1.971   0.757   5.270
 6608SOL    HW120723   2.070   0.766   5.283
 6608SOL    HW220724   1.926   0.755   5.359
 6609SOL     OW20725   2.611   2.227   6.921
 6609SOL    HW120726   2.517   2.260   6.936
 6609SOL    HW220727   2.634   2.160   6.992
 6610SOL     OW20728   3.220   6.205   0.863
 6610SOL    HW120729   3.281   6.210   0.783
 6610SOL    HW220730   3.199   6.110   0.883
 6611SOL     OW20731   3.322   1.564   4.765
 6611SOL    HW120732   3.379   1.514   4.830
 6611SOL    HW220733   3.258   1.622   4.816
 6612SOL     OW20734   6.660   0.590   0.070
 6612SOL    HW120735   6.584   0.529   0.095
 6612SOL    HW220736   6.668   0.662   0.138
 6613SOL     OW20737   4.265   0.242   1.270
 6613SOL    HW120738   4.349   0.244   1.325
 6613SOL    HW220739   4.219   0.154   1.284
 6614SOL     OW20740   4.007   4.623   0.624
 6614SOL    HW120741   4.076   4.558   0.592
 6614SOL    HW220742   3.915   4.589   0.600
 6615SOL     OW20743   3.840   5.775   6.151
 6615SOL    HW120744   3.805   5.746   6.062
 6615SOL    HW220745   3.813   5.870   6.169
 6616SOL     OW20746   4.453   2.313   6.373
 6616SOL    HW120747   4.518   2.237   6.376
 6616SOL    HW220748   4.397   2.312   6.456
 6617SOL     OW20749   3.616   1.801   4.073
 6617SOL    HW120750   3.517   1.800   4.065
 6617SOL    HW220751   3.648   1.896   4.079
 6618SOL     OW20752   6.544   3.056   3.432
 6618SOL    HW120753   6.479   3.060   3.355
 6618SOL    HW220754   6.598   2.972   3.426
 6619SOL     OW20755   4.522   5.151   4.152
 6619SOL    HW120756   4.531   5.185   4.246
 6619SOL    HW220757   4.429   5.169   4.119
 6620SOL     OW20758   1.342   2.740   3.476
 6620SOL    HW120759   1.353   2.641   3.478
 6620SOL    HW220760   1.249   2.764   3.503
 6621SOL     OW20761   3.417   3.445   3.874
 6621SOL    HW120762   3.455   3.359   3.840
 6621SOL    HW220763   3.484   3.490   3.933
 6622SOL     OW20764   0.267   4.628   1.803
 6622SOL    HW120765   0.208   4.698   1.845
 6622SOL    HW220766   0.222   4.539   1.811
 6623SOL     OW20767   3.652   3.224   3.856
 6623SOL    HW120768   3.704   3.144   3.824
 6623SOL    HW220769   3.571   3.192   3.906
 6624SOL     OW20770   2.467   2.267   2.809
 6624SOL    HW120771   2.386   2.225   2.769
 6624SOL    HW220772   2.541   2.199   2.812
 6625SOL     OW20773   0.342   4.484   5.399
 6625SOL    HW120774   0.391   4.533   5.327
 6625SOL    HW220775   0.407   4.456   5.470
 6626SOL     OW20776   3.293   6.005   5.215
 6626SOL    HW120777   3.230   6.081   5.205
 6626SOL    HW220778   3.276   5.959   5.303
 6627SOL     OW20779   2.489   6.708   4.649
 6627SOL    HW120780   2.440   6.685   4.733
 6627SOL    HW220781   2.430   6.690   4.570
 6628SOL     OW20782   3.691   6.980   3.510
 6628SOL    HW120783   3.629   6.935   3.574
 6628SOL    HW220784   3.750   0.025   3.560
 6629SOL     OW20785   4.600   6.194   5.162
 6629SOL    HW120786   4.511   6.236   5.142
 6629SOL    HW220787   4.667   6.224   5.094
 6630SOL     OW20788   1.820   6.999   0.376
 6630SOL    HW120789   1.832   7.007   0.277
 6630SOL    HW220790   1.735   0.025   0.403
 6631SOL     OW20791   1.683   1.627   5.997
 6631SOL    HW120792   1.585   1.641   5.988
 6631SOL    HW220793   1.705   1.604   6.092
 6632SOL     OW20794   1.151   0.723   6.275
 6632SOL    HW120795   1.137   0.643   6.217
 6632SOL    HW220796   1.190   0.695   6.363
 6633SOL     OW20797   4.611   6.575   6.403
 6633SOL    HW120798   4.604   6.665   6.359
 6633SOL    HW220799   4.674   6.517   6.351
 6634SOL     OW20800   2.964   2.157   4.215
 6634SOL    HW120801   3.006   2.181   4.302
 6634SOL    HW220802   2.865   2.171   4.222
 6635SOL     OW20803   5.420   5.389   5.965
 6635SOL    HW120804   5.391   5.354   6.054
 6635SOL    HW220805   5.455   5.482   5.976
 6636SOL     OW20806   4.123   1.737   1.103
 6636SOL    HW120807   4.093   1.641   1.100
 6636SOL    HW220808   4.162   1.762   1.015
 6637SOL     OW20809   0.292   2.989   6.816
 6637SOL    HW120810   0.244   2.943   6.891
 6637SOL    HW220811   0.291   2.931   6.735
 6638SOL     OW20812   3.048   3.895   3.605
 6638SOL    HW120813   3.067   3.919   3.510
 6638SOL    HW220814   3.089   3.963   3.666
 6639SOL     OW20815   4.994   3.279   1.613
 6639SOL    HW120816   5.031   3.247   1.526
 6639SOL    HW220817   4.957   3.371   1.602
 6640SOL     OW20818   0.846   3.279   4.535
 6640SOL    HW120819   0.893   3.225   4.465
 6640SOL    HW220820   0.875   3.375   4.529
 6641SOL     OW20821   5.150   2.661   6.895
 6641SOL    HW120822   5.206   2.728   6.946
 6641SOL    HW220823   5.053   2.680   6.911
 6642SOL     OW20824   1.251   4.813   6.192
 6642SOL    HW120825   1.297   4.833   6.106
 6642SOL    HW220826   1.153   4.804   6.176
 6643SOL     OW20827   4.851   5.609   5.843
 6643SOL    HW120828   4.774   5.616   5.906
 6643SOL    HW220829   4.899   5.523   5.858
 6644SOL     OW20830   1.955   0.091   3.485
 6644SOL    HW120831   1.994   0.136   3.404
 6644SOL    HW220832   2.029   0.057   3.543
 6645SOL     OW20833   4.739   2.694   5.243
 6645SOL    HW120834   4.671   2.766   5.237
 6645SOL    HW220835   4.697   2.606   5.222
 6646SOL     OW20836   5.015   7.009   6.161
 6646SOL    HW120837   4.967   0.061   6.108
 6646SOL    HW220838   5.037   6.931   6.102
 6647SOL     OW20839   3.620   4.777   0.791
 6647SOL    HW120840   3.527   4.799   0.762
 6647SOL    HW220841   3.685   4.810   0.724
 6648SOL     OW20842   3.312   5.480   5.450
 6648SOL    HW120843   3.325   5.394   5.399
 6648SOL    HW220844   3.400   5.522   5.468
 6649SOL     OW20845   5.555   2.749   5.510
 6649SOL    HW120846   5.653   2.756   5.528
 6649SOL    HW220847   5.515   2.840   5.508
 6650SOL     OW20848   2.983   0.819   4.823
 6650SOL    HW120849   3.022   0.791   4.735
 6650SOL    HW220850   2.951   0.914   4.816
 6651SOL     OW20851   6.877   0.957   3.766
 6651SOL    HW120852   6.840   0.965   3.673
 6651SOL    HW220853   6.802   0.963   3.832
 6652SOL     OW20854   0.221   5.214   6.992
 6652SOL    HW120855   0.274   5.191   0.055
 6652SOL    HW220856   0.265   5.177   6.911
 6653SOL     OW20857   5.516   3.956   6.579
 6653SOL    HW120858   5.584   3.926   6.647
 6653SOL    HW220859   5.425   3.931   6.610
 6654SOL     OW20860   0.017   1.794   3.358
 6654SOL    HW120861   7.010   1.835   3.270
 6654SOL    HW220862   0.001   1.860   3.431
 6655SOL     OW20863   0.057   5.640   1.461
 6655SOL    HW120864   0.025   5.547   1.477
 6655SOL    HW220865   7.005   5.705   1.489
 6656SOL     OW20866   4.985   0.911   2.338
 6656SOL    HW120867   4.941   0.968   2.268
 6656SOL    HW220868   4.923   0.838   2.365
 6657SOL     OW20869   4.867   2.068   4.362
 6657SOL    HW120870   4.786   2.124   4.376
 6657SOL    HW220871   4.947   2.115   4.400
 6658SOL     OW20872   6.551   5.922   4.862
 6658SOL    HW120873   6.593   5.854   4.802
 6658SOL    HW220874   6.622   5.976   4.906
 6659SOL     OW20875   0.655   6.721   0.818
 6659SOL    HW120876   0.591   6.664   0.869
 6659SOL    HW220877   0.604   6.788   0.765
 6660SOL     OW20878   1.137   0.305   4.130
 6660SOL    HW120879   1.065   0.278   4.066
 6660SOL    HW220880   1.127   0.254   4.215
 6661SOL     OW20881   3.991   6.855   3.559
 6661SOL    HW120882   3.897   6.850   3.525
 6661SOL    HW220883   3.991   6.845   3.658
 6662SOL     OW20884   3.324   6.919   2.108
 6662SOL    HW120885   3.388   6.995   2.124
 6662SOL    HW220886   3.247   6.926   2.171
 6663SOL     OW20887   1.592   3.771   5.272
 6663SOL    HW120888   1.674   3.818   5.306
 6663SOL    HW220889   1.573   3.802   5.179
 6664SOL     OW20890   2.923   0.236   2.022
 6664SOL    HW120891   2.869   0.231   1.937
 6664SOL    HW220892   2.863   0.260   2.098
 6665SOL     OW20893   2.503   0.260   6.568
 6665SOL    HW120894   2.515   0.233   6.473
 6665SOL    HW220895   2.592   0.278   6.609
 6666SOL     OW20896   2.959   6.173   5.972
 6666SOL    HW120897   3.034   6.140   6.029
 6666SOL    HW220898   2.947   6.113   5.893
 6667SOL     OW20899   2.099   5.772   0.107
 6667SOL    HW120900   2.171   5.749   0.172
 6667SOL    HW220901   2.017   5.718   0.126
 6668SOL     OW20902   0.634   3.409   6.066
 6668SOL    HW120903   0.731   3.416   6.046
 6668SOL    HW220904   0.582   3.407   5.981
 6669SOL     OW20905   0.785   3.193   3.369
 6669SOL    HW120906   0.845   3.272   3.371
 6669SOL    HW220907   0.839   3.109   3.365
 6670SOL     OW20908   2.419   4.012   0.516
 6670SOL    HW120909   2.399   3.991   0.612
 6670SOL    HW220910   2.473   4.096   0.512
 6671SOL     OW20911   4.580   5.047   0.348
 6671SOL    HW120912   4.554   4.953   0.328
 6671SOL    HW220913   4.655   5.075   0.287
 6672SOL     OW20914   2.060   2.195   0.904
 6672SOL    HW120915   2.024   2.280   0.942
 6672SOL    HW220916   2.075   2.129   0.977
 6673SOL     OW20917   5.471   3.681   4.418
 6673SOL    HW120918   5.375   3.691   4.444
 6673SOL    HW220919   5.483   3.709   4.323
 6674SOL     OW20920   6.960   1.111   0.198
 6674SOL    HW120921   0.031   1.146   0.225
 6674SOL    HW220922   6.967   1.065   0.109
 6675SOL     OW20923   5.066   1.312   0.231
 6675SOL    HW120924   4.990   1.268   0.184
 6675SOL    HW220925   5.105   1.250   0.299
 6676SOL     OW20926   1.103   3.745   5.293
 6676SOL    HW120927   1.082   3.764   5.389
 6676SOL    HW220928   1.062   3.816   5.235
 6677SOL     OW20929   0.134   2.284   6.830
 6677SOL    HW120930   0.070   2.209   6.817
 6677SOL    HW220931   0.128   2.318   6.924
 6678SOL     OW20932   2.703   3.845   6.621
 6678SOL    HW120933   2.632   3.805   6.563
 6678SOL    HW220934   2.763   3.902   6.566
 6679SOL     OW20935   1.476   0.467   4.199
 6679SOL    HW120936   1.528   0.503   4.121
 6679SOL    HW220937   1.453   0.542   4.261
 6680SOL     OW20938   6.416   5.584   2.173
 6680SOL    HW120939   6.322   5.614   2.157
 6680SOL    HW220940   6.422   5.485   2.163
 6681SOL     OW20941   3.319   5.562   1.065
 6681SOL    HW120942   3.317   5.500   1.143
 6681SOL    HW220943   3.342   5.511   0.982
 6682SOL     OW20944   2.571   5.213   6.327
 6682SOL    HW120945   2.514   5.137   6.360
 6682SOL    HW220946   2.544   5.297   6.374
 6683SOL     OW20947   6.770   5.788   6.342
 6683SOL    HW120948   6.777   5.886   6.361
 6683SOL    HW220949   6.684   5.753   6.379
 6684SOL     OW20950   2.882   6.688   6.011
 6684SOL    HW120951   2.804   6.675   5.950
 6684SOL    HW220952   2.881   6.781   6.048
 6685SOL     OW20953   3.704   2.626   0.552
 6685SOL    HW120954   3.779   2.691   0.555
 6685SOL    HW220955   3.710   2.572   0.468
 6686SOL     OW20956   4.579   4.319   5.204
 6686SOL    HW120957   4.535   4.248   5.258
 6686SOL    HW220958   4.511   4.368   5.150
 6687SOL     OW20959   0.230   2.402   0.975
 6687SOL    HW120960   0.146   2.350   0.955
 6687SOL    HW220961   0.271   2.432   0.889
 6688SOL     OW20962   5.643   5.297   0.794
 6688SOL    HW120963   5.625   5.394   0.812
 6688SOL    HW220964   5.569   5.242   0.832
 6689SOL     OW20965   3.784   4.993   6.018
 6689SOL    HW120966   3.762   5.022   6.111
 6689SOL    HW220967   3.774   5.071   5.956
 6690SOL     OW20968   1.195   0.211   0.351
 6690SOL    HW120969   1.171   0.120   0.319
 6690SOL    HW220970   1.115   0.255   0.391
 6691SOL     OW20971   2.297   1.693   1.768
 6691SOL    HW120972   2.299   1.623   1.697
 6691SOL    HW220973   2.316   1.651   1.857
 6692SOL     OW20974   4.367   6.525   2.030
 6692SOL    HW120975   4.444   6.461   2.041
 6692SOL    HW220976   4.397   6.617   2.052
 6693SOL     OW20977   2.840   1.392   5.980
 6693SOL    HW120978   2.819   1.313   5.922
 6693SOL    HW220979   2.888   1.360   6.062
 6694SOL     OW20980   4.487   4.061   1.625
 6694SOL    HW120981   4.453   4.113   1.704
 6694SOL    HW220982   4.481   4.118   1.543
 6695SOL     OW20983   2.784   2.427   6.832
 6695SOL    HW120984   2.790   2.483   6.915
 6695SOL    HW220985   2.715   2.355   6.845
 6696SOL     OW20986   3.491   2.867   5.215
 6696SOL    HW120987   3.550   2.789   5.239
 6696SOL    HW220988   3.423   2.837   5.148
 6697SOL     OW20989   5.034   1.993   2.792
 6697SOL    HW120990   5.023   2.050   2.874
 6697SOL    HW220991   5.123   2.011   2.752
 6698SOL     OW20992   2.773   3.720   1.691
 6698SOL    HW120993   2.815   3.697   1.779
 6698SOL    HW220994   2.786   3.645   1.627
 6699SOL     OW20995   1.813   3.358   6.654
 6699SOL    HW120996   1.829   3.275   6.708
 6699SOL    HW220997   1.820   3.336   6.557
 6700SOL     OW20998   4.993   0.803   1.242
 6700SOL    HW120999   4.958   0.792   1.335
 6700SOL    HW221000   4.977   0.720   1.189
 6701SOL     OW21001   5.904   6.841   1.494
 6701SOL    HW121002   5.877   6.815   1.587
 6701SOL    HW221003   5.974   6.912   1.498
 6702SOL     OW21004   4.692   2.461   1.094
 6702SOL    HW121005   4.713   2.481   0.998
 6702SOL    HW221006   4.599   2.493   1.115
 6703SOL     OW21007   0.882   1.722   0.417
 6703SOL    HW121008   0.941   1.642   0.415
 6703SOL    HW221009   0.929   1.799   0.373
 6704SOL     OW21010   2.678   6.771   5.853
 6704SOL    HW121011   2.582   6.754   5.872
 6704SOL    HW221012   2.692   6.870   5.841
 6705SOL     OW21013   0.461   4.412   2.315
 6705SOL    HW121014   0.458   4.321   2.354
 6705SOL    HW221015   0.410   4.413   2.228
 6706SOL     OW21016   0.267   6.147   0.098
 6706SOL    HW121017   0.251   6.144   0.197
 6706SOL    HW221018   0.356   6.107   0.077
 6707SOL     OW21019   4.724   1.176   2.884
 6707SOL    HW121020   4.729   1.101   2.817
 6707SOL    HW221021   4.645   1.162   2.944
 6708SOL     OW21022   0.628   3.524   0.606
 6708SOL    HW121023   0.571   3.499   0.685
 6708SOL    HW221024   0.708   3.574   0.637
 6709SOL     OW21025   2.044   4.206   2.224
 6709SOL    HW121026   2.030   4.203   2.125
 6709SOL    HW221027   1.962   4.174   2.270
 6710SOL     OW21028   4.551   1.854   1.478
 6710SOL    HW121029   4.491   1.774   1.487
 6710SOL    HW221030   4.497   1.937   1.491
 6711SOL     OW21031   4.270   5.414   6.148
 6711SOL    HW121032   4.199   5.408   6.219
 6711SOL    HW221033   4.285   5.509   6.123
 6712SOL     OW21034   5.374   3.792   1.162
 6712SOL    HW121035   5.396   3.772   1.067
 6712SOL    HW221036   5.429   3.869   1.194
 6713SOL     OW21037   1.961   4.648   4.081
 6713SOL    HW121038   2.058   4.659   4.059
 6713SOL    HW221039   1.905   4.691   4.010
 6714SOL     OW21040   5.835   1.263   2.227
 6714SOL    HW121041   5.741   1.279   2.260
 6714SOL    HW221042   5.893   1.239   2.305
 6715SOL     OW21043   1.160   0.225   6.121
 6715SOL    HW121044   1.091   0.153   6.116
 6715SOL    HW221045   1.251   0.185   6.112
 6716SOL     OW21046   1.284   4.580   1.916
 6716SOL    HW121047   1.196   4.598   1.873
 6716SOL    HW221048   1.356   4.582   1.847
 6717SOL     OW21049   6.355   2.530   5.359
 6717SOL    HW121050   6.447   2.503   5.386
 6717SOL    HW221051   6.359   2.615   5.305
 6718SOL     OW21052   4.693   2.199   0.750
 6718SOL    HW121053   4.668   2.211   0.846
 6718SOL    HW221054   4.744   2.114   0.739
 6719SOL     OW21055   1.364   1.217   0.399
 6719SOL    HW121056   1.416   1.136   0.428
 6719SOL    HW221057   1.410   1.260   0.322
 6720SOL     OW21058   1.625   1.669   5.031
 6720SOL    HW121059   1.669   1.618   5.105
 6720SOL    HW221060   1.643   1.623   4.944
 6721SOL     OW21061   6.539   7.006   0.443
 6721SOL    HW121062   6.496   0.054   0.381
 6721SOL    HW221063   6.598   0.037   0.507
 6722SOL     OW21064   6.108   4.683   1.281
 6722SOL    HW121065   6.189   4.639   1.321
 6722SOL    HW221066   6.093   4.646   1.189
 6723SOL     OW21067   1.565   3.027   4.622
 6723SOL    HW121068   1.601   3.118   4.606
 6723SOL    HW221069   1.616   2.960   4.567
 6724SOL     OW21070   1.943   3.250   5.277
 6724SOL    HW121071   2.011   3.304   5.228
 6724SOL    HW221072   1.866   3.309   5.302
 6725SOL     OW21073   4.850   2.966   3.882
 6725SOL    HW121074   4.875   2.904   3.807
 6725SOL    HW221075   4.865   3.060   3.854
 6726SOL     OW21076   6.860   1.523   0.327
 6726SOL    HW121077   6.926   1.454   0.357
 6726SOL    HW221078   6.768   1.494   0.355
 6727SOL     OW21079   0.913   5.328   5.784
 6727SOL    HW121080   0.896   5.265   5.860
 6727SOL    HW221081   0.885   5.420   5.809
 6728SOL     OW21082   3.759   1.414   5.156
 6728SOL    HW121083   3.662   1.393   5.166
 6728SOL    HW221084   3.813   1.346   5.207
 6729SOL     OW21085   4.237   1.111   2.423
 6729SOL    HW121086   4.313   1.129   2.360
 6729SOL    HW221087   4.169   1.184   2.416
 6730SOL     OW21088   0.429   1.999   1.434
 6730SOL    HW121089   0.441   2.095   1.458
 6730SOL    HW221090   0.513   1.964   1.392
 6731SOL     OW21091   3.906   0.719   6.497
 6731SOL    HW121092   3.875   0.646   6.557
 6731SOL    HW221093   4.000   0.743   6.519
 6732SOL     OW21094   6.108   5.445   5.587
 6732SOL    HW121095   6.203   5.422   5.609
 6732SOL    HW221096   6.047   5.396   5.649
 6733SOL     OW21097   4.930   4.867   5.581
 6733SOL    HW121098   4.907   4.770   5.572
 6733SOL    HW221099   5.008   4.878   5.642
 6734SOL     OW21100   5.511   2.136   5.578
 6734SOL    HW121101   5.443   2.062   5.581
 6734SOL    HW221102   5.531   2.159   5.483
 6735SOL     OW21103   5.664   3.115   4.413
 6735SOL    HW121104   5.588   3.110   4.478
 6735SOL    HW221105   5.629   3.120   4.320
 6736SOL     OW21106   3.875   3.912   0.824
 6736SOL    HW121107   3.973   3.902   0.842
 6736SOL    HW221108   3.860   3.918   0.725
 6737SOL     OW21109   5.881   3.755   0.819
 6737SOL    HW121110   5.798   3.797   0.783
 6737SOL    HW221111   5.942   3.826   0.854
 6738SOL     OW21112   2.051   6.737   4.357
 6738SOL    HW121113   2.122   6.780   4.302
 6738SOL    HW221114   2.088   6.656   4.403
 6739SOL     OW21115   0.289   0.433   5.778
 6739SOL    HW121116   0.300   0.433   5.679
 6739SOL    HW221117   0.367   0.480   5.820
 6740SOL     OW21118   0.434   6.809   2.035
 6740SOL    HW121119   0.484   6.873   1.976
 6740SOL    HW221120   0.451   6.716   2.004
 6741SOL     OW21121   3.022   2.276   0.327
 6741SOL    HW121122   3.030   2.375   0.319
 6741SOL    HW221123   2.967   2.240   0.253
 6742SOL     OW21124   6.389   4.908   2.598
 6742SOL    HW121125   6.470   4.876   2.549
 6742SOL    HW221126   6.407   5.000   2.633
 6743SOL     OW21127   3.819   3.948   6.901
 6743SOL    HW121128   3.786   4.036   6.866
 6743SOL    HW221129   3.741   3.886   6.912
 6744SOL     OW21130   6.710   6.356   5.863
 6744SOL    HW121131   6.766   6.384   5.941
 6744SOL    HW221132   6.613   6.364   5.888
 6745SOL     OW21133   5.679   3.805   5.548
 6745SOL    HW121134   5.589   3.843   5.569
 6745SOL    HW221135   5.735   3.875   5.503
 6746SOL     OW21136   1.260   1.962   3.031
 6746SOL    HW121137   1.323   2.040   3.037
 6746SOL    HW221138   1.255   1.931   2.936
 6747SOL     OW21139   1.217   6.121   5.008
 6747SOL    HW121140   1.303   6.075   5.030
 6747SOL    HW221141   1.140   6.066   5.040
 6748SOL     OW21142   1.530   1.905   4.435
 6748SOL    HW121143   1.431   1.886   4.437
 6748SOL    HW221144   1.547   1.997   4.470
 6749SOL     OW21145   3.982   4.947   2.256
 6749SOL    HW121146   3.986   4.895   2.341
 6749SOL    HW221147   3.911   4.908   2.196
 6750SOL     OW21148   3.672   0.877   6.250
 6750SOL    HW121149   3.761   0.871   6.296
 6750SOL    HW221150   3.650   0.973   6.232
 6751SOL     OW21151   4.062   1.062   4.614
 6751SOL    HW121152   4.099   1.079   4.705
 6751SOL    HW221153   4.070   1.146   4.559
 6752SOL     OW21154   1.849   4.647   3.053
 6752SOL    HW121155   1.799   4.609   2.975
 6752SOL    HW221156   1.929   4.589   3.072
 6753SOL     OW21157   3.524   4.259   0.467
 6753SOL    HW121158   3.615   4.282   0.431
 6753SOL    HW221159   3.482   4.190   0.408
 6754SOL     OW21160   6.337   1.203   0.586
 6754SOL    HW121161   6.376   1.166   0.670
 6754SOL    HW221162   6.260   1.147   0.557
 6755SOL     OW21163   3.969   5.807   5.595
 6755SOL    HW121164   3.987   5.713   5.567
 6755SOL    HW221165   4.051   5.862   5.578
 6756SOL     OW21166   4.347   3.001   6.507
 6756SOL    HW121167   4.424   2.946   6.474
 6756SOL    HW221168   4.366   3.098   6.493
 6757SOL     OW21169   4.406   6.878   2.057
 6757SOL    HW121170   4.446   6.833   2.136
 6757SOL    HW221171   4.372   6.968   2.083
 6758SOL     OW21172   4.860   3.250   3.272
 6758SOL    HW121173   4.785   3.314   3.257
 6758SOL    HW221174   4.922   3.251   3.194
 6759SOL     OW21175   1.559   2.199   2.332
 6759SOL    HW121176   1.507   2.273   2.376
 6759SOL    HW221177   1.654   2.228   2.321
 6760SOL     OW21178   5.469   1.748   5.736
 6760SOL    HW121179   5.435   1.811   5.807
 6760SOL    HW221180   5.542   1.692   5.774
 6761SOL     OW21181   2.718   0.669   4.857
 6761SOL    HW121182   2.700   0.743   4.923
 6761SOL    HW221183   2.817   0.655   4.849
 6762SOL     OW21184   5.514   4.971   4.480
 6762SOL    HW121185   5.609   5.002   4.490
 6762SOL    HW221186   5.490   4.913   4.558
 6763SOL     OW21187   5.765   6.495   4.040
 6763SOL    HW121188   5.775   6.593   4.058
 6763SOL    HW221189   5.683   6.462   4.086
 6764SOL     OW21190   0.906   4.861   1.668
 6764SOL    HW121191   0.856   4.832   1.587
 6764SOL    HW221192   0.917   4.960   1.668
 6765SOL     OW21193   6.987   4.224   2.756
 6765SOL    HW121194   6.932   4.218   2.673
 6765SOL    HW221195   0.042   4.292   2.743
 6766SOL     OW21196   6.091   0.007   1.513
 6766SOL    HW121197   6.154   6.984   1.579
 6766SOL    HW221198   6.136   0.083   1.466
 6767SOL     OW21199   3.111   0.590   1.179
 6767SOL    HW121200   3.195   0.568   1.228
 6767SOL    HW221201   3.062   0.506   1.156
 6768SOL     OW21202   2.058   6.996   6.966
 6768SOL    HW121203   2.069   6.915   6.908
 6768SOL    HW221204   1.967   6.994   7.009
 6769SOL     OW21205   5.055   3.171   1.375
 6769SOL    HW121206   5.059   3.071   1.381
 6769SOL    HW221207   4.966   3.198   1.338
 6770SOL     OW21208   0.329   1.547   1.751
 6770SOL    HW121209   0.305   1.643   1.736
 6770SOL    HW221210   0.270   1.509   1.822
 6771SOL     OW21211   4.777   1.389   3.783
 6771SOL    HW121212   4.791   1.485   3.806
 6771SOL    HW221213   4.831   1.331   3.844
 6772SOL     OW21214   3.463   1.482   5.003
 6772SOL    HW121215   3.549   1.527   4.978
 6772SOL    HW221216   3.412   1.541   5.064
 6773SOL     OW21217   0.312   3.580   1.777
 6773SOL    HW121218   0.269   3.614   1.861
 6773SOL    HW221219   0.411   3.592   1.783
 6774SOL     OW21220   1.151   2.096   6.481
 6774SOL    HW121221   1.153   2.082   6.382
 6774SOL    HW221222   1.166   2.009   6.527
 6775SOL     OW21223   0.480   3.785   0.275
 6775SOL    HW121224   0.441   3.700   0.312
 6775SOL    HW221225   0.495   3.850   0.350
 6776SOL     OW21226   6.029   6.151   6.790
 6776SOL    HW121227   5.987   6.215   6.725
 6776SOL    HW221228   6.102   6.197   6.841
 6777SOL     OW21229   4.719   4.676   6.805
 6777SOL    HW121230   4.786   4.653   6.875
 6777SOL    HW221231   4.644   4.609   6.808
 6778SOL     OW21232   6.190   5.840   3.572
 6778SOL    HW121233   6.250   5.764   3.546
 6778SOL    HW221234   6.096   5.806   3.580
 6779SOL     OW21235   6.045   3.736   6.464
 6779SOL    HW121236   5.960   3.687   6.483
 6779SOL    HW221237   6.037   3.831   6.494
 6780SOL     OW21238   0.604   3.344   1.606
 6780SOL    HW121239   0.684   3.312   1.555
 6780SOL    HW221240   0.539   3.386   1.543
 6781SOL     OW21241   5.260   5.207   5.821
 6781SOL    HW121242   5.188   5.256   5.771
 6781SOL    HW221243   5.323   5.274   5.861
 6782SOL     OW21244   6.172   1.099   3.330
 6782SOL    HW121245   6.156   1.009   3.289
 6782SOL    HW221246   6.236   1.151   3.274
 6783SOL     OW21247   1.474   5.649   6.435
 6783SOL    HW121248   1.481   5.557   6.474
 6783SOL    HW221249   1.472   5.717   6.509
 6784SOL     OW21250   3.662   3.528   0.284
 6784SOL    HW121251   3.562   3.525   0.289
 6784SOL    HW221252   3.693   3.478   0.203
 6785SOL     OW21253   5.697   5.743   2.111
 6785SOL    HW121254   5.746   5.725   2.196
 6785SOL    HW221255   5.733   5.825   2.068
 6786SOL     OW21256   1.703   3.373   5.450
 6786SOL    HW121257   1.773   3.444   5.444
 6786SOL    HW221258   1.624   3.400   5.396
 6787SOL     OW21259   1.062   3.588   1.578
 6787SOL    HW121260   1.153   3.608   1.542
 6787SOL    HW221261   1.070   3.558   1.673
 6788SOL     OW21262   2.674   3.755   1.328
 6788SOL    HW121263   2.711   3.719   1.414
 6788SOL    HW221264   2.743   3.810   1.282
 6789SOL     OW21265   1.430   4.622   3.265
 6789SOL    HW121266   1.439   4.705   3.320
 6789SOL    HW221267   1.520   4.579   3.255
 6790SOL     OW21268   1.482   2.465   0.823
 6790SOL    HW121269   1.439   2.446   0.734
 6790SOL    HW221270   1.581   2.475   0.810
 6791SOL     OW21271   3.475   3.885   6.050
 6791SOL    HW121272   3.426   3.803   6.022
 6791SOL    HW221273   3.564   3.860   6.088
 6792SOL     OW21274   0.432   4.927   0.825
 6792SOL    HW121275   0.506   4.966   0.879
 6792SOL    HW221276   0.414   4.834   0.856
 6793SOL     OW21277   5.527   1.556   0.995
 6793SOL    HW121278   5.598   1.487   1.008
 6793SOL    HW221279   5.493   1.586   1.084
 6794SOL     OW21280   3.723   1.173   4.737
 6794SOL    HW121281   3.790   1.247   4.743
 6794SOL    HW221282   3.678   1.175   4.648
 6795SOL     OW21283   3.559   6.024   7.012
 6795SOL    HW121284   3.570   6.113   6.968
 6795SOL    HW221285   3.636   6.007   0.056
 6796SOL     OW21286   4.363   1.947   2.161
 6796SOL    HW121287   4.391   2.012   2.090
 6796SOL    HW221288   4.263   1.944   2.165
 6797SOL     OW21289   6.573   2.079   2.708
 6797SOL    HW121290   6.549   2.078   2.610
 6797SOL    HW221291   6.497   2.040   2.760
 6798SOL     OW21292   6.644   6.913   2.544
 6798SOL    HW121293   6.704   6.961   2.608
 6798SOL    HW221294   6.639   6.816   2.568
 6799SOL     OW21295   5.657   6.004   1.720
 6799SOL    HW121296   5.571   5.965   1.753
 6799SOL    HW221297   5.638   6.077   1.655
 6800SOL     OW21298   3.304   4.094   6.730
 6800SOL    HW121299   3.246   4.033   6.676
 6800SOL    HW221300   3.392   4.105   6.684
 6801SOL     OW21301   0.813   3.126   3.076
 6801SOL    HW121302   0.846   3.035   3.053
 6801SOL    HW221303   0.840   3.149   3.169
 6802SOL     OW21304   3.031   4.824   2.461
 6802SOL    HW121305   3.108   4.787   2.409
 6802SOL    HW221306   3.015   4.766   2.541
 6803SOL     OW21307   3.941   2.042   0.871
 6803SOL    HW121308   3.931   2.123   0.929
 6803SOL    HW221309   4.032   2.002   0.886
 6804SOL     OW21310   1.155   6.563   3.510
 6804SOL    HW121311   1.190   6.476   3.543
 6804SOL    HW221312   1.231   6.625   3.490
 6805SOL     OW21313   5.615   1.232   5.613
 6805SOL    HW121314   5.615   1.305   5.681
 6805SOL    HW221315   5.570   1.151   5.650
 6806SOL     OW21316   5.473   6.321   4.998
 6806SOL    HW121317   5.429   6.403   5.033
 6806SOL    HW221318   5.438   6.300   4.907
 6807SOL     OW21319   3.175   3.442   0.078
 6807SOL    HW121320   3.213   3.460   0.169
 6807SOL    HW221321   3.242   3.393   0.023
 6808SOL     OW21322   2.147   3.752   4.227
 6808SOL    HW121323   2.049   3.745   4.243
 6808SOL    HW221324   2.180   3.842   4.258
 6809SOL     OW21325   1.487   4.085   6.976
 6809SOL    HW121326   1.486   4.033   6.891
 6809SOL    HW221327   1.401   4.069   0.007
 6810SOL     OW21328   5.754   1.411   3.768
 6810SOL    HW121329   5.805   1.361   3.837
 6810SOL    HW221330   5.715   1.494   3.810
 6811SOL     OW21331   5.181   5.886   1.997
 6811SOL    HW121332   5.139   5.799   2.023
 6811SOL    HW221333   5.114   5.960   2.009
 6812SOL     OW21334   3.548   3.047   2.776
 6812SOL    HW121335   3.609   3.109   2.825
 6812SOL    HW221336   3.455   3.058   2.811
 6813SOL     OW21337   5.066   3.714   1.300
 6813SOL    HW121338   4.977   3.679   1.270
 6813SOL    HW221339   5.055   3.768   1.383
 6814SOL     OW21340   2.299   2.863   0.632
 6814SOL    HW121341   2.207   2.834   0.657
 6814SOL    HW221342   2.360   2.854   0.711
 6815SOL     OW21343   1.288   0.278   0.807
 6815SOL    HW121344   1.353   0.255   0.735
 6815SOL    HW221345   1.330   0.343   0.870
 6816SOL     OW21346   5.858   4.382   1.339
 6816SOL    HW121347   5.948   4.367   1.297
 6816SOL    HW221348   5.819   4.294   1.366
 6817SOL     OW21349   0.490   2.717   6.069
 6817SOL    HW121350   0.577   2.766   6.080
 6817SOL    HW221351   0.507   2.628   6.026
 6818SOL     OW21352   3.770   5.341   1.186
 6818SOL    HW121353   3.696   5.327   1.252
 6818SOL    HW221354   3.762   5.432   1.146
 6819SOL     OW21355   2.535   1.638   4.051
 6819SOL    HW121356   2.552   1.730   4.016
 6819SOL    HW221357   2.507   1.643   4.147
 6820SOL     OW21358   1.545   5.275   4.609
 6820SOL    HW121359   1.477   5.202   4.607
 6820SOL    HW221360   1.628   5.246   4.561
 6821SOL     OW21361   2.176   3.100   4.037
 6821SOL    HW121362   2.222   3.012   4.029
 6821SOL    HW221363   2.183   3.133   4.131
 6822SOL     OW21364   4.909   1.608   5.954
 6822SOL    HW121365   4.822   1.620   5.905
 6822SOL    HW221366   4.963   1.537   5.910
 6823SOL     OW21367   4.118   3.610   2.069
 6823SOL    HW121368   4.041   3.574   2.122
 6823SOL    HW221369   4.195   3.546   2.075
 6824SOL     OW21370   0.844   5.392   5.329
 6824SOL    HW121371   0.843   5.467   5.263
 6824SOL    HW221372   0.863   5.306   5.280
 6825SOL     OW21373   5.660   0.053   3.463
 6825SOL    HW121374   5.605   7.010   3.405
 6825SOL    HW221375   5.689   0.132   3.409
 6826SOL     OW21376   1.395   2.761   3.007
 6826SOL    HW121377   1.488   2.795   2.992
 6826SOL    HW221378   1.331   2.836   3.001
 6827SOL     OW21379   4.727   5.508   5.259
 6827SOL    HW121380   4.671   5.445   5.313
 6827SOL    HW221381   4.823   5.499   5.286
 6828SOL     OW21382   2.477   1.794   1.042
 6828SOL    HW121383   2.536   1.714   1.040
 6828SOL    HW221384   2.382   1.765   1.031
 6829SOL     OW21385   5.649   4.873   3.661
 6829SOL    HW121386   5.569   4.887   3.720
 6829SOL    HW221387   5.631   4.798   3.597
 6830SOL     OW21388   4.980   1.996   4.101
 6830SOL    HW121389   4.923   1.979   4.182
 6830SOL    HW221390   5.001   1.909   4.057
 6831SOL     OW21391   0.238   1.217   5.682
 6831SOL    HW121392   0.141   1.232   5.702
 6831SOL    HW221393   0.290   1.299   5.705
 6832SOL     OW21394   3.483   4.535   1.147
 6832SOL    HW121395   3.570   4.486   1.156
 6832SOL    HW221396   3.418   4.476   1.098
 6833SOL     OW21397   4.484   5.868   0.326
 6833SOL    HW121398   4.545   5.858   0.247
 6833SOL    HW221399   4.389   5.878   0.294
 6834SOL     OW21400   3.293   5.405   2.722
 6834SOL    HW121401   3.335   5.314   2.722
 6834SOL    HW221402   3.265   5.429   2.629
 6835SOL     OW21403   3.721   0.161   4.658
 6835SOL    HW121404   3.800   0.100   4.667
 6835SOL    HW221405   3.746   0.252   4.691
 6836SOL     OW21406   4.007   5.657   0.132
 6836SOL    HW121407   4.016   5.713   0.214
 6836SOL    HW221408   3.940   5.585   0.147
 6837SOL     OW21409   0.476   3.002   2.922
 6837SOL    HW121410   0.506   2.935   2.988
 6837SOL    HW221411   0.508   2.976   2.831
 6838SOL     OW21412   2.860   1.595   1.263
 6838SOL    HW121413   2.928   1.634   1.325
 6838SOL    HW221414   2.848   1.656   1.185
 6839SOL     OW21415   4.530   0.999   1.499
 6839SOL    HW121416   4.563   1.029   1.588
 6839SOL    HW221417   4.608   0.966   1.445
 6840SOL     OW21418   1.107   1.187   6.659
 6840SOL    HW121419   1.149   1.152   6.576
 6840SOL    HW221420   1.072   1.111   6.714
 6841SOL     OW21421   0.275   3.023   5.600
 6841SOL    HW121422   0.348   2.958   5.583
 6841SOL    HW221423   0.265   3.038   5.699
 6842SOL     OW21424   2.560   4.572   2.357
 6842SOL    HW121425   2.660   4.566   2.354
 6842SOL    HW221426   2.532   4.667   2.361
 6843SOL     OW21427   4.477   0.269   1.472
 6843SOL    HW121428   4.556   0.214   1.445
 6843SOL    HW221429   4.458   0.255   1.569
 6844SOL     OW21430   5.466   0.257   5.463
 6844SOL    HW121431   5.398   0.290   5.529
 6844SOL    HW221432   5.556   0.297   5.485
 6845SOL     OW21433   5.391   1.781   2.745
 6845SOL    HW121434   5.316   1.723   2.716
 6845SOL    HW221435   5.383   1.871   2.703
 6846SOL     OW21436   2.027   3.620   0.175
 6846SOL    HW121437   2.076   3.552   0.230
 6846SOL    HW221438   1.966   3.573   0.112
 6847SOL     OW21439   6.984   2.303   4.421
 6847SOL    HW121440   6.896   2.288   4.465
 6847SOL    HW221441   0.023   2.361   4.479
 6848SOL     OW21442   6.929   5.008   3.708
 6848SOL    HW121443   6.908   5.103   3.733
 6848SOL    HW221444   6.845   4.954   3.711
 6849SOL     OW21445   3.026   4.473   5.740
 6849SOL    HW121446   3.007   4.380   5.769
 6849SOL    HW221447   2.957   4.502   5.674
 6850SOL     OW21448   5.087   0.131   4.081
 6850SOL    HW121449   5.065   0.217   4.034
 6850SOL    HW221450   5.141   0.152   4.163
 6851SOL     OW21451   1.874   4.053   2.928
 6851SOL    HW121452   1.924   3.968   2.948
 6851SOL    HW221453   1.844   4.095   3.013
 6852SOL     OW21454   4.315   3.742   0.415
 6852SOL    HW121455   4.306   3.809   0.341
 6852SOL    HW221456   4.295   3.786   0.503
 6853SOL     OW21457   3.993   4.847   6.153
 6853SOL    HW121458   3.964   4.933   6.111
 6853SOL    HW221459   3.916   4.805   6.202
 6854SOL     OW21460   4.890   6.235   5.930
 6854SOL    HW121461   4.806   6.250   5.983
 6854SOL    HW221462   4.963   6.205   5.992
 6855SOL     OW21463   4.249   5.232   2.944
 6855SOL    HW121464   4.202   5.295   2.882
 6855SOL    HW221465   4.338   5.209   2.906
 6856SOL     OW21466   6.291   2.590   0.692
 6856SOL    HW121467   6.221   2.582   0.763
 6856SOL    HW221468   6.265   2.535   0.613
 6857SOL     OW21469   1.237   4.507   5.805
 6857SOL    HW121470   1.253   4.527   5.708
 6857SOL    HW221471   1.142   4.481   5.819
 6858SOL     OW21472   1.204   3.007   1.431
 6858SOL    HW121473   1.222   3.105   1.432
 6858SOL    HW221474   1.285   2.957   1.464
 6859SOL     OW21475   2.313   2.175   0.763
 6859SOL    HW121476   2.367   2.109   0.815
 6859SOL    HW221477   2.217   2.149   0.765
 6860SOL     OW21478   0.663   6.777   6.940
 6860SOL    HW121479   0.631   6.869   6.960
 6860SOL    HW221480   0.586   6.714   6.940
 6861SOL     OW21481   6.769   3.283   6.726
 6861SOL    HW121482   6.716   3.331   6.656
 6861SOL    HW221483   6.730   3.192   6.741
 6862SOL     OW21484   0.536   4.450   3.742
 6862SOL    HW121485   0.579   4.398   3.669
 6862SOL    HW221486   0.558   4.547   3.731
 6863SOL     OW21487   4.884   1.305   5.104
 6863SOL    HW121488   4.791   1.268   5.115
 6863SOL    HW221489   4.930   1.257   5.029
 6864SOL     OW21490   2.283   3.579   6.499
 6864SOL    HW121491   2.217   3.655   6.498
 6864SOL    HW221492   2.313   3.563   6.593
 6865SOL     OW21493   1.977   0.090   4.218
 6865SOL    HW121494   1.920   0.008   4.228
 6865SOL    HW221495   1.925   0.160   4.170
 6866SOL     OW21496   2.029   4.903   6.999
 6866SOL    HW121497   1.933   4.928   6.987
 6866SOL    HW221498   2.054   4.912   0.077
 6867SOL     OW21499   1.889   2.243   6.178
 6867SOL    HW121500   1.886   2.311   6.104
 6867SOL    HW221501   1.807   2.253   6.235
 6868SOL     OW21502   3.655   4.908   3.416
 6868SOL    HW121503   3.668   4.884   3.512
 6868SOL    HW221504   3.561   4.936   3.401
 6869SOL     OW21505   1.663   0.910   5.612
 6869SOL    HW121506   1.680   0.889   5.516
 6869SOL    HW221507   1.655   0.824   5.663
 6870SOL     OW21508   5.394   2.789   6.468
 6870SOL    HW121509   5.456   2.866   6.477
 6870SOL    HW221510   5.349   2.772   6.556
 6871SOL     OW21511   6.601   2.429   2.887
 6871SOL    HW121512   6.662   2.428   2.808
 6871SOL    HW221513   6.654   2.414   2.971
 6872SOL     OW21514   1.577   4.456   1.084
 6872SOL    HW121515   1.653   4.466   1.020
 6872SOL    HW221516   1.580   4.528   1.152
 6873SOL     OW21517   0.617   4.347   2.953
 6873SOL    HW121518   0.519   4.365   2.958
 6873SOL    HW221519   0.636   4.275   2.886
 6874SOL     OW21520   4.602   6.356   2.047
 6874SOL    HW121521   4.587   6.292   1.973
 6874SOL    HW221522   4.614   6.306   2.133
 6875SOL     OW21523   2.627   0.951   6.640
 6875SOL    HW121524   2.674   0.867   6.614
 6875SOL    HW221525   2.694   1.025   6.651
 6876SOL     OW21526   5.630   4.915   3.248
 6876SOL    HW121527   5.601   5.005   3.217
 6876SOL    HW221528   5.699   4.878   3.186
 6877SOL     OW21529   0.554   4.469   1.455
 6877SOL    HW121530   0.471   4.501   1.500
 6877SOL    HW221531   0.623   4.445   1.523
 6878SOL     OW21532   2.116   0.551   4.270
 6878SOL    HW121533   2.036   0.534   4.212
 6878SOL    HW221534   2.126   0.476   4.335
 6879SOL     OW21535   1.162   1.705   1.820
 6879SOL    HW121536   1.233   1.747   1.762
 6879SOL    HW221537   1.162   1.606   1.807
 6880SOL     OW21538   2.166   6.374   0.874
 6880SOL    HW121539   2.134   6.301   0.814
 6880SOL    HW221540   2.091   6.438   0.892
 6881SOL     OW21541   0.048   3.829   0.098
 6881SOL    HW121542   6.974   3.839   0.060
 6881SOL    HW221543   0.096   3.756   0.050
 6882SOL     OW21544   2.754   6.588   0.605
 6882SOL    HW121545   2.745   6.677   0.558
 6882SOL    HW221546   2.664   6.545   0.611
 6883SOL     OW21547   5.071   0.236   1.261
 6883SOL    HW121548   5.038   0.329   1.278
 6883SOL    HW221549   5.003   0.186   1.208
 6884SOL     OW21550   1.851   5.006   3.538
 6884SOL    HW121551   1.765   4.968   3.503
 6884SOL    HW221552   1.876   5.087   3.485
 6885SOL     OW21553   5.519   5.174   4.854
 6885SOL    HW121554   5.485   5.158   4.946
 6885SOL    HW221555   5.469   5.117   4.789
 6886SOL     OW21556   5.352   3.438   0.361
 6886SOL    HW121557   5.364   3.347   0.400
 6886SOL    HW221558   5.440   3.475   0.334
 6887SOL     OW21559   5.456   6.503   5.677
 6887SOL    HW121560   5.435   6.414   5.639
 6887SOL    HW221561   5.429   6.575   5.612
 6888SOL     OW21562   6.910   4.385   0.580
 6888SOL    HW121563   6.855   4.455   0.535
 6888SOL    HW221564   6.900   4.298   0.532
 6889SOL     OW21565   0.067   2.368   5.825
 6889SOL    HW121566   7.013   2.328   5.882
 6889SOL    HW221567   0.084   2.462   5.855
 6890SOL     OW21568   4.747   4.593   4.263
 6890SOL    HW121569   4.662   4.637   4.293
 6890SOL    HW221570   4.807   4.661   4.222
 6891SOL     OW21571   1.980   1.743   0.720
 6891SOL    HW121572   2.032   1.817   0.762
 6891SOL    HW221573   2.017   1.725   0.629
 6892SOL     OW21574   2.391   0.765   4.723
 6892SOL    HW121575   2.458   0.800   4.658
 6892SOL    HW221576   2.314   0.829   4.728
 6893SOL     OW21577   5.836   3.143   0.288
 6893SOL    HW121578   5.755   3.181   0.243
 6893SOL    HW221579   5.811   3.058   0.335
 6894SOL     OW21580   5.353   5.011   0.280
 6894SOL    HW121581   5.417   4.936   0.263
 6894SOL    HW221582   5.363   5.081   0.209
 6895SOL     OW21583   0.975   5.393   1.855
 6895SOL    HW121584   1.010   5.421   1.944
 6895SOL    HW221585   1.009   5.454   1.784
 6896SOL     OW21586   5.295   1.148   6.223
 6896SOL    HW121587   5.355   1.094   6.283
 6896SOL    HW221588   5.332   1.146   6.130
 6897SOL     OW21589   4.435   2.604   5.238
 6897SOL    HW121590   4.512   2.557   5.194
 6897SOL    HW221591   4.349   2.577   5.193
 6898SOL     OW21592   1.815   6.663   1.496
 6898SOL    HW121593   1.790   6.654   1.593
 6898SOL    HW221594   1.875   6.743   1.485
 6899SOL     OW21595   5.332   5.412   2.309
 6899SOL    HW121596   5.342   5.428   2.407
 6899SOL    HW221597   5.239   5.382   2.289
 6900SOL     OW21598   6.898   3.944   4.482
 6900SOL    HW121599   6.801   3.920   4.480
 6900SOL    HW221600   6.934   3.948   4.389
 6901SOL     OW21601   4.759   4.501   6.101
 6901SOL    HW121602   4.731   4.501   6.005
 6901SOL    HW221603   4.678   4.503   6.160
 6902SOL     OW21604   0.161   5.411   5.815
 6902SOL    HW121605   0.181   5.507   5.835
 6902SOL    HW221606   0.099   5.406   5.737
 6903SOL     OW21607   1.959   6.163   5.640
 6903SOL    HW121608   1.956   6.214   5.554
 6903SOL    HW221609   1.950   6.066   5.622
 6904SOL     OW21610   0.855   0.567   5.903
 6904SOL    HW121611   0.843   0.503   5.828
 6904SOL    HW221612   0.802   0.536   5.982
 6905SOL     OW21613   4.718   6.401   5.334
 6905SOL    HW121614   4.682   6.327   5.277
 6905SOL    HW221615   4.773   6.462   5.277
 6906SOL     OW21616   3.099   1.281   3.680
 6906SOL    HW121617   3.062   1.276   3.773
 6906SOL    HW221618   3.076   1.197   3.631
 6907SOL     OW21619   5.610   2.495   0.502
 6907SOL    HW121620   5.517   2.496   0.538
 6907SOL    HW221621   5.645   2.401   0.505
 6908SOL     OW21622   3.998   6.064   0.524
 6908SOL    HW121623   4.081   6.118   0.508
 6908SOL    HW221624   3.923   6.101   0.470
 6909SOL     OW21625   5.771   4.266   1.891
 6909SOL    HW121626   5.705   4.286   1.819
 6909SOL    HW221627   5.751   4.177   1.931
 6910SOL     OW21628   1.666   2.209   1.859
 6910SOL    HW121629   1.597   2.250   1.920
 6910SOL    HW221630   1.743   2.176   1.913
 6911SOL     OW21631   2.867   6.283   5.439
 6911SOL    HW121632   2.810   6.282   5.521
 6911SOL    HW221633   2.948   6.339   5.455
 6912SOL     OW21634   3.434   4.534   6.766
 6912SOL    HW121635   3.482   4.576   6.688
 6912SOL    HW221636   3.438   4.596   6.844
 6913SOL     OW21637   4.067   5.576   5.908
 6913SOL    HW121638   3.969   5.578   5.927
 6913SOL    HW221639   4.117   5.615   5.985
 6914SOL     OW21640   0.378   2.442   2.819
 6914SOL    HW121641   0.448   2.467   2.886
 6914SOL    HW221642   0.301   2.506   2.826
 6915SOL     OW21643   6.955   3.343   3.940
 6915SOL    HW121644   6.940   3.252   3.977
 6915SOL    HW221645   6.991   3.403   4.012
 6916SOL     OW21646   4.700   6.410   5.606
 6916SOL    HW121647   4.705   6.419   5.507
 6916SOL    HW221648   4.631   6.342   5.631
 6917SOL     OW21649   3.968   6.128   2.253
 6917SOL    HW121650   3.887   6.070   2.245
 6917SOL    HW221651   3.946   6.220   2.220
 6918SOL     OW21652   1.795   3.761   0.235
 6918SOL    HW121653   1.881   3.710   0.228
 6918SOL    HW221654   1.802   3.844   0.180
 6919SOL     OW21655   6.288   5.921   3.229
 6919SOL    HW121656   6.366   5.945   3.288
 6919SOL    HW221657   6.210   5.895   3.286
 6920SOL     OW21658   0.012   2.705   5.455
 6920SOL    HW121659   0.023   2.794   5.410
 6920SOL    HW221660   0.094   2.685   5.509
 6921SOL     OW21661   3.004   0.212   4.201
 6921SOL    HW121662   2.918   0.258   4.177
 6921SOL    HW221663   2.984   0.123   4.242
 6922SOL     OW21664   2.961   5.156   6.803
 6922SOL    HW121665   2.897   5.219   6.848
 6922SOL    HW221666   2.922   5.126   6.716
 6923SOL     OW21667   5.091   6.992   3.198
 6923SOL    HW121668   5.115   0.013   3.109
 6923SOL    HW221669   5.070   0.048   3.262
 6924SOL     OW21670   2.840   5.184   1.886
 6924SOL    HW121671   2.786   5.268   1.888
 6924SOL    HW221672   2.800   5.117   1.949
 6925SOL     OW21673   6.650   6.395   4.621
 6925SOL    HW121674   6.705   6.435   4.694
 6925SOL    HW221675   6.559   6.436   4.622
 6926SOL     OW21676   2.687   2.373   0.518
 6926SOL    HW121677   2.674   2.365   0.419
 6926SOL    HW221678   2.751   2.448   0.537
 6927SOL     OW21679   3.354   0.102   6.547
 6927SOL    HW121680   3.293   0.164   6.595
 6927SOL    HW221681   3.303   0.052   6.476
 6928SOL     OW21682   4.120   5.903   0.724
 6928SOL    HW121683   4.061   5.941   0.652
 6928SOL    HW221684   4.212   5.940   0.715
 6929SOL     OW21685   4.628   5.223   3.177
 6929SOL    HW121686   4.583   5.300   3.131
 6929SOL    HW221687   4.725   5.244   3.190
 6930SOL     OW21688   0.923   6.241   1.843
 6930SOL    HW121689   0.985   6.316   1.868
 6930SOL    HW221690   0.961   6.190   1.766
 6931SOL     OW21691   3.399   3.305   0.914
 6931SOL    HW121692   3.460   3.269   0.843
 6931SOL    HW221693   3.371   3.231   0.975
 6932SOL     OW21694   4.250   0.681   6.858
 6932SOL    HW121695   4.211   0.589   6.857
 6932SOL    HW221696   4.339   0.679   6.904
 6933SOL     OW21697   3.460   6.125   6.007
 6933SOL    HW121698   3.390   6.068   6.050
 6933SOL    HW221699   3.479   6.090   5.915
 6934SOL     OW21700   4.950   4.900   0.117
 6934SOL    HW121701   5.007   4.940   0.045
 6934SOL    HW221702   5.006   4.842   0.176
 6935SOL     OW21703   4.274   5.701   2.140
 6935SOL    HW121704   4.212   5.635   2.183
 6935SOL    HW221705   4.251   5.711   2.043
 6936SOL     OW21706   1.064   1.969   6.958
 6936SOL    HW121707   0.999   1.955   6.883
 6936SOL    HW221708   1.129   2.041   6.933
 6937SOL     OW21709   5.752   4.639   0.367
 6937SOL    HW121710   5.806   4.605   0.444
 6937SOL    HW221711   5.655   4.641   0.392
 6938SOL     OW21712   3.385   0.457   4.933
 6938SOL    HW121713   3.481   0.476   4.914
 6938SOL    HW221714   3.371   0.447   5.032
 6939SOL     OW21715   5.412   2.928   3.299
 6939SOL    HW121716   5.341   2.928   3.229
 6939SOL    HW221717   5.492   2.879   3.265
 6940SOL     OW21718   2.124   6.518   1.652
 6940SOL    HW121719   2.156   6.442   1.709
 6940SOL    HW221720   2.053   6.485   1.590
 6941SOL     OW21721   3.849   2.939   2.814
 6941SOL    HW121722   3.919   2.945   2.743
 6941SOL    HW221723   3.759   2.925   2.771
 6942SOL     OW21724   6.452   4.698   3.213
 6942SOL    HW121725   6.421   4.603   3.215
 6942SOL    HW221726   6.460   4.732   3.306
 6943SOL     OW21727   3.610   5.235   5.528
 6943SOL    HW121728   3.551   5.285   5.466
 6943SOL    HW221729   3.554   5.186   5.595
 6944SOL     OW21730   0.640   5.061   5.012
 6944SOL    HW121731   0.717   5.115   4.980
 6944SOL    HW221732   0.655   4.965   4.988
 6945SOL     OW21733   4.544   1.489   0.532
 6945SOL    HW121734   4.456   1.452   0.563
 6945SOL    HW221735   4.532   1.535   0.444
 6946SOL     OW21736   5.790   5.951   2.685
 6946SOL    HW121737   5.860   6.023   2.681
 6946SOL    HW221738   5.732   5.956   2.604
 6947SOL     OW21739   6.093   4.260   5.387
 6947SOL    HW121740   6.151   4.180   5.373
 6947SOL    HW221741   6.141   4.325   5.446
 6948SOL     OW21742   6.984   4.721   6.684
 6948SOL    HW121743   0.012   4.633   6.678
 6948SOL    HW221744   6.888   4.707   6.706
 6949SOL     OW21745   2.675   1.236   3.050
 6949SOL    HW121746   2.628   1.163   3.100
 6949SOL    HW221747   2.677   1.319   3.106
 6950SOL     OW21748   2.087   1.322   3.899
 6950SOL    HW121749   2.179   1.317   3.859
 6950SOL    HW221750   2.033   1.243   3.869
 6951SOL     OW21751   1.313   3.772   6.943
 6951SOL    HW121752   1.366   3.811   6.867
 6951SOL    HW221753   1.360   3.690   6.977
 6952SOL     OW21754   4.385   5.665   3.281
 6952SOL    HW121755   4.345   5.652   3.372
 6952SOL    HW221756   4.484   5.678   3.290
 6953SOL     OW21757   0.077   0.983   2.052
 6953SOL    HW121758   7.006   0.943   2.072
 6953SOL    HW221759   0.129   0.922   1.992
 6954SOL     OW21760   6.313   4.773   5.844
 6954SOL    HW121761   6.363   4.820   5.771
 6954SOL    HW221762   6.215   4.786   5.830
 6955SOL     OW21763   4.588   5.662   2.531
 6955SOL    HW121764   4.578   5.723   2.609
 6955SOL    HW221765   4.500   5.650   2.486
 6956SOL     OW21766   5.759   5.149   1.455
 6956SOL    HW121767   5.691   5.191   1.515
 6956SOL    HW221768   5.832   5.108   1.510
 6957SOL     OW21769   6.222   4.406   4.848
 6957SOL    HW121770   6.253   4.498   4.874
 6957SOL    HW221771   6.218   4.348   4.929
 6958SOL     OW21772   3.143   3.526   2.402
 6958SOL    HW121773   3.146   3.430   2.429
 6958SOL    HW221774   3.154   3.585   2.483
 6959SOL     OW21775   1.382   3.913   2.713
 6959SOL    HW121776   1.323   3.843   2.753
 6959SOL    HW221777   1.356   4.003   2.749
 6960SOL     OW21778   5.167   4.948   1.218
 6960SOL    HW121779   5.140   4.880   1.150
 6960SOL    HW221780   5.135   4.918   1.308
 6961SOL     OW21781   5.358   2.106   4.850
 6961SOL    HW121782   5.271   2.073   4.815
 6961SOL    HW221783   5.344   2.154   4.936
 6962SOL     OW21784   2.592   6.138   0.559
 6962SOL    HW121785   2.681   6.167   0.523
 6962SOL    HW221786   2.584   6.038   0.550
 6963SOL     OW21787   0.708   6.461   6.550
 6963SOL    HW121788   0.777   6.533   6.557
 6963SOL    HW221789   0.675   6.439   6.642
 6964SOL     OW21790   2.306   1.720   4.746
 6964SOL    HW121791   2.349   1.655   4.683
 6964SOL    HW221792   2.209   1.698   4.755
 6965SOL     OW21793   1.869   1.424   6.826
 6965SOL    HW121794   1.928   1.494   6.865
 6965SOL    HW221795   1.774   1.446   6.843
 6966SOL     OW21796   1.600   6.599   0.922
 6966SOL    HW121797   1.634   6.692   0.933
 6966SOL    HW221798   1.671   6.533   0.947
 6967SOL     OW21799   3.897   0.192   6.652
 6967SOL    HW121800   3.891   0.232   6.744
 6967SOL    HW221801   3.830   0.118   6.643
 6968SOL     OW21802   3.241   0.632   2.151
 6968SOL    HW121803   3.319   0.690   2.124
 6968SOL    HW221804   3.273   0.538   2.164
 6969SOL     OW21805   1.542   3.061   2.716
 6969SOL    HW121806   1.623   3.027   2.668
 6969SOL    HW221807   1.524   3.155   2.690
 6970SOL     OW21808   3.431   6.229   5.663
 6970SOL    HW121809   3.517   6.180   5.678
 6970SOL    HW221810   3.429   6.266   5.570
 6971SOL     OW21811   6.659   4.144   6.311
 6971SOL    HW121812   6.642   4.046   6.296
 6971SOL    HW221813   6.748   4.157   6.354
 6972SOL     OW21814   5.634   3.909   1.725
 6972SOL    HW121815   5.589   3.835   1.774
 6972SOL    HW221816   5.631   3.891   1.627
 6973SOL     OW21817   1.410   1.559   3.215
 6973SOL    HW121818   1.401   1.546   3.116
 6973SOL    HW221819   1.425   1.655   3.235
 6974SOL     OW21820   4.055   3.626   2.806
 6974SOL    HW121821   4.107   3.555   2.854
 6974SOL    HW221822   3.973   3.585   2.765
 6975SOL     OW21823   3.068   5.612   4.964
 6975SOL    HW121824   3.020   5.700   4.973
 6975SOL    HW221825   3.100   5.583   5.054
 6976SOL     OW21826   4.720   5.194   6.135
 6976SOL    HW121827   4.714   5.094   6.129
 6976SOL    HW221828   4.631   5.230   6.165
 6977SOL     OW21829   4.772   4.755   2.563
 6977SOL    HW121830   4.742   4.716   2.651
 6977SOL    HW221831   4.802   4.682   2.503
 6978SOL     OW21832   1.201   3.772   1.201
 6978SOL    HW121833   1.268   3.784   1.274
 6978SOL    HW221834   1.235   3.816   1.118
 6979SOL     OW21835   1.259   3.751   3.090
 6979SOL    HW121836   1.277   3.809   3.011
 6979SOL    HW221837   1.330   3.680   3.097
 6980SOL     OW21838   2.046   4.465   3.110
 6980SOL    HW121839   2.137   4.470   3.150
 6980SOL    HW221840   2.045   4.397   3.037
 6981SOL     OW21841   4.248   2.290   7.015
 6981SOL    HW121842   4.172   2.286   0.062
 6981SOL    HW221843   4.327   2.334   0.040
 6982SOL     OW21844   6.644   0.446   1.929
 6982SOL    HW121845   6.714   0.424   1.997
 6982SOL    HW221846   6.678   0.421   1.838
 6983SOL     OW21847   0.130   0.233   3.944
 6983SOL    HW121848   0.126   0.322   3.988
 6983SOL    HW221849   0.104   0.162   4.010
 6984SOL     OW21850   1.989   4.447   3.612
 6984SOL    HW121851   2.001   4.405   3.523
 6984SOL    HW221852   1.987   4.376   3.683
 6985SOL     OW21853   5.129   3.297   0.757
 6985SOL    HW121854   5.030   3.313   0.754
 6985SOL    HW221855   5.175   3.365   0.700
 6986SOL     OW21856   3.539   5.914   5.139
 6986SOL    HW121857   3.543   5.817   5.115
 6986SOL    HW221858   3.444   5.942   5.147
 6987SOL     OW21859   6.883   1.098   6.840
 6987SOL    HW121860   6.866   1.172   6.906
 6987SOL    HW221861   6.834   1.118   6.755
 6988SOL     OW21862   2.314   0.562   5.818
 6988SOL    HW121863   2.375   0.593   5.745
 6988SOL    HW221864   2.220   0.590   5.796
 6989SOL     OW21865   0.851   3.582   2.280
 6989SOL    HW121866   0.789   3.503   2.282
 6989SOL    HW221867   0.859   3.616   2.186
 6990SOL     OW21868   3.761   4.210   6.802
 6990SOL    HW121869   3.785   4.261   6.719
 6990SOL    HW221870   3.823   4.236   6.876
 6991SOL     OW21871   5.111   4.134   3.401
 6991SOL    HW121872   5.134   4.046   3.360
 6991SOL    HW221873   5.093   4.201   3.329
 6992SOL     OW21874   2.012   5.177   6.065
 6992SOL    HW121875   1.929   5.219   6.100
 6992SOL    HW221876   1.993   5.130   5.979
 6993SOL     OW21877   4.292   2.507   1.771
 6993SOL    HW121878   4.214   2.448   1.792
 6993SOL    HW221879   4.364   2.493   1.839
 6994SOL     OW21880   2.467   1.291   2.858
 6994SOL    HW121881   2.558   1.282   2.899
 6994SOL    HW221882   2.432   1.383   2.872
 6995SOL     OW21883   0.049   4.383   0.791
 6995SOL    HW121884   6.998   4.389   0.719
 6995SOL    HW221885   0.075   4.287   0.804
 6996SOL     OW21886   0.883   1.492   6.362
 6996SOL    HW121887   0.927   1.431   6.296
 6996SOL    HW221888   0.865   1.580   6.319
 6997SOL     OW21889   5.944   6.229   6.008
 6997SOL    HW121890   6.022   6.171   5.985
 6997SOL    HW221891   5.973   6.298   6.074
 6998SOL     OW21892   0.612   0.695   0.134
 6998SOL    HW121893   0.678   0.695   0.058
 6998SOL    HW221894   0.643   0.631   0.204
 6999SOL     OW21895   0.146   2.827   7.003
 6999SOL    HW121896   0.056   2.836   0.029
 6999SOL    HW221897   0.150   2.740   6.953
 7000SOL     OW21898   0.691   5.067   3.487
 7000SOL    HW121899   0.614   5.056   3.424
 7000SOL    HW221900   0.658   5.100   3.575
 7001SOL     OW21901   0.625   1.301   3.855
 7001SOL    HW121902   0.533   1.296   3.815
 7001SOL    HW221903   0.667   1.211   3.852
 7002SOL     OW21904   1.110   4.753   2.625
 7002SOL    HW121905   1.168   4.803   2.560
 7002SOL    HW221906   1.145   4.660   2.636
 7003SOL     OW21907   0.746   5.444   6.097
 7003SOL    HW121908   0.750   5.345   6.092
 7003SOL    HW221909   0.770   5.474   6.190
 7004SOL     OW21910   1.393   0.829   6.599
 7004SOL    HW121911   1.362   0.861   6.689
 7004SOL    HW221912   1.424   0.735   6.606
 7005SOL     OW21913   1.815   5.326   0.334
 7005SOL    HW121914   1.813   5.342   0.432
 7005SOL    HW221915   1.877   5.249   0.314
 7006SOL     OW21916   0.864   0.425   3.789
 7006SOL    HW121917   0.837   0.410   3.694
 7006SOL    HW221918   0.809   0.499   3.828
 7007SOL     OW21919   2.048   0.303   6.275
 7007SOL    HW121920   2.044   0.343   6.367
 7007SOL    HW221921   2.113   0.355   6.219
 7008SOL     OW21922   5.272   3.303   2.547
 7008SOL    HW121923   5.251   3.319   2.643
 7008SOL    HW221924   5.350   3.359   2.520
 7009SOL     OW21925   5.574   6.288   2.370
 7009SOL    HW121926   5.517   6.318   2.447
 7009SOL    HW221927   5.615   6.200   2.391
 7010SOL     OW21928   5.181   3.321   2.202
 7010SOL    HW121929   5.088   3.286   2.192
 7010SOL    HW221930   5.201   3.336   2.299
 7011SOL     OW21931   2.240   6.346   6.258
 7011SOL    HW121932   2.335   6.315   6.263
 7011SOL    HW221933   2.225   6.416   6.328
 7012SOL     OW21934   0.137   4.135   0.549
 7012SOL    HW121935   0.113   4.125   0.453
 7012SOL    HW221936   0.198   4.213   0.561
 7013SOL     OW21937   2.798   2.677   0.406
 7013SOL    HW121938   2.769   2.756   0.460
 7013SOL    HW221939   2.728   2.655   0.339
 7014SOL     OW21940   6.215   3.476   0.520
 7014SOL    HW121941   6.275   3.432   0.452
 7014SOL    HW221942   6.129   3.502   0.477
 7015SOL     OW21943   6.026   6.433   1.133
 7015SOL    HW121944   6.006   6.388   1.045
 7015SOL    HW221945   5.994   6.527   1.130
 7016SOL     OW21946   3.286   5.207   1.218
 7016SOL    HW121947   3.361   5.272   1.216
 7016SOL    HW221948   3.317   5.121   1.258
 7017SOL     OW21949   6.366   4.448   6.495
 7017SOL    HW121950   6.442   4.463   6.432
 7017SOL    HW221951   6.395   4.470   6.588
 7018SOL     OW21952   5.591   2.941   5.041
 7018SOL    HW121953   5.624   2.989   4.960
 7018SOL    HW221954   5.649   2.963   5.119
 7019SOL     OW21955   4.043   5.541   2.152
 7019SOL    HW121956   3.983   5.473   2.193
 7019SOL    HW221957   4.001   5.631   2.158
 7020SOL     OW21958   0.447   1.773   0.766
 7020SOL    HW121959   0.516   1.755   0.696
 7020SOL    HW221960   0.411   1.865   0.754
 7021SOL     OW21961   0.609   1.997   4.935
 7021SOL    HW121962   0.669   1.976   5.012
 7021SOL    HW221963   0.515   2.004   4.967
 7022SOL     OW21964   2.073   3.770   0.825
 7022SOL    HW121965   2.008   3.702   0.790
 7022SOL    HW221966   2.075   3.765   0.925
 7023SOL     OW21967   0.241   1.845   1.319
 7023SOL    HW121968   0.184   1.900   1.258
 7023SOL    HW221969   0.304   1.906   1.368
 7024SOL     OW21970   3.589   4.138   5.536
 7024SOL    HW121971   3.651   4.068   5.571
 7024SOL    HW221972   3.497   4.100   5.527
 7025SOL     OW21973   2.761   1.035   1.014
 7025SOL    HW121974   2.851   1.073   0.992
 7025SOL    HW221975   2.761   1.003   1.109
 7026SOL     OW21976   2.785   2.236   0.925
 7026SOL    HW121977   2.740   2.322   0.950
 7026SOL    HW221978   2.812   2.240   0.829
 7027SOL     OW21979   3.121   4.647   1.193
 7027SOL    HW121980   3.060   4.600   1.257
 7027SOL    HW221981   3.090   4.742   1.182
 7028SOL     OW21982   3.346   0.304   3.276
 7028SOL    HW121983   3.435   0.257   3.274
 7028SOL    HW221984   3.275   0.239   3.305
 7029SOL     OW21985   3.210   4.097   3.681
 7029SOL    HW121986   3.285   4.037   3.710
 7029SOL    HW221987   3.246   4.170   3.623
 7030SOL     OW21988   6.298   6.870   4.941
 7030SOL    HW121989   6.217   6.921   4.970
 7030SOL    HW221990   6.361   6.860   5.018
 7031SOL     OW21991   5.527   5.293   0.545
 7031SOL    HW121992   5.597   5.302   0.615
 7031SOL    HW221993   5.537   5.205   0.498
 7032SOL     OW21994   4.232   5.244   4.439
 7032SOL    HW121995   4.159   5.249   4.507
 7032SOL    HW221996   4.244   5.149   4.410
 7033SOL     OW21997   2.234   2.078   5.204
 7033SOL    HW121998   2.174   2.076   5.284
 7033SOL    HW221999   2.305   2.147   5.216
 7034SOL     OW22000   6.805   2.123   2.282
 7034SOL    HW122001   6.835   2.202   2.336
 7034SOL    HW222002   6.843   2.129   2.190
 7035SOL     OW22003   2.644   2.455   1.009
 7035SOL    HW122004   2.576   2.498   1.069
 7035SOL    HW222005   2.620   2.474   0.914
 7036SOL     OW22006   6.479   1.833   1.706
 7036SOL    HW122007   6.566   1.879   1.722
 7036SOL    HW222008   6.444   1.796   1.792
 7037SOL     OW22009   1.193   0.763   5.963
 7037SOL    HW122010   1.193   0.751   6.063
 7037SOL    HW222011   1.238   0.849   5.940
 7038SOL     OW22012   0.770   5.088   6.930
 7038SOL    HW122013   0.822   5.171   6.911
 7038SOL    HW222014   0.738   5.048   6.844
 7039SOL     OW22015   6.673   0.049   1.335
 7039SOL    HW122016   6.708   0.141   1.354
 7039SOL    HW222017   6.614   0.020   1.410
 7040SOL     OW22018   5.196   2.519   4.627
 7040SOL    HW122019   5.215   2.612   4.597
 7040SOL    HW222020   5.267   2.490   4.692
 7041SOL     OW22021   0.841   6.995   3.876
 7041SOL    HW122022   0.843   6.911   3.930
 7041SOL    HW222023   0.904   6.988   3.800
 7042SOL     OW22024   5.599   5.911   4.948
 7042SOL    HW122025   5.590   5.812   4.944
 7042SOL    HW222026   5.530   5.948   5.010
 7043SOL     OW22027   1.857   5.811   0.594
 7043SOL    HW122028   1.849   5.883   0.525
 7043SOL    HW222029   1.940   5.826   0.647
 7044SOL     OW22030   4.106   6.232   5.166
 7044SOL    HW122031   4.189   6.190   5.201
 7044SOL    HW222032   4.082   6.311   5.224
 7045SOL     OW22033   5.591   6.673   1.633
 7045SOL    HW122034   5.688   6.651   1.637
 7045SOL    HW222035   5.578   6.756   1.579
 7046SOL     OW22036   2.633   1.252   2.537
 7046SOL    HW122037   2.675   1.342   2.550
 7046SOL    HW222038   2.681   1.185   2.594
 7047SOL     OW22039   1.575   6.974   0.976
 7047SOL    HW122040   1.657   6.951   1.028
 7047SOL    HW222041   1.510   0.004   1.035
 7048SOL     OW22042   0.550   5.784   3.965
 7048SOL    HW122043   0.495   5.866   3.975
 7048SOL    HW222044   0.637   5.807   3.921
 7049SOL     OW22045   3.270   1.275   4.750
 7049SOL    HW122046   3.314   1.357   4.714
 7049SOL    HW222047   3.258   1.283   4.849
 7050SOL     OW22048   4.107   4.523   0.905
 7050SOL    HW122049   4.032   4.578   0.866
 7050SOL    HW222050   4.074   4.476   0.986
 7051SOL     OW22051   1.724   1.343   2.034
 7051SOL    HW122052   1.768   1.343   1.944
 7051SOL    HW222053   1.627   1.367   2.023
 7052SOL     OW22054   5.532   2.313   3.079
 7052SOL    HW122055   5.476   2.260   3.015
 7052SOL    HW222056   5.626   2.279   3.078
 7053SOL     OW22057   1.327   4.622   4.018
 7053SOL    HW122058   1.361   4.712   4.044
 7053SOL    HW222059   1.254   4.631   3.950
 7054SOL     OW22060   5.285   0.353   0.178
 7054SOL    HW122061   5.381   0.331   0.195
 7054SOL    HW222062   5.244   0.281   0.121
 7055SOL     OW22063   2.088   0.235   6.998
 7055SOL    HW122064   2.049   0.276   6.916
 7055SOL    HW222065   2.075   0.136   6.995
 7056SOL     OW22066   6.628   5.492   0.906
 7056SOL    HW122067   6.711   5.546   0.904
 7056SOL    HW222068   6.641   5.408   0.853
 7057SOL     OW22069   2.987   5.430   4.564
 7057SOL    HW122070   2.908   5.389   4.520
 7057SOL    HW222071   2.995   5.395   4.657
 7058SOL     OW22072   5.957   2.199   6.364
 7058SOL    HW122073   5.870   2.225   6.406
 7058SOL    HW222074   5.941   2.161   6.274
 7059SOL     OW22075   1.799   1.068   4.916
 7059SOL    HW122076   1.730   1.022   4.861
 7059SOL    HW222077   1.876   1.096   4.859
 7060SOL     OW22078   3.047   2.349   1.702
 7060SOL    HW122079   3.113   2.423   1.710
 7060SOL    HW222080   2.975   2.361   1.770
 7061SOL     OW22081   1.966   0.613   1.209
 7061SOL    HW122082   1.952   0.539   1.274
 7061SOL    HW222083   2.015   0.578   1.129
 7062SOL     OW22084   4.029   0.831   5.134
 7062SOL    HW122085   4.059   0.743   5.172
 7062SOL    HW222086   4.054   0.837   5.038
 7063SOL     OW22087   0.377   1.182   1.858
 7063SOL    HW122088   0.451   1.117   1.841
 7063SOL    HW222089   0.289   1.135   1.854
 7064SOL     OW22090   2.994   1.301   5.265
 7064SOL    HW122091   3.045   1.242   5.327
 7064SOL    HW222092   2.899   1.272   5.260
 7065SOL     OW22093   3.226   6.736   4.355
 7065SOL    HW122094   3.230   6.701   4.261
 7065SOL    HW222095   3.293   6.689   4.411
 7066SOL     OW22096   3.865   0.982   1.071
 7066SOL    HW122097   3.861   0.949   1.166
 7066SOL    HW222098   3.945   0.942   1.026
 7067SOL     OW22099   2.551   4.371   6.549
 7067SOL    HW122100   2.516   4.347   6.639
 7067SOL    HW222101   2.481   4.353   6.480
 7068SOL     OW22102   5.021   4.676   3.401
 7068SOL    HW122103   5.095   4.645   3.340
 7068SOL    HW222104   4.952   4.603   3.408
 7069SOL     OW22105   4.493   0.858   5.082
 7069SOL    HW122106   4.478   0.942   5.134
 7069SOL    HW222107   4.504   0.781   5.146
 7070SOL     OW22108   6.841   0.914   5.909
 7070SOL    HW122109   6.917   0.962   5.952
 7070SOL    HW222110   6.784   0.873   5.980
 7071SOL     OW22111   4.499   5.352   6.525
 7071SOL    HW122112   4.489   5.310   6.615
 7071SOL    HW222113   4.489   5.451   6.534
 7072SOL     OW22114   0.769   3.926   6.195
 7072SOL    HW122115   0.707   3.897   6.268
 7072SOL    HW222116   0.850   3.968   6.236
 7073SOL     OW22117   4.073   1.001   3.838
 7073SOL    HW122118   4.115   0.946   3.910
 7073SOL    HW222119   3.974   0.987   3.838
 7074SOL     OW22120   6.181   3.851   1.643
 7074SOL    HW122121   6.249   3.924   1.632
 7074SOL    HW222122   6.210   3.789   1.716
 7075SOL     OW22123   2.343   5.286   2.547
 7075SOL    HW122124   2.277   5.287   2.622
 7075SOL    HW222125   2.306   5.335   2.468
 7076SOL     OW22126   5.654   2.705   0.689
 7076SOL    HW122127   5.635   2.653   0.605
 7076SOL    HW222128   5.678   2.641   0.762
 7077SOL     OW22129   3.685   6.026   1.491
 7077SOL    HW122130   3.776   6.055   1.519
 7077SOL    HW222131   3.629   6.106   1.469
 7078SOL     OW22132   0.035   1.790   6.392
 7078SOL    HW122133   0.008   1.740   6.475
 7078SOL    HW222134   0.015   1.735   6.311
 7079SOL     OW22135   2.131   5.544   5.336
 7079SOL    HW122136   2.204   5.530   5.269
 7079SOL    HW222137   2.140   5.476   5.409
 7080SOL     OW22138   3.860   1.613   6.014
 7080SOL    HW122139   3.803   1.614   6.097
 7080SOL    HW222140   3.924   1.690   6.017
 7081SOL     OW22141   2.372   6.367   0.345
 7081SOL    HW122142   2.280   6.384   0.311
 7081SOL    HW222143   2.389   6.425   0.425
 7082SOL     OW22144   1.131   4.826   2.260
 7082SOL    HW122145   1.145   4.923   2.277
 7082SOL    HW222146   1.038   4.800   2.286
 7083SOL     OW22147   5.598   3.150   2.419
 7083SOL    HW122148   5.616   3.056   2.388
 7083SOL    HW222149   5.559   3.146   2.511
 7084SOL     OW22150   1.210   5.393   0.359
 7084SOL    HW122151   1.295   5.418   0.312
 7084SOL    HW222152   1.199   5.450   0.440
 7085SOL     OW22153   0.143   3.765   2.426
 7085SOL    HW122154   0.158   3.726   2.517
 7085SOL    HW222155   0.190   3.853   2.419
 7086SOL     OW22156   4.030   0.700   3.651
 7086SOL    HW122157   4.084   0.692   3.734
 7086SOL    HW222158   3.969   0.779   3.658
 7087SOL     OW22159   5.050   2.884   3.434
 7087SOL    HW122160   5.105   2.967   3.447
 7087SOL    HW222161   5.111   2.806   3.418
 7088SOL     OW22162   6.230   2.369   5.196
 7088SOL    HW122163   6.170   2.304   5.243
 7088SOL    HW222164   6.282   2.421   5.265
 7089SOL     OW22165   3.045   6.181   1.202
 7089SOL    HW122166   3.010   6.187   1.109
 7089SOL    HW222167   3.083   6.090   1.218
 7090SOL     OW22168   4.753   3.681   1.240
 7090SOL    HW122169   4.713   3.754   1.183
 7090SOL    HW222170   4.685   3.646   1.303
 7091SOL     OW22171   6.264   0.841   6.601
 7091SOL    HW122172   6.337   0.901   6.568
 7091SOL    HW222173   6.248   0.768   6.535
 7092SOL     OW22174   4.089   6.770   5.934
 7092SOL    HW122175   4.017   6.710   5.898
 7092SOL    HW222176   4.172   6.759   5.878
 7093SOL     OW22177   4.172   2.824   0.620
 7093SOL    HW122178   4.253   2.875   0.590
 7093SOL    HW222179   4.196   2.729   0.636
 7094SOL     OW22180   4.297   0.877   4.552
 7094SOL    HW122181   4.219   0.934   4.575
 7094SOL    HW222182   4.268   0.781   4.546
 7095SOL     OW22183   2.338   4.655   3.722
 7095SOL    HW122184   2.374   4.565   3.748
 7095SOL    HW222185   2.241   4.646   3.699
 7096SOL     OW22186   6.839   5.841   0.317
 7096SOL    HW122187   6.928   5.824   0.274
 7096SOL    HW222188   6.794   5.918   0.270
 7097SOL     OW22189   4.854   1.930   2.578
 7097SOL    HW122190   4.945   1.952   2.614
 7097SOL    HW222191   4.855   1.942   2.478
 7098SOL     OW22192   0.716   1.376   2.760
 7098SOL    HW122193   0.814   1.374   2.739
 7098SOL    HW222194   0.697   1.315   2.837
 7099SOL     OW22195   3.503   1.880   4.717
 7099SOL    HW122196   3.476   1.802   4.660
 7099SOL    HW222197   3.445   1.958   4.696
 7100SOL     OW22198   0.673   4.035   1.656
 7100SOL    HW122199   0.598   3.970   1.649
 7100SOL    HW222200   0.684   4.082   1.568
 7101SOL     OW22201   2.396   5.318   4.445
 7101SOL    HW122202   2.490   5.316   4.479
 7101SOL    HW222203   2.336   5.275   4.512
 7102SOL     OW22204   5.587   1.443   2.763
 7102SOL    HW122205   5.620   1.531   2.728
 7102SOL    HW222206   5.509   1.457   2.823
 7103SOL     OW22207   5.823   3.911   4.041
 7103SOL    HW122208   5.763   3.956   4.107
 7103SOL    HW222209   5.838   3.816   4.067
 7104SOL     OW22210   4.736   2.810   4.088
 7104SOL    HW122211   4.640   2.825   4.065
 7104SOL    HW222212   4.794   2.843   4.013
 7105SOL     OW22213   3.134   4.036   2.100
 7105SOL    HW122214   3.113   4.087   2.184
 7105SOL    HW222215   3.224   3.994   2.108
 7106SOL     OW22216   2.724   2.303   2.559
 7106SOL    HW122217   2.752   2.277   2.466
 7106SOL    HW222218   2.704   2.401   2.562
 7107SOL     OW22219   4.361   0.832   0.426
 7107SOL    HW122220   4.452   0.873   0.435
 7107SOL    HW222221   4.319   0.863   0.341
 7108SOL     OW22222   2.978   6.801   1.762
 7108SOL    HW122223   3.024   6.887   1.783
 7108SOL    HW222224   3.045   6.726   1.764
 7109SOL     OW22225   2.859   5.068   5.808
 7109SOL    HW122226   2.769   5.106   5.830
 7109SOL    HW222227   2.930   5.119   5.857
 7110SOL     OW22228   2.613   5.771   5.635
 7110SOL    HW122229   2.712   5.755   5.646
 7110SOL    HW222230   2.564   5.729   5.710
 7111SOL     OW22231   6.883   0.809   4.944
 7111SOL    HW122232   6.853   0.903   4.930
 7111SOL    HW222233   6.850   0.752   4.869
 7112SOL     OW22234   6.418   5.085   5.248
 7112SOL    HW122235   6.461   5.123   5.330
 7112SOL    HW222236   6.432   5.147   5.171
 7113SOL     OW22237   3.287   0.054   4.953
 7113SOL    HW122238   3.383   0.027   4.960
 7113SOL    HW222239   3.279   0.131   4.889
 7114SOL     OW22240   5.461   4.333   6.985
 7114SOL    HW122241   5.430   4.247   0.006
 7114SOL    HW222242   5.542   4.317   6.928
 7115SOL     OW22243   4.723   2.680   5.575
 7115SOL    HW122244   4.667   2.750   5.531
 7115SOL    HW222245   4.807   2.666   5.521
 7116SOL     OW22246   6.320   5.316   4.801
 7116SOL    HW122247   6.357   5.264   4.723
 7116SOL    HW222248   6.251   5.380   4.768
 7117SOL     OW22249   4.233   0.175   3.234
 7117SOL    HW122250   4.286   0.166   3.318
 7117SOL    HW222251   4.266   0.110   3.166
 7118SOL     OW22252   4.582   4.137   5.620
 7118SOL    HW122253   4.671   4.120   5.578
 7118SOL    HW222254   4.595   4.184   5.707
 7119SOL     OW22255   2.664   6.545   4.371
 7119SOL    HW122256   2.736   6.601   4.330
 7119SOL    HW222257   2.614   6.598   4.438
 7120SOL     OW22258   4.336   1.579   2.223
 7120SOL    HW122259   4.298   1.630   2.300
 7120SOL    HW222260   4.335   1.637   2.141
 7121SOL     OW22261   1.145   6.058   2.026
 7121SOL    HW122262   1.195   6.143   2.040
 7121SOL    HW222263   1.047   6.074   2.037
 7122SOL     OW22264   3.241   1.862   6.394
 7122SOL    HW122265   3.280   1.777   6.359
 7122SOL    HW222266   3.204   1.846   6.485
 7123SOL     OW22267   5.041   4.484   6.777
 7123SOL    HW122268   5.003   4.459   6.688
 7123SOL    HW222269   5.136   4.452   6.782
 7124SOL     OW22270   3.121   2.626   6.422
 7124SOL    HW122271   3.207   2.576   6.411
 7124SOL    HW222272   3.063   2.579   6.488
 7125SOL     OW22273   1.087   6.350   1.505
 7125SOL    HW122274   1.100   6.304   1.593
 7125SOL    HW222275   1.176   6.376   1.468
 7126SOL     OW22276   3.977   4.848   1.050
 7126SOL    HW122277   3.895   4.795   1.031
 7126SOL    HW222278   4.049   4.821   0.986
 7127SOL     OW22279   2.985   6.777   5.280
 7127SOL    HW122280   3.032   6.749   5.364
 7127SOL    HW222281   2.959   6.873   5.287
 7128SOL     OW22282   3.287   4.357   0.132
 7128SOL    HW122283   3.371   4.329   0.085
 7128SOL    HW222284   3.240   4.425   0.076
 7129SOL     OW22285   0.057   1.929   0.409
 7129SOL    HW122286   0.060   2.027   0.389
 7129SOL    HW222287   6.982   1.904   0.435
 7130SOL     OW22288   3.442   0.201   4.051
 7130SOL    HW122289   3.364   0.262   4.067
 7130SOL    HW222290   3.412   0.119   4.003
 7131SOL     OW22291   2.094   1.486   2.860
 7131SOL    HW122292   2.048   1.563   2.903
 7131SOL    HW222293   2.059   1.400   2.897
 7132SOL     OW22294   5.524   4.847   1.635
 7132SOL    HW122295   5.583   4.912   1.683
 7132SOL    HW222296   5.547   4.754   1.663
 7133SOL     OW22297   3.372   5.877   2.482
 7133SOL    HW122298   3.318   5.819   2.421
 7133SOL    HW222299   3.342   5.972   2.473
 7134SOL     OW22300   4.652   4.841   0.154
 7134SOL    HW122301   4.750   4.842   0.175
 7134SOL    HW222302   4.632   4.909   0.084
 7135SOL     OW22303   2.277   4.557   1.324
 7135SOL    HW122304   2.319   4.606   1.248
 7135SOL    HW222305   2.254   4.464   1.296
 7136SOL     OW22306   1.602   3.071   2.307
 7136SOL    HW122307   1.526   3.133   2.286
 7136SOL    HW222308   1.584   2.981   2.268
 7137SOL     OW22309   1.750   0.133   2.084
 7137SOL    HW122310   1.738   0.094   2.175
 7137SOL    HW222311   1.847   0.132   2.059
 7138SOL     OW22312   6.673   3.706   0.155
 7138SOL    HW122313   6.752   3.751   0.112
 7138SOL    HW222314   6.672   3.727   0.253
 7139SOL     OW22315   5.608   5.920   1.186
 7139SOL    HW122316   5.570   5.965   1.105
 7139SOL    HW222317   5.555   5.838   1.207
 7140SOL     OW22318   0.125   5.013   0.641
 7140SOL    HW122319   0.126   5.066   0.556
 7140SOL    HW222320   0.187   4.935   0.632
 7141SOL     OW22321   2.926   1.736   0.857
 7141SOL    HW122322   2.873   1.732   0.942
 7141SOL    HW222323   2.937   1.643   0.820
 7142SOL     OW22324   4.676   6.648   5.738
 7142SOL    HW122325   4.701   6.605   5.825
 7142SOL    HW222326   4.712   6.594   5.662
 7143SOL     OW22327   3.494   3.035   5.990
 7143SOL    HW122328   3.475   3.096   6.067
 7143SOL    HW222329   3.430   2.959   5.993
 7144SOL     OW22330   6.325   1.457   5.614
 7144SOL    HW122331   6.241   1.416   5.650
 7144SOL    HW222332   6.324   1.452   5.514
 7145SOL     OW22333   6.999   2.827   6.417
 7145SOL    HW122334   0.061   2.786   6.374
 7145SOL    HW222335   6.998   2.805   6.515
 7146SOL     OW22336   0.088   1.621   4.651
 7146SOL    HW122337   0.119   1.532   4.620
 7146SOL    HW222338   0.165   1.686   4.648
 7147SOL     OW22339   6.968   6.894   0.689
 7147SOL    HW122340   7.003   6.939   0.606
 7147SOL    HW222341   0.025   6.845   0.734
 7148SOL     OW22342   5.418   6.460   0.736
 7148SOL    HW122343   5.349   6.397   0.702
 7148SOL    HW222344   5.502   6.450   0.682
 7149SOL     OW22345   5.855   4.252   6.232
 7149SOL    HW122346   5.933   4.313   6.242
 7149SOL    HW222347   5.823   4.223   6.323
 7150SOL     OW22348   2.870   2.151   0.130
 7150SOL    HW122349   2.788   2.094   0.120
 7150SOL    HW222350   2.938   2.123   0.062
 7151SOL     OW22351   5.465   2.092   0.168
 7151SOL    HW122352   5.555   2.134   0.152
 7151SOL    HW222353   5.424   2.067   0.080
 7152SOL     OW22354   5.281   0.442   5.320
 7152SOL    HW122355   5.373   0.402   5.323
 7152SOL    HW222356   5.282   0.522   5.260
 7153SOL     OW22357   5.253   5.767   0.904
 7153SOL    HW122358   5.324   5.714   0.950
 7153SOL    HW222359   5.166   5.754   0.952
 7154SOL     OW22360   5.084   0.384   1.569
 7154SOL    HW122361   5.142   0.311   1.607
 7154SOL    HW222362   5.141   0.450   1.521
 7155SOL     OW22363   2.022   0.125   1.129
 7155SOL    HW122364   2.085   0.062   1.175
 7155SOL    HW222365   2.063   0.156   1.043
 7156SOL     OW22366   6.152   3.236   5.119
 7156SOL    HW122367   6.174   3.141   5.096
 7156SOL    HW222368   6.231   3.280   5.160
 7157SOL     OW22369   6.572   3.574   5.140
 7157SOL    HW122370   6.493   3.602   5.084
 7157SOL    HW222371   6.557   3.602   5.235
 7158SOL     OW22372   4.713   0.180   3.801
 7158SOL    HW122373   4.630   0.151   3.847
 7158SOL    HW222374   4.733   0.275   3.825
 7159SOL     OW22375   0.657   6.416   2.961
 7159SOL    HW122376   0.647   6.476   2.882
 7159SOL    HW222377   0.651   6.320   2.931
 7160SOL     OW22378   5.662   6.819   2.787
 7160SOL    HW122379   5.595   6.745   2.798
 7160SOL    HW222380   5.752   6.780   2.766
 7161SOL     OW22381   3.689   3.423   2.032
 7161SOL    HW122382   3.660   3.515   2.059
 7161SOL    HW222383   3.669   3.409   1.935
 7162SOL     OW22384   0.663   6.351   0.764
 7162SOL    HW122385   0.612   6.304   0.836
 7162SOL    HW222386   0.754   6.377   0.798
 7163SOL     OW22387   6.880   6.952   0.037
 7163SOL    HW122388   6.860   6.924   0.131
 7163SOL    HW222389   6.938   0.016   0.038
 7164SOL     OW22390   1.690   6.741   6.943
 7164SOL    HW122391   1.632   6.708   6.868
 7164SOL    HW222392   1.668   6.690   0.008
 7165SOL     OW22393   4.212   2.188   6.546
 7165SOL    HW122394   4.136   2.163   6.607
 7165SOL    HW222395   4.297   2.191   6.598
 7166SOL     OW22396   6.711   6.523   4.871
 7166SOL    HW122397   6.628   6.578   4.880
 7166SOL    HW222398   6.775   6.547   4.944
 7167SOL     OW22399   0.647   3.193   5.267
 7167SOL    HW122400   0.712   3.118   5.259
 7167SOL    HW222401   0.697   3.280   5.271
 7168SOL     OW22402   1.165   0.336   2.458
 7168SOL    HW122403   1.227   0.278   2.404
 7168SOL    HW222404   1.132   0.286   2.537
 7169SOL     OW22405   1.807   4.639   5.834
 7169SOL    HW122406   1.751   4.557   5.844
 7169SOL    HW222407   1.771   4.695   5.759
 7170SOL     OW22408   4.133   2.251   1.273
 7170SOL    HW122409   4.063   2.304   1.321
 7170SOL    HW222410   4.106   2.155   1.270
 7171SOL     OW22411   0.418   5.115   1.120
 7171SOL    HW122412   0.359   5.036   1.109
 7171SOL    HW222413   0.363   5.198   1.128
 7172SOL     OW22414   1.081   2.809   3.541
 7172SOL    HW122415   1.004   2.753   3.569
 7172SOL    HW222416   1.049   2.885   3.485
 7173SOL     OW22417   3.387   5.428   4.643
 7173SOL    HW122418   3.370   5.432   4.741
 7173SOL    HW222419   3.370   5.518   4.603
 7174SOL     OW22420   6.636   3.513   2.146
 7174SOL    HW122421   6.683   3.504   2.233
 7174SOL    HW222422   6.621   3.422   2.106
 7175SOL     OW22423   6.502   3.041   6.133
 7175SOL    HW122424   6.572   3.109   6.109
 7175SOL    HW222425   6.411   3.081   6.122
 7176SOL     OW22426   6.847   1.659   6.836
 7176SOL    HW122427   6.920   1.663   6.904
 7176SOL    HW222428   6.758   1.664   6.882
 7177SOL     OW22429   0.920   5.884   3.265
 7177SOL    HW122430   0.867   5.823   3.206
 7177SOL    HW222431   1.015   5.887   3.233
 7178SOL     OW22432   1.219   6.725   5.472
 7178SOL    HW122433   1.249   6.654   5.408
 7178SOL    HW222434   1.155   6.685   5.538
 7179SOL     OW22435   5.042   4.144   5.694
 7179SOL    HW122436   5.016   4.197   5.614
 7179SOL    HW222437   5.137   4.114   5.685
 7180SOL     OW22438   0.165   2.493   1.819
 7180SOL    HW122439   0.070   2.507   1.791
 7180SOL    HW222440   0.225   2.506   1.740
 7181SOL     OW22441   3.239   0.195   0.160
 7181SOL    HW122442   3.306   0.206   0.233
 7181SOL    HW222443   3.147   0.210   0.196
 7182SOL     OW22444   1.974   1.273   2.989
 7182SOL    HW122445   1.947   1.262   3.084
 7182SOL    HW222446   2.017   1.188   2.957
 7183SOL     OW22447   1.635   0.098   1.344
 7183SOL    HW122448   1.652   0.007   1.384
 7183SOL    HW222449   1.722   0.146   1.333
 7184SOL     OW22450   0.153   1.128   3.519
 7184SOL    HW122451   0.131   1.189   3.443
 7184SOL    HW222452   0.245   1.092   3.508
 7185SOL     OW22453   4.263   0.615   3.494
 7185SOL    HW122454   4.217   0.551   3.433
 7185SOL    HW222455   4.195   0.661   3.551
 7186SOL     OW22456   6.655   1.624   0.058
 7186SOL    HW122457   6.567   1.665   0.034
 7186SOL    HW222458   6.711   1.690   0.107
 7187SOL     OW22459   3.642   3.462   4.168
 7187SOL    HW122460   3.544   3.453   4.149
 7187SOL    HW222461   3.654   3.498   4.260
 7188SOL     OW22462   5.119   4.413   0.086
 7188SOL    HW122463   5.135   4.415   7.005
 7188SOL    HW222464   5.030   4.371   0.104
 7189SOL     OW22465   6.943   2.083   5.930
 7189SOL    HW122466   6.873   2.154   5.924
 7189SOL    HW222467   6.931   2.031   6.015
 7190SOL     OW22468   5.923   6.125   0.609
 7190SOL    HW122469   6.014   6.096   0.579
 7190SOL    HW222470   5.892   6.065   0.683
 7191SOL     OW22471   0.074   4.876   2.715
 7191SOL    HW122472   0.054   4.835   2.626
 7191SOL    HW222473   0.169   4.907   2.717
 7192SOL     OW22474   3.173   4.088   5.466
 7192SOL    HW122475   3.209   4.181   5.459
 7192SOL    HW222476   3.249   4.024   5.476
 7193SOL     OW22477   3.691   1.458   3.406
 7193SOL    HW122478   3.782   1.490   3.378
 7193SOL    HW222479   3.689   1.358   3.403
 7194SOL     OW22480   3.405   2.291   5.348
 7194SOL    HW122481   3.498   2.262   5.328
 7194SOL    HW222482   3.407   2.375   5.403
 7195SOL     OW22483   0.467   4.416   5.643
 7195SOL    HW122484   0.533   4.423   5.718
 7195SOL    HW222485   0.438   4.321   5.633
 7196SOL     OW22486   3.082   3.904   1.871
 7196SOL    HW122487   3.163   3.902   1.812
 7196SOL    HW222488   3.107   3.945   1.959
 7197SOL     OW22489   3.617   4.553   6.366
 7197SOL    HW122490   3.543   4.598   6.315
 7197SOL    HW222491   3.609   4.574   6.463
 7198SOL     OW22492   0.856   0.240   2.332
 7198SOL    HW122493   0.799   0.164   2.300
 7198SOL    HW222494   0.953   0.215   2.324
 7199SOL     OW22495   6.123   0.829   3.260
 7199SOL    HW122496   6.132   0.730   3.245
 7199SOL    HW222497   6.030   0.858   3.237
 7200SOL     OW22498   0.540   3.812   6.698
 7200SOL    HW122499   0.522   3.875   6.774
 7200SOL    HW222500   0.454   3.774   6.665
 7201SOL     OW22501   5.379   6.091   4.456
 7201SOL    HW122502   5.347   6.042   4.375
 7201SOL    HW222503   5.402   6.025   4.528
 7202SOL     OW22504   4.952   0.789   6.208
 7202SOL    HW122505   4.998   0.878   6.210
 7202SOL    HW222506   5.019   0.717   6.228
 7203SOL     OW22507   1.074   1.727   1.384
 7203SOL    HW122508   1.159   1.724   1.332
 7203SOL    HW222509   1.090   1.775   1.470
 7204SOL     OW22510   5.976   0.549   2.952
 7204SOL    HW122511   5.980   0.605   3.035
 7204SOL    HW222512   5.880   0.523   2.935
 7205SOL     OW22513   3.237   1.589   4.198
 7205SOL    HW122514   3.180   1.548   4.127
 7205SOL    HW222515   3.302   1.653   4.157
 7206SOL     OW22516   2.130   3.081   6.495
 7206SOL    HW122517   2.041   3.056   6.456
 7206SOL    HW222518   2.165   3.163   6.449
 7207SOL     OW22519   1.704   2.046   3.531
 7207SOL    HW122520   1.695   2.031   3.432
 7207SOL    HW222521   1.782   1.994   3.566
 7208SOL     OW22522   3.175   0.116   3.374
 7208SOL    HW122523   3.168   0.099   3.472
 7208SOL    HW222524   3.143   0.036   3.324
 7209SOL     OW22525   4.108   0.391   2.262
 7209SOL    HW122526   4.169   0.453   2.211
 7209SOL    HW222527   4.078   0.436   2.346
 7210SOL     OW22528   3.230   1.237   4.338
 7210SOL    HW122529   3.195   1.164   4.396
 7210SOL    HW222530   3.220   1.325   4.385
 7211SOL     OW22531   4.341   6.125   5.925
 7211SOL    HW122532   4.330   6.052   5.992
 7211SOL    HW222533   4.255   6.138   5.876
 7212SOL     OW22534   0.552   5.731   4.676
 7212SOL    HW122535   0.518   5.823   4.654
 7212SOL    HW222536   0.499   5.663   4.625
 7213SOL     OW22537   4.645   2.623   0.156
 7213SOL    HW122538   4.603   2.630   0.065
 7213SOL    HW222539   4.573   2.627   0.226
 7214SOL     OW22540   6.431   1.380   5.925
 7214SOL    HW122541   6.436   1.339   5.834
 7214SOL    HW222542   6.412   1.310   5.993
 7215SOL     OW22543   5.982   1.630   2.758
 7215SOL    HW122544   6.016   1.597   2.670
 7215SOL    HW222545   6.031   1.713   2.783
 7216SOL     OW22546   5.763   6.769   4.057
 7216SOL    HW122547   5.820   6.830   4.111
 7216SOL    HW222548   5.736   6.815   3.972
 7217SOL     OW22549   1.336   3.294   3.334
 7217SOL    HW122550   1.421   3.294   3.387
 7217SOL    HW222551   1.276   3.366   3.367
 7218SOL     OW22552   6.636   2.805   5.317
 7218SOL    HW122553   6.638   2.818   5.416
 7218SOL    HW222554   6.587   2.881   5.275
 7219SOL     OW22555   3.024   5.991   1.926
 7219SOL    HW122556   3.031   5.914   1.990
 7219SOL    HW222557   2.929   6.023   1.923
 7220SOL     OW22558   6.863   3.467   3.723
 7220SOL    HW122559   6.894   3.400   3.655
 7220SOL    HW222560   6.891   3.437   3.814
 7221SOL     OW22561   4.441   5.016   3.547
 7221SOL    HW122562   4.433   5.085   3.619
 7221SOL    HW222563   4.417   4.926   3.586
 7222SOL     OW22564   6.662   6.129   3.982
 7222SOL    HW122565   6.680   6.049   3.924
 7222SOL    HW222566   6.568   6.126   4.014
 7223SOL     OW22567   6.995   5.977   2.135
 7223SOL    HW122568   7.013   5.956   2.231
 7223SOL    HW222569   0.063   5.994   2.087
 7224SOL     OW22570   4.893   2.469   2.532
 7224SOL    HW122571   4.807   2.436   2.494
 7224SOL    HW222572   4.942   2.523   2.463
 7225SOL     OW22573   0.662   5.609   0.062
 7225SOL    HW122574   0.736   5.628   7.016
 7225SOL    HW222575   0.588   5.560   0.015
 7226SOL     OW22576   6.238   6.480   0.305
 7226SOL    HW122577   6.336   6.459   0.312
 7226SOL    HW222578   6.186   6.395   0.317
 7227SOL     OW22579   2.015   1.013   1.970
 7227SOL    HW122580   2.081   1.043   2.040
 7227SOL    HW222581   1.923   1.011   2.009
 7228SOL     OW22582   5.768   3.108   2.840
 7228SOL    HW122583   5.730   3.022   2.807
 7228SOL    HW222584   5.696   3.178   2.838
 7229SOL     OW22585   6.398   0.335   5.032
 7229SOL    HW122586   6.390   0.245   4.988
 7229SOL    HW222587   6.412   0.405   4.963
 7230SOL     OW22588   2.186   4.797   4.874
 7230SOL    HW122589   2.233   4.834   4.954
 7230SOL    HW222590   2.088   4.794   4.891
 7231SOL     OW22591   3.853   3.398   6.425
 7231SOL    HW122592   3.952   3.409   6.424
 7231SOL    HW222593   3.817   3.422   6.515
 7232SOL     OW22594   4.515   5.954   3.424
 7232SOL    HW122595   4.433   5.939   3.479
 7232SOL    HW222596   4.585   5.887   3.450
 7233SOL     OW22597   0.283   1.498   6.222
 7233SOL    HW122598   0.187   1.525   6.222
 7233SOL    HW222599   0.321   1.511   6.314
 7234SOL     OW22600   5.631   4.978   2.762
 7234SOL    HW122601   5.716   4.925   2.767
 7234SOL    HW222602   5.577   4.949   2.683
 7235SOL     OW22603   6.543   0.703   1.685
 7235SOL    HW122604   6.592   0.774   1.634
 7235SOL    HW222605   6.560   0.715   1.783
 7236SOL     OW22606   0.491   3.788   2.938
 7236SOL    HW122607   0.509   3.741   2.852
 7236SOL    HW222608   0.536   3.740   3.014
 7237SOL     OW22609   5.363   1.100   0.275
 7237SOL    HW122610   5.343   1.139   0.364
 7237SOL    HW222611   5.320   1.155   0.204
 7238SOL     OW22612   4.279   3.471   0.234
 7238SOL    HW122613   4.304   3.517   0.319
 7238SOL    HW222614   4.240   3.537   0.170
 7239SOL     OW22615   5.623   2.764   1.936
 7239SOL    HW122616   5.679   2.808   1.866
 7239SOL    HW222617   5.569   2.691   1.895
 7240SOL     OW22618   0.286   2.112   0.060
 7240SOL    HW122619   0.249   2.030   0.102
 7240SOL    HW222620   0.262   2.114   6.981
 7241SOL     OW22621   2.024   0.379   2.549
 7241SOL    HW122622   2.079   0.356   2.629
 7241SOL    HW222623   1.927   0.369   2.570
 7242SOL     OW22624   6.311   4.069   5.424
 7242SOL    HW122625   6.381   4.070   5.353
 7242SOL    HW222626   6.342   4.125   5.501
 7243SOL     OW22627   5.746   4.688   6.191
 7243SOL    HW122628   5.686   4.611   6.215
 7243SOL    HW222629   5.773   4.679   6.095
 7244SOL     OW22630   6.685   5.997   6.641
 7244SOL    HW122631   6.646   5.907   6.620
 7244SOL    HW222632   6.630   6.040   6.713
 7245SOL     OW22633   1.412   2.082   0.033
 7245SOL    HW122634   1.501   2.122   0.013
 7245SOL    HW222635   1.424   1.991   0.073
 7246SOL     OW22636   4.346   6.678   3.792
 7246SOL    HW122637   4.394   6.722   3.869
 7246SOL    HW222638   4.375   6.583   3.785
 7247SOL     OW22639   3.465   4.180   4.658
 7247SOL    HW122640   3.407   4.157   4.580
 7247SOL    HW222641   3.526   4.255   4.633
 7248SOL     OW22642   2.592   1.703   5.383
 7248SOL    HW122643   2.619   1.736   5.292
 7248SOL    HW222644   2.662   1.729   5.449
 7249SOL     OW22645   3.267   5.643   3.149
 7249SOL    HW122646   3.306   5.735   3.153
 7249SOL    HW222647   3.168   5.649   3.165
 7250SOL     OW22648   5.215   5.471   5.521
 7250SOL    HW122649   5.302   5.433   5.489
 7250SOL    HW222650   5.234   5.552   5.577
 7251SOL     OW22651   0.763   5.929   4.460
 7251SOL    HW122652   0.794   6.017   4.495
 7251SOL    HW222653   0.667   5.915   4.485
 7252SOL     OW22654   4.085   3.861   2.176
 7252SOL    HW122655   4.170   3.913   2.180
 7252SOL    HW222656   4.103   3.769   2.140
 7253SOL     OW22657   2.040   5.033   5.132
 7253SOL    HW122658   1.980   4.954   5.123
 7253SOL    HW222659   2.130   5.011   5.096
 7254SOL     OW22660   6.598   3.716   3.908
 7254SOL    HW122661   6.578   3.757   3.819
 7254SOL    HW222662   6.513   3.683   3.950
 7255SOL     OW22663   4.907   3.947   0.364
 7255SOL    HW122664   4.891   4.042   0.390
 7255SOL    HW222665   4.892   3.888   0.443
 7256SOL     OW22666   3.203   6.566   4.115
 7256SOL    HW122667   3.298   6.534   4.106
 7256SOL    HW222668   3.144   6.509   4.058
 7257SOL     OW22669   0.990   1.297   5.312
 7257SOL    HW122670   0.932   1.371   5.278
 7257SOL    HW222671   0.963   1.211   5.270
 7258SOL     OW22672   6.535   2.326   2.426
 7258SOL    HW122673   6.490   2.409   2.459
 7258SOL    HW222674   6.465   2.257   2.404
 7259SOL     OW22675   0.938   3.995   2.599
 7259SOL    HW122676   0.961   4.011   2.695
 7259SOL    HW222677   0.874   4.065   2.568
 7260SOL     OW22678   6.185   3.312   1.202
 7260SOL    HW122679   6.210   3.338   1.109
 7260SOL    HW222680   6.235   3.368   1.268
 7261SOL     OW22681   0.195   4.220   6.786
 7261SOL    HW122682   0.199   4.166   6.870
 7261SOL    HW222683   0.279   4.274   6.777
 7262SOL     OW22684   4.058   0.581   5.258
 7262SOL    HW122685   4.083   0.484   5.260
 7262SOL    HW222686   4.043   0.613   5.352
 7263SOL     OW22687   6.360   5.367   5.340
 7263SOL    HW122688   6.271   5.380   5.298
 7263SOL    HW222689   6.429   5.418   5.288
 7264SOL     OW22690   5.430   1.309   1.624
 7264SOL    HW122691   5.336   1.335   1.647
 7264SOL    HW222692   5.432   1.266   1.534
 7265SOL     OW22693   3.665   0.562   5.998
 7265SOL    HW122694   3.758   0.595   6.015
 7265SOL    HW222695   3.641   0.493   6.067
 7266SOL     OW22696   0.000   0.866   3.288
 7266SOL    HW122697   0.037   0.929   3.221
 7266SOL    HW222698   6.941   0.816   3.249
 7267SOL     OW22699   0.020   4.271   4.979
 7267SOL    HW122700   7.004   4.187   4.937
 7267SOL    HW222701   6.988   4.288   5.064
 7268SOL     OW22702   5.581   6.203   4.305
 7268SOL    HW122703   5.510   6.169   4.367
 7268SOL    HW222704   5.539   6.257   4.232
 7269SOL     OW22705   2.797   5.372   4.376
 7269SOL    HW122706   2.790   5.316   4.293
 7269SOL    HW222707   2.705   5.396   4.408
 7270SOL     OW22708   0.570   0.163   4.776
 7270SOL    HW122709   0.604   0.255   4.757
 7270SOL    HW222710   0.594   0.102   4.700
 7271SOL     OW22711   0.753   4.891   3.187
 7271SOL    HW122712   0.846   4.861   3.164
 7271SOL    HW222713   0.709   4.927   3.105
 7272SOL     OW22714   6.257   4.240   1.687
 7272SOL    HW122715   6.340   4.276   1.727
 7272SOL    HW222716   6.179   4.261   1.747
 7273SOL     OW22717   0.526   1.118   5.440
 7273SOL    HW122718   0.430   1.114   5.465
 7273SOL    HW222719   0.576   1.043   5.483
 7274SOL     OW22720   0.001   5.112   6.190
 7274SOL    HW122721   0.048   5.077   6.271
 7274SOL    HW222722   0.062   5.103   6.111
 7275SOL     OW22723   0.866   5.279   3.431
 7275SOL    HW122724   0.809   5.197   3.433
 7275SOL    HW222725   0.813   5.359   3.460
 7276SOL     OW22726   4.908   6.223   3.366
 7276SOL    HW122727   4.838   6.177   3.420
 7276SOL    HW222728   4.994   6.224   3.416
 7277SOL     OW22729   5.208   0.752   0.544
 7277SOL    HW122730   5.300   0.719   0.522
 7277SOL    HW222731   5.194   0.842   0.502
 7278SOL     OW22732   3.513   2.851   2.294
 7278SOL    HW122733   3.549   2.884   2.382
 7278SOL    HW222734   3.575   2.782   2.257
 7279SOL     OW22735   3.643   6.704   5.912
 7279SOL    HW122736   3.577   6.666   5.847
 7279SOL    HW222737   3.596   6.726   5.997
 7280SOL     OW22738   5.065   1.101   6.433
 7280SOL    HW122739   5.096   1.124   6.341
 7280SOL    HW222740   4.965   1.095   6.434
 7281SOL     OW22741   5.725   1.653   6.295
 7281SOL    HW122742   5.645   1.709   6.315
 7281SOL    HW222743   5.774   1.633   6.380
 7282SOL     OW22744   5.943   6.158   2.668
 7282SOL    HW122745   6.037   6.179   2.695
 7282SOL    HW222746   5.917   6.217   2.591
 7283SOL     OW22747   2.269   1.616   3.869
 7283SOL    HW122748   2.276   1.525   3.828
 7283SOL    HW222749   2.360   1.656   3.877
 7284SOL     OW22750   1.440   1.844   5.506
 7284SOL    HW122751   1.471   1.851   5.411
 7284SOL    HW222752   1.455   1.931   5.552
 7285SOL     OW22753   6.081   5.316   1.801
 7285SOL    HW122754   6.074   5.411   1.832
 7285SOL    HW222755   6.002   5.294   1.742
 7286SOL     OW22756   1.810   4.023   0.992
 7286SOL    HW122757   1.723   4.049   0.951
 7286SOL    HW222758   1.858   3.959   0.932
 7287SOL     OW22759   6.446   1.646   5.749
 7287SOL    HW122760   6.421   1.560   5.704
 7287SOL    HW222761   6.456   1.718   5.681
 7288SOL     OW22762   2.949   0.270   0.258
 7288SOL    HW122763   2.860   0.269   0.213
 7288SOL    HW222764   2.962   0.184   0.308
 7289SOL     OW22765   4.711   2.285   4.483
 7289SOL    HW122766   4.626   2.233   4.490
 7289SOL    HW222767   4.691   2.382   4.470
 7290SOL     OW22768   2.329   5.824   4.560
 7290SOL    HW122769   2.406   5.766   4.533
 7290SOL    HW222770   2.244   5.785   4.526
 7291SOL     OW22771   3.902   4.598   1.338
 7291SOL    HW122772   3.993   4.601   1.379
 7291SOL    HW222773   3.856   4.686   1.350
 7292SOL     OW22774   3.276   0.258   4.756
 7292SOL    HW122775   3.290   0.294   4.664
 7292SOL    HW222776   3.298   0.329   4.823
 7293SOL     OW22777   2.198   1.215   6.726
 7293SOL    HW122778   2.128   1.269   6.679
 7293SOL    HW222779   2.269   1.276   6.761
 7294SOL     OW22780   5.322   5.220   0.111
 7294SOL    HW122781   5.309   5.204   0.013
 7294SOL    HW222782   5.325   5.318   0.130
 7295SOL     OW22783   4.691   0.103   1.422
 7295SOL    HW122784   4.756   0.145   1.485
 7295SOL    HW222785   4.666   0.012   1.456
 7296SOL     OW22786   4.281   5.314   1.345
 7296SOL    HW122787   4.298   5.289   1.249
 7296SOL    HW222788   4.184   5.335   1.357
 7297SOL     OW22789   4.991   6.638   2.180
 7297SOL    HW122790   5.054   6.698   2.230
 7297SOL    HW222791   4.914   6.691   2.146
 7298SOL     OW22792   6.511   3.514   4.401
 7298SOL    HW122793   6.461   3.456   4.337
 7298SOL    HW222794   6.515   3.469   4.490
 7299SOL     OW22795   5.802   3.598   6.434
 7299SOL    HW122796   5.703   3.604   6.443
 7299SOL    HW222797   5.825   3.572   6.339
 7300SOL     OW22798   4.822   5.846   1.832
 7300SOL    HW122799   4.881   5.834   1.752
 7300SOL    HW222800   4.876   5.879   1.909
 7301SOL     OW22801   6.815   1.338   6.408
 7301SOL    HW122802   6.822   1.434   6.435
 7301SOL    HW222803   6.879   1.320   6.333
 7302SOL     OW22804   5.615   0.792   6.242
 7302SOL    HW122805   5.679   0.719   6.266
 7302SOL    HW222806   5.526   0.751   6.219
 7303SOL     OW22807   3.789   0.718   0.700
 7303SOL    HW122808   3.738   0.727   0.785
 7303SOL    HW222809   3.805   0.621   0.681
 7304SOL     OW22810   3.687   3.287   5.343
 7304SOL    HW122811   3.659   3.308   5.249
 7304SOL    HW222812   3.724   3.194   5.347
 7305SOL     OW22813   5.689   1.765   0.485
 7305SOL    HW122814   5.622   1.839   0.484
 7305SOL    HW222815   5.740   1.765   0.400
 7306SOL     OW22816   4.675   4.830   2.154
 7306SOL    HW122817   4.743   4.887   2.199
 7306SOL    HW222818   4.701   4.816   2.058
 7307SOL     OW22819   4.421   6.226   2.320
 7307SOL    HW122820   4.366   6.186   2.247
 7307SOL    HW222821   4.459   6.153   2.377
 7308SOL     OW22822   6.026   0.648   4.290
 7308SOL    HW122823   6.018   0.697   4.377
 7308SOL    HW222824   5.971   0.564   4.293
 7309SOL     OW22825   4.506   5.188   1.783
 7309SOL    HW122826   4.602   5.160   1.778
 7309SOL    HW222827   4.466   5.189   1.692
 7310SOL     OW22828   2.013   5.778   1.807
 7310SOL    HW122829   2.107   5.756   1.781
 7310SOL    HW222830   2.013   5.815   1.901
 7311SOL     OW22831   2.674   1.865   2.379
 7311SOL    HW122832   2.599   1.858   2.313
 7311SOL    HW222833   2.648   1.928   2.452
 7312SOL     OW22834   6.978   2.353   6.202
 7312SOL    HW122835   6.893   2.350   6.149
 7312SOL    HW222836   6.970   2.293   6.282
 7313SOL     OW22837   3.755   2.477   6.271
 7313SOL    HW122838   3.678   2.531   6.238
 7313SOL    HW222839   3.839   2.531   6.264
 7314SOL     OW22840   1.000   2.962   4.420
 7314SOL    HW122841   0.904   2.969   4.446
 7314SOL    HW222842   1.044   2.890   4.474
 7315SOL     OW22843   0.133   0.646   5.885
 7315SOL    HW122844   0.166   0.576   5.821
 7315SOL    HW222845   0.046   0.617   5.924
 7316SOL     OW22846   3.713   3.117   4.868
 7316SOL    HW122847   3.706   3.181   4.791
 7316SOL    HW222848   3.739   3.168   4.950
 7317SOL     OW22849   2.736   0.965   4.091
 7317SOL    HW122850   2.826   0.955   4.133
 7317SOL    HW222851   2.739   1.035   4.020
 7318SOL     OW22852   1.322   1.456   1.151
 7318SOL    HW122853   1.355   1.452   1.057
 7318SOL    HW222854   1.393   1.421   1.213
 7319SOL     OW22855   0.024   3.788   5.955
 7319SOL    HW122856   7.010   3.872   5.911
 7319SOL    HW222857   0.032   3.803   6.054
 7320SOL     OW22858   0.395   1.708   2.252
 7320SOL    HW122859   0.386   1.781   2.320
 7320SOL    HW222860   0.370   1.621   2.294
 7321SOL     OW22861   2.917   1.406   4.430
 7321SOL    HW122862   3.016   1.418   4.435
 7321SOL    HW222863   2.878   1.409   4.522
 7322SOL     OW22864   0.120   3.414   1.681
 7322SOL    HW122865   0.032   3.441   1.722
 7322SOL    HW222866   0.191   3.479   1.708
 7323SOL     OW22867   2.187   3.835   3.154
 7323SOL    HW122868   2.232   3.903   3.096
 7323SOL    HW222869   2.175   3.750   3.103
 7324SOL     OW22870   5.057   4.884   2.948
 7324SOL    HW122871   5.149   4.847   2.958
 7324SOL    HW222872   4.996   4.844   3.016
 7325SOL     OW22873   3.049   6.110   0.146
 7325SOL    HW122874   3.037   6.011   0.162
 7325SOL    HW222875   3.030   6.159   0.231
 7326SOL     OW22876   2.408   0.716   4.349
 7326SOL    HW122877   2.424   0.775   4.270
 7326SOL    HW222878   2.312   0.723   4.377
 7327SOL     OW22879   1.309   3.041   5.303
 7327SOL    HW122880   1.237   3.002   5.361
 7327SOL    HW222881   1.329   2.977   5.229
 7328SOL     OW22882   2.284   0.188   6.725
 7328SOL    HW122883   2.370   0.222   6.685
 7328SOL    HW222884   2.214   0.258   6.716
 7329SOL     OW22885   4.641   3.430   1.705
 7329SOL    HW122886   4.546   3.399   1.717
 7329SOL    HW222887   4.674   3.399   1.615
 7330SOL     OW22888   4.467   2.347   0.708
 7330SOL    HW122889   4.552   2.300   0.684
 7330SOL    HW222890   4.397   2.279   0.730
 7331SOL     OW22891   4.641   1.379   1.630
 7331SOL    HW122892   4.674   1.288   1.655
 7331SOL    HW222893   4.687   1.409   1.546
 7332SOL     OW22894   3.837   5.800   0.758
 7332SOL    HW122895   3.936   5.794   0.769
 7332SOL    HW222896   3.805   5.891   0.786
 7333SOL     OW22897   0.336   4.946   2.659
 7333SOL    HW122898   0.394   4.979   2.733
 7333SOL    HW222899   0.342   5.010   2.582
 7334SOL     OW22900   2.920   0.149   4.547
 7334SOL    HW122901   2.871   0.120   4.629
 7334SOL    HW222902   2.990   0.081   4.525
 7335SOL     OW22903   2.136   3.276   2.718
 7335SOL    HW122904   2.114   3.292   2.622
 7335SOL    HW222905   2.233   3.297   2.733
 7336SOL     OW22906   1.622   6.171   4.059
 7336SOL    HW122907   1.649   6.081   4.094
 7336SOL    HW222908   1.703   6.224   4.035
 7337SOL     OW22909   5.021   2.597   2.291
 7337SOL    HW122910   4.957   2.670   2.266
 7337SOL    HW222911   5.109   2.614   2.247
 7338SOL     OW22912   6.838   3.104   0.145
 7338SOL    HW122913   6.934   3.129   0.161
 7338SOL    HW222914   6.797   3.170   0.081
 7339SOL     OW22915   1.211   5.784   4.733
 7339SOL    HW122916   1.212   5.721   4.655
 7339SOL    HW222917   1.299   5.780   4.781
 7340SOL     OW22918   2.560   6.547   0.062
 7340SOL    HW122919   2.578   6.595   6.994
 7340SOL    HW222920   2.515   6.609   0.126
 7341SOL     OW22921   6.624   1.861   0.914
 7341SOL    HW122922   6.709   1.824   0.951
 7341SOL    HW222923   6.642   1.908   0.828
 7342SOL     OW22924   0.614   6.444   2.242
 7342SOL    HW122925   0.665   6.480   2.320
 7342SOL    HW222926   0.678   6.408   2.174
 7343SOL     OW22927   5.985   3.116   0.557
 7343SOL    HW122928   5.976   3.151   0.464
 7343SOL    HW222929   6.013   3.020   0.554
 7344SOL     OW22930   2.688   6.378   5.706
 7344SOL    HW122931   2.684   6.280   5.690
 7344SOL    HW222932   2.705   6.395   5.803
 7345SOL     OW22933   3.500   6.000   5.760
 7345SOL    HW122934   3.444   6.062   5.704
 7345SOL    HW222935   3.572   5.961   5.704
 7346SOL     OW22936   4.054   5.178   2.035
 7346SOL    HW122937   4.026   5.266   2.074
 7346SOL    HW222938   3.973   5.123   2.016
 7347SOL     OW22939   6.024   1.318   0.115
 7347SOL    HW122940   6.036   1.338   0.018
 7347SOL    HW222941   5.928   1.328   0.139
 7348SOL     OW22942   6.578   4.942   0.086
 7348SOL    HW122943   6.628   4.856   0.078
 7348SOL    HW222944   6.597   4.983   0.175
 7349SOL     OW22945   3.902   1.862   1.466
 7349SOL    HW122946   3.915   1.768   1.499
 7349SOL    HW222947   3.881   1.922   1.543
 7350SOL     OW22948   3.676   0.754   4.338
 7350SOL    HW122949   3.737   0.778   4.415
 7350SOL    HW222950   3.603   0.823   4.331
 7351SOL     OW22951   2.161   4.556   4.293
 7351SOL    HW122952   2.128   4.605   4.374
 7351SOL    HW222953   2.083   4.534   4.234
 7352SOL     OW22954   6.110   3.519   4.176
 7352SOL    HW122955   6.029   3.563   4.139
 7352SOL    HW222956   6.100   3.510   4.275
 7353SOL     OW22957   6.301   1.119   5.469
 7353SOL    HW122958   6.203   1.100   5.465
 7353SOL    HW222959   6.320   1.206   5.423
 7354SOL     OW22960   0.934   1.704   2.791
 7354SOL    HW122961   0.838   1.685   2.770
 7354SOL    HW222962   0.977   1.748   2.712
 7355SOL     OW22963   3.392   1.495   0.901
 7355SOL    HW122964   3.464   1.547   0.856
 7355SOL    HW222965   3.321   1.557   0.935
 7356SOL     OW22966   4.281   4.171   6.270
 7356SOL    HW122967   4.212   4.100   6.261
 7356SOL    HW222968   4.311   4.178   6.365
 7357SOL     OW22969   5.006   6.382   2.071
 7357SOL    HW122970   4.989   6.476   2.101
 7357SOL    HW222971   5.097   6.354   2.101
 7358SOL     OW22972   5.076   0.348   3.153
 7358SOL    HW122973   4.994   0.335   3.097
 7358SOL    HW222974   5.066   0.430   3.208
 7359SOL     OW22975   4.001   6.722   1.921
 7359SOL    HW122976   4.026   6.626   1.922
 7359SOL    HW222977   3.991   6.755   2.014
 7360SOL     OW22978   2.922   3.834   5.172
 7360SOL    HW122979   2.893   3.746   5.133
 7360SOL    HW222980   2.979   3.882   5.106
 7361SOL     OW22981   6.703   0.369   2.943
 7361SOL    HW122982   6.616   0.414   2.923
 7361SOL    HW222983   6.690   0.270   2.942
 7362SOL     OW22984   3.520   5.534   0.285
 7362SOL    HW122985   3.457   5.533   0.362
 7362SOL    HW222986   3.480   5.586   0.210
 7363SOL     OW22987   4.138   0.880   1.076
 7363SOL    HW122988   4.205   0.889   1.150
 7363SOL    HW222989   4.182   0.902   0.989
 7364SOL     OW22990   6.406   6.266   2.106
 7364SOL    HW122991   6.373   6.245   2.014
 7364SOL    HW222992   6.328   6.293   2.163
 7365SOL     OW22993   4.964   3.597   2.521
 7365SOL    HW122994   4.976   3.680   2.466
 7365SOL    HW222995   4.943   3.520   2.461
 7366SOL     OW22996   2.184   7.011   3.603
 7366SOL    HW122997   2.228   0.082   3.592
 7366SOL    HW222998   2.242   6.952   3.660
 7367SOL     OW22999   4.240   1.096   6.727
 7367SOL    HW123000   4.155   1.125   6.771
 7367SOL    HW223001   4.286   1.175   6.688
 7368SOL     OW23002   3.437   3.435   3.528
 7368SOL    HW123003   3.372   3.510   3.516
 7368SOL    HW223004   3.403   3.372   3.598
 7369SOL     OW23005   5.977   3.682   6.958
 7369SOL    HW123006   5.918   3.720   0.011
 7369SOL    HW223007   5.923   3.666   6.875
 7370SOL     OW23008   1.670   1.580   4.776
 7370SOL    HW123009   1.707   1.649   4.714
 7370SOL    HW223010   1.702   1.490   4.749
 7371SOL     OW23011   3.790   0.862   3.322
 7371SOL    HW123012   3.704   0.811   3.325
 7371SOL    HW223013   3.847   0.826   3.248
 7372SOL     OW23014   4.925   1.053   5.201
 7372SOL    HW123015   4.929   1.061   5.101
 7372SOL    HW223016   4.944   1.141   5.242
 7373SOL     OW23017   5.939   3.127   4.453
 7373SOL    HW123018   5.841   3.108   4.462
 7373SOL    HW223019   5.992   3.053   4.496
 7374SOL     OW23020   0.709   2.570   6.785
 7374SOL    HW123021   0.774   2.516   6.732
 7374SOL    HW223022   0.668   2.640   6.726
 7375SOL     OW23023   2.296   3.208   0.330
 7375SOL    HW123024   2.300   3.146   0.252
 7375SOL    HW223025   2.276   3.301   0.298
 7376SOL     OW23026   6.786   4.855   0.441
 7376SOL    HW123027   6.696   4.812   0.450
 7376SOL    HW223028   6.794   4.899   0.352
 7377SOL     OW23029   2.561   5.528   1.107
 7377SOL    HW123030   2.626   5.462   1.145
 7377SOL    HW223031   2.585   5.547   1.011
 7378SOL     OW23032   1.886   4.824   5.401
 7378SOL    HW123033   1.884   4.750   5.468
 7378SOL    HW223034   1.976   4.827   5.357
 7379SOL     OW23035   4.660   1.735   2.606
 7379SOL    HW123036   4.715   1.814   2.577
 7379SOL    HW223037   4.670   1.661   2.539
 7380SOL     OW23038   5.192   3.574   1.713
 7380SOL    HW123039   5.198   3.514   1.793
 7380SOL    HW223040   5.108   3.629   1.719
 7381SOL     OW23041   3.677   6.530   1.719
 7381SOL    HW123042   3.742   6.479   1.776
 7381SOL    HW223043   3.705   6.626   1.715
 7382SOL     OW23044   0.345   1.873   6.231
 7382SOL    HW123045   0.280   1.864   6.307
 7382SOL    HW223046   0.401   1.955   6.243
 7383SOL     OW23047   2.091   6.735   1.189
 7383SOL    HW123048   2.111   6.757   1.285
 7383SOL    HW223049   2.169   6.762   1.132
 7384SOL     OW23050   0.003   6.495   0.357
 7384SOL    HW123051   6.957   6.532   0.423
 7384SOL    HW223052   0.048   6.414   0.395
 7385SOL     OW23053   6.064   4.923   3.147
 7385SOL    HW123054   6.109   4.842   3.112
 7385SOL    HW223055   6.115   4.959   3.225
 7386SOL     OW23056   5.980   4.277   6.772
 7386SOL    HW123057   5.993   4.375   6.756
 7386SOL    HW223058   6.068   4.230   6.766
 7387SOL     OW23059   6.513   5.591   3.963
 7387SOL    HW123060   6.464   5.612   3.878
 7387SOL    HW223061   6.563   5.672   3.993
 7388SOL     OW23062   2.321   4.389   2.557
 7388SOL    HW123063   2.285   4.332   2.482
 7388SOL    HW223064   2.325   4.484   2.527
 7389SOL     OW23065   6.475   3.089   0.601
 7389SOL    HW123066   6.488   3.067   0.504
 7389SOL    HW223067   6.450   3.006   0.651
 7390SOL     OW23068   2.853   2.236   3.848
 7390SOL    HW123069   2.943   2.277   3.864
 7390SOL    HW223070   2.840   2.160   3.912
 7391SOL     OW23071   3.148   4.066   2.719
 7391SOL    HW123072   3.131   4.018   2.805
 7391SOL    HW223073   3.085   4.143   2.711
 7392SOL     OW23074   3.398   6.601   0.756
 7392SOL    HW123075   3.319   6.568   0.704
 7392SOL    HW223076   3.367   6.657   0.832
 7393SOL     OW23077   5.212   5.808   3.215
 7393SOL    HW123078   5.193   5.728   3.271
 7393SOL    HW223079   5.279   5.784   3.144
 7394SOL     OW23080   2.370   2.078   6.183
 7394SOL    HW123081   2.289   2.039   6.227
 7394SOL    HW223082   2.375   2.176   6.206
 7395SOL     OW23083   2.812   6.315   1.284
 7395SOL    HW123084   2.786   6.370   1.205
 7395SOL    HW223085   2.910   6.326   1.300
 7396SOL     OW23086   1.175   5.128   2.131
 7396SOL    HW123087   1.112   5.136   2.209
 7396SOL    HW223088   1.253   5.188   2.145
 7397SOL     OW23089   6.050   4.476   4.161
 7397SOL    HW123090   6.000   4.447   4.079
 7397SOL    HW223091   6.048   4.402   4.228
 7398SOL     OW23092   3.141   4.932   2.204
 7398SOL    HW123093   3.064   4.880   2.168
 7398SOL    HW223094   3.219   4.923   2.142
 7399SOL     OW23095   6.075   1.356   5.715
 7399SOL    HW123096   5.998   1.335   5.655
 7399SOL    HW223097   6.040   1.395   5.801
 7400SOL     OW23098   4.198   3.491   5.850
 7400SOL    HW123099   4.271   3.458   5.910
 7400SOL    HW223100   4.234   3.501   5.757
 7401SOL     OW23101   1.505   2.529   3.972
 7401SOL    HW123102   1.564   2.563   3.899
 7401SOL    HW223103   1.466   2.606   4.022
 7402SOL     OW23104   3.445   5.598   4.203
 7402SOL    HW123105   3.458   5.645   4.291
 7402SOL    HW223106   3.476   5.656   4.129
 7403SOL     OW23107   1.570   4.163   4.066
 7403SOL    HW123108   1.554   4.156   3.967
 7403SOL    HW223109   1.537   4.251   4.099
 7404SOL     OW23110   2.703   4.082   0.769
 7404SOL    HW123111   2.697   3.989   0.806
 7404SOL    HW223112   2.624   4.136   0.799
 7405SOL     OW23113   3.754   6.751   5.479
 7405SOL    HW123114   3.696   6.812   5.424
 7405SOL    HW223115   3.702   6.669   5.503
 7406SOL     OW23116   0.790   2.562   4.307
 7406SOL    HW123117   0.856   2.520   4.246
 7406SOL    HW223118   0.698   2.554   4.268
 7407SOL     OW23119   1.492   6.284   5.597
 7407SOL    HW123120   1.498   6.246   5.505
 7407SOL    HW223121   1.567   6.249   5.653
 7408SOL     OW23122   4.233   5.461   5.111
 7408SOL    HW123123   4.296   5.384   5.109
 7408SOL    HW223124   4.197   5.478   5.019
 7409SOL     OW23125   6.546   4.876   1.713
 7409SOL    HW123126   6.576   4.918   1.627
 7409SOL    HW223127   6.524   4.780   1.697
 7410SOL     OW23128   6.652   1.185   1.078
 7410SOL    HW123129   6.702   1.221   1.157
 7410SOL    HW223130   6.717   1.152   1.009
 7411SOL     OW23131   3.580   1.626   5.373
 7411SOL    HW123132   3.562   1.686   5.451
 7411SOL    HW223133   3.634   1.548   5.404
 7412SOL     OW23134   4.205   6.727   6.975
 7412SOL    HW123135   4.163   6.636   6.975
 7412SOL    HW223136   4.283   6.728   0.020
 7413SOL     OW23137   5.051   0.988   3.602
 7413SOL    HW123138   5.015   1.081   3.595
 7413SOL    HW223139   5.076   0.969   3.697
 7414SOL     OW23140   2.740   1.108   3.871
 7414SOL    HW123141   2.776   1.196   3.842
 7414SOL    HW223142   2.688   1.066   3.796
 7415SOL     OW23143   4.098   0.131   6.477
 7415SOL    HW123144   4.019   0.162   6.529
 7415SOL    HW223145   4.117   0.198   6.404
 7416SOL     OW23146   1.692   0.506   1.671
 7416SOL    HW123147   1.746   0.568   1.728
 7416SOL    HW223148   1.598   0.541   1.665
 7417SOL     OW23149   0.512   0.562   2.423
 7417SOL    HW123150   0.605   0.525   2.420
 7417SOL    HW223151   0.447   0.488   2.444
 7418SOL     OW23152   1.511   3.645   5.937
 7418SOL    HW123153   1.575   3.632   6.012
 7418SOL    HW223154   1.532   3.731   5.890
 7419SOL     OW23155   6.411   3.325   4.240
 7419SOL    HW123156   6.421   3.302   4.143
 7419SOL    HW223157   6.441   3.247   4.295
 7420SOL     OW23158   0.020   6.504   1.065
 7420SOL    HW123159   6.976   6.467   1.134
 7420SOL    HW223160   0.052   6.595   1.094
 7421SOL     OW23161   5.743   4.097   1.136
 7421SOL    HW123162   5.808   4.162   1.097
 7421SOL    HW223163   5.793   4.022   1.179
 7422SOL     OW23164   5.433   3.483   1.641
 7422SOL    HW123165   5.444   3.521   1.549
 7422SOL    HW223166   5.336   3.484   1.666
 7423SOL     OW23167   4.619   2.630   5.983
 7423SOL    HW123168   4.585   2.547   6.026
 7423SOL    HW223169   4.649   2.694   6.054
 7424SOL     OW23170   0.710   2.381   4.106
 7424SOL    HW123171   0.696   2.283   4.118
 7424SOL    HW223172   0.805   2.398   4.083
 7425SOL     OW23173   5.752   0.454   1.256
 7425SOL    HW123174   5.683   0.527   1.261
 7425SOL    HW223175   5.708   0.367   1.235
 7426SOL     OW23176   3.238   2.953   5.689
 7426SOL    HW123177   3.223   3.045   5.727
 7426SOL    HW223178   3.275   2.893   5.760
 7427SOL     OW23179   2.284   0.344   2.740
 7427SOL    HW123180   2.330   0.265   2.699
 7427SOL    HW223181   2.334   0.427   2.718
 7428SOL     OW23182   2.947   0.370   4.900
 7428SOL    HW123183   2.915   0.441   4.963
 7428SOL    HW223184   2.994   0.299   4.951
 7429SOL     OW23185   1.251   0.708   2.350
 7429SOL    HW123186   1.218   0.723   2.257
 7429SOL    HW223187   1.213   0.778   2.410
 7430SOL     OW23188   0.237   4.098   2.751
 7430SOL    HW123189   0.147   4.135   2.770
 7430SOL    HW223190   0.259   4.026   2.817
 7431SOL     OW23191   0.786   2.214   4.521
 7431SOL    HW123192   0.731   2.246   4.598
 7431SOL    HW223193   0.742   2.135   4.479
 7432SOL     OW23194   1.527   1.360   2.870
 7432SOL    HW123195   1.609   1.409   2.898
 7432SOL    HW223196   1.521   1.359   2.770
 7433SOL     OW23197   3.226   6.983   6.851
 7433SOL    HW123198   3.262   0.057   6.859
 7433SOL    HW223199   3.161   6.965   6.925
 7434SOL     OW23200   4.330   0.153   3.488
 7434SOL    HW123201   4.379   0.240   3.498
 7434SOL    HW223202   4.315   0.113   3.578
 7435SOL     OW23203   5.135   4.533   2.944
 7435SOL    HW123204   5.043   4.540   2.983
 7435SOL    HW223205   5.141   4.594   2.864
 7436SOL     OW23206   5.167   2.992   5.630
 7436SOL    HW123207   5.164   2.892   5.630
 7436SOL    HW223208   5.261   3.023   5.647
 7437SOL     OW23209   3.264   1.073   1.423
 7437SOL    HW123210   3.231   1.137   1.354
 7437SOL    HW223211   3.186   1.034   1.472
 7438SOL     OW23212   2.017   0.317   6.720
 7438SOL    HW123213   2.021   0.375   6.640
 7438SOL    HW223214   1.922   0.289   6.737
 7439SOL     OW23215   1.388   4.441   6.018
 7439SOL    HW123216   1.334   4.469   5.940
 7439SOL    HW223217   1.475   4.402   5.987
 7440SOL     OW23218   5.264   3.523   3.681
 7440SOL    HW123219   5.247   3.601   3.621
 7440SOL    HW223220   5.190   3.516   3.748
 7441SOL     OW23221   4.526   5.927   1.060
 7441SOL    HW123222   4.460   5.887   0.996
 7441SOL    HW223223   4.486   5.927   1.152
 7442SOL     OW23224   5.936   1.399   5.936
 7442SOL    HW123225   5.838   1.386   5.921
 7442SOL    HW223226   5.950   1.467   6.008
 7443SOL     OW23227   0.082   0.481   1.275
 7443SOL    HW123228   0.076   0.551   1.347
 7443SOL    HW223229   0.177   0.450   1.268
 7444SOL     OW23230   1.601   6.338   6.677
 7444SOL    HW123231   1.676   6.280   6.711
 7444SOL    HW223232   1.627   6.377   6.589
 7445SOL     OW23233   3.613   5.438   2.511
 7445SOL    HW123234   3.631   5.406   2.604
 7445SOL    HW223235   3.556   5.371   2.464
 7446SOL     OW23236   6.140   5.029   0.022
 7446SOL    HW123237   6.134   5.118   6.997
 7446SOL    HW223238   6.048   4.997   0.046
 7447SOL     OW23239   0.964   5.698   1.025
 7447SOL    HW123240   0.982   5.603   1.052
 7447SOL    HW223241   0.908   5.699   0.943
 7448SOL     OW23242   4.334   4.889   6.935
 7448SOL    HW123243   4.428   4.918   6.953
 7448SOL    HW223244   4.333   4.829   6.855
 7449SOL     OW23245   6.370   4.118   6.389
 7449SOL    HW123246   6.456   4.156   6.356
 7449SOL    HW223247   6.303   4.191   6.402
 7450SOL     OW23248   5.648   2.731   6.747
 7450SOL    HW123249   5.628   2.677   6.828
 7450SOL    HW223250   5.644   2.672   6.666
 7451SOL     OW23251   4.543   4.558   3.063
 7451SOL    HW123252   4.474   4.630   3.061
 7451SOL    HW223253   4.521   4.493   3.136
 7452SOL     OW23254   6.418   5.767   6.171
 7452SOL    HW123255   6.471   5.683   6.182
 7452SOL    HW223256   6.454   5.818   6.092
 7453SOL     OW23257   4.045   5.391   6.337
 7453SOL    HW123258   3.956   5.434   6.321
 7453SOL    HW223259   4.097   5.445   6.403
 7454SOL     OW23260   4.214   1.922   0.848
 7454SOL    HW123261   4.280   1.994   0.865
 7454SOL    HW223262   4.226   1.886   0.756
 7455SOL     OW23263   6.460   0.484   3.151
 7455SOL    HW123264   6.460   0.582   3.166
 7455SOL    HW223265   6.452   0.465   3.053
 7456SOL     OW23266   3.176   1.920   5.903
 7456SOL    HW123267   3.191   1.958   5.994
 7456SOL    HW223268   3.117   1.981   5.851
 7457SOL     OW23269   1.253   1.268   2.859
 7457SOL    HW123270   1.241   1.365   2.883
 7457SOL    HW223271   1.287   1.261   2.765
 7458SOL     OW23272   0.408   5.394   5.023
 7458SOL    HW123273   0.427   5.309   5.072
 7458SOL    HW223274   0.331   5.381   4.961
 7459SOL     OW23275   5.803   0.198   3.282
 7459SOL    HW123276   5.785   0.203   3.183
 7459SOL    HW223277   5.896   0.233   3.300
 7460SOL     OW23278   0.762   0.494   1.516
 7460SOL    HW123279   0.823   0.463   1.589
 7460SOL    HW223280   0.732   0.416   1.462
 7461SOL     OW23281   1.971   4.610   4.596
 7461SOL    HW123282   1.904   4.536   4.602
 7461SOL    HW223283   2.057   4.581   4.637
 7462SOL     OW23284   1.826   4.689   0.301
 7462SOL    HW123285   1.738   4.709   0.257
 7462SOL    HW223286   1.847   4.592   0.290
 7463SOL     OW23287   4.768   5.091   1.803
 7463SOL    HW123288   4.812   5.099   1.713
 7463SOL    HW223289   4.753   4.994   1.824
 7464SOL     OW23290   5.227   5.496   4.921
 7464SOL    HW123291   5.135   5.486   4.958
 7464SOL    HW223292   5.275   5.569   4.969
 7465SOL     OW23293   1.340   4.068   6.339
 7465SOL    HW123294   1.325   3.981   6.292
 7465SOL    HW223295   1.430   4.104   6.314
 7466SOL     OW23296   0.735   0.607   5.228
 7466SOL    HW123297   0.826   0.618   5.266
 7466SOL    HW223298   0.679   0.687   5.253
 7467SOL     OW23299   0.550   3.545   4.619
 7467SOL    HW123300   0.641   3.581   4.639
 7467SOL    HW223301   0.483   3.620   4.619
 7468SOL     OW23302   5.258   2.727   5.625
 7468SOL    HW123303   5.252   2.683   5.715
 7468SOL    HW223304   5.328   2.680   5.570
 7469SOL     OW23305   0.202   2.232   0.418
 7469SOL    HW123306   0.269   2.158   0.413
 7469SOL    HW223307   0.123   2.209   0.362
 7470SOL     OW23308   5.187   3.166   4.091
 7470SOL    HW123309   5.227   3.246   4.137
 7470SOL    HW223310   5.260   3.100   4.071
 7471SOL     OW23311   3.731   6.878   6.937
 7471SOL    HW123312   3.770   6.822   7.010
 7471SOL    HW223313   3.728   6.825   6.852
 7472SOL     OW23314   0.846   0.184   5.814
 7472SOL    HW123315   0.829   0.270   5.767
 7472SOL    HW223316   0.800   0.110   5.766
 7473SOL     OW23317   4.211   6.130   3.307
 7473SOL    HW123318   4.231   6.048   3.360
 7473SOL    HW223319   4.138   6.111   3.242
 7474SOL     OW23320   6.137   2.226   0.299
 7474SOL    HW123321   6.094   2.179   0.375
 7474SOL    HW223322   6.080   2.302   0.269
 7475SOL     OW23323   5.230   2.701   1.220
 7475SOL    HW123324   5.225   2.621   1.161
 7475SOL    HW223325   5.319   2.705   1.264
 7476SOL     OW23326   2.288   1.208   2.626
 7476SOL    HW123327   2.236   1.291   2.605
 7476SOL    HW223328   2.360   1.230   2.692
 7477SOL     OW23329   2.839   3.767   5.949
 7477SOL    HW123330   2.870   3.846   6.002
 7477SOL    HW223331   2.915   3.703   5.938
 7478SOL     OW23332   0.291   1.985   5.981
 7478SOL    HW123333   0.254   2.043   6.053
 7478SOL    HW223334   0.288   1.889   6.011
 7479SOL     OW23335   4.862   2.784   1.389
 7479SOL    HW123336   4.872   2.691   1.354
 7479SOL    HW223337   4.835   2.780   1.485
 7480SOL     OW23338   3.618   5.939   2.803
 7480SOL    HW123339   3.637   6.036   2.790
 7480SOL    HW223340   3.524   5.919   2.775
 7481SOL     OW23341   6.924   3.525   5.962
 7481SOL    HW123342   6.846   3.504   6.021
 7481SOL    HW223343   6.957   3.617   5.983
 7482SOL     OW23344   4.964   2.385   4.151
 7482SOL    HW123345   4.868   2.357   4.152
 7482SOL    HW223346   4.970   2.485   4.149
 7483SOL     OW23347   4.926   1.496   6.222
 7483SOL    HW123348   4.929   1.534   6.129
 7483SOL    HW223349   4.965   1.562   6.286
 7484SOL     OW23350   2.603   0.516   4.324
 7484SOL    HW123351   2.637   0.516   4.419
 7484SOL    HW223352   2.529   0.582   4.316
 7485SOL     OW23353   4.101   0.457   6.808
 7485SOL    HW123354   4.029   0.525   6.794
 7485SOL    HW223355   4.095   0.420   6.900
 7486SOL     OW23356   4.483   6.639   0.846
 7486SOL    HW123357   4.565   6.653   0.789
 7486SOL    HW223358   4.509   6.640   0.942
 7487SOL     OW23359   3.181   6.106   4.077
 7487SOL    HW123360   3.085   6.119   4.054
 7487SOL    HW223361   3.238   6.160   4.015
 7488SOL     OW23362   1.240   6.008   4.035
 7488SOL    HW123363   1.274   5.914   4.024
 7488SOL    HW223364   1.190   6.015   4.121
 7489SOL     OW23365   5.084   2.960   6.634
 7489SOL    HW123366   5.160   2.895   6.632
 7489SOL    HW223367   5.085   3.011   6.720
 7490SOL     OW23368   1.912   2.936   1.920
 7490SOL    HW123369   1.815   2.959   1.930
 7490SOL    HW223370   1.929   2.903   1.827
 7491SOL     OW23371   4.151   4.054   0.079
 7491SOL    HW123372   4.063   4.038   0.124
 7491SOL    HW223373   4.136   4.089   7.005
 7492SOL     OW23374   1.665   0.653   4.065
 7492SOL    HW123375   1.616   0.613   3.988
 7492SOL    HW223376   1.644   0.751   4.070
 7493SOL     OW23377   6.429   5.178   4.601
 7493SOL    HW123378   6.503   5.112   4.590
 7493SOL    HW223379   6.391   5.200   4.512
 7494SOL     OW23380   6.197   1.543   2.217
 7494SOL    HW123381   6.156   1.607   2.152
 7494SOL    HW223382   6.153   1.551   2.306
 7495SOL     OW23383   1.186   3.128   4.767
 7495SOL    HW123384   1.235   3.043   4.786
 7495SOL    HW223385   1.090   3.107   4.749
 7496SOL     OW23386   6.231   3.803   2.367
 7496SOL    HW123387   6.135   3.809   2.338
 7496SOL    HW223388   6.236   3.767   2.460
 7497SOL     OW23389   6.373   0.081   1.434
 7497SOL    HW123390   6.423   0.083   1.348
 7497SOL    HW223391   6.424   0.026   1.501
 7498SOL     OW23392   2.573   6.557   3.854
 7498SOL    HW123393   2.541   6.612   3.931
 7498SOL    HW223394   2.574   6.613   3.771
 7499SOL     OW23395   3.021   1.572   3.521
 7499SOL    HW123396   2.965   1.534   3.595
 7499SOL    HW223397   3.104   1.518   3.511
 7500SOL     OW23398   3.917   0.943   4.129
 7500SOL    HW123399   3.879   0.892   4.207
 7500SOL    HW223400   3.848   1.006   4.094
 7501SOL     OW23401   6.364   2.004   3.966
 7501SOL    HW123402   6.437   1.991   4.033
 7501SOL    HW223403   6.302   2.076   3.998
 7502SOL     OW23404   4.194   1.082   3.614
 7502SOL    HW123405   4.173   1.041   3.703
 7502SOL    HW223406   4.121   1.060   3.550
 7503SOL     OW23407   1.467   6.067   1.441
 7503SOL    HW123408   1.470   6.151   1.386
 7503SOL    HW223409   1.554   6.018   1.433
 7504SOL     OW23410   5.829   6.464   4.643
 7504SOL    HW123411   5.837   6.541   4.706
 7504SOL    HW223412   5.896   6.395   4.667
 7505SOL     OW23413   1.026   6.590   5.654
 7505SOL    HW123414   1.018   6.505   5.603
 7505SOL    HW223415   0.948   6.600   5.715
 7506SOL     OW23416   3.361   2.140   4.405
 7506SOL    HW123417   3.363   2.123   4.503
 7506SOL    HW223418   3.441   2.099   4.362
 7507SOL     OW23419   6.610   3.968   5.970
 7507SOL    HW123420   6.609   3.947   6.068
 7507SOL    HW223421   6.525   3.935   5.928
 7508SOL     OW23422   3.168   6.515   0.666
 7508SOL    HW123423   3.094   6.486   0.728
 7508SOL    HW223424   3.190   6.439   0.605
 7509SOL     OW23425   6.061   4.671   2.088
 7509SOL    HW123426   6.077   4.733   2.011
 7509SOL    HW223427   6.056   4.723   2.173
 7510SOL     OW23428   3.251   3.959   1.622
 7510SOL    HW123429   3.266   3.946   1.524
 7510SOL    HW223430   3.250   4.057   1.643
 7511SOL     OW23431   4.453   6.006   3.785
 7511SOL    HW123432   4.460   5.912   3.751
 7511SOL    HW223433   4.491   6.012   3.877
 7512SOL     OW23434   4.358   0.297   0.964
 7512SOL    HW123435   4.329   0.281   1.059
 7512SOL    HW223436   4.358   0.395   0.945
 7513SOL     OW23437   1.000   0.925   2.005
 7513SOL    HW123438   1.008   0.964   2.097
 7513SOL    HW223439   1.089   0.927   1.960
 7514SOL     OW23440   0.485   6.869   0.681
 7514SOL    HW123441   0.515   6.928   0.606
 7514SOL    HW223442   0.414   6.916   0.733
 7515SOL     OW23443   0.222   4.782   5.155
 7515SOL    HW123444   0.217   4.797   5.056
 7515SOL    HW223445   0.245   4.867   5.201
 7516SOL     OW23446   2.191   6.378   5.128
 7516SOL    HW123447   2.206   6.311   5.055
 7516SOL    HW223448   2.277   6.425   5.148
 7517SOL     OW23449   0.729   2.290   6.460
 7517SOL    HW123450   0.673   2.369   6.434
 7517SOL    HW223451   0.782   2.312   6.542
 7518SOL     OW23452   3.998   1.961   4.474
 7518SOL    HW123453   3.953   2.020   4.408
 7518SOL    HW223454   3.949   1.873   4.479
 7519SOL     OW23455   3.355   6.695   4.667
 7519SOL    HW123456   3.362   6.794   4.655
 7519SOL    HW223457   3.414   6.666   4.742
 7520SOL     OW23458   1.758   1.229   0.757
 7520SOL    HW123459   1.822   1.297   0.792
 7520SOL    HW223460   1.741   1.246   0.660
 7521SOL     OW23461   4.222   1.135   5.310
 7521SOL    HW123462   4.207   1.185   5.395
 7521SOL    HW223463   4.137   1.088   5.283
 7522SOL     OW23464   1.779   6.654   4.190
 7522SOL    HW123465   1.866   6.622   4.228
 7522SOL    HW223466   1.708   6.649   4.261
 7523SOL     OW23467   5.686   1.504   0.547
 7523SOL    HW123468   5.592   1.472   0.540
 7523SOL    HW223469   5.690   1.601   0.521
 7524SOL     OW23470   0.428   3.328   5.392
 7524SOL    HW123471   0.458   3.423   5.396
 7524SOL    HW223472   0.492   3.275   5.336
 7525SOL     OW23473   2.347   4.829   5.546
 7525SOL    HW123474   2.379   4.735   5.558
 7525SOL    HW223475   2.311   4.864   5.632
 7526SOL     OW23476   1.612   4.186   0.848
 7526SOL    HW123477   1.627   4.285   0.850
 7526SOL    HW223478   1.515   4.168   0.832
 7527SOL     OW23479   2.632   5.094   2.727
 7527SOL    HW123480   2.606   5.187   2.703
 7527SOL    HW223481   2.710   5.065   2.672
 7528SOL     OW23482   5.686   2.548   6.546
 7528SOL    HW123483   5.651   2.455   6.547
 7528SOL    HW223484   5.748   2.560   6.467
 7529SOL     OW23485   5.469   3.148   4.633
 7529SOL    HW123486   5.464   3.233   4.686
 7529SOL    HW223487   5.381   3.129   4.591
 7530SOL     OW23488   1.443   2.501   3.013
 7530SOL    HW123489   1.360   2.463   2.972
 7530SOL    HW223490   1.432   2.600   3.025
 7531SOL     OW23491   3.747   1.879   3.815
 7531SOL    HW123492   3.757   1.818   3.736
 7531SOL    HW223493   3.657   1.867   3.856
 7532SOL     OW23494   5.194   5.556   6.651
 7532SOL    HW123495   5.289   5.585   6.660
 7532SOL    HW223496   5.144   5.620   6.592
 7533SOL     OW23497   4.528   4.491   2.129
 7533SOL    HW123498   4.624   4.514   2.145
 7533SOL    HW223499   4.521   4.398   2.095
 7534SOL     OW23500   4.327   5.858   5.093
 7534SOL    HW123501   4.274   5.795   5.036
 7534SOL    HW223502   4.410   5.812   5.125
 7535SOL     OW23503   0.252   6.791   4.313
 7535SOL    HW123504   0.295   6.714   4.267
 7535SOL    HW223505   0.291   6.876   4.279
 7536SOL     OW23506   6.696   6.155   3.286
 7536SOL    HW123507   6.621   6.213   3.253
 7536SOL    HW223508   6.741   6.113   3.207
 7537SOL     OW23509   1.784   6.971   2.932
 7537SOL    HW123510   1.854   7.016   2.876
 7537SOL    HW223511   1.695   6.980   2.886
 7538SOL     OW23512   0.384   5.021   0.148
 7538SOL    HW123513   0.345   4.933   0.120
 7538SOL    HW223514   0.479   5.008   0.176
 7539SOL     OW23515   6.462   0.578   3.874
 7539SOL    HW123516   6.441   0.570   3.776
 7539SOL    HW223517   6.528   0.507   3.900
 7540SOL     OW23518   5.095   4.280   2.852
 7540SOL    HW123519   5.140   4.363   2.886
 7540SOL    HW223520   5.012   4.306   2.803
 7541SOL     OW23521   2.463   4.042   6.470
 7541SOL    HW123522   2.536   4.093   6.425
 7541SOL    HW223523   2.458   3.950   6.431
 7542SOL     OW23524   6.097   5.901   4.756
 7542SOL    HW123525   6.099   5.953   4.842
 7542SOL    HW223526   6.019   5.837   4.758
 7543SOL     OW23527   2.165   0.935   0.472
 7543SOL    HW123528   2.157   0.904   0.377
 7543SOL    HW223529   2.256   0.916   0.506
 7544SOL     OW23530   5.946   1.303   4.568
 7544SOL    HW123531   6.038   1.299   4.606
 7544SOL    HW223532   5.947   1.271   4.473
 7545SOL     OW23533   1.372   5.584   5.224
 7545SOL    HW123534   1.410   5.577   5.132
 7545SOL    HW223535   1.427   5.528   5.286
 7546SOL     OW23536   2.284   2.709   1.958
 7546SOL    HW123537   2.278   2.758   2.045
 7546SOL    HW223538   2.353   2.637   1.965
 7547SOL     OW23539   4.006   7.017   1.861
 7547SOL    HW123540   4.030   6.932   1.908
 7547SOL    HW223541   3.907   0.011   1.863
 7548SOL     OW23542   2.794   2.071   6.531
 7548SOL    HW123543   2.767   2.091   6.437
 7548SOL    HW223544   2.838   2.151   6.571
 7549SOL     OW23545   5.292   0.871   4.609
 7549SOL    HW123546   5.305   0.913   4.519
 7549SOL    HW223547   5.269   0.941   4.676
 7550SOL     OW23548   2.465   6.053   4.520
 7550SOL    HW123549   2.470   6.080   4.617
 7550SOL    HW223550   2.396   5.982   4.510
 7551SOL     OW23551   6.226   3.331   6.402
 7551SOL    HW123552   6.180   3.400   6.346
 7551SOL    HW223553   6.320   3.318   6.369
 7552SOL     OW23554   2.525   6.130   4.789
 7552SOL    HW123555   2.585   6.094   4.860
 7552SOL    HW223556   2.504   6.226   4.807
 7553SOL     OW23557   6.238   6.652   5.864
 7553SOL    HW123558   6.285   6.589   5.801
 7553SOL    HW223559   6.305   6.699   5.920
 7554SOL     OW23560   4.781   1.525   1.444
 7554SOL    HW123561   4.834   1.610   1.438
 7554SOL    HW223562   4.699   1.533   1.387
 7555SOL     OW23563   4.291   5.170   4.042
 7555SOL    HW123564   4.307   5.250   3.984
 7555SOL    HW223565   4.199   5.175   4.080
 7556SOL     OW23566   1.282   5.885   0.940
 7556SOL    HW123567   1.333   5.824   1.000
 7556SOL    HW223568   1.197   5.914   0.984
 7557SOL     OW23569   4.413   6.344   1.272
 7557SOL    HW123570   4.332   6.288   1.262
 7557SOL    HW223571   4.450   6.367   1.182
 7558SOL     OW23572   0.479   1.802   3.566
 7558SOL    HW123573   0.414   1.761   3.502
 7558SOL    HW223574   0.541   1.732   3.600
 7559SOL     OW23575   2.903   0.566   5.097
 7559SOL    HW123576   2.839   0.629   5.141
 7559SOL    HW223577   2.980   0.617   5.060
 7560SOL     OW23578   1.106   1.278   5.832
 7560SOL    HW123579   1.097   1.291   5.733
 7560SOL    HW223580   1.097   1.367   5.878
 7561SOL     OW23581   5.211   1.248   5.206
 7561SOL    HW123582   5.274   1.322   5.182
 7561SOL    HW223583   5.258   1.160   5.195
 7562SOL     OW23584   2.438   5.429   3.627
 7562SOL    HW123585   2.476   5.405   3.716
 7562SOL    HW223586   2.511   5.427   3.558
 7563SOL     OW23587   2.590   6.306   3.312
 7563SOL    HW123588   2.655   6.381   3.324
 7563SOL    HW223589   2.637   6.226   3.276
 7564SOL     OW23590   4.630   2.359   5.443
 7564SOL    HW123591   4.686   2.406   5.511
 7564SOL    HW223592   4.675   2.365   5.354
 7565SOL     OW23593   6.360   2.956   5.544
 7565SOL    HW123594   6.389   2.980   5.637
 7565SOL    HW223595   6.358   3.039   5.488
 7566SOL     OW23596   5.036   4.860   1.462
 7566SOL    HW123597   4.945   4.865   1.502
 7566SOL    HW223598   5.063   4.764   1.452
 7567SOL     OW23599   1.344   0.183   4.028
 7567SOL    HW123600   1.263   0.232   4.060
 7567SOL    HW223601   1.376   0.224   3.943
 7568SOL     OW23602   6.511   4.403   1.380
 7568SOL    HW123603   6.455   4.358   1.310
 7568SOL    HW223604   6.523   4.341   1.458
 7569SOL     OW23605   4.578   3.445   0.832
 7569SOL    HW123606   4.563   3.346   0.839
 7569SOL    HW223607   4.610   3.480   0.920
 7570SOL     OW23608   0.831   2.873   2.105
 7570SOL    HW123609   0.747   2.872   2.051
 7570SOL    HW223610   0.855   2.779   2.131
 7571SOL     OW23611   4.710   1.650   2.881
 7571SOL    HW123612   4.671   1.689   2.797
 7571SOL    HW223613   4.644   1.588   2.922
 7572SOL     OW23614   4.655   6.447   3.490
 7572SOL    HW123615   4.613   6.526   3.534
 7572SOL    HW223616   4.704   6.476   3.408
 7573SOL     OW23617   4.694   6.382   6.580
 7573SOL    HW123618   4.638   6.435   6.516
 7573SOL    HW223619   4.765   6.333   6.529
 7574SOL     OW23620   0.394   2.688   4.002
 7574SOL    HW123621   0.394   2.783   3.970
 7574SOL    HW223622   0.468   2.638   3.957
 7575SOL     OW23623   0.092   6.769   1.128
 7575SOL    HW123624   0.013   6.830   1.138
 7575SOL    HW223625   0.158   6.787   1.201
 7576SOL     OW23626   4.396   2.656   7.006
 7576SOL    HW123627   4.341   2.705   0.056
 7576SOL    HW223628   4.436   2.721   6.942
 7577SOL     OW23629   0.247   0.313   6.159
 7577SOL    HW123630   0.301   0.379   6.211
 7577SOL    HW223631   0.175   0.275   6.218
 7578SOL     OW23632   6.130   6.206   2.947
 7578SOL    HW123633   6.107   6.110   2.936
 7578SOL    HW223634   6.056   6.253   2.995
 7579SOL     OW23635   0.825   1.575   6.849
 7579SOL    HW123636   0.828   1.516   6.930
 7579SOL    HW223637   0.838   1.520   6.767
 7580SOL     OW23638   1.774   5.497   3.071
 7580SOL    HW123639   1.753   5.433   3.145
 7580SOL    HW223640   1.819   5.448   2.997
 7581SOL     OW23641   0.308   7.001   0.851
 7581SOL    HW123642   0.276   0.073   0.880
 7581SOL    HW223643   0.230   6.939   0.842
 7582SOL     OW23644   2.316   1.453   6.263
 7582SOL    HW123645   2.389   1.459   6.331
 7582SOL    HW223646   2.324   1.367   6.214
 7583SOL     OW23647   5.769   3.472   1.971
 7583SOL    HW123648   5.684   3.429   2.002
 7583SOL    HW223649   5.820   3.505   2.051
 7584SOL     OW23650   0.380   0.981   3.388
 7584SOL    HW123651   0.468   0.933   3.389
 7584SOL    HW223652   0.309   0.922   3.426
 7585SOL     OW23653   1.046   1.554   5.658
 7585SOL    HW123654   1.084   1.463   5.642
 7585SOL    HW223655   1.045   1.606   5.572
 7586SOL     OW23656   1.731   6.251   3.618
 7586SOL    HW123657   1.695   6.323   3.677
 7586SOL    HW223658   1.767   6.176   3.674
 7587SOL     OW23659   4.892   0.161   1.591
 7587SOL    HW123660   4.933   0.247   1.562
 7587SOL    HW223661   4.949   0.085   1.561
 7588SOL     OW23662   1.794   3.466   4.614
 7588SOL    HW123663   1.773   3.466   4.711
 7588SOL    HW223664   1.891   3.444   4.600
 7589SOL     OW23665   6.575   0.503   2.244
 7589SOL    HW123666   6.536   0.438   2.310
 7589SOL    HW223667   6.658   0.464   2.204
 7590SOL     OW23668   6.199   1.232   0.970
 7590SOL    HW123669   6.126   1.212   0.906
 7590SOL    HW223670   6.160   1.255   1.059
 7591SOL     OW23671   3.185   4.113   4.747
 7591SOL    HW123672   3.166   4.169   4.667
 7591SOL    HW223673   3.260   4.153   4.799
 7592SOL     OW23674   0.721   6.390   4.028
 7592SOL    HW123675   0.663   6.466   3.999
 7592SOL    HW223676   0.666   6.326   4.082
 7593SOL     OW23677   6.674   1.119   6.319
 7593SOL    HW123678   6.729   1.044   6.283
 7593SOL    HW223679   6.727   1.203   6.318
 7594SOL     OW23680   6.723   3.475   5.593
 7594SOL    HW123681   6.682   3.421   5.519
 7594SOL    HW223682   6.822   3.464   5.591
 7595SOL     OW23683   0.370   3.462   6.648
 7595SOL    HW123684   0.344   3.501   6.559
 7595SOL    HW223685   0.288   3.454   6.704
 7596SOL     OW23686   2.528   1.618   0.699
 7596SOL    HW123687   2.537   1.605   0.798
 7596SOL    HW223688   2.581   1.549   0.651
 7597SOL     OW23689   2.271   4.475   0.952
 7597SOL    HW123690   2.369   4.468   0.971
 7597SOL    HW223691   2.227   4.388   0.973
 7598SOL     OW23692   5.447   0.835   2.269
 7598SOL    HW123693   5.414   0.881   2.352
 7598SOL    HW223694   5.502   0.756   2.294
 7599SOL     OW23695   3.189   3.486   0.423
 7599SOL    HW123696   3.259   3.513   0.489
 7599SOL    HW223697   3.109   3.450   0.471
 7600SOL     OW23698   1.118   6.991   3.773
 7600SOL    HW123699   1.174   6.961   3.851
 7600SOL    HW223700   1.129   6.926   3.698
 7601SOL     OW23701   3.169   6.813   1.249
 7601SOL    HW123702   3.112   6.882   1.294
 7601SOL    HW223703   3.259   6.853   1.229
 7602SOL     OW23704   0.888   1.845   1.172
 7602SOL    HW123705   0.970   1.832   1.227
 7602SOL    HW223706   0.863   1.759   1.129
 7603SOL     OW23707   4.407   0.976   6.427
 7603SOL    HW123708   4.464   0.966   6.346
 7603SOL    HW223709   4.404   0.890   6.477
 7604SOL     OW23710   2.213   2.485   5.355
 7604SOL    HW123711   2.273   2.406   5.362
 7604SOL    HW223712   2.242   2.556   5.418
 7605SOL     OW23713   3.116   5.863   6.930
 7605SOL    HW123714   3.107   5.856   0.012
 7605SOL    HW223715   3.121   5.960   6.905
 7606SOL     OW23716   6.794   0.728   3.148
 7606SOL    HW123717   6.740   0.706   3.066
 7606SOL    HW223718   6.733   0.761   3.220
 7607SOL     OW23719   1.666   5.720   5.537
 7607SOL    HW123720   1.572   5.704   5.567
 7607SOL    HW223721   1.681   5.675   5.449
 7608SOL     OW23722   0.085   2.040   6.468
 7608SOL    HW123723   0.137   2.098   6.406
 7608SOL    HW223724   0.067   1.952   6.424
 7609SOL     OW23725   3.754   0.784   4.842
 7609SOL    HW123726   3.828   0.720   4.863
 7609SOL    HW223727   3.672   0.734   4.814
 7610SOL     OW23728   4.291   4.984   4.396
 7610SOL    HW123729   4.209   4.931   4.375
 7610SOL    HW223730   4.370   4.942   4.350
 7611SOL     OW23731   4.717   2.234   6.965
 7611SOL    HW123732   4.782   2.220   6.891
 7611SOL    HW223733   4.768   2.249   0.033
 7612SOL     OW23734   4.371   2.077   2.812
 7612SOL    HW123735   4.289   2.043   2.765
 7612SOL    HW223736   4.443   2.094   2.745
 7613SOL     OW23737   0.740   0.890   6.858
 7613SOL    HW123738   0.817   0.942   6.819
 7613SOL    HW223739   0.774   0.805   6.898
 7614SOL     OW23740   5.890   4.650   0.144
 7614SOL    HW123741   5.962   4.585   0.170
 7614SOL    HW223742   5.821   4.654   0.216
 7615SOL     OW23743   5.981   3.075   6.216
 7615SOL    HW123744   5.889   3.081   6.177
 7615SOL    HW223745   6.041   3.142   6.171
 7616SOL     OW23746   6.719   6.346   2.528
 7616SOL    HW123747   6.685   6.427   2.577
 7616SOL    HW223748   6.722   6.366   2.430
 7617SOL     OW23749   6.087   4.054   2.774
 7617SOL    HW123750   6.100   3.969   2.724
 7617SOL    HW223751   5.994   4.058   2.809
 7618SOL     OW23752   2.323   2.066   6.947
 7618SOL    HW123753   2.240   2.099   6.901
 7618SOL    HW223754   2.337   1.970   6.926
 7619SOL     OW23755   1.025   0.592   5.203
 7619SOL    HW123756   1.038   0.540   5.118
 7619SOL    HW223757   1.098   0.659   5.212
 7620SOL     OW23758   3.170   3.704   0.274
 7620SOL    HW123759   3.097   3.758   0.315
 7620SOL    HW223760   3.178   3.616   0.322
 7621SOL     OW23761   6.327   5.423   0.226
 7621SOL    HW123762   6.350   5.329   0.201
 7621SOL    HW223763   6.390   5.486   0.179
 7622SOL     OW23764   3.292   3.684   1.703
 7622SOL    HW123765   3.257   3.766   1.658
 7622SOL    HW223766   3.283   3.694   1.802
 7623SOL     OW23767   5.219   4.835   2.149
 7623SOL    HW123768   5.183   4.762   2.207
 7623SOL    HW223769   5.220   4.921   2.200
 7624SOL     OW23770   0.625   2.975   2.566
 7624SOL    HW123771   0.654   3.050   2.626
 7624SOL    HW223772   0.700   2.950   2.505
 7625SOL     OW23773   5.367   0.002   1.752
 7625SOL    HW123774   5.302   6.952   1.784
 7625SOL    HW223775   5.455   7.007   1.798
 7626SOL     OW23776   4.486   7.004   0.215
 7626SOL    HW123777   4.548   6.972   0.287
 7626SOL    HW223778   4.525   0.065   0.170
 7627SOL     OW23779   4.133   2.488   5.762
 7627SOL    HW123780   4.223   2.446   5.770
 7627SOL    HW223781   4.131   2.546   5.681
 7628SOL     OW23782   2.955   2.960   0.864
 7628SOL    HW123783   3.016   2.884   0.884
 7628SOL    HW223784   2.978   3.038   0.922
 7629SOL     OW23785   5.915   2.707   3.459
 7629SOL    HW123786   5.850   2.632   3.468
 7629SOL    HW223787   5.941   2.740   3.549
 7630SOL     OW23788   1.065   6.195   3.837
 7630SOL    HW123789   1.035   6.285   3.806
 7630SOL    HW223790   1.132   6.205   3.911
 7631SOL     OW23791   1.515   1.038   6.065
 7631SOL    HW123792   1.426   1.037   6.019
 7631SOL    HW223793   1.513   0.975   6.142
 7632SOL     OW23794   3.852   5.706   1.337
 7632SOL    HW123795   3.908   5.675   1.261
 7632SOL    HW223796   3.819   5.627   1.389
 7633SOL     OW23797   5.224   1.076   1.458
 7633SOL    HW123798   5.321   1.087   1.437
 7633SOL    HW223799   5.170   1.102   1.379
 7634SOL     OW23800   0.298   1.904   6.786
 7634SOL    HW123801   0.288   1.811   6.751
 7634SOL    HW223802   0.389   1.938   6.766
 7635SOL     OW23803   1.310   3.286   5.752
 7635SOL    HW123804   1.328   3.384   5.759
 7635SOL    HW223805   1.396   3.237   5.735
 7636SOL     OW23806   6.584   3.433   3.681
 7636SOL    HW123807   6.591   3.520   3.632
 7636SOL    HW223808   6.663   3.423   3.743
 7637SOL     OW23809   1.050   4.235   5.172
 7637SOL    HW123810   0.993   4.301   5.123
 7637SOL    HW223811   1.034   4.243   5.270
 7638SOL     OW23812   0.745   6.174   1.282
 7638SOL    HW123813   0.803   6.095   1.305
 7638SOL    HW223814   0.685   6.194   1.359
 7639SOL     OW23815   2.447   6.550   0.538
 7639SOL    HW123816   2.419   6.495   0.617
 7639SOL    HW223817   2.378   6.619   0.520
 7640SOL     OW23818   3.229   0.732   0.985
 7640SOL    HW123819   3.165   0.681   1.043
 7640SOL    HW223820   3.182   0.765   0.904
 7641SOL     OW23821   6.789   5.028   4.872
 7641SOL    HW123822   6.703   4.978   4.884
 7641SOL    HW223823   6.835   5.036   4.960
 7642SOL     OW23824   5.757   0.961   3.804
 7642SOL    HW123825   5.836   1.016   3.831
 7642SOL    HW223826   5.776   0.864   3.822
 7643SOL     OW23827   5.445   2.646   4.804
 7643SOL    HW123828   5.514   2.627   4.874
 7643SOL    HW223829   5.488   2.640   4.713
 7644SOL     OW23830   5.436   4.388   0.632
 7644SOL    HW123831   5.345   4.365   0.667
 7644SOL    HW223832   5.434   4.479   0.591
 7645SOL     OW23833   4.552   4.994   6.747
 7645SOL    HW123834   4.618   4.992   6.672
 7645SOL    HW223835   4.587   4.942   6.825
 7646SOL     OW23836   6.742   1.917   1.773
 7646SOL    HW123837   6.737   1.904   1.872
 7646SOL    HW223838   6.803   1.993   1.752
 7647SOL     OW23839   6.473   1.827   4.189
 7647SOL    HW123840   6.429   1.740   4.210
 7647SOL    HW223841   6.532   1.816   4.108
 7648SOL     OW23842   1.695   1.999   1.081
 7648SOL    HW123843   1.649   1.990   0.992
 7648SOL    HW223844   1.781   1.948   1.079
 7649SOL     OW23845   4.185   0.581   0.298
 7649SOL    HW123846   4.210   0.630   0.214
 7649SOL    HW223847   4.152   0.646   0.367
 7650SOL     OW23848   3.401   2.399   0.429
 7650SOL    HW123849   3.432   2.475   0.371
 7650SOL    HW223850   3.374   2.322   0.371
 7651SOL     OW23851   3.590   5.525   6.442
 7651SOL    HW123852   3.595   5.625   6.443
 7651SOL    HW223853   3.494   5.497   6.442
 7652SOL     OW23854   0.200   0.733   5.304
 7652SOL    HW123855   0.225   0.823   5.267
 7652SOL    HW223856   0.100   0.725   5.306
 7653SOL     OW23857   2.116   6.579   6.877
 7653SOL    HW123858   2.064   6.500   6.845
 7653SOL    HW223859   2.189   6.548   6.938
 7654SOL     OW23860   6.875   2.382   5.628
 7654SOL    HW123861   6.839   2.460   5.577
 7654SOL    HW223862   6.953   2.411   5.683
 7655SOL     OW23863   3.694   1.620   4.973
 7655SOL    HW123864   3.703   1.717   4.994
 7655SOL    HW223865   3.770   1.570   5.014
 7656SOL     OW23866   5.958   3.982   6.601
 7656SOL    HW123867   5.932   4.078   6.609
 7656SOL    HW223868   6.003   3.953   6.686
 7657SOL     OW23869   1.009   3.806   4.754
 7657SOL    HW123870   1.071   3.737   4.717
 7657SOL    HW223871   1.037   3.829   4.847
 7658SOL     OW23872   2.622   0.762   1.635
 7658SOL    HW123873   2.537   0.763   1.583
 7658SOL    HW223874   2.602   0.774   1.733
 7659SOL     OW23875   5.204   5.038   6.033
 7659SOL    HW123876   5.212   5.120   5.977
 7659SOL    HW223877   5.279   5.035   6.099
 7660SOL     OW23878   6.681   6.297   5.414
 7660SOL    HW123879   6.670   6.377   5.473
 7660SOL    HW223880   6.671   6.214   5.469
 7661SOL     OW23881   2.654   0.850   5.421
 7661SOL    HW123882   2.663   0.773   5.359
 7661SOL    HW223883   2.685   0.824   5.513
 7662SOL     OW23884   0.155   6.040   1.249
 7662SOL    HW123885   0.121   6.133   1.266
 7662SOL    HW223886   0.082   5.984   1.209
 7663SOL     OW23887   1.021   5.857   4.483
 7663SOL    HW123888   0.922   5.861   4.471
 7663SOL    HW223889   1.043   5.790   4.554
 7664SOL     OW23890   5.203   2.284   2.441
 7664SOL    HW123891   5.132   2.237   2.388
 7664SOL    HW223892   5.181   2.278   2.539
 7665SOL     OW23893   3.181   0.854   5.773
 7665SOL    HW123894   3.246   0.798   5.721
 7665SOL    HW223895   3.109   0.796   5.809
 7666SOL     OW23896   5.922   5.477   4.093
 7666SOL    HW123897   6.003   5.436   4.053
 7666SOL    HW223898   5.927   5.471   4.193
 7667SOL     OW23899   4.198   5.515   1.922
 7667SOL    HW123900   4.143   5.525   2.006
 7667SOL    HW223901   4.208   5.604   1.878
 7668SOL     OW23902   1.700   5.541   0.175
 7668SOL    HW123903   1.797   5.550   0.157
 7668SOL    HW223904   1.650   5.616   0.130
 7669SOL     OW23905   2.671   1.652   6.749
 7669SOL    HW123906   2.627   1.685   6.665
 7669SOL    HW223907   2.651   1.555   6.761
 7670SOL     OW23908   1.038   0.417   0.751
 7670SOL    HW123909   0.981   0.407   0.832
 7670SOL    HW223910   1.120   0.361   0.761
 7671SOL     OW23911   3.156   0.147   1.632
 7671SOL    HW123912   3.119   0.068   1.583
 7671SOL    HW223913   3.252   0.160   1.606
 7672SOL     OW23914   5.571   3.343   2.117
 7672SOL    HW123915   5.603   3.249   2.132
 7672SOL    HW223916   5.480   3.354   2.156
 7673SOL     OW23917   2.131   6.619   4.791
 7673SOL    HW123918   2.065   6.545   4.805
 7673SOL    HW223919   2.083   6.704   4.774
 7674SOL     OW23920   3.536   5.663   3.958
 7674SOL    HW123921   3.567   5.570   3.939
 7674SOL    HW223922   3.448   5.678   3.913
 7675SOL     OW23923   3.965   6.381   3.012
 7675SOL    HW123924   4.013   6.460   3.051
 7675SOL    HW223925   3.881   6.364   3.063
 7676SOL     OW23926   2.923   3.134   5.161
 7676SOL    HW123927   2.913   3.170   5.068
 7676SOL    HW223928   2.833   3.130   5.205
 7677SOL     OW23929   0.126   5.646   6.887
 7677SOL    HW123930   0.041   5.642   6.941
 7677SOL    HW223931   0.146   5.555   6.851
 7678SOL     OW23932   3.870   1.194   6.126
 7678SOL    HW123933   3.877   1.187   6.026
 7678SOL    HW223934   3.776   1.171   6.154
 7679SOL     OW23935   2.742   4.733   4.226
 7679SOL    HW123936   2.766   4.821   4.186
 7679SOL    HW223937   2.754   4.738   4.326
 7680SOL     OW23938   1.884   6.902   4.477
 7680SOL    HW123939   1.928   6.828   4.427
 7680SOL    HW223940   1.802   6.932   4.429
 7681SOL     OW23941   1.898   2.185   5.751
 7681SOL    HW123942   1.805   2.152   5.766
 7681SOL    HW223943   1.953   2.113   5.708
 7682SOL     OW23944   2.975   0.559   2.063
 7682SOL    HW123945   2.969   0.462   2.039
 7682SOL    HW223946   3.060   0.576   2.112
 7683SOL     OW23947   0.250   4.482   4.553
 7683SOL    HW123948   0.272   4.452   4.645
 7683SOL    HW223949   0.199   4.568   4.556
 7684SOL     OW23950   4.864   3.489   1.864
 7684SOL    HW123951   4.785   3.474   1.805
 7684SOL    HW223952   4.933   3.418   1.847
 7685SOL     OW23953   2.586   0.384   6.888
 7685SOL    HW123954   2.646   0.340   6.956
 7685SOL    HW223955   2.622   0.366   6.796
 7686SOL     OW23956   6.948   0.296   3.626
 7686SOL    HW123957   6.952   0.368   3.695
 7686SOL    HW223958   0.020   0.287   3.583
 7687SOL     OW23959   5.395   3.341   5.881
 7687SOL    HW123960   5.330   3.399   5.930
 7687SOL    HW223961   5.468   3.397   5.841
 7688SOL     OW23962   6.251   3.127   7.016
 7688SOL    HW123963   6.162   3.100   0.034
 7688SOL    HW223964   6.299   3.184   0.065
 7689SOL     OW23965   5.811   0.226   2.415
 7689SOL    HW123966   5.734   0.261   2.362
 7689SOL    HW223967   5.892   0.283   2.398
 7690SOL     OW23968   5.750   4.409   2.202
 7690SOL    HW123969   5.789   4.397   2.110
 7690SOL    HW223970   5.752   4.506   2.226
 7691SOL     OW23971   5.696   2.730   3.700
 7691SOL    HW123972   5.707   2.631   3.688
 7691SOL    HW223973   5.621   2.762   3.643
 7692SOL     OW23974   2.249   6.943   2.194
 7692SOL    HW123975   2.311   7.007   2.239
 7692SOL    HW223976   2.269   6.940   2.096
 7693SOL     OW23977   2.811   1.795   1.092
 7693SOL    HW123978   2.724   1.832   1.125
 7693SOL    HW223979   2.886   1.854   1.122
 7694SOL     OW23980   4.295   2.557   0.901
 7694SOL    HW123981   4.201   2.586   0.922
 7694SOL    HW223982   4.307   2.554   0.802
 7695SOL     OW23983   5.171   6.668   3.675
 7695SOL    HW123984   5.208   6.593   3.620
 7695SOL    HW223985   5.220   6.753   3.654
 7696SOL     OW23986   3.246   1.871   5.392
 7696SOL    HW123987   3.344   1.853   5.392
 7696SOL    HW223988   3.228   1.960   5.348
 7697SOL     OW23989   5.832   6.482   2.786
 7697SOL    HW123990   5.931   6.469   2.794
 7697SOL    HW223991   5.786   6.420   2.849
 7698SOL     OW23992   6.349   2.831   1.154
 7698SOL    HW123993   6.260   2.786   1.148
 7698SOL    HW223994   6.350   2.911   1.095
 7699SOL     OW23995   3.694   6.415   6.300
 7699SOL    HW123996   3.767   6.480   6.320
 7699SOL    HW223997   3.733   6.330   6.265
 7700SOL     OW23998   6.466   5.313   2.165
 7700SOL    HW123999   6.508   5.320   2.074
 7700SOL    HW224000   6.408   5.232   2.168
 7701SOL     OW24001   3.002   1.540   6.504
 7701SOL    HW124002   2.970   1.599   6.577
 7701SOL    HW224003   2.974   1.577   6.416
 7702SOL     OW24004   5.943   6.290   5.534
 7702SOL    HW124005   5.935   6.193   5.558
 7702SOL    HW224006   5.922   6.346   5.614
 7703SOL     OW24007   6.912   6.519   5.986
 7703SOL    HW124008   6.931   6.517   5.888
 7703SOL    HW224009   6.998   6.506   6.037
 7704SOL     OW24010   1.699   1.888   4.916
 7704SOL    HW124011   1.617   1.944   4.904
 7704SOL    HW224012   1.672   1.799   4.953
 7705SOL     OW24013   0.759   4.467   0.351
 7705SOL    HW124014   0.847   4.513   0.358
 7705SOL    HW224015   0.737   4.421   0.437
 7706SOL     OW24016   3.320   3.508   2.661
 7706SOL    HW124017   3.236   3.455   2.668
 7706SOL    HW224018   3.379   3.468   2.591
 7707SOL     OW24019   0.062   4.674   6.377
 7707SOL    HW124020   0.148   4.723   6.359
 7707SOL    HW224021   0.013   4.720   6.451
 7708SOL     OW24022   0.667   0.125   4.352
 7708SOL    HW124023   0.593   0.182   4.390
 7708SOL    HW224024   0.755   0.169   4.370
 7709SOL     OW24025   6.375   4.572   0.970
 7709SOL    HW124026   6.431   4.647   1.007
 7709SOL    HW224027   6.339   4.600   0.881
 7710SOL     OW24028   6.309   3.082   2.569
 7710SOL    HW124029   6.366   3.000   2.577
 7710SOL    HW224030   6.218   3.056   2.536
 7711SOL     OW24031   0.915   4.065   3.483
 7711SOL    HW124032   0.869   4.107   3.562
 7711SOL    HW224033   0.978   3.994   3.515
 7712SOL     OW24034   1.409   4.718   4.410
 7712SOL    HW124035   1.351   4.756   4.483
 7712SOL    HW224036   1.393   4.620   4.403
 7713SOL     OW24037   0.905   5.355   0.776
 7713SOL    HW124038   0.982   5.315   0.827
 7713SOL    HW224039   0.837   5.388   0.841
 7714SOL     OW24040   6.036   1.548   5.095
 7714SOL    HW124041   6.009   1.487   5.169
 7714SOL    HW224042   6.087   1.626   5.133
 7715SOL     OW24043   3.812   3.654   6.998
 7715SOL    HW124044   3.842   3.643   6.903
 7715SOL    HW224045   3.833   3.571   0.031
 7716SOL     OW24046   1.293   0.824   6.849
 7716SOL    HW124047   1.201   0.793   6.872
 7716SOL    HW224048   1.358   0.792   6.917
 7717SOL     OW24049   0.910   1.567   6.003
 7717SOL    HW124050   0.915   1.619   5.918
 7717SOL    HW224051   0.850   1.488   5.990
 7718SOL     OW24052   0.609   3.300   3.106
 7718SOL    HW124053   0.684   3.234   3.110
 7718SOL    HW224054   0.530   3.257   3.062
 7719SOL     OW24055   1.953   6.047   4.970
 7719SOL    HW124056   1.897   5.994   4.906
 7719SOL    HW224057   1.957   6.000   5.058
 7720SOL     OW24058   4.560   1.509   6.766
 7720SOL    HW124059   4.527   1.596   6.731
 7720SOL    HW224060   4.625   1.469   6.701
 7721SOL     OW24061   5.954   6.030   2.340
 7721SOL    HW124062   5.866   6.039   2.386
 7721SOL    HW224063   5.975   6.114   2.291
 7722SOL     OW24064   0.481   5.881   4.274
 7722SOL    HW124065   0.439   5.806   4.223
 7722SOL    HW224066   0.496   5.959   4.213
 7723SOL     OW24067   3.962   4.522   6.778
 7723SOL    HW124068   3.938   4.618   6.792
 7723SOL    HW224069   4.052   4.503   6.818
 7724SOL     OW24070   1.244   4.045   0.111
 7724SOL    HW124071   1.243   3.978   0.185
 7724SOL    HW224072   1.178   4.118   0.130
 7725SOL     OW24073   5.319   3.301   4.977
 7725SOL    HW124074   5.242   3.312   4.914
 7725SOL    HW224075   5.405   3.301   4.925
 7726SOL     OW24076   2.023   3.090   0.080
 7726SOL    HW124077   2.025   3.131   0.171
 7726SOL    HW224078   2.019   2.990   0.089
 7727SOL     OW24079   5.542   0.525   2.474
 7727SOL    HW124080   5.494   0.597   2.525
 7727SOL    HW224081   5.612   0.484   2.532
 7728SOL     OW24082   2.153   3.272   5.096
 7728SOL    HW124083   2.180   3.332   5.021
 7728SOL    HW224084   2.230   3.261   5.159
 7729SOL     OW24085   6.838   1.158   2.732
 7729SOL    HW124086   6.875   1.115   2.814
 7729SOL    HW224087   6.854   1.257   2.736
 7730SOL     OW24088   5.729   4.360   5.998
 7730SOL    HW124089   5.765   4.326   6.085
 7730SOL    HW224090   5.767   4.451   5.980
 7731SOL     OW24091   6.981   0.447   6.108
 7731SOL    HW124092   6.993   0.389   6.189
 7731SOL    HW224093   7.015   0.399   6.027
 7732SOL     OW24094   4.280   0.923   0.187
 7732SOL    HW124095   4.361   0.903   0.132
 7732SOL    HW224096   4.198   0.890   0.140
 7733SOL     OW24097   6.298   5.840   1.153
 7733SOL    HW124098   6.323   5.793   1.068
 7733SOL    HW224099   6.285   5.938   1.133
 7734SOL     OW24100   3.936   3.714   3.298
 7734SOL    HW124101   3.972   3.759   3.217
 7734SOL    HW224102   3.966   3.618   3.299
 7735SOL     OW24103   1.418   5.639   0.836
 7735SOL    HW124104   1.337   5.669   0.786
 7735SOL    HW224105   1.496   5.695   0.810
 7736SOL     OW24106   1.595   1.580   0.936
 7736SOL    HW124107   1.502   1.566   0.900
 7736SOL    HW224108   1.619   1.676   0.928
 7737SOL     OW24109   4.605   4.430   6.546
 7737SOL    HW124110   4.659   4.403   6.626
 7737SOL    HW224111   4.647   4.511   6.504
 7738SOL     OW24112   1.527   1.425   5.420
 7738SOL    HW124113   1.456   1.368   5.460
 7738SOL    HW224114   1.604   1.434   5.484
 7739SOL     OW24115   1.001   2.869   0.231
 7739SOL    HW124116   0.987   2.891   0.135
 7739SOL    HW224117   0.999   2.770   0.244
 7740SOL     OW24118   2.198   1.006   4.206
 7740SOL    HW124119   2.166   0.944   4.278
 7740SOL    HW224120   2.147   1.092   4.211
 7741SOL     OW24121   6.924   4.001   5.828
 7741SOL    HW124122   6.831   3.996   5.863
 7741SOL    HW224123   6.947   4.097   5.810
 7742SOL     OW24124   4.276   2.055   3.736
 7742SOL    HW124125   4.243   1.960   3.742
 7742SOL    HW224126   4.198   2.116   3.718
 7743SOL     OW24127   3.272   1.130   6.741
 7743SOL    HW124128   3.272   1.230   6.739
 7743SOL    HW224129   3.178   1.097   6.755
 7744SOL     OW24130   0.343   6.674   4.894
 7744SOL    HW124131   0.285   6.637   4.821
 7744SOL    HW224132   0.336   6.617   4.975
 7745SOL     OW24133   2.800   0.131   0.793
 7745SOL    HW124134   2.817   0.172   0.704
 7745SOL    HW224135   2.767   0.038   0.782
 7746SOL     OW24136   0.137   6.778   0.848
 7746SOL    HW124137   0.128   6.777   0.947
 7746SOL    HW224138   0.179   6.692   0.817
 7747SOL     OW24139   0.437   6.064   1.521
 7747SOL    HW124140   0.340   6.053   1.544
 7747SOL    HW224141   0.455   6.024   1.431
 7748SOL     OW24142   4.185   0.868   6.213
 7748SOL    HW124143   4.240   0.880   6.296
 7748SOL    HW224144   4.104   0.926   6.218
 7749SOL     OW24145   3.389   3.761   2.765
 7749SOL    HW124146   3.416   3.747   2.861
 7749SOL    HW224147   3.327   3.688   2.737
 7750SOL     OW24148   5.390   4.974   6.249
 7750SOL    HW124149   5.438   4.912   6.311
 7750SOL    HW224150   5.299   4.993   6.285
 7751SOL     OW24151   0.169   0.989   4.860
 7751SOL    HW124152   0.266   0.990   4.835
 7751SOL    HW224153   0.142   0.898   4.889
 7752SOL     OW24154   6.480   4.316   5.301
 7752SOL    HW124155   6.503   4.297   5.205
 7752SOL    HW224156   6.410   4.387   5.305
 7753SOL     OW24157   3.133   0.691   4.526
 7753SOL    HW124158   3.079   0.699   4.442
 7753SOL    HW224159   3.075   0.657   4.600
 7754SOL     OW24160   6.407   0.916   1.377
 7754SOL    HW124161   6.322   0.892   1.331
 7754SOL    HW224162   6.445   0.999   1.335
 7755SOL     OW24163   1.475   5.955   5.055
 7755SOL    HW124164   1.523   6.042   5.067
 7755SOL    HW224165   1.505   5.890   5.125
 7756SOL     OW24166   4.060   5.998   3.105
 7756SOL    HW124167   4.040   6.015   3.008
 7756SOL    HW224168   4.128   5.924   3.111
 7757SOL     OW24169   3.376   0.332   5.835
 7757SOL    HW124170   3.430   0.252   5.860
 7757SOL    HW224171   3.366   0.335   5.735
 7758SOL     OW24172   2.293   2.403   6.256
 7758SOL    HW124173   2.389   2.378   6.241
 7758SOL    HW224174   2.289   2.492   6.301
 7759SOL     OW24175   1.666   0.697   4.480
 7759SOL    HW124176   1.675   0.621   4.543
 7759SOL    HW224177   1.574   0.698   4.440
 7760SOL     OW24178   5.464   1.747   3.015
 7760SOL    HW124179   5.479   1.761   2.917
 7760SOL    HW224180   5.379   1.695   3.029
 7761SOL     OW24181   4.445   1.264   6.890
 7761SOL    HW124182   4.483   1.252   6.982
 7761SOL    HW224183   4.483   1.346   6.848
 7762SOL     OW24184   1.092   2.554   0.538
 7762SOL    HW124185   1.166   2.620   0.527
 7762SOL    HW224186   1.034   2.554   0.456
 7763SOL     OW24187   2.349   2.501   1.188
 7763SOL    HW124188   2.398   2.502   1.275
 7763SOL    HW224189   2.359   2.411   1.146
 7764SOL     OW24190   3.185   3.320   1.903
 7764SOL    HW124191   3.229   3.273   1.980
 7764SOL    HW224192   3.100   3.362   1.933
 7765SOL     OW24193   6.728   1.584   1.809
 7765SOL    HW124194   6.737   1.684   1.805
 7765SOL    HW224195   6.678   1.552   1.729
 7766SOL     OW24196   6.742   2.701   6.711
 7766SOL    HW124197   6.663   2.732   6.764
 7766SOL    HW224198   6.728   2.606   6.683
 7767SOL     OW24199   5.725   3.847   5.116
 7767SOL    HW124200   5.721   3.890   5.206
 7767SOL    HW224201   5.759   3.913   5.049
 7768SOL     OW24202   3.545   5.226   1.666
 7768SOL    HW124203   3.630   5.274   1.688
 7768SOL    HW224204   3.565   5.129   1.649
 7769SOL     OW24205   5.831   2.412   2.758
 7769SOL    HW124206   5.760   2.473   2.794
 7769SOL    HW224207   5.800   2.371   2.672
 7770SOL     OW24208   3.478   6.041   0.905
 7770SOL    HW124209   3.495   6.080   0.815
 7770SOL    HW224210   3.525   5.952   0.912
 7771SOL     OW24211   1.525   1.270   4.419
 7771SOL    HW124212   1.561   1.360   4.394
 7771SOL    HW224213   1.447   1.247   4.361
 7772SOL     OW24214   5.552   0.836   5.403
 7772SOL    HW124215   5.600   0.768   5.457
 7772SOL    HW224216   5.613   0.874   5.334
 7773SOL     OW24217   3.807   4.369   6.309
 7773SOL    HW124218   3.743   4.445   6.323
 7773SOL    HW224219   3.894   4.405   6.274
 7774SOL     OW24220   5.356   2.010   6.294
 7774SOL    HW124221   5.290   2.050   6.230
 7774SOL    HW224222   5.314   1.934   6.342
 7775SOL     OW24223   1.461   6.994   2.031
 7775SOL    HW124224   1.378   6.991   1.975
 7775SOL    HW224225   1.503   0.067   2.024
 7776SOL     OW24226   3.421   4.111   0.883
 7776SOL    HW124227   3.446   4.200   0.844
 7776SOL    HW224228   3.442   4.111   0.981
 7777SOL     OW24229   0.932   0.533   6.361
 7777SOL    HW124230   0.877   0.577   6.432
 7777SOL    HW224231   0.987   0.601   6.313
 7778SOL     OW24232   4.342   1.701   1.946
 7778SOL    HW124233   4.410   1.681   1.875
 7778SOL    HW224234   4.350   1.796   1.974
 7779SOL     OW24235   3.940   2.967   0.353
 7779SOL    HW124236   4.038   2.985   0.351
 7779SOL    HW224237   3.915   2.926   0.441
 7780SOL     OW24238   1.009   0.272   4.680
 7780SOL    HW124239   1.020   0.198   4.746
 7780SOL    HW224240   1.096   0.321   4.670
 7781SOL     OW24241   1.777   3.945   5.363
 7781SOL    HW124242   1.749   4.035   5.329
 7781SOL    HW224243   1.871   3.949   5.396
 7782SOL     OW24244   4.509   4.415   0.136
 7782SOL    HW124245   4.471   4.506   0.122
 7782SOL    HW224246   4.478   4.379   0.225
 7783SOL     OW24247   2.971   6.303   0.318
 7783SOL    HW124248   2.907   6.233   0.350
 7783SOL    HW224249   2.921   6.376   0.272
 7784SOL     OW24250   6.474   3.850   0.415
 7784SOL    HW124251   6.457   3.791   0.493
 7784SOL    HW224252   6.395   3.849   0.354
 7785SOL     OW24253   1.660   5.776   6.250
 7785SOL    HW124254   1.582   5.722   6.283
 7785SOL    HW224255   1.744   5.743   6.293
 7786SOL     OW24256   3.501   4.155   5.282
 7786SOL    HW124257   3.572   4.157   5.211
 7786SOL    HW224258   3.543   4.163   5.372
 7787SOL     OW24259   3.108   2.289   5.437
 7787SOL    HW124260   3.116   2.319   5.342
 7787SOL    HW224261   3.061   2.201   5.441
 7788SOL     OW24262   6.845   2.059   1.013
 7788SOL    HW124263   6.941   2.038   1.030
 7788SOL    HW224264   6.788   2.005   1.075
 7789SOL     OW24265   1.625   0.257   1.873
 7789SOL    HW124266   1.662   0.222   1.959
 7789SOL    HW224267   1.661   0.350   1.857
 7790SOL     OW24268   6.752   3.511   2.421
 7790SOL    HW124269   6.672   3.566   2.446
 7790SOL    HW224270   6.831   3.571   2.408
 7791SOL     OW24271   0.096   5.160   5.785
 7791SOL    HW124272   0.000   5.130   5.787
 7791SOL    HW224273   0.101   5.255   5.817
 7792SOL     OW24274   1.854   5.680   6.394
 7792SOL    HW124275   1.868   5.696   6.492
 7792SOL    HW224276   1.916   5.609   6.362
 7793SOL     OW24277   2.466   0.735   6.150
 7793SOL    HW124278   2.512   0.742   6.062
 7793SOL    HW224279   2.430   0.825   6.177
 7794SOL     OW24280   5.552   5.345   2.773
 7794SOL    HW124281   5.490   5.268   2.757
 7794SOL    HW224282   5.643   5.323   2.739
 7795SOL     OW24283   1.072   4.039   6.554
 7795SOL    HW124284   1.022   4.108   6.607
 7795SOL    HW224285   1.122   4.083   6.480
 7796SOL     OW24286   4.082   3.742   4.606
 7796SOL    HW124287   4.172   3.704   4.628
 7796SOL    HW224288   4.041   3.781   4.689
 7797SOL     OW24289   1.263   6.947   3.553
 7797SOL    HW124290   1.321   6.881   3.505
 7797SOL    HW224291   1.194   6.982   3.491
 7798SOL     OW24292   4.092   5.835   6.319
 7798SOL    HW124293   4.028   5.790   6.256
 7798SOL    HW224294   4.139   5.766   6.373
 7799SOL     OW24295   6.313   6.148   1.849
 7799SOL    HW124296   6.250   6.077   1.817
 7799SOL    HW224297   6.346   6.201   1.771
 7800SOL     OW24298   0.875   6.123   2.103
 7800SOL    HW124299   0.872   6.183   2.023
 7800SOL    HW224300   0.784   6.087   2.121
 7801SOL     OW24301   4.318   2.030   5.190
 7801SOL    HW124302   4.264   1.953   5.155
 7801SOL    HW224303   4.405   1.996   5.226
 7802SOL     OW24304   5.829   2.446   6.952
 7802SOL    HW124305   5.739   2.487   6.934
 7802SOL    HW224306   5.898   2.517   6.957
 7803SOL     OW24307   3.379   3.581   5.673
 7803SOL    HW124308   3.410   3.531   5.592
 7803SOL    HW224309   3.297   3.634   5.650
 7804SOL     OW24310   5.311   0.675   6.520
 7804SOL    HW124311   5.287   0.767   6.552
 7804SOL    HW224312   5.240   0.611   6.547
 7805SOL     OW24313   5.284   3.189   1.675
 7805SOL    HW124314   5.184   3.186   1.676
 7805SOL    HW224315   5.320   3.098   1.654
 7806SOL     OW24316   4.873   3.607   0.083
 7806SOL    HW124317   4.831   3.593   0.172
 7806SOL    HW224318   4.894   3.518   0.042
 7807SOL     OW24319   0.792   3.530   0.091
 7807SOL    HW124320   0.788   3.438   0.052
 7807SOL    HW224321   0.749   3.595   0.029
 7808SOL     OW24322   0.337   0.755   5.550
 7808SOL    HW124323   0.309   0.842   5.589
 7808SOL    HW224324   0.303   0.746   5.457
 7809SOL     OW24325   1.430   5.621   5.650
 7809SOL    HW124326   1.405   5.554   5.581
 7809SOL    HW224327   1.406   5.587   5.741
 7810SOL     OW24328   2.798   1.429   0.007
 7810SOL    HW124329   2.896   1.425   0.026
 7810SOL    HW224330   2.760   1.512   0.049
 7811SOL     OW24331   6.743   4.480   5.091
 7811SOL    HW124332   6.657   4.524   5.065
 7811SOL    HW224333   6.816   4.549   5.096
 7812SOL     OW24334   0.291   1.777   3.345
 7812SOL    HW124335   0.327   1.842   3.277
 7812SOL    HW224336   0.193   1.792   3.358
 7813SOL     OW24337   6.185   2.309   0.865
 7813SOL    HW124338   6.144   2.387   0.912
 7813SOL    HW224339   6.263   2.275   0.917
 7814SOL     OW24340   2.020   2.798   5.126
 7814SOL    HW124341   1.925   2.828   5.133
 7814SOL    HW224342   2.081   2.874   5.150
 7815SOL     OW24343   6.850   1.954   5.359
 7815SOL    HW124344   6.938   1.928   5.399
 7815SOL    HW224345   6.820   2.041   5.397
 7816SOL     OW24346   0.630   4.640   4.791
 7816SOL    HW124347   0.654   4.732   4.820
 7816SOL    HW224348   0.597   4.588   4.869
 7817SOL     OW24349   5.389   3.062   5.780
 7817SOL    HW124350   5.415   3.154   5.810
 7817SOL    HW224351   5.420   3.049   5.686
 7818SOL     OW24352   5.474   3.757   3.516
 7818SOL    HW124353   5.378   3.742   3.492
 7818SOL    HW224354   5.526   3.674   3.499
 7819SOL     OW24355   0.701   1.502   1.183
 7819SOL    HW124356   0.713   1.577   1.118
 7819SOL    HW224357   0.725   1.415   1.138
 7820SOL     OW24358   2.960   0.050   6.348
 7820SOL    HW124359   2.947   0.038   6.447
 7820SOL    HW224360   3.057   0.044   6.326
 7821SOL     OW24361   2.969   5.386   1.141
 7821SOL    HW124362   2.872   5.363   1.155
 7821SOL    HW224363   2.977   5.449   1.064
 7822SOL     OW24364   1.701   6.231   5.756
 7822SOL    HW124365   1.703   6.259   5.853
 7822SOL    HW224366   1.789   6.254   5.714
 7823SOL     OW24367   2.169   3.419   5.474
 7823SOL    HW124368   2.157   3.517   5.486
 7823SOL    HW224369   2.107   3.370   5.536
 7824SOL     OW24370   0.846   2.998   5.246
 7824SOL    HW124371   0.860   3.030   5.152
 7824SOL    HW224372   0.863   2.900   5.250
 7825SOL     OW24373   2.806   0.727   6.974
 7825SOL    HW124374   2.732   0.701   6.912
 7825SOL    HW224375   2.890   0.680   6.948
 7826SOL     OW24376   0.753   3.788   5.908
 7826SOL    HW124377   0.672   3.731   5.895
 7826SOL    HW224378   0.756   3.819   6.003
 7827SOL     OW24379   5.897   4.902   4.200
 7827SOL    HW124380   5.911   4.989   4.246
 7827SOL    HW224381   5.972   4.886   4.136
 7828SOL     OW24382   1.102   5.460   5.961
 7828SOL    HW124383   1.088   5.473   6.060
 7828SOL    HW224384   1.024   5.499   5.912
 7829SOL     OW24385   4.237   5.045   0.646
 7829SOL    HW124386   4.304   4.984   0.603
 7829SOL    HW224387   4.150   4.997   0.655
 7830SOL     OW24388   2.436   5.088   3.737
 7830SOL    HW124389   2.354   5.140   3.763
 7830SOL    HW224390   2.428   4.994   3.769
 7831SOL     OW24391   1.799   0.302   6.197
 7831SOL    HW124392   1.891   0.297   6.237
 7831SOL    HW224393   1.786   0.391   6.154
 7832SOL     OW24394   6.591   1.370   5.659
 7832SOL    HW124395   6.625   1.279   5.632
 7832SOL    HW224396   6.492   1.367   5.664
 7833SOL     OW24397   0.969   0.366   3.080
 7833SOL    HW124398   0.899   0.426   3.042
 7833SOL    HW224399   0.972   0.378   3.179
 7834SOL     OW24400   6.593   3.604   4.828
 7834SOL    HW124401   6.540   3.570   4.906
 7834SOL    HW224402   6.547   3.684   4.789
 7835SOL     OW24403   3.757   2.045   5.530
 7835SOL    HW124404   3.725   2.098   5.451
 7835SOL    HW224405   3.732   2.092   5.614
 7836SOL     OW24406   3.038   4.014   4.978
 7836SOL    HW124407   3.013   4.060   4.893
 7836SOL    HW224408   3.137   3.998   4.979
 7837SOL     OW24409   1.127   5.360   6.513
 7837SOL    HW124410   1.063   5.423   6.556
 7837SOL    HW224411   1.097   5.266   6.527
 7838SOL     OW24412   4.101   5.104   1.732
 7838SOL    HW124413   4.188   5.089   1.780
 7838SOL    HW224414   4.102   5.053   1.646
 7839SOL     OW24415   6.175   4.094   4.599
 7839SOL    HW124416   6.154   4.191   4.594
 7839SOL    HW224417   6.099   4.041   4.563
 7840SOL     OW24418   1.963   2.683   3.761
 7840SOL    HW124419   2.061   2.706   3.756
 7840SOL    HW224420   1.945   2.604   3.703
 7841SOL     OW24421   4.409   1.704   5.743
 7841SOL    HW124422   4.381   1.620   5.698
 7841SOL    HW224423   4.350   1.721   5.822
 7842SOL     OW24424   1.131   0.672   1.076
 7842SOL    HW124425   1.158   0.746   1.015
 7842SOL    HW224426   1.068   0.706   1.145
 7843SOL     OW24427   6.850   6.538   2.043
 7843SOL    HW124428   6.919   6.603   2.077
 7843SOL    HW224429   6.767   6.588   2.019
 7844SOL     OW24430   4.176   0.130   2.407
 7844SOL    HW124431   4.224   0.042   2.401
 7844SOL    HW224432   4.079   0.114   2.424
 7845SOL     OW24433   6.105   2.935   1.486
 7845SOL    HW124434   6.195   2.903   1.454
 7845SOL    HW224435   6.075   3.011   1.428
 7846SOL     OW24436   0.791   1.611   0.750
 7846SOL    HW124437   0.720   1.656   0.696
 7846SOL    HW224438   0.782   1.512   0.740
 7847SOL     OW24439   5.405   4.474   6.034
 7847SOL    HW124440   5.403   4.374   6.036
 7847SOL    HW224441   5.318   4.508   5.999
 7848SOL     OW24442   4.179   4.846   0.249
 7848SOL    HW124443   4.177   4.936   0.293
 7848SOL    HW224444   4.228   4.782   0.308
 7849SOL     OW24445   4.465   5.258   6.775
 7849SOL    HW124446   4.504   5.166   6.781
 7849SOL    HW224447   4.366   5.253   6.783
 7850SOL     OW24448   0.320   0.592   3.227
 7850SOL    HW124449   0.241   0.531   3.238
 7850SOL    HW224450   0.317   0.662   3.298
 7851SOL     OW24451   0.747   4.978   0.643
 7851SOL    HW124452   0.722   4.961   0.738
 7851SOL    HW224453   0.675   4.943   0.583
 7852SOL     OW24454   1.244   3.514   6.011
 7852SOL    HW124455   1.205   3.548   5.926
 7852SOL    HW224456   1.337   3.480   5.994
 7853SOL     OW24457   4.170   3.009   1.667
 7853SOL    HW124458   4.269   3.007   1.681
 7853SOL    HW224459   4.144   3.093   1.620
 7854SOL     OW24460   3.885   0.834   1.318
 7854SOL    HW124461   3.956   0.848   1.388
 7854SOL    HW224462   3.837   0.748   1.337
 7855SOL     OW24463   5.319   6.507   3.956
 7855SOL    HW124464   5.220   6.521   3.950
 7855SOL    HW224465   5.356   6.491   3.865
 7856SOL     OW24466   2.056   6.422   5.813
 7856SOL    HW124467   2.153   6.411   5.834
 7856SOL    HW224468   2.029   6.354   5.745
 7857SOL     OW24469   6.577   5.065   0.346
 7857SOL    HW124470   6.627   5.148   0.323
 7857SOL    HW224471   6.507   5.087   0.415
 7858SOL     OW24472   0.430   3.611   6.109
 7858SOL    HW124473   0.475   3.522   6.099
 7858SOL    HW224474   0.468   3.675   6.042
 7859SOL     OW24475   4.861   2.002   0.758
 7859SOL    HW124476   4.913   2.053   0.826
 7859SOL    HW224477   4.884   1.905   0.764
 7860SOL     OW24478   2.091   1.724   3.395
 7860SOL    HW124479   2.173   1.695   3.345
 7860SOL    HW224480   2.114   1.740   3.491
 7861SOL     OW24481   1.804   5.778   1.037
 7861SOL    HW124482   1.862   5.701   1.063
 7861SOL    HW224483   1.861   5.852   1.001
 7862SOL     OW24484   1.488   6.998   6.801
 7862SOL    HW124485   1.544   6.917   6.786
 7862SOL    HW224486   1.442   6.991   6.889
 7863SOL     OW24487   0.816   3.863   3.797
 7863SOL    HW124488   0.905   3.823   3.821
 7863SOL    HW224489   0.758   3.792   3.757
 7864SOL     OW24490   3.166   5.532   5.217
 7864SOL    HW124491   3.234   5.495   5.280
 7864SOL    HW224492   3.095   5.580   5.269
 7865SOL     OW24493   6.066   4.869   3.973
 7865SOL    HW124494   6.145   4.830   3.928
 7865SOL    HW224495   5.985   4.813   3.953
 7866SOL     OW24496   1.392   1.203   5.515
 7866SOL    HW124497   1.424   1.135   5.450
 7866SOL    HW224498   1.457   1.212   5.590
 7867SOL     OW24499   3.776   5.141   3.641
 7867SOL    HW124500   3.720   5.188   3.573
 7867SOL    HW224501   3.872   5.149   3.616
 7868SOL     OW24502   3.551   6.259   1.461
 7868SOL    HW124503   3.541   6.274   1.363
 7868SOL    HW224504   3.484   6.315   1.510
 7869SOL     OW24505   5.497   4.622   7.004
 7869SOL    HW124506   5.482   4.525   6.987
 7869SOL    HW224507   5.576   4.653   6.950
 7870SOL     OW24508   6.756   6.947   3.842
 7870SOL    HW124509   6.809   6.888   3.903
 7870SOL    HW224510   6.770   6.917   3.747
 7871SOL     OW24511   4.729   1.275   0.587
 7871SOL    HW124512   4.668   1.354   0.583
 7871SOL    HW224513   4.797   1.289   0.659
 7872SOL     OW24514   6.824   4.417   3.619
 7872SOL    HW124515   6.785   4.425   3.527
 7872SOL    HW224516   6.919   4.449   3.617
 7873SOL     OW24517   4.532   2.579   6.544
 7873SOL    HW124518   4.446   2.535   6.519
 7873SOL    HW224519   4.593   2.512   6.587
 7874SOL     OW24520   6.483   2.803   6.805
 7874SOL    HW124521   6.499   2.842   6.896
 7874SOL    HW224522   6.468   2.877   6.739
 7875SOL     OW24523   6.807   4.464   6.837
 7875SOL    HW124524   6.757   4.528   6.779
 7875SOL    HW224525   6.761   4.456   6.925
 7876SOL     OW24526   1.456   6.637   3.181
 7876SOL    HW124527   1.374   6.649   3.125
 7876SOL    HW224528   1.456   6.545   3.220
 7877SOL     OW24529   0.503   2.832   2.214
 7877SOL    HW124530   0.589   2.783   2.200
 7877SOL    HW224531   0.435   2.769   2.251
 7878SOL     OW24532   3.871   0.124   2.439
 7878SOL    HW124533   3.854   0.204   2.381
 7878SOL    HW224534   3.784   0.081   2.464
 7879SOL     OW24535   3.003   5.975   2.756
 7879SOL    HW124536   3.089   6.009   2.719
 7879SOL    HW224537   2.941   5.953   2.680
 7880SOL     OW24538   0.810   4.387   2.541
 7880SOL    HW124539   0.900   4.401   2.499
 7880SOL    HW224540   0.749   4.460   2.511
 7881SOL     OW24541   4.909   2.773   3.624
 7881SOL    HW124542   4.961   2.841   3.572
 7881SOL    HW224543   4.940   2.681   3.599
 7882SOL     OW24544   7.011   2.733   6.676
 7882SOL    HW124545   0.060   2.663   6.704
 7882SOL    HW224546   6.929   2.725   6.733
 7883SOL     OW24547   0.579   6.742   4.237
 7883SOL    HW124548   0.575   6.704   4.144
 7883SOL    HW224549   0.558   6.671   4.303
 7884SOL     OW24550   1.842   2.657   4.233
 7884SOL    HW124551   1.762   2.707   4.198
 7884SOL    HW224552   1.814   2.598   4.309
 7885SOL     OW24553   7.015   6.122   6.707
 7885SOL    HW124554   6.983   6.043   6.655
 7885SOL    HW224555   6.942   6.191   6.710
 7886SOL     OW24556   4.885   3.854   0.607
 7886SOL    HW124557   4.973   3.812   0.628
 7886SOL    HW224558   4.812   3.789   0.625
 7887SOL     OW24559   4.528   2.407   6.133
 7887SOL    HW124560   4.559   2.343   6.062
 7887SOL    HW224561   4.497   2.355   6.213
 7888SOL     OW24562   4.131   5.936   4.427
 7888SOL    HW124563   4.066   6.010   4.443
 7888SOL    HW224564   4.103   5.884   4.346
 7889SOL     OW24565   6.590   5.224   3.588
 7889SOL    HW124566   6.566   5.225   3.685
 7889SOL    HW224567   6.507   5.208   3.533
 7890SOL     OW24568   1.801   3.712   2.660
 7890SOL    HW124569   1.792   3.790   2.599
 7890SOL    HW224570   1.830   3.632   2.608
 7891SOL     OW24571   0.742   4.404   3.182
 7891SOL    HW124572   0.706   4.406   3.089
 7891SOL    HW224573   0.719   4.317   3.226
 7892SOL     OW24574   2.157   2.162   4.947
 7892SOL    HW124575   2.170   2.084   4.886
 7892SOL    HW224576   2.162   2.131   5.042
 7893SOL     OW24577   5.232   6.652   0.798
 7893SOL    HW124578   5.303   6.586   0.822
 7893SOL    HW224579   5.264   6.710   0.723
 7894SOL     OW24580   2.782   0.360   1.508
 7894SOL    HW124581   2.831   0.334   1.425
 7894SOL    HW224582   2.797   0.457   1.526
 7895SOL     OW24583   0.161   1.696   4.041
 7895SOL    HW124584   0.081   1.746   4.073
 7895SOL    HW224585   0.142   1.656   3.952
 7896SOL     OW24586   3.503   2.241   6.422
 7896SOL    HW124587   3.527   2.333   6.452
 7896SOL    HW224588   3.454   2.247   6.334
 7897SOL     OW24589   2.858   3.458   6.835
 7897SOL    HW124590   2.825   3.394   6.905
 7897SOL    HW224591   2.818   3.433   6.746
 7898SOL     OW24592   5.308   1.452   4.352
 7898SOL    HW124593   5.299   1.387   4.277
 7898SOL    HW224594   5.378   1.519   4.330
 7899SOL     OW24595   4.381   0.906   2.147
 7899SOL    HW124596   4.327   0.941   2.070
 7899SOL    HW224597   4.478   0.908   2.123
 7900SOL     OW24598   0.744   5.870   1.491
 7900SOL    HW124599   0.802   5.913   1.422
 7900SOL    HW224600   0.662   5.833   1.446
 7901SOL     OW24601   6.077   4.961   1.269
 7901SOL    HW124602   6.018   4.997   1.197
 7901SOL    HW224603   6.070   4.861   1.271
 7902SOL     OW24604   5.122   4.521   5.713
 7902SOL    HW124605   5.123   4.580   5.793
 7902SOL    HW224606   5.028   4.502   5.686
 7903SOL     OW24607   0.062   2.899   1.756
 7903SOL    HW124608   0.050   2.820   1.816
 7903SOL    HW224609   0.097   2.976   1.809
 7904SOL     OW24610   5.814   2.419   3.288
 7904SOL    HW124611   5.798   2.348   3.220
 7904SOL    HW224612   5.877   2.487   3.251
 7905SOL     OW24613   1.596   1.643   2.362
 7905SOL    HW124614   1.510   1.654   2.412
 7905SOL    HW224615   1.611   1.547   2.341
 7906SOL     OW24616   0.924   4.782   6.711
 7906SOL    HW124617   0.990   4.857   6.720
 7906SOL    HW224618   0.947   4.711   6.777
 7907SOL     OW24619   0.535   2.668   2.704
 7907SOL    HW124620   0.469   2.708   2.640
 7907SOL    HW224621   0.596   2.740   2.738
 7908SOL     OW24622   0.527   1.821   2.576
 7908SOL    HW124623   0.440   1.794   2.534
 7908SOL    HW224624   0.549   1.758   2.649
 7909SOL     OW24625   4.451   6.757   4.983
 7909SOL    HW124626   4.515   6.827   4.950
 7909SOL    HW224627   4.479   6.727   5.074
 7910SOL     OW24628   6.696   2.848   5.568
 7910SOL    HW124629   6.780   2.802   5.597
 7910SOL    HW224630   6.702   2.946   5.591
 7911SOL     OW24631   0.346   5.458   6.412
 7911SOL    HW124632   0.379   5.550   6.391
 7911SOL    HW224633   0.247   5.455   6.399
 7912SOL     OW24634   6.963   5.873   5.272
 7912SOL    HW124635   6.995   5.868   5.177
 7912SOL    HW224636   6.870   5.910   5.274
 7913SOL     OW24637   1.317   5.987   6.494
 7913SOL    HW124638   1.221   6.009   6.511
 7913SOL    HW224639   1.348   6.034   6.411
 7914SOL     OW24640   6.288   4.775   0.775
 7914SOL    HW124641   6.216   4.717   0.737
 7914SOL    HW224642   6.284   4.865   0.732
 7915SOL     OW24643   2.727   0.997   2.612
 7915SOL    HW124644   2.703   0.980   2.707
 7915SOL    HW224645   2.663   0.950   2.551
 7916SOL     OW24646   4.470   3.826   5.417
 7916SOL    HW124647   4.419   3.870   5.490
 7916SOL    HW224648   4.408   3.801   5.343
 7917SOL     OW24649   3.809   3.839   3.496
 7917SOL    HW124650   3.715   3.805   3.507
 7917SOL    HW224651   3.856   3.784   3.427
 7918SOL     OW24652   5.425   1.770   1.879
 7918SOL    HW124653   5.459   1.821   1.958
 7918SOL    HW224654   5.475   1.684   1.871
 7919SOL     OW24655   5.384   4.001   2.307
 7919SOL    HW124656   5.387   3.902   2.302
 7919SOL    HW224657   5.458   4.040   2.252
 7920SOL     OW24658   0.486   6.592   1.013
 7920SOL    HW124659   0.406   6.542   0.979
 7920SOL    HW224660   0.519   6.549   1.097
 7921SOL     OW24661   3.161   5.625   2.096
 7921SOL    HW124662   3.112   5.541   2.073
 7921SOL    HW224663   3.255   5.619   2.063
 7922SOL     OW24664   0.779   4.779   5.028
 7922SOL    HW124665   0.776   4.680   5.040
 7922SOL    HW224666   0.791   4.824   5.116
 7923SOL     OW24667   1.274   1.877   3.410
 7923SOL    HW124668   1.275   1.906   3.506
 7923SOL    HW224669   1.234   1.950   3.354
 7924SOL     OW24670   2.311   1.059   3.685
 7924SOL    HW124671   2.230   1.001   3.688
 7924SOL    HW224672   2.283   1.153   3.665
 7925SOL     OW24673   0.786   1.337   6.992
 7925SOL    HW124674   0.824   1.255   0.016
 7925SOL    HW224675   0.710   1.312   6.933
 7926SOL     OW24676   2.988   0.698   1.837
 7926SOL    HW124677   3.071   0.715   1.783
 7926SOL    HW224678   3.007   0.630   1.907
 7927SOL     OW24679   4.576   5.232   4.406
 7927SOL    HW124680   4.511   5.200   4.475
 7927SOL    HW224681   4.669   5.231   4.445
 7928SOL     OW24682   0.683   3.775   0.021
 7928SOL    HW124683   0.651   3.769   0.116
 7928SOL    HW224684   0.660   3.865   7.002
 7929SOL     OW24685   3.911   4.102   4.896
 7929SOL    HW124686   3.955   4.188   4.875
 7929SOL    HW224687   3.872   4.062   4.813
 7930SOL     OW24688   4.278   6.893   2.404
 7930SOL    HW124689   4.237   6.811   2.443
 7930SOL    HW224690   4.364   6.870   2.359
 7931SOL     OW24691   3.166   3.233   5.928
 7931SOL    HW124692   3.094   3.287   5.883
 7931SOL    HW224693   3.126   3.152   5.971
 7932SOL     OW24694   2.928   0.964   0.329
 7932SOL    HW124695   2.969   1.054   0.341
 7932SOL    HW224696   2.845   0.958   0.384
 7933SOL     OW24697   2.243   1.161   6.397
 7933SOL    HW124698   2.196   1.224   6.458
 7933SOL    HW224699   2.182   1.135   6.322
 7934SOL     OW24700   4.204   2.074   6.005
 7934SOL    HW124701   4.290   2.055   6.052
 7934SOL    HW224702   4.148   2.135   6.061
 7935SOL     OW24703   5.129   5.614   2.024
 7935SOL    HW124704   5.048   5.561   2.000
 7935SOL    HW224705   5.150   5.600   2.121
 7936SOL     OW24706   3.866   6.362   1.856
 7936SOL    HW124707   3.829   6.373   1.948
 7936SOL    HW224708   3.965   6.376   1.857
 7937SOL     OW24709   6.142   1.777   6.152
 7937SOL    HW124710   6.189   1.839   6.215
 7937SOL    HW224711   6.208   1.713   6.113
 7938SOL     OW24712   6.621   4.553   3.875
 7938SOL    HW124713   6.624   4.470   3.932
 7938SOL    HW224714   6.624   4.634   3.933
 7939SOL     OW24715   0.039   6.351   3.428
 7939SOL    HW124716   7.017   6.441   3.442
 7939SOL    HW224717   0.050   6.334   3.330
 7940SOL     OW24718   1.744   6.212   0.614
 7940SOL    HW124719   1.696   6.289   0.572
 7940SOL    HW224720   1.722   6.209   0.712
 7941SOL     OW24721   0.463   0.694   0.890
 7941SOL    HW124722   0.546   0.720   0.841
 7941SOL    HW224723   0.385   0.695   0.826
 7942SOL     OW24724   0.949   0.387   1.941
 7942SOL    HW124725   0.871   0.328   1.958
 7942SOL    HW224726   1.012   0.384   2.018
 7943SOL     OW24727   6.072   2.043   0.527
 7943SOL    HW124728   5.989   2.042   0.582
 7943SOL    HW224729   6.060   1.985   0.446
 7944SOL     OW24730   6.541   4.111   1.997
 7944SOL    HW124731   6.622   4.152   2.039
 7944SOL    HW224732   6.512   4.032   2.050
 7945SOL     OW24733   5.821   0.094   1.121
 7945SOL    HW124734   5.796   0.170   1.061
 7945SOL    HW224735   5.761   0.016   1.103
 7946SOL     OW24736   2.462   1.348   5.494
 7946SOL    HW124737   2.539   1.377   5.552
 7946SOL    HW224738   2.377   1.355   5.547
 7947SOL     OW24739   4.485   5.281   6.242
 7947SOL    HW124740   4.424   5.347   6.197
 7947SOL    HW224741   4.480   5.293   6.341
 7948SOL     OW24742   1.165   5.319   5.668
 7948SOL    HW124743   1.133   5.374   5.590
 7948SOL    HW224744   1.097   5.324   5.741
 7949SOL     OW24745   6.730   3.415   4.225
 7949SOL    HW124746   6.662   3.457   4.285
 7949SOL    HW224747   6.791   3.357   4.279
 7950SOL     OW24748   3.229   4.932   3.946
 7950SOL    HW124749   3.271   4.881   4.022
 7950SOL    HW224750   3.266   5.024   3.943
 7951SOL     OW24751   2.108   3.503   0.568
 7951SOL    HW124752   2.026   3.518   0.623
 7951SOL    HW224753   2.171   3.580   0.579
 7952SOL     OW24754   5.859   4.562   0.882
 7952SOL    HW124755   5.812   4.509   0.811
 7952SOL    HW224756   5.811   4.549   0.970
 7953SOL     OW24757   1.880   3.906   1.975
 7953SOL    HW124758   1.969   3.862   1.981
 7953SOL    HW224759   1.808   3.837   1.980
 7954SOL     OW24760   5.571   4.943   4.199
 7954SOL    HW124761   5.541   4.946   4.294
 7954SOL    HW224762   5.658   4.992   4.190
 7955SOL     OW24763   1.923   6.344   6.224
 7955SOL    HW124764   1.998   6.411   6.228
 7955SOL    HW224765   1.950   6.262   6.273
 7956SOL     OW24766   5.630   6.030   2.910
 7956SOL    HW124767   5.677   6.011   2.824
 7956SOL    HW224768   5.694   6.019   2.986
 7957SOL     OW24769   1.739   2.494   0.823
 7957SOL    HW124770   1.760   2.417   0.763
 7957SOL    HW224771   1.811   2.504   0.891
 7958SOL     OW24772   2.649   5.728   3.605
 7958SOL    HW124773   2.627   5.700   3.698
 7958SOL    HW224774   2.747   5.747   3.599
 7959SOL     OW24775   5.079   5.361   1.860
 7959SOL    HW124776   5.053   5.374   1.764
 7959SOL    HW224777   5.176   5.335   1.865
 7960SOL     OW24778   1.888   2.351   1.283
 7960SOL    HW124779   1.848   2.414   1.349
 7960SOL    HW224780   1.970   2.309   1.322
 7961SOL     OW24781   0.720   5.798   0.236
 7961SOL    HW124782   0.705   5.716   0.181
 7961SOL    HW224783   0.773   5.864   0.182
 7962SOL     OW24784   1.527   0.147   2.608
 7962SOL    HW124785   1.525   0.057   2.652
 7962SOL    HW224786   1.584   0.142   2.526
 7963SOL     OW24787   0.554   6.480   5.975
 7963SOL    HW124788   0.485   6.497   5.904
 7963SOL    HW224789   0.564   6.560   6.033
 7964SOL     OW24790   6.256   5.525   3.264
 7964SOL    HW124791   6.214   5.446   3.309
 7964SOL    HW224792   6.312   5.576   3.330
 7965SOL     OW24793   4.054   1.338   0.510
 7965SOL    HW124794   4.062   1.387   0.423
 7965SOL    HW224795   4.146   1.315   0.543
 7966SOL     OW24796   0.016   0.715   3.699
 7966SOL    HW124797   6.959   0.709   3.633
 7966SOL    HW224798   7.013   0.784   3.768
 7967SOL     OW24799   3.113   0.451   3.572
 7967SOL    HW124800   3.181   0.405   3.628
 7967SOL    HW224801   3.023   0.413   3.591
 7968SOL     OW24802   2.272   0.823   1.158
 7968SOL    HW124803   2.270   0.724   1.165
 7968SOL    HW224804   2.250   0.851   1.064
 7969SOL     OW24805   3.433   1.607   3.456
 7969SOL    HW124806   3.524   1.573   3.431
 7969SOL    HW224807   3.372   1.530   3.471
 7970SOL     OW24808   0.737   4.512   3.455
 7970SOL    HW124809   0.713   4.423   3.492
 7970SOL    HW224810   0.750   4.505   3.356
 7971SOL     OW24811   3.046   1.956   2.376
 7971SOL    HW124812   3.000   1.870   2.352
 7971SOL    HW224813   3.038   2.021   2.301
 7972SOL     OW24814   5.905   6.107   1.722
 7972SOL    HW124815   5.968   6.062   1.658
 7972SOL    HW224816   5.817   6.060   1.721
 7973SOL     OW24817   5.170   1.674   3.071
 7973SOL    HW124818   5.137   1.678   2.977
 7973SOL    HW224819   5.179   1.767   3.107
 7974SOL     OW24820   5.126   6.206   4.633
 7974SOL    HW124821   5.050   6.236   4.575
 7974SOL    HW224822   5.212   6.223   4.585
 7975SOL     OW24823   1.535   1.936   2.586
 7975SOL    HW124824   1.563   2.028   2.614
 7975SOL    HW224825   1.544   1.927   2.487
 7976SOL     OW24826   1.673   0.154   6.419
 7976SOL    HW124827   1.754   0.183   6.368
 7976SOL    HW224828   1.701   0.112   6.506
 7977SOL     OW24829   5.345   6.330   1.249
 7977SOL    HW124830   5.370   6.350   1.154
 7977SOL    HW224831   5.420   6.281   1.293
 7978SOL     OW24832   3.404   1.781   5.862
 7978SOL    HW124833   3.330   1.847   5.872
 7978SOL    HW224834   3.469   1.814   5.793
 7979SOL     OW24835   4.917   5.863   4.480
 7979SOL    HW124836   4.930   5.840   4.384
 7979SOL    HW224837   4.929   5.781   4.536
 7980SOL     OW24838   2.671   0.542   2.138
 7980SOL    HW124839   2.648   0.544   2.041
 7980SOL    HW224840   2.749   0.603   2.155
 7981SOL     OW24841   0.904   6.322   2.360
 7981SOL    HW124842   0.870   6.233   2.331
 7981SOL    HW224843   1.004   6.318   2.368
 7982SOL     OW24844   0.193   3.077   0.566
 7982SOL    HW124845   0.189   3.036   0.658
 7982SOL    HW224846   0.278   3.129   0.557
 7983SOL     OW24847   5.268   2.083   1.327
 7983SOL    HW124848   5.241   2.178   1.314
 7983SOL    HW224849   5.297   2.069   1.421
 7984SOL     OW24850   6.713   0.699   0.776
 7984SOL    HW124851   6.682   0.624   0.834
 7984SOL    HW224852   6.713   0.785   0.828
 7985SOL     OW24853   1.048   1.308   0.974
 7985SOL    HW124854   1.075   1.227   1.027
 7985SOL    HW224855   1.091   1.389   1.014
 7986SOL     OW24856   4.685   3.665   0.668
 7986SOL    HW124857   4.623   3.622   0.734
 7986SOL    HW224858   4.634   3.727   0.609
 7987SOL     OW24859   0.573   3.161   4.940
 7987SOL    HW124860   0.542   3.068   4.918
 7987SOL    HW224861   0.533   3.225   4.874
 7988SOL     OW24862   3.038   1.285   5.647
 7988SOL    HW124863   3.024   1.186   5.639
 7988SOL    HW224864   3.100   1.303   5.724
 7989SOL     OW24865   3.325   3.423   6.706
 7989SOL    HW124866   3.253   3.410   6.638
 7989SOL    HW224867   3.299   3.496   6.769
 7990SOL     OW24868   2.225   2.676   4.756
 7990SOL    HW124869   2.315   2.667   4.714
 7990SOL    HW224870   2.235   2.674   4.856
 7991SOL     OW24871   2.583   3.183   6.192
 7991SOL    HW124872   2.603   3.085   6.181
 7991SOL    HW224873   2.555   3.201   6.286
 7992SOL     OW24874   2.974   1.463   0.774
 7992SOL    HW124875   2.997   1.488   0.680
 7992SOL    HW224876   3.037   1.392   0.806
 7993SOL     OW24877   2.692   5.447   6.174
 7993SOL    HW124878   2.720   5.531   6.128
 7993SOL    HW224879   2.624   5.399   6.118
 7994SOL     OW24880   5.868   0.423   4.353
 7994SOL    HW124881   5.838   0.398   4.445
 7994SOL    HW224882   5.896   0.341   4.304
 7995SOL     OW24883   4.692   5.348   2.509
 7995SOL    HW124884   4.608   5.401   2.525
 7995SOL    HW224885   4.674   5.277   2.441
 7996SOL     OW24886   4.242   1.344   5.752
 7996SOL    HW124887   4.308   1.398   5.699
 7996SOL    HW224888   4.168   1.403   5.783
 7997SOL     OW24889   5.160   3.241   1.039
 7997SOL    HW124890   5.155   3.149   1.077
 7997SOL    HW224891   5.161   3.236   0.939
 7998SOL     OW24892   6.529   4.766   6.031
 7998SOL    HW124893   6.576   4.845   6.071
 7998SOL    HW224894   6.488   4.792   5.944
 7999SOL     OW24895   2.736   2.617   5.747
 7999SOL    HW124896   2.735   2.528   5.702
 7999SOL    HW224897   2.771   2.686   5.683
 8000SOL     OW24898   4.852   0.559   5.968
 8000SOL    HW124899   4.791   0.635   5.990
 8000SOL    HW224900   4.913   0.542   6.045
 8001SOL     OW24901   2.489   5.141   0.291
 8001SOL    HW124902   2.401   5.142   0.338
 8001SOL    HW224903   2.555   5.089   0.346
 8002SOL     OW24904   4.758   2.133   5.687
 8002SOL    HW124905   4.762   2.056   5.624
 8002SOL    HW224906   4.663   2.145   5.718
 8003SOL     OW24907   4.922   5.311   3.253
 8003SOL    HW124908   4.894   5.263   3.336
 8003SOL    HW224909   4.986   5.255   3.201
 8004SOL     OW24910   1.126   4.256   3.463
 8004SOL    HW124911   1.050   4.194   3.481
 8004SOL    HW224912   1.147   4.256   3.366
 8005SOL     OW24913   2.090   0.868   2.507
 8005SOL    HW124914   2.004   0.818   2.493
 8005SOL    HW224915   2.099   0.891   2.604
 8006SOL     OW24916   4.243   6.113   2.109
 8006SOL    HW124917   4.147   6.086   2.095
 8006SOL    HW224918   4.284   6.136   2.021
 8007SOL     OW24919   0.310   0.973   4.237
 8007SOL    HW124920   0.292   0.880   4.268
 8007SOL    HW224921   0.253   0.994   4.158
 8008SOL     OW24922   5.894   5.677   1.443
 8008SOL    HW124923   5.876   5.581   1.418
 8008SOL    HW224924   5.829   5.705   1.514
 8009SOL     OW24925   6.960   6.879   3.222
 8009SOL    HW124926   0.014   6.913   3.283
 8009SOL    HW224927   6.890   6.949   3.211
 8010SOL     OW24928   2.116   2.220   6.786
 8010SOL    HW124929   2.098   2.317   6.797
 8010SOL    HW224930   2.173   2.205   6.705
 8011SOL     OW24931   2.314   3.042   0.084
 8011SOL    HW124932   2.400   3.046   0.033
 8011SOL    HW224933   2.243   3.091   0.033
 8012SOL     OW24934   2.475   6.489   3.153
 8012SOL    HW124935   2.547   6.557   3.166
 8012SOL    HW224936   2.479   6.421   3.226
 8013SOL     OW24937   6.586   5.263   4.971
 8013SOL    HW124938   6.668   5.273   5.027
 8013SOL    HW224939   6.608   5.281   4.875
 8014SOL     OW24940   2.592   6.998   6.777
 8014SOL    HW124941   2.542   7.009   6.691
 8014SOL    HW224942   2.669   6.937   6.763
 8015SOL     OW24943   1.588   2.122   0.398
 8015SOL    HW124944   1.551   2.051   0.458
 8015SOL    HW224945   1.657   2.081   0.337
 8016SOL     OW24946   4.127   6.471   1.875
 8016SOL    HW124947   4.211   6.476   1.929
 8016SOL    HW224948   4.150   6.451   1.780
 8017SOL     OW24949   6.269   3.460   5.436
 8017SOL    HW124950   6.265   3.473   5.535
 8017SOL    HW224951   6.202   3.520   5.392
 8018SOL     OW24952   5.485   2.871   3.552
 8018SOL    HW124953   5.465   2.865   3.454
 8018SOL    HW224954   5.405   2.906   3.600
 8019SOL     OW24955   3.449   4.984   1.298
 8019SOL    HW124956   3.521   5.050   1.318
 8019SOL    HW224957   3.489   4.901   1.259
 8020SOL     OW24958   5.929   0.281   6.590
 8020SOL    HW124959   5.887   0.231   6.514
 8020SOL    HW224960   5.865   0.352   6.622
 8021SOL     OW24961   6.635   1.485   1.028
 8021SOL    HW124962   6.611   1.406   0.972
 8021SOL    HW224963   6.728   1.515   1.005
 8022SOL     OW24964   4.893   5.062   3.516
 8022SOL    HW124965   4.836   4.980   3.505
 8022SOL    HW224966   4.857   5.117   3.591
 8023SOL     OW24967   0.159   6.051   3.813
 8023SOL    HW124968   0.133   6.148   3.813
 8023SOL    HW224969   0.227   6.034   3.884
 8024SOL     OW24970   4.372   5.822   4.559
 8024SOL    HW124971   4.337   5.741   4.607
 8024SOL    HW224972   4.296   5.868   4.512
 8025SOL     OW24973   3.438   5.806   0.498
 8025SOL    HW124974   3.515   5.744   0.517
 8025SOL    HW224975   3.356   5.771   0.543
 8026SOL     OW24976   2.157   1.501   6.486
 8026SOL    HW124977   2.063   1.525   6.507
 8026SOL    HW224978   2.169   1.498   6.387
 8027SOL     OW24979   4.439   3.146   5.379
 8027SOL    HW124980   4.366   3.077   5.374
 8027SOL    HW224981   4.528   3.100   5.383
 8028SOL     OW24982   5.921   5.027   0.550
 8028SOL    HW124983   5.895   5.071   0.464
 8028SOL    HW224984   5.842   5.023   0.611
 8029SOL     OW24985   3.299   4.421   6.320
 8029SOL    HW124986   3.236   4.380   6.254
 8029SOL    HW224987   3.252   4.492   6.371
 8030SOL     OW24988   6.480   3.527   0.848
 8030SOL    HW124989   6.564   3.482   0.878
 8030SOL    HW224990   6.463   3.608   0.904
 8031SOL     OW24991   3.812   6.194   1.195
 8031SOL    HW124992   3.715   6.196   1.174
 8031SOL    HW224993   3.832   6.258   1.270
 8032SOL     OW24994   4.664   3.730   5.756
 8032SOL    HW124995   4.720   3.689   5.683
 8032SOL    HW224996   4.575   3.756   5.719
 8033SOL     OW24997   6.311   1.748   1.504
 8033SOL    HW124998   6.371   1.779   1.578
 8033SOL    HW224999   6.216   1.770   1.528
 8034SOL     OW25000   6.646   1.716   5.920
 8034SOL    HW125001   6.661   1.810   5.889
 8034SOL    HW225002   6.583   1.670   5.857
 8035SOL     OW25003   5.449   5.979   6.205
 8035SOL    HW125004   5.436   5.883   6.229
 8035SOL    HW225005   5.545   6.005   6.221
 8036SOL     OW25006   1.783   4.653   1.959
 8036SOL    HW125007   1.821   4.560   1.957
 8036SOL    HW225008   1.700   4.654   2.015
 8037SOL     OW25009   2.109   3.342   1.785
 8037SOL    HW125010   2.157   3.399   1.852
 8037SOL    HW225011   2.174   3.311   1.716
 8038SOL     OW25012   5.577   1.142   4.007
 8038SOL    HW125013   5.661   1.113   4.054
 8038SOL    HW225014   5.573   1.100   3.917
 8039SOL     OW25015   2.102   5.781   3.941
 8039SOL    HW125016   2.185   5.802   3.891
 8039SOL    HW225017   2.101   5.684   3.965
 8040SOL     OW25018   5.838   6.128   6.997
 8040SOL    HW125019   5.850   6.207   0.040
 8040SOL    HW225020   5.909   6.130   6.926
 8041SOL     OW25021   3.366   2.121   1.339
 8041SOL    HW125022   3.360   2.184   1.261
 8041SOL    HW225023   3.411   2.168   1.415
 8042SOL     OW25024   1.982   5.166   6.719
 8042SOL    HW125025   1.975   5.097   6.647
 8042SOL    HW225026   2.061   5.146   6.776
 8043SOL     OW25027   2.908   0.756   1.330
 8043SOL    HW125028   2.898   0.690   1.405
 8043SOL    HW225029   2.969   0.717   1.260
 8044SOL     OW25030   3.100   3.091   2.157
 8044SOL    HW125031   3.078   3.176   2.205
 8044SOL    HW225032   3.035   3.078   2.082
 8045SOL     OW25033   6.485   2.608   3.487
 8045SOL    HW125034   6.536   2.523   3.496
 8045SOL    HW225035   6.483   2.656   3.575
 8046SOL     OW25036   6.998   5.387   5.024
 8046SOL    HW125037   0.004   5.471   5.073
 8046SOL    HW225038   6.935   5.333   5.080
 8047SOL     OW25039   2.268   6.885   4.568
 8047SOL    HW125040   2.201   6.959   4.580
 8047SOL    HW225041   2.358   6.916   4.599
 8048SOL     OW25042   5.329   0.727   5.725
 8048SOL    HW125043   5.404   0.790   5.705
 8048SOL    HW225044   5.286   0.699   5.640
 8049SOL     OW25045   1.790   6.982   0.071
 8049SOL    HW125046   1.772   6.915   7.017
 8049SOL    HW225047   1.712   6.986   0.133
 8050SOL     OW25048   0.157   3.124   1.916
 8050SOL    HW125049   0.082   3.191   1.916
 8050SOL    HW225050   0.244   3.170   1.899
 8051SOL     OW25051   2.755   1.589   3.896
 8051SOL    HW125052   2.657   1.598   3.913
 8051SOL    HW225053   2.806   1.615   3.978
 8052SOL     OW25054   3.840   1.655   2.848
 8052SOL    HW125055   3.784   1.637   2.929
 8052SOL    HW225056   3.848   1.753   2.834
 8053SOL     OW25057   4.231   3.497   1.734
 8053SOL    HW125058   4.154   3.535   1.682
 8053SOL    HW225059   4.250   3.405   1.701
 8054SOL     OW25060   4.846   6.282   4.696
 8054SOL    HW125061   4.821   6.290   4.599
 8054SOL    HW225062   4.893   6.196   4.712
 8055SOL     OW25063   1.067   0.053   5.680
 8055SOL    HW125064   1.160   0.054   5.716
 8055SOL    HW225065   1.007   0.102   5.743
 8056SOL     OW25066   4.634   1.237   2.387
 8056SOL    HW125067   4.647   1.272   2.479
 8056SOL    HW225068   4.604   1.141   2.392
 8057SOL     OW25069   3.169   0.046   3.638
 8057SOL    HW125070   3.149   0.100   3.720
 8057SOL    HW225071   3.131   6.972   3.649
 8058SOL     OW25072   1.842   0.163   3.188
 8058SOL    HW125073   1.803   0.119   3.107
 8058SOL    HW225074   1.942   0.159   3.183
 8059SOL     OW25075   1.818   1.275   4.083
 8059SOL    HW125076   1.812   1.246   3.988
 8059SOL    HW225077   1.802   1.374   4.089
 8060SOL     OW25078   0.440   2.703   5.221
 8060SOL    HW125079   0.535   2.674   5.223
 8060SOL    HW225080   0.382   2.631   5.259
 8061SOL     OW25081   6.119   6.648   3.125
 8061SOL    HW125082   6.025   6.618   3.115
 8061SOL    HW225083   6.174   6.610   3.050
 8062SOL     OW25084   1.437   2.940   1.519
 8062SOL    HW125085   1.511   3.001   1.491
 8062SOL    HW225086   1.454   2.906   1.611
 8063SOL     OW25087   2.583   3.120   5.923
 8063SOL    HW125088   2.562   3.154   6.015
 8063SOL    HW225089   2.511   3.058   5.893
 8064SOL     OW25090   6.564   2.501   5.549
 8064SOL    HW125091   6.658   2.526   5.527
 8064SOL    HW225092   6.561   2.447   5.633
 8065SOL     OW25093   4.610   6.948   6.495
 8065SOL    HW125094   4.516   6.914   6.492
 8065SOL    HW225095   4.641   6.969   6.402
 8066SOL     OW25096   1.879   0.145   1.559
 8066SOL    HW125097   1.845   0.235   1.531
 8066SOL    HW225098   1.814   0.103   1.622
 8067SOL     OW25099   4.658   2.321   2.638
 8067SOL    HW125100   4.646   2.410   2.682
 8067SOL    HW225101   4.570   2.288   2.604
 8068SOL     OW25102   6.603   4.866   4.366
 8068SOL    HW125103   6.584   4.905   4.456
 8068SOL    HW225104   6.586   4.768   4.368
 8069SOL     OW25105   0.867   6.500   2.127
 8069SOL    HW125106   0.845   6.585   2.175
 8069SOL    HW225107   0.927   6.445   2.185
 8070SOL     OW25108   3.329   0.375   2.218
 8070SOL    HW125109   3.419   0.402   2.186
 8070SOL    HW225110   3.273   0.345   2.141
 8071SOL     OW25111   5.138   4.947   6.906
 8071SOL    HW125112   5.158   4.850   6.890
 8071SOL    HW225113   5.223   4.998   6.914
 8072SOL     OW25114   3.938   0.619   2.878
 8072SOL    HW125115   3.957   0.531   2.835
 8072SOL    HW225116   3.857   0.659   2.836
 8073SOL     OW25117   4.963   0.415   6.445
 8073SOL    HW125118   4.914   0.328   6.449
 8073SOL    HW225119   5.012   0.430   6.531
 8074SOL     OW25120   2.842   4.048   6.944
 8074SOL    HW125121   2.886   4.138   6.948
 8074SOL    HW225122   2.908   3.977   6.971
 8075SOL     OW25123   5.964   1.844   3.758
 8075SOL    HW125124   5.948   1.936   3.723
 8075SOL    HW225125   6.029   1.848   3.834
 8076SOL     OW25126   4.807   3.122   6.457
 8076SOL    HW125127   4.823   3.043   6.515
 8076SOL    HW225128   4.733   3.101   6.392
 8077SOL     OW25129   0.756   0.483   0.248
 8077SOL    HW125130   0.779   0.434   0.332
 8077SOL    HW225131   0.828   0.468   0.180
 8078SOL     OW25132   5.727   3.334   0.971
 8078SOL    HW125133   5.771   3.320   0.882
 8078SOL    HW225134   5.789   3.384   1.031
 8079SOL     OW25135   1.259   2.319   0.999
 8079SOL    HW125136   1.281   2.414   1.022
 8079SOL    HW225137   1.289   2.299   0.905
 8080SOL     OW25138   3.947   5.403   6.776
 8080SOL    HW125139   3.897   5.395   6.862
 8080SOL    HW225140   3.892   5.365   6.702
 8081SOL     OW25141   5.924   2.423   4.865
 8081SOL    HW125142   5.965   2.331   4.866
 8081SOL    HW225143   5.870   2.436   4.948
 8082SOL     OW25144   6.075   3.599   4.759
 8082SOL    HW125145   6.167   3.619   4.726
 8082SOL    HW225146   6.079   3.529   4.830
 8083SOL     OW25147   5.827   1.621   4.908
 8083SOL    HW125148   5.836   1.628   4.809
 8083SOL    HW225149   5.914   1.592   4.948
 8084SOL     OW25150   6.343   0.119   0.250
 8084SOL    HW125151   6.295   0.205   0.230
 8084SOL    HW225152   6.283   0.042   0.232
 8085SOL     OW25153   4.930   2.544   0.566
 8085SOL    HW125154   4.843   2.523   0.522
 8085SOL    HW225155   4.924   2.635   0.608
 8086SOL     OW25156   2.297   5.468   5.695
 8086SOL    HW125157   2.280   5.431   5.786
 8086SOL    HW225158   2.249   5.412   5.627
 8087SOL     OW25159   2.484   3.781   0.957
 8087SOL    HW125160   2.456   3.779   1.053
 8087SOL    HW225161   2.462   3.693   0.915
 8088SOL     OW25162   4.570   0.976   3.288
 8088SOL    HW125163   4.624   0.963   3.372
 8088SOL    HW225164   4.497   0.908   3.285
 8089SOL     OW25165   6.680   2.772   0.866
 8089SOL    HW125166   6.603   2.814   0.817
 8089SOL    HW225167   6.766   2.795   0.820
 8090SOL     OW25168   4.419   1.654   4.987
 8090SOL    HW125169   4.509   1.687   5.015
 8090SOL    HW225170   4.388   1.708   4.908
 8091SOL     OW25171   1.863   3.571   5.397
 8091SOL    HW125172   1.950   3.596   5.439
 8091SOL    HW225173   1.844   3.632   5.320
 8092SOL     OW25174   6.061   1.925   4.462
 8092SOL    HW125175   6.019   1.866   4.393
 8092SOL    HW225176   6.012   2.013   4.465
 8093SOL     OW25177   5.857   5.595   0.553
 8093SOL    HW125178   5.890   5.689   0.547
 8093SOL    HW225179   5.807   5.583   0.639
 8094SOL     OW25180   0.537   3.585   4.201
 8094SOL    HW125181   0.595   3.536   4.136
 8094SOL    HW225182   0.483   3.520   4.254
 8095SOL     OW25183   6.252   3.315   4.487
 8095SOL    HW125184   6.334   3.304   4.544
 8095SOL    HW225185   6.279   3.322   4.391
 8096SOL     OW25186   4.539   0.152   0.742
 8096SOL    HW125187   4.489   0.162   0.656
 8096SOL    HW225188   4.489   0.199   0.815
 8097SOL     OW25189   4.550   1.844   4.334
 8097SOL    HW125190   4.542   1.791   4.250
 8097SOL    HW225191   4.642   1.833   4.371
 8098SOL     OW25192   1.897   1.655   4.470
 8098SOL    HW125193   1.883   1.694   4.561
 8098SOL    HW225194   1.834   1.697   4.405
 8099SOL     OW25195   3.682   6.555   4.317
 8099SOL    HW125196   3.668   6.457   4.334
 8099SOL    HW225197   3.740   6.566   4.237
 8100SOL     OW25198   6.675   6.028   1.306
 8100SOL    HW125199   6.617   6.091   1.255
 8100SOL    HW225200   6.769   6.062   1.305
 8101SOL     OW25201   0.519   4.846   1.552
 8101SOL    HW125202   0.611   4.831   1.516
 8101SOL    HW225203   0.507   4.942   1.575
 8102SOL     OW25204   6.638   0.062   5.774
 8102SOL    HW125205   6.709   0.004   5.814
 8102SOL    HW225206   6.596   0.015   5.696
 8103SOL     OW25207   2.402   2.500   2.337
 8103SOL    HW125208   2.428   2.491   2.433
 8103SOL    HW225209   2.474   2.462   2.279
 8104SOL     OW25210   2.605   0.057   6.095
 8104SOL    HW125211   2.666   7.004   6.130
 8104SOL    HW225212   2.606   0.054   5.995
 8105SOL     OW25213   2.034   2.639   3.295
 8105SOL    HW125214   2.025   2.587   3.210
 8105SOL    HW225215   1.951   2.693   3.310
 8106SOL     OW25216   0.704   4.183   5.558
 8106SOL    HW125217   0.607   4.158   5.558
 8106SOL    HW225218   0.759   4.106   5.589
 8107SOL     OW25219   0.999   5.132   6.559
 8107SOL    HW125220   1.063   5.058   6.542
 8107SOL    HW225221   0.959   5.123   6.650
 8108SOL     OW25222   2.235   2.902   6.125
 8108SOL    HW125223   2.325   2.896   6.168
 8108SOL    HW225224   2.244   2.892   6.026
 8109SOL     OW25225   0.318   5.345   5.515
 8109SOL    HW125226   0.294   5.417   5.580
 8109SOL    HW225227   0.355   5.385   5.432
 8110SOL     OW25228   0.984   4.874   0.471
 8110SOL    HW125229   0.896   4.864   0.518
 8110SOL    HW225230   1.004   4.972   0.460
 8111SOL     OW25231   3.264   5.795   3.932
 8111SOL    HW125232   3.194   5.863   3.952
 8111SOL    HW225233   3.354   5.837   3.941
 8112SOL     OW25234   4.008   1.293   3.854
 8112SOL    HW125235   3.997   1.195   3.841
 8112SOL    HW225236   4.059   1.311   3.938
 8113SOL     OW25237   3.190   2.651   5.622
 8113SOL    HW125238   3.206   2.747   5.646
 8113SOL    HW225239   3.105   2.644   5.570
 8114SOL     OW25240   3.022   3.815   1.383
 8114SOL    HW125241   2.956   3.862   1.324
 8114SOL    HW225242   2.993   3.721   1.398
 8115SOL     OW25243   3.861   2.897   0.905
 8115SOL    HW125244   3.776   2.855   0.937
 8115SOL    HW225245   3.860   2.995   0.928
 8116SOL     OW25246   5.403   1.502   5.613
 8116SOL    HW125247   5.422   1.590   5.655
 8116SOL    HW225248   5.402   1.513   5.513
 8117SOL     OW25249   3.337   2.777   5.882
 8117SOL    HW125250   3.395   2.701   5.853
 8117SOL    HW225251   3.249   2.742   5.913
 8118SOL     OW25252   1.163   2.161   3.904
 8118SOL    HW125253   1.064   2.150   3.904
 8118SOL    HW225254   1.199   2.137   3.994
 8119SOL     OW25255   1.625   6.765   2.355
 8119SOL    HW125256   1.586   6.854   2.330
 8119SOL    HW225257   1.559   6.693   2.334
 8120SOL     OW25258   4.555   4.496   2.522
 8120SOL    HW125259   4.534   4.493   2.620
 8120SOL    HW225260   4.516   4.580   2.483
 8121SOL     OW25261   6.962   5.793   2.994
 8121SOL    HW125262   6.991   5.752   3.080
 8121SOL    HW225263   6.905   5.728   2.943
 8122SOL     OW25264   7.003   5.502   1.733
 8122SOL    HW125265   6.940   5.569   1.773
 8122SOL    HW225266   0.049   5.470   1.803
 8123SOL     OW25267   1.340   5.238   6.911
 8123SOL    HW125268   1.287   5.313   6.871
 8123SOL    HW225269   1.284   5.191   6.979
 8124SOL     OW25270   1.871   6.303   2.951
 8124SOL    HW125271   1.862   6.402   2.954
 8124SOL    HW225272   1.885   6.273   2.857
 8125SOL     OW25273   5.354   5.070   3.077
 8125SOL    HW125274   5.440   5.120   3.063
 8125SOL    HW225275   5.373   4.973   3.091
 8126SOL     OW25276   0.128   4.866   1.859
 8126SOL    HW125277   0.160   4.947   1.909
 8126SOL    HW225278   0.028   4.863   1.861
 8127SOL     OW25279   3.912   5.178   0.891
 8127SOL    HW125280   3.849   5.101   0.883
 8127SOL    HW225281   3.861   5.263   0.902
 8128SOL     OW25282   3.989   1.926   5.679
 8128SOL    HW125283   3.970   1.942   5.776
 8128SOL    HW225284   3.903   1.931   5.627
 8129SOL     OW25285   4.763   5.901   6.535
 8129SOL    HW125286   4.863   5.903   6.534
 8129SOL    HW225287   4.728   5.986   6.497
 8130SOL     OW25288   0.656   0.108   6.334
 8130SOL    HW125289   0.636   0.165   6.414
 8130SOL    HW225290   0.706   0.163   6.267
 8131SOL     OW25291   2.487   2.044   1.191
 8131SOL    HW125292   2.581   2.052   1.224
 8131SOL    HW225293   2.477   1.962   1.136
 8132SOL     OW25294   5.719   4.410   2.818
 8132SOL    HW125295   5.679   4.336   2.873
 8132SOL    HW225296   5.688   4.402   2.723
 8133SOL     OW25297   0.400   5.473   2.037
 8133SOL    HW125298   0.400   5.521   1.950
 8133SOL    HW225299   0.467   5.515   2.098
 8134SOL     OW25300   2.444   2.742   1.614
 8134SOL    HW125301   2.369   2.788   1.661
 8134SOL    HW225302   2.448   2.773   1.519
 8135SOL     OW25303   3.895   6.308   2.590
 8135SOL    HW125304   3.945   6.378   2.642
 8135SOL    HW225305   3.960   6.249   2.543
 8136SOL     OW25306   2.425   6.067   1.849
 8136SOL    HW125307   2.474   6.083   1.934
 8136SOL    HW225308   2.480   6.010   1.789
 8137SOL     OW25309   3.213   3.733   5.347
 8137SOL    HW125310   3.270   3.653   5.362
 8137SOL    HW225311   3.120   3.705   5.325
 8138SOL     OW25312   4.548   1.270   3.663
 8138SOL    HW125313   4.639   1.302   3.688
 8138SOL    HW225314   4.539   1.267   3.564
 8139SOL     OW25315   1.545   3.111   6.204
 8139SOL    HW125316   1.522   3.205   6.180
 8139SOL    HW225317   1.511   3.090   6.296
 8140SOL     OW25318   5.113   1.617   0.981
 8140SOL    HW125319   5.182   1.621   1.053
 8140SOL    HW225320   5.098   1.521   0.954
 8141SOL     OW25321   5.961   0.960   5.146
 8141SOL    HW125322   5.891   0.954   5.075
 8141SOL    HW225323   6.008   1.048   5.140
 8142SOL     OW25324   3.436   5.525   0.800
 8142SOL    HW125325   3.413   5.428   0.787
 8142SOL    HW225326   3.483   5.559   0.719
 8143SOL     OW25327   5.609   4.938   7.003
 8143SOL    HW125328   5.554   4.902   0.059
 8143SOL    HW225329   5.650   4.863   6.952
 8144SOL     OW25330   1.490   5.447   6.654
 8144SOL    HW125331   1.469   5.392   6.573
 8144SOL    HW225332   1.563   5.404   6.706
 8145SOL     OW25333   5.525   5.873   5.752
 8145SOL    HW125334   5.581   5.937   5.700
 8145SOL    HW225335   5.428   5.898   5.741
 8146SOL     OW25336   0.011   6.361   4.760
 8146SOL    HW125337   0.050   6.300   4.691
 8146SOL    HW225338   6.931   6.372   4.743
 8147SOL     OW25339   2.456   0.018   4.715
 8147SOL    HW125340   2.442   0.108   4.757
 8147SOL    HW225341   2.509   6.979   4.777
 8148SOL     OW25342   5.354   4.455   0.262
 8148SOL    HW125343   5.420   4.383   0.241
 8148SOL    HW225344   5.277   4.449   0.199
 8149SOL     OW25345   1.859   6.715   5.334
 8149SOL    HW125346   1.955   6.728   5.359
 8149SOL    HW225347   1.825   6.798   5.290
 8150SOL     OW25348   0.353   4.321   0.494
 8150SOL    HW125349   0.289   4.342   0.421
 8150SOL    HW225350   0.438   4.285   0.456
 8151SOL     OW25351   6.433   4.360   1.894
 8151SOL    HW125352   6.467   4.270   1.922
 8151SOL    HW225353   6.377   4.399   1.968
 8152SOL     OW25354   5.114   2.353   3.861
 8152SOL    HW125355   5.016   2.371   3.853
 8152SOL    HW225356   5.153   2.341   3.770
 8153SOL     OW25357   0.111   1.609   1.341
 8153SOL    HW125358   0.172   1.679   1.304
 8153SOL    HW225359   0.043   1.652   1.400
 8154SOL     OW25360   0.915   0.850   3.680
 8154SOL    HW125361   0.953   0.896   3.600
 8154SOL    HW225362   0.883   0.758   3.655
 8155SOL     OW25363   0.973   4.810   4.486
 8155SOL    HW125364   0.952   4.761   4.401
 8155SOL    HW225365   0.957   4.750   4.564
 8156SOL     OW25366   1.396   4.111   0.445
 8156SOL    HW125367   1.477   4.140   0.395
 8156SOL    HW225368   1.374   4.016   0.420
 8157SOL     OW25369   5.950   4.562   4.467
 8157SOL    HW125370   5.991   4.639   4.516
 8157SOL    HW225371   5.940   4.586   4.370
 8158SOL     OW25372   6.326   5.042   6.327
 8158SOL    HW125373   6.243   5.006   6.283
 8158SOL    HW225374   6.343   4.992   6.412
 8159SOL     OW25375   2.910   0.031   5.326
 8159SOL    HW125376   2.820   0.031   5.282
 8159SOL    HW225377   2.904   0.078   5.414
 8160SOL     OW25378   5.352   2.677   2.987
 8160SOL    HW125379   5.345   2.603   2.920
 8160SOL    HW225380   5.448   2.689   3.013
 8161SOL     OW25381   0.306   2.555   2.061
 8161SOL    HW125382   0.373   2.482   2.050
 8161SOL    HW225383   0.247   2.558   1.980
 8162SOL     OW25384   0.507   6.009   5.574
 8162SOL    HW125385   0.605   6.028   5.584
 8162SOL    HW225386   0.486   5.987   5.479
 8163SOL     OW25387   3.329   5.070   5.699
 8163SOL    HW125388   3.280   5.139   5.646
 8163SOL    HW225389   3.332   5.096   5.795
 8164SOL     OW25390   5.323   1.850   0.304
 8164SOL    HW125391   5.265   1.849   0.386
 8164SOL    HW225392   5.383   1.930   0.308
 8165SOL     OW25393   0.801   2.614   6.311
 8165SOL    HW125394   0.720   2.582   6.361
 8165SOL    HW225395   0.814   2.711   6.329
 8166SOL     OW25396   2.724   2.062   4.593
 8166SOL    HW125397   2.668   1.990   4.633
 8166SOL    HW225398   2.667   2.139   4.567
 8167SOL     OW25399   1.640   2.601   3.383
 8167SOL    HW125400   1.630   2.693   3.421
 8167SOL    HW225401   1.700   2.547   3.442
 8168SOL     OW25402   1.537   6.358   2.617
 8168SOL    HW125403   1.531   6.380   2.715
 8168SOL    HW225404   1.621   6.307   2.600
 8169SOL     OW25405   4.815   4.243   0.432
 8169SOL    HW125406   4.722   4.271   0.405
 8169SOL    HW225407   4.828   4.263   0.529
 8170SOL     OW25408   0.026   4.611   3.122
 8170SOL    HW125409   6.973   4.574   3.182
 8170SOL    HW225410   7.013   4.698   3.084
 8171SOL     OW25411   1.854   1.731   1.735
 8171SOL    HW125412   1.929   1.797   1.736
 8171SOL    HW225413   1.767   1.780   1.735
 8172SOL     OW25414   1.269   4.781   0.706
 8172SOL    HW125415   1.228   4.704   0.754
 8172SOL    HW225416   1.207   4.812   0.634
 8173SOL     OW25417   5.638   6.909   1.480
 8173SOL    HW125418   5.738   6.916   1.470
 8173SOL    HW225419   5.600   6.999   1.500
 8174SOL     OW25420   2.736   6.365   4.114
 8174SOL    HW125421   2.698   6.279   4.079
 8174SOL    HW225422   2.667   6.412   4.169
 8175SOL     OW25423   0.491   1.854   5.587
 8175SOL    HW125424   0.453   1.946   5.584
 8175SOL    HW225425   0.447   1.802   5.660
 8176SOL     OW25426   3.045   4.948   0.119
 8176SOL    HW125427   2.989   4.867   0.104
 8176SOL    HW225428   2.986   5.025   0.145
 8177SOL     OW25429   3.244   1.138   2.368
 8177SOL    HW125430   3.250   1.218   2.428
 8177SOL    HW225431   3.337   1.104   2.350
 8178SOL     OW25432   2.647   5.866   1.312
 8178SOL    HW125433   2.650   5.809   1.394
 8178SOL    HW225434   2.729   5.849   1.257
 8179SOL     OW25435   6.550   6.756   3.944
 8179SOL    HW125436   6.535   6.692   3.869
 8179SOL    HW225437   6.586   6.842   3.909
 8180SOL     OW25438   4.847   4.975   0.643
 8180SOL    HW125439   4.865   5.068   0.612
 8180SOL    HW225440   4.749   4.963   0.658
 8181SOL     OW25441   6.318   0.640   6.419
 8181SOL    HW125442   6.391   0.595   6.469
 8181SOL    HW225443   6.352   0.669   6.329
 8182SOL     OW25444   3.501   3.654   3.018
 8182SOL    HW125445   3.467   3.680   3.108
 8182SOL    HW225446   3.601   3.652   3.019
 8183SOL     OW25447   0.254   0.413   5.483
 8183SOL    HW125448   0.320   0.474   5.439
 8183SOL    HW225449   0.234   0.336   5.422
 8184SOL     OW25450   0.291   6.088   5.141
 8184SOL    HW125451   0.229   6.166   5.130
 8184SOL    HW225452   0.301   6.041   5.053
 8185SOL     OW25453   0.452   5.689   5.032
 8185SOL    HW125454   0.415   5.693   5.125
 8185SOL    HW225455   0.495   5.777   5.009
 8186SOL     OW25456   1.539   5.563   0.454
 8186SOL    HW125457   1.537   5.650   0.405
 8186SOL    HW225458   1.483   5.569   0.536
 8187SOL     OW25459   1.226   6.591   4.648
 8187SOL    HW125460   1.277   6.515   4.607
 8187SOL    HW225461   1.283   6.636   4.717
 8188SOL     OW25462   1.382   2.645   2.621
 8188SOL    HW125463   1.351   2.740   2.617
 8188SOL    HW225464   1.303   2.584   2.621
 8189SOL     OW25465   6.547   5.374   4.235
 8189SOL    HW125466   6.592   5.325   4.161
 8189SOL    HW225467   6.473   5.430   4.197
 8190SOL     OW25468   5.780   3.525   2.493
 8190SOL    HW125469   5.742   3.491   2.579
 8190SOL    HW225470   5.796   3.624   2.500
 8191SOL     OW25471   4.790   5.269   0.774
 8191SOL    HW125472   4.690   5.268   0.777
 8191SOL    HW225473   4.820   5.259   0.679
 8192SOL     OW25474   0.231   6.083   3.379
 8192SOL    HW125475   0.199   6.169   3.419
 8192SOL    HW225476   0.248   6.097   3.281
 8193SOL     OW25477   0.163   4.726   4.160
 8193SOL    HW125478   0.223   4.667   4.214
 8193SOL    HW225479   0.207   4.747   4.073
 8194SOL     OW25480   5.505   0.314   1.990
 8194SOL    HW125481   5.525   0.410   1.970
 8194SOL    HW225482   5.578   0.257   1.953
 8195SOL     OW25483   6.782   6.468   3.282
 8195SOL    HW125484   6.783   6.371   3.305
 8195SOL    HW225485   6.724   6.517   3.347
 8196SOL     OW25486   5.015   0.030   2.291
 8196SOL    HW125487   5.062   0.106   2.246
 8196SOL    HW225488   4.967   0.065   2.372
 8197SOL     OW25489   3.933   1.571   3.326
 8197SOL    HW125490   3.978   1.591   3.238
 8197SOL    HW225491   4.000   1.535   3.390
 8198SOL     OW25492   2.164   5.482   0.467
 8198SOL    HW125493   2.081   5.473   0.522
 8198SOL    HW225494   2.243   5.456   0.522
 8199SOL     OW25495   5.966   2.460   0.236
 8199SOL    HW125496   5.964   2.555   0.205
 8199SOL    HW225497   5.904   2.405   0.180
 8200SOL     OW25498   6.136   4.539   0.221
 8200SOL    HW125499   6.133   4.493   0.310
 8200SOL    HW225500   6.231   4.557   0.196
 8201SOL     OW25501   5.717   0.375   5.516
 8201SOL    HW125502   5.697   0.455   5.574
 8201SOL    HW225503   5.782   0.401   5.444
 8202SOL     OW25504   0.826   5.953   1.742
 8202SOL    HW125505   0.807   5.914   1.652
 8202SOL    HW225506   0.918   5.993   1.743
 8203SOL     OW25507   1.676   2.987   0.425
 8203SOL    HW125508   1.747   3.052   0.395
 8203SOL    HW225509   1.594   3.000   0.369
 8204SOL     OW25510   1.519   3.548   0.534
 8204SOL    HW125511   1.592   3.615   0.535
 8204SOL    HW225512   1.458   3.563   0.612
 8205SOL     OW25513   0.287   3.539   5.787
 8205SOL    HW125514   0.235   3.468   5.738
 8205SOL    HW225515   0.223   3.604   5.828
 8206SOL     OW25516   3.502   0.932   1.461
 8206SOL    HW125517   3.572   0.989   1.418
 8206SOL    HW225518   3.416   0.984   1.466
 8207SOL     OW25519   4.020   3.739   4.123
 8207SOL    HW125520   4.004   3.837   4.132
 8207SOL    HW225521   3.982   3.691   4.203
 8208SOL     OW25522   2.759   0.286   6.664
 8208SOL    HW125523   2.825   0.212   6.658
 8208SOL    HW225524   2.806   0.370   6.693
 8209SOL     OW25525   6.084   2.266   3.963
 8209SOL    HW125526   6.139   2.220   4.033
 8209SOL    HW225527   6.056   2.356   3.997
 8210SOL     OW25528   2.069   2.730   6.286
 8210SOL    HW125529   2.133   2.780   6.228
 8210SOL    HW225530   2.022   2.794   6.347
 8211SOL     OW25531   4.310   4.555   1.170
 8211SOL    HW125532   4.276   4.462   1.189
 8211SOL    HW225533   4.409   4.552   1.156
 8212SOL     OW25534   2.099   3.044   3.062
 8212SOL    HW125535   2.135   3.070   3.152
 8212SOL    HW225536   2.035   3.114   3.030
 8213SOL     OW25537   6.286   4.916   0.444
 8213SOL    HW125538   6.304   4.996   0.387
 8213SOL    HW225539   6.253   4.946   0.534
 8214SOL     OW25540   4.892   3.625   3.176
 8214SOL    HW125541   4.874   3.632   3.078
 8214SOL    HW225542   4.876   3.714   3.219
 8215SOL     OW25543   3.561   5.289   1.998
 8215SOL    HW125544   3.634   5.345   1.959
 8215SOL    HW225545   3.578   5.193   1.977
 8216SOL     OW25546   5.439   3.669   3.883
 8216SOL    HW125547   5.395   3.603   3.822
 8216SOL    HW225548   5.440   3.759   3.840
 8217SOL     OW25549   2.194   5.757   0.402
 8217SOL    HW125550   2.143   5.816   0.465
 8217SOL    HW225551   2.155   5.665   0.405
 8218SOL     OW25552   4.918   2.173   6.753
 8218SOL    HW125553   4.968   2.093   6.719
 8218SOL    HW225554   4.984   2.243   6.780
 8219SOL     OW25555   5.120   2.017   0.144
 8219SOL    HW125556   5.198   2.016   0.206
 8219SOL    HW225557   5.078   1.926   0.141
 8220SOL     OW25558   3.994   3.602   1.612
 8220SOL    HW125559   3.937   3.527   1.578
 8220SOL    HW225560   3.962   3.630   1.702
 8221SOL     OW25561   5.878   4.000   3.408
 8221SOL    HW125562   5.944   3.980   3.480
 8221SOL    HW225563   5.789   4.019   3.449
 8222SOL     OW25564   6.438   0.749   3.113
 8222SOL    HW125565   6.358   0.810   3.119
 8222SOL    HW225566   6.495   0.777   3.036
 8223SOL     OW25567   0.457   5.016   6.758
 8223SOL    HW125568   0.509   4.932   6.739
 8223SOL    HW225569   0.520   5.090   6.778
 8224SOL     OW25570   0.873   3.929   2.299
 8224SOL    HW125571   0.926   3.869   2.358
 8224SOL    HW225572   0.838   4.006   2.354
 8225SOL     OW25573   4.865   1.283   1.396
 8225SOL    HW125574   4.848   1.381   1.402
 8225SOL    HW225575   4.779   1.235   1.381
 8226SOL     OW25576   3.854   0.328   6.920
 8226SOL    HW125577   3.759   0.358   6.908
 8226SOL    HW225578   3.856   0.250   6.982
 8227SOL     OW25579   6.364   4.093   3.364
 8227SOL    HW125580   6.431   4.042   3.418
 8227SOL    HW225581   6.310   4.030   3.308
 8228SOL     OW25582   0.140   1.337   3.879
 8228SOL    HW125583   0.180   1.313   3.968
 8228SOL    HW225584   0.132   1.254   3.824
 8229SOL     OW25585   5.351   5.669   0.632
 8229SOL    HW125586   5.257   5.645   0.608
 8229SOL    HW225587   5.350   5.750   0.691
 8230SOL     OW25588   5.294   6.792   3.096
 8230SOL    HW125589   5.295   6.866   3.164
 8230SOL    HW225590   5.205   6.792   3.049
 8231SOL     OW25591   3.877   5.456   1.462
 8231SOL    HW125592   3.832   5.442   1.550
 8231SOL    HW225593   3.891   5.368   1.417
 8232SOL     OW25594   2.589   1.654   0.135
 8232SOL    HW125595   2.586   1.664   0.234
 8232SOL    HW225596   2.497   1.632   0.101
 8233SOL     OW25597   0.523   5.604   6.037
 8233SOL    HW125598   0.538   5.688   6.089
 8233SOL    HW225599   0.605   5.548   6.040
 8234SOL     OW25600   2.539   3.097   6.954
 8234SOL    HW125601   2.623   3.046   6.972
 8234SOL    HW225602   2.529   3.112   6.856
 8235SOL     OW25603   4.764   2.427   6.312
 8235SOL    HW125604   4.833   2.378   6.259
 8235SOL    HW225605   4.686   2.448   6.254
 8236SOL     OW25606   6.075   2.795   1.133
 8236SOL    HW125607   5.991   2.795   1.079
 8236SOL    HW225608   6.054   2.773   1.228
 8237SOL     OW25609   3.803   6.417   5.692
 8237SOL    HW125610   3.724   6.472   5.669
 8237SOL    HW225611   3.774   6.336   5.744
 8238SOL     OW25612   1.196   0.951   6.459
 8238SOL    HW125613   1.259   0.916   6.529
 8238SOL    HW225614   1.236   0.937   6.369
 8239SOL     OW25615   5.771   1.128   0.125
 8239SOL    HW125616   5.742   1.220   0.150
 8239SOL    HW225617   5.707   1.089   0.059
 8240SOL     OW25618   3.773   3.177   3.193
 8240SOL    HW125619   3.714   3.180   3.274
 8240SOL    HW225620   3.862   3.217   3.215
 8241SOL     OW25621   4.857   6.071   1.509
 8241SOL    HW125622   4.804   5.990   1.482
 8241SOL    HW225623   4.801   6.129   1.569
 8242SOL     OW25624   1.454   4.135   5.447
 8242SOL    HW125625   1.472   4.045   5.486
 8242SOL    HW225626   1.360   4.162   5.467
 8243SOL     OW25627   0.301   3.131   4.494
 8243SOL    HW125628   0.220   3.166   4.539
 8243SOL    HW225629   0.383   3.157   4.545
 8244SOL     OW25630   2.445   5.249   5.271
 8244SOL    HW125631   2.396   5.164   5.248
 8244SOL    HW225632   2.540   5.228   5.292
 8245SOL     OW25633   4.480   3.583   1.101
 8245SOL    HW125634   4.571   3.597   1.139
 8245SOL    HW225635   4.442   3.498   1.137
 8246SOL     OW25636   5.346   3.570   5.067
 8246SOL    HW125637   5.303   3.484   5.041
 8246SOL    HW225638   5.296   3.610   5.144
 8247SOL     OW25639   1.126   6.541   7.010
 8247SOL    HW125640   1.108   6.448   0.025
 8247SOL    HW225641   1.048   6.599   0.015
 8248SOL     OW25642   0.110   4.361   3.340
 8248SOL    HW125643   0.206   4.386   3.357
 8248SOL    HW225644   0.096   4.347   3.242
 8249SOL     OW25645   0.848   5.206   3.091
 8249SOL    HW125646   0.899   5.149   3.156
 8249SOL    HW225647   0.866   5.175   2.998
 8250SOL     OW25648   3.323   3.500   2.196
 8250SOL    HW125649   3.343   3.409   2.160
 8250SOL    HW225650   3.248   3.494   2.262
 8251SOL     OW25651   6.152   1.188   4.688
 8251SOL    HW125652   6.170   1.126   4.611
 8251SOL    HW225653   6.177   1.142   4.774
 8252SOL     OW25654   1.050   3.639   4.372
 8252SOL    HW125655   1.035   3.725   4.324
 8252SOL    HW225656   0.967   3.584   4.369
 8253SOL     OW25657   3.006   3.401   5.789
 8253SOL    HW125658   2.908   3.386   5.779
 8253SOL    HW225659   3.045   3.430   5.702
 8254SOL     OW25660   4.783   5.574   3.120
 8254SOL    HW125661   4.837   5.500   3.159
 8254SOL    HW225662   4.844   5.646   3.086
 8255SOL     OW25663   3.944   4.853   3.555
 8255SOL    HW125664   3.848   4.862   3.580
 8255SOL    HW225665   3.952   4.831   3.458
 8256SOL     OW25666   5.802   2.353   3.753
 8256SOL    HW125667   5.844   2.358   3.843
 8256SOL    HW225668   5.708   2.320   3.761
 8257SOL     OW25669   6.264   4.712   3.874
 8257SOL    HW125670   6.263   4.613   3.888
 8257SOL    HW225671   6.321   4.755   3.944
 8258SOL     OW25672   5.404   2.009   6.918
 8258SOL    HW125673   5.468   1.932   6.921
 8258SOL    HW225674   5.443   2.084   6.864
 8259SOL     OW25675   4.708   1.297   1.005
 8259SOL    HW125676   4.724   1.201   1.028
 8259SOL    HW225677   4.621   1.306   0.958
 8260SOL     OW25678   3.302   5.697   6.792
 8260SOL    HW125679   3.395   5.719   6.765
 8260SOL    HW225680   3.257   5.778   6.829
 8261SOL     OW25681   4.926   1.245   1.666
 8261SOL    HW125682   4.914   1.245   1.566
 8261SOL    HW225683   5.006   1.191   1.690
 8262SOL     OW25684   6.582   2.367   1.509
 8262SOL    HW125685   6.569   2.427   1.588
 8262SOL    HW225686   6.651   2.406   1.448
 8263SOL     OW25687   5.364   1.592   0.700
 8263SOL    HW125688   5.314   1.671   0.737
 8263SOL    HW225689   5.308   1.510   0.710
 8264SOL     OW25690   1.752   4.336   1.396
 8264SOL    HW125691   1.672   4.362   1.450
 8264SOL    HW225692   1.723   4.294   1.311
 8265SOL     OW25693   1.741   0.347   2.598
 8265SOL    HW125694   1.698   0.437   2.607
 8265SOL    HW225695   1.674   0.275   2.617
 8266SOL     OW25696   3.448   0.572   3.238
 8266SOL    HW125697   3.429   0.474   3.244
 8266SOL    HW225698   3.363   0.623   3.230
 8267SOL     OW25699   6.946   3.965   0.610
 8267SOL    HW125700   7.010   4.039   0.589
 8267SOL    HW225701   6.926   3.965   0.708
 8268SOL     OW25702   3.111   5.470   6.782
 8268SOL    HW125703   3.181   5.542   6.791
 8268SOL    HW225704   3.021   5.509   6.802
 8269SOL     OW25705   6.035   2.424   0.535
 8269SOL    HW125706   6.024   2.444   0.438
 8269SOL    HW225707   6.118   2.369   0.549
 8270SOL     OW25708   2.596   6.224   4.360
 8270SOL    HW125709   2.536   6.287   4.312
 8270SOL    HW225710   2.542   6.155   4.408
 8271SOL     OW25711   6.713   2.350   3.109
 8271SOL    HW125712   6.722   2.364   3.208
 8271SOL    HW225713   6.772   2.275   3.081
 8272SOL     OW25714   3.478   1.214   4.204
 8272SOL    HW125715   3.410   1.233   4.275
 8272SOL    HW225716   3.482   1.292   4.141
 8273SOL     OW25717   1.924   6.589   2.102
 8273SOL    HW125718   1.931   6.688   2.088
 8273SOL    HW225719   1.897   6.571   2.196
 8274SOL     OW25720   5.421   4.137   3.495
 8274SOL    HW125721   5.329   4.112   3.465
 8274SOL    HW225722   5.440   4.232   3.471
 8275SOL     OW25723   5.299   2.237   0.341
 8275SOL    HW125724   5.243   2.313   0.306
 8275SOL    HW225725   5.383   2.230   0.289
 8276SOL     OW25726   0.225   1.730   2.523
 8276SOL    HW125727   0.223   1.705   2.620
 8276SOL    HW225728   0.241   1.648   2.468
 8277SOL     OW25729   6.971   1.626   0.098
 8277SOL    HW125730   6.937   1.576   0.178
 8277SOL    HW225731   0.004   1.706   0.129
 8278SOL     OW25732   1.213   2.841   0.753
 8278SOL    HW125733   1.221   2.747   0.784
 8278SOL    HW225734   1.297   2.891   0.775
 8279SOL     OW25735   0.580   6.164   3.805
 8279SOL    HW125736   0.607   6.260   3.818
 8279SOL    HW225737   0.539   6.154   3.714
 8280SOL     OW25738   3.797   2.281   6.010
 8280SOL    HW125739   3.774   2.186   5.986
 8280SOL    HW225740   3.751   2.306   6.095
 8281SOL     OW25741   4.958   5.426   2.505
 8281SOL    HW125742   4.860   5.409   2.516
 8281SOL    HW225743   4.997   5.453   2.593
 8282SOL     OW25744   6.111   2.536   6.132
 8282SOL    HW125745   6.160   2.500   6.052
 8282SOL    HW225746   6.019   2.565   6.104
 8283SOL     OW25747   1.773   2.740   5.984
 8283SOL    HW125748   1.742   2.748   5.890
 8283SOL    HW225749   1.836   2.663   5.992
 8284SOL     OW25750   6.446   4.604   1.737
 8284SOL    HW125751   6.428   4.521   1.790
 8284SOL    HW225752   6.387   4.606   1.656
 8285SOL     OW25753   4.122   3.282   3.733
 8285SOL    HW125754   4.176   3.204   3.765
 8285SOL    HW225755   4.136   3.360   3.794
 8286SOL     OW25756   0.530   2.193   6.798
 8286SOL    HW125757   0.548   2.103   6.759
 8286SOL    HW225758   0.465   2.242   6.740
 8287SOL     OW25759   1.437   6.332   4.213
 8287SOL    HW125760   1.521   6.280   4.194
 8287SOL    HW225761   1.358   6.279   4.180
 8288SOL     OW25762   3.092   1.659   3.220
 8288SOL    HW125763   3.126   1.753   3.213
 8288SOL    HW225764   3.035   1.652   3.302
 8289SOL     OW25765   0.278   5.841   6.748
 8289SOL    HW125766   0.211   5.846   6.674
 8289SOL    HW225767   0.241   5.786   6.823
 8290SOL     OW25768   5.919   2.348   1.057
 8290SOL    HW125769   5.892   2.270   1.001
 8290SOL    HW225770   5.992   2.321   1.120
 8291SOL     OW25771   4.094   0.838   0.464
 8291SOL    HW125772   4.193   0.832   0.476
 8291SOL    HW225773   4.057   0.908   0.525
 8292SOL     OW25774   3.219   0.444   6.051
 8292SOL    HW125775   3.229   0.541   6.029
 8292SOL    HW225776   3.248   0.389   5.973
 8293SOL     OW25777   5.930   5.235   4.976
 8293SOL    HW125778   5.923   5.140   5.005
 8293SOL    HW225779   5.873   5.250   4.896
 8294SOL     OW25780   6.314   3.192   6.733
 8294SOL    HW125781   6.320   3.107   6.681
 8294SOL    HW225782   6.296   3.171   6.830
 8295SOL     OW25783   4.870   3.335   0.026
 8295SOL    HW125784   4.781   3.311   7.004
 8295SOL    HW225785   4.879   3.289   0.115
 8296SOL     OW25786   1.312   4.960   5.939
 8296SOL    HW125787   1.243   4.997   5.877
 8296SOL    HW225788   1.377   5.033   5.963
 8297SOL     OW25789   1.642   2.799   4.111
 8297SOL    HW125790   1.664   2.812   4.015
 8297SOL    HW225791   1.549   2.762   4.119
 8298SOL     OW25792   4.564   1.608   1.772
 8298SOL    HW125793   4.618   1.681   1.730
 8298SOL    HW225794   4.603   1.519   1.747
 8299SOL     OW25795   5.904   2.146   1.559
 8299SOL    HW125796   5.875   2.237   1.530
 8299SOL    HW225797   6.003   2.139   1.551
 8300SOL     OW25798   1.197   5.506   3.117
 8300SOL    HW125799   1.103   5.488   3.145
 8300SOL    HW225800   1.256   5.431   3.146
 8301SOL     OW25801   2.594   2.020   6.736
 8301SOL    HW125802   2.590   2.107   6.786
 8301SOL    HW225803   2.646   2.032   6.652
 8302SOL     OW25804   5.693   5.824   5.387
 8302SOL    HW125805   5.719   5.738   5.344
 8302SOL    HW225806   5.775   5.875   5.412
 8303SOL     OW25807   0.015   0.314   6.351
 8303SOL    HW125808   0.074   0.261   6.414
 8303SOL    HW225809   6.955   0.350   6.402
 8304SOL     OW25810   0.146   3.555   0.752
 8304SOL    HW125811   0.120   3.529   0.659
 8304SOL    HW225812   0.236   3.599   0.751
 8305SOL     OW25813   3.601   5.484   3.216
 8305SOL    HW125814   3.693   5.524   3.209
 8305SOL    HW225815   3.561   5.508   3.305
 8306SOL     OW25816   1.661   3.110   4.206
 8306SOL    HW125817   1.638   3.014   4.189
 8306SOL    HW225818   1.737   3.137   4.146
 8307SOL     OW25819   4.021   5.613   1.138
 8307SOL    HW125820   4.092   5.597   1.206
 8307SOL    HW225821   4.049   5.688   1.078
 8308SOL     OW25822   2.948   0.419   2.434
 8308SOL    HW125823   3.045   0.398   2.426
 8308SOL    HW225824   2.895   0.350   2.383
 8309SOL     OW25825   5.898   6.798   2.192
 8309SOL    HW125826   5.907   6.799   2.292
 8309SOL    HW225827   5.823   6.857   2.164
 8310SOL     OW25828   6.396   4.700   6.727
 8310SOL    HW125829   6.299   4.710   6.701
 8310SOL    HW225830   6.426   4.782   6.775
 8311SOL     OW25831   6.003   0.246   6.258
 8311SOL    HW125832   6.040   0.156   6.282
 8311SOL    HW225833   6.028   0.313   6.328
 8312SOL     OW25834   5.013   6.327   1.449
 8312SOL    HW125835   4.987   6.231   1.437
 8312SOL    HW225836   4.948   6.372   1.510
 8313SOL     OW25837   3.780   1.376   2.484
 8313SOL    HW125838   3.731   1.367   2.571
 8313SOL    HW225839   3.819   1.468   2.477
 8314SOL     OW25840   0.037   6.330   3.170
 8314SOL    HW125841   0.075   6.386   3.097
 8314SOL    HW225842   6.983   6.272   3.134
 8315SOL     OW25843   4.978   4.600   6.269
 8315SOL    HW125844   4.924   4.564   6.193
 8315SOL    HW225845   4.996   4.697   6.253
 8316SOL     OW25846   2.900   5.698   6.559
 8316SOL    HW125847   2.850   5.783   6.547
 8316SOL    HW225848   2.936   5.693   6.653
 8317SOL     OW25849   2.085   4.194   1.678
 8317SOL    HW125850   2.060   4.098   1.689
 8317SOL    HW225851   2.177   4.200   1.639
 8318SOL     OW25852   3.191   1.169   6.057
 8318SOL    HW125853   3.152   1.241   5.999
 8318SOL    HW225854   3.248   1.109   6.001
 8319SOL     OW25855   3.383   0.668   5.636
 8319SOL    HW125856   3.420   0.754   5.602
 8319SOL    HW225857   3.455   0.615   5.680
 8320SOL     OW25858   4.367   4.993   1.176
 8320SOL    HW125859   4.437   5.037   1.231
 8320SOL    HW225860   4.310   4.935   1.234
 8321SOL     OW25861   6.888   1.000   0.933
 8321SOL    HW125862   6.911   0.980   1.029
 8321SOL    HW225863   6.791   0.981   0.918
 8322SOL     OW25864   5.662   6.915   6.821
 8322SOL    HW125865   5.576   6.894   6.867
 8322SOL    HW225866   5.728   6.842   6.838
 8323SOL     OW25867   1.808   0.937   1.783
 8323SOL    HW125868   1.744   1.007   1.813
 8323SOL    HW225869   1.901   0.963   1.809
 8324SOL     OW25870   6.438   1.360   2.532
 8324SOL    HW125871   6.525   1.310   2.531
 8324SOL    HW225872   6.390   1.346   2.445
 8325SOL     OW25873   4.060   3.815   4.864
 8325SOL    HW125874   4.037   3.775   4.953
 8325SOL    HW225875   4.036   3.912   4.863
 8326SOL     OW25876   4.238   2.499   6.517
 8326SOL    HW125877   4.209   2.409   6.548
 8326SOL    HW225878   4.188   2.523   6.434
 8327SOL     OW25879   5.437   2.273   6.344
 8327SOL    HW125880   5.409   2.178   6.334
 8327SOL    HW225881   5.440   2.316   6.253
 8328SOL     OW25882   2.302   2.797   4.028
 8328SOL    HW125883   2.370   2.727   4.049
 8328SOL    HW225884   2.259   2.828   4.113
 8329SOL     OW25885   0.480   2.298   4.853
 8329SOL    HW125886   0.577   2.303   4.831
 8329SOL    HW225887   0.459   2.209   4.895
 8330SOL     OW25888   2.208   6.891   0.707
 8330SOL    HW125889   2.135   6.933   0.652
 8330SOL    HW225890   2.236   6.954   0.779
 8331SOL     OW25891   2.852   6.983   1.034
 8331SOL    HW125892   2.775   6.951   0.979
 8331SOL    HW225893   2.933   6.929   1.012
 8332SOL     OW25894   5.111   6.182   3.604
 8332SOL    HW125895   5.056   6.113   3.651
 8332SOL    HW225896   5.208   6.161   3.616
 8333SOL     OW25897   1.666   5.122   5.802
 8333SOL    HW125898   1.688   5.078   5.889
 8333SOL    HW225899   1.567   5.130   5.794
 8334SOL     OW25900   6.450   6.953   4.295
 8334SOL    HW125901   6.520   6.999   4.240
 8334SOL    HW225902   6.436   7.004   4.380
 8335SOL     OW25903   6.290   6.115   5.622
 8335SOL    HW125904   6.296   6.154   5.530
 8335SOL    HW225905   6.255   6.184   5.686
 8336SOL     OW25906   0.995   1.889   3.034
 8336SOL    HW125907   0.986   1.814   2.970
 8336SOL    HW225908   1.092   1.913   3.044
 8337SOL     OW25909   0.375   6.315   2.186
 8337SOL    HW125910   0.444   6.353   2.246
 8337SOL    HW225911   0.415   6.295   2.096
 8338SOL     OW25912   1.759   4.727   0.786
 8338SOL    HW125913   1.760   4.816   0.832
 8338SOL    HW225914   1.787   4.738   0.691
 8339SOL     OW25915   5.841   0.881   3.204
 8339SOL    HW125916   5.805   0.843   3.289
 8339SOL    HW225917   5.767   0.924   3.152
 8340SOL     OW25918   4.572   3.636   1.470
 8340SOL    HW125919   4.518   3.690   1.535
 8340SOL    HW225920   4.647   3.591   1.518
 8341SOL     OW25921   2.293   0.070   0.914
 8341SOL    HW125922   2.256   0.139   0.853
 8341SOL    HW225923   2.391   0.084   0.925
 8342SOL     OW25924   5.241   6.900   1.154
 8342SOL    HW125925   5.249   6.870   1.249
 8342SOL    HW225926   5.182   6.837   1.103
 8343SOL     OW25927   0.562   5.074   5.684
 8343SOL    HW125928   0.552   5.150   5.749
 8343SOL    HW225929   0.656   5.072   5.650
 8344SOL     OW25930   3.825   0.059   4.951
 8344SOL    HW125931   3.871   0.016   4.873
 8344SOL    HW225932   3.813   7.009   5.024
 8345SOL     OW25933   6.435   1.220   3.209
 8345SOL    HW125934   6.398   1.312   3.208
 8345SOL    HW225935   6.418   1.176   3.120
 8346SOL     OW25936   3.423   5.555   2.003
 8346SOL    HW125937   3.469   5.466   2.012
 8346SOL    HW225938   3.475   5.625   2.052
 8347SOL     OW25939   3.471   5.164   4.334
 8347SOL    HW125940   3.372   5.170   4.346
 8347SOL    HW225941   3.505   5.081   4.377
 8348SOL     OW25942   1.691   0.525   0.772
 8348SOL    HW125943   1.756   0.600   0.778
 8348SOL    HW225944   1.600   0.558   0.797
 8349SOL     OW25945   6.220   5.568   1.620
 8349SOL    HW125946   6.174   5.479   1.624
 8349SOL    HW225947   6.207   5.608   1.529
 8350SOL     OW25948   6.477   0.365   4.746
 8350SOL    HW125949   6.561   0.414   4.765
 8350SOL    HW225950   6.419   0.419   4.685
 8351SOL     OW25951   2.888   6.356   1.942
 8351SOL    HW125952   2.881   6.376   1.844
 8351SOL    HW225953   2.981   6.327   1.964
 8352SOL     OW25954   6.687   6.219   2.077
 8352SOL    HW125955   6.692   6.122   2.102
 8352SOL    HW225956   6.592   6.250   2.082
 8353SOL     OW25957   1.405   3.525   2.004
 8353SOL    HW125958   1.432   3.617   2.033
 8353SOL    HW225959   1.326   3.495   2.057
 8354SOL     OW25960   2.765   0.608   0.206
 8354SOL    HW125961   2.701   0.562   0.145
 8354SOL    HW225962   2.802   0.689   0.160
 8355SOL     OW25963   3.141   1.131   0.562
 8355SOL    HW125964   3.078   1.190   0.513
 8355SOL    HW225965   3.160   1.170   0.653
 8356SOL     OW25966   2.779   5.368   0.709
 8356SOL    HW125967   2.867   5.358   0.755
 8356SOL    HW225968   2.726   5.284   0.723
 8357SOL     OW25969   4.669   6.156   3.556
 8357SOL    HW125970   4.651   6.249   3.524
 8357SOL    HW225971   4.599   6.094   3.520
 8358SOL     OW25972   2.867   2.272   5.148
 8358SOL    HW125973   2.870   2.185   5.099
 8358SOL    HW225974   2.961   2.307   5.159
 8359SOL     OW25975   4.139   4.759   3.717
 8359SOL    HW125976   4.223   4.733   3.669
 8359SOL    HW225977   4.062   4.760   3.653
 8360SOL     OW25978   4.030   0.412   2.728
 8360SOL    HW125979   4.022   0.322   2.771
 8360SOL    HW225980   4.087   0.405   2.646
 8361SOL     OW25981   1.384   0.232   2.821
 8361SOL    HW125982   1.438   0.299   2.871
 8361SOL    HW225983   1.431   0.206   2.736
 8362SOL     OW25984   2.021   3.080   0.388
 8362SOL    HW125985   2.014   2.981   0.397
 8362SOL    HW225986   2.080   3.117   0.460
 8363SOL     OW25987   0.347   3.410   1.295
 8363SOL    HW125988   0.379   3.466   1.371
 8363SOL    HW225989   0.247   3.416   1.290
 8364SOL     OW25990   6.542   4.243   5.067
 8364SOL    HW125991   6.586   4.179   5.004
 8364SOL    HW225992   6.560   4.337   5.037
 8365SOL     OW25993   1.103   3.746   6.167
 8365SOL    HW125994   1.080   3.737   6.264
 8365SOL    HW225995   1.105   3.656   6.125
 8366SOL     OW25996   2.258   0.021   2.778
 8366SOL    HW125997   2.321   0.047   2.705
 8366SOL    HW225998   2.309   0.011   2.863
 8367SOL     OW25999   4.942   5.704   3.654
 8367SOL    HW126000   5.012   5.661   3.598
 8367SOL    HW226001   4.909   5.640   3.722
 8368SOL     OW26002   3.470   5.789   5.964
 8368SOL    HW126003   3.373   5.815   5.958
 8368SOL    HW226004   3.527   5.869   5.943
 8369SOL     OW26005   2.650   1.474   1.432
 8369SOL    HW126006   2.555   1.480   1.401
 8369SOL    HW226007   2.711   1.492   1.354
 8370SOL     OW26008   1.778   1.508   0.139
 8370SOL    HW126009   1.800   1.415   0.168
 8370SOL    HW226010   1.735   1.505   0.048
 8371SOL     OW26011   1.891   2.301   0.059
 8371SOL    HW126012   1.808   2.358   0.057
 8371SOL    HW226013   1.968   2.353   0.022
 8372SOL     OW26014   6.634   0.578   1.088
 8372SOL    HW126015   6.595   0.502   1.140
 8372SOL    HW226016   6.560   0.637   1.056
 8373SOL     OW26017   1.423   6.466   4.476
 8373SOL    HW126018   1.424   6.397   4.403
 8373SOL    HW226019   1.486   6.437   4.549
 8374SOL     OW26020   6.643   0.640   5.850
 8374SOL    HW126021   6.734   0.602   5.834
 8374SOL    HW226022   6.575   0.584   5.801
 8375SOL     OW26023   4.161   0.584   6.157
 8375SOL    HW126024   4.153   0.676   6.195
 8375SOL    HW226025   4.152   0.516   6.230
 8376SOL     OW26026   4.546   0.336   4.501
 8376SOL    HW126027   4.615   0.288   4.447
 8376SOL    HW226028   4.588   0.414   4.547
 8377SOL     OW26029   5.673   5.138   1.193
 8377SOL    HW126030   5.714   5.146   1.284
 8377SOL    HW226031   5.743   5.110   1.128
 8378SOL     OW26032   5.032   3.174   3.867
 8378SOL    HW126033   5.052   3.251   3.806
 8378SOL    HW226034   5.087   3.181   3.950
 8379SOL     OW26035   5.184   2.748   2.139
 8379SOL    HW126036   5.223   2.826   2.189
 8379SOL    HW226037   5.206   2.756   2.042
 8380SOL     OW26038   5.492   1.631   3.535
 8380SOL    HW126039   5.508   1.618   3.437
 8380SOL    HW226040   5.574   1.670   3.578
 8381SOL     OW26041   1.789   5.405   4.096
 8381SOL    HW126042   1.793   5.422   3.997
 8381SOL    HW226043   1.699   5.431   4.130
 8382SOL     OW26044   0.811   4.586   2.244
 8382SOL    HW126045   0.786   4.510   2.184
 8382SOL    HW226046   0.745   4.593   2.319
 8383SOL     OW26047   3.492   0.971   5.274
 8383SOL    HW126048   3.563   0.983   5.205
 8383SOL    HW226049   3.408   1.015   5.244
 8384SOL     OW26050   0.911   6.615   1.750
 8384SOL    HW126051   0.862   6.543   1.701
 8384SOL    HW226052   0.986   6.574   1.802
 8385SOL     OW26053   4.551   2.218   1.035
 8385SOL    HW126054   4.451   2.221   1.033
 8385SOL    HW226055   4.587   2.303   1.072
 8386SOL     OW26056   0.507   3.748   2.651
 8386SOL    HW126057   0.586   3.697   2.685
 8386SOL    HW226058   0.523   3.773   2.555
 8387SOL     OW26059   1.140   1.981   1.526
 8387SOL    HW126060   1.218   1.962   1.585
 8387SOL    HW226061   1.058   1.993   1.582
 8388SOL     OW26062   1.016   6.725   2.857
 8388SOL    HW126063   0.946   6.790   2.889
 8388SOL    HW226064   1.001   6.637   2.901
 8389SOL     OW26065   6.148   2.803   3.345
 8389SOL    HW126066   6.202   2.722   3.319
 8389SOL    HW226067   6.067   2.773   3.395
 8390SOL     OW26068   5.975   1.771   6.703
 8390SOL    HW126069   6.009   1.804   6.614
 8390SOL    HW226070   5.937   1.679   6.692
 8391SOL     OW26071   6.889   6.922   1.226
 8391SOL    HW126072   6.818   6.988   1.250
 8391SOL    HW226073   6.906   6.860   1.303
 8392SOL     OW26074   3.394   3.247   5.402
 8392SOL    HW126075   3.471   3.255   5.338
 8392SOL    HW226076   3.398   3.158   5.447
 8393SOL     OW26077   5.576   6.989   1.099
 8393SOL    HW126078   5.522   0.045   1.139
 8393SOL    HW226079   5.606   6.926   1.170
 8394SOL     OW26080   6.002   2.631   2.278
 8394SOL    HW126081   6.007   2.531   2.286
 8394SOL    HW226082   6.095   2.668   2.274
 8395SOL     OW26083   2.422   0.996   5.041
 8395SOL    HW126084   2.350   0.926   5.039
 8395SOL    HW226085   2.388   1.076   5.090
 8396SOL     OW26086   4.908   5.311   4.163
 8396SOL    HW126087   4.897   5.381   4.234
 8396SOL    HW226088   4.974   5.243   4.194
 8397SOL     OW26089   6.854   6.980   2.837
 8397SOL    HW126090   6.890   6.888   2.854
 8397SOL    HW226091   6.876   7.008   2.744
 8398SOL     OW26092   5.985   1.930   6.478
 8398SOL    HW126093   6.056   1.907   6.411
 8398SOL    HW226094   5.985   2.028   6.494
 8399SOL     OW26095   0.314   4.430   2.088
 8399SOL    HW126096   0.235   4.483   2.117
 8399SOL    HW226097   0.304   4.404   1.992
 8400SOL     OW26098   1.182   1.038   4.879
 8400SOL    HW126099   1.271   1.021   4.838
 8400SOL    HW226100   1.154   1.132   4.860
 8401SOL     OW26101   2.100   0.073   5.764
 8401SOL    HW126102   2.036   0.013   5.813
 8401SOL    HW226103   2.084   0.066   5.666
 8402SOL     OW26104   3.236   0.444   6.778
 8402SOL    HW126105   3.211   0.362   6.727
 8402SOL    HW226106   3.329   0.472   6.753
 8403SOL     OW26107   5.340   4.836   5.050
 8403SOL    HW126108   5.344   4.801   5.144
 8403SOL    HW226109   5.418   4.801   4.998
 8404SOL     OW26110   1.068   1.545   0.003
 8404SOL    HW126111   1.054   1.603   0.084
 8404SOL    HW226112   1.036   1.594   6.940
 8405SOL     OW26113   4.009   6.726   5.376
 8405SOL    HW126114   4.010   6.778   5.290
 8405SOL    HW226115   3.923   6.744   5.425
 8406SOL     OW26116   5.495   0.209   5.995
 8406SOL    HW126117   5.504   0.201   6.094
 8406SOL    HW226118   5.493   0.306   5.970
 8407SOL     OW26119   4.282   0.387   4.348
 8407SOL    HW126120   4.325   0.442   4.420
 8407SOL    HW226121   4.201   0.434   4.313
 8408SOL     OW26122   4.053   1.989   1.270
 8408SOL    HW126123   3.994   1.960   1.345
 8408SOL    HW226124   4.103   1.910   1.234
 8409SOL     OW26125   4.460   2.481   1.972
 8409SOL    HW126126   4.416   2.435   2.050
 8409SOL    HW226127   4.559   2.468   1.977
 8410SOL     OW26128   6.942   1.716   1.516
 8410SOL    HW126129   6.884   1.647   1.473
 8410SOL    HW226130   6.884   1.792   1.548
 8411SOL     OW26131   1.075   6.302   1.179
 8411SOL    HW126132   1.168   6.265   1.190
 8411SOL    HW226133   1.044   6.338   1.266
 8412SOL     OW26134   2.660   2.850   6.693
 8412SOL    HW126135   2.718   2.912   6.746
 8412SOL    HW226136   2.700   2.837   6.602
 8413SOL     OW26137   3.716   5.676   4.582
 8413SOL    HW126138   3.645   5.683   4.652
 8413SOL    HW226139   3.779   5.754   4.590
 8414SOL     OW26140   1.619   0.120   0.769
 8414SOL    HW126141   1.542   0.098   0.709
 8414SOL    HW226142   1.613   0.064   0.852
 8415SOL     OW26143   3.338   1.592   6.331
 8415SOL    HW126144   3.274   1.515   6.322
 8415SOL    HW226145   3.432   1.558   6.325
 8416SOL     OW26146   0.326   2.368   5.120
 8416SOL    HW126147   0.320   2.429   5.041
 8416SOL    HW226148   0.298   2.417   5.202
 8417SOL     OW26149   1.842   3.393   5.980
 8417SOL    HW126150   1.822   3.315   6.040
 8417SOL    HW226151   1.816   3.370   5.886
 8418SOL     OW26152   0.472   6.034   2.374
 8418SOL    HW126153   0.540   6.001   2.439
 8418SOL    HW226154   0.427   5.956   2.331
 8419SOL     OW26155   3.647   1.830   4.413
 8419SOL    HW126156   3.550   1.809   4.425
 8419SOL    HW226157   3.697   1.804   4.496
 8420SOL     OW26158   3.417   1.201   2.129
 8420SOL    HW126159   3.503   1.187   2.079
 8420SOL    HW226160   3.438   1.236   2.220
 8421SOL     OW26161   4.771   6.776   6.644
 8421SOL    HW126162   4.710   6.844   6.604
 8421SOL    HW226163   4.790   6.704   6.577
 8422SOL     OW26164   5.373   2.382   3.986
 8422SOL    HW126165   5.348   2.423   3.898
 8422SOL    HW226166   5.311   2.306   4.006
 8423SOL     OW26167   6.456   5.892   0.204
 8423SOL    HW126168   6.452   5.801   0.245
 8423SOL    HW226169   6.518   5.890   0.126
 8424SOL     OW26170   3.541   0.669   5.296
 8424SOL    HW126171   3.614   0.681   5.364
 8424SOL    HW226172   3.485   0.752   5.293
 8425SOL     OW26173   3.926   3.545   2.244
 8425SOL    HW126174   3.914   3.558   2.342
 8425SOL    HW226175   3.877   3.618   2.195
 8426SOL     OW26176   3.635   3.487   1.763
 8426SOL    HW126177   3.546   3.458   1.727
 8426SOL    HW226178   3.627   3.579   1.801
 8427SOL     OW26179   4.008   3.217   3.376
 8427SOL    HW126180   4.053   3.303   3.352
 8427SOL    HW226181   3.946   3.231   3.453
 8428SOL     OW26182   5.922   0.368   2.180
 8428SOL    HW126183   5.963   0.395   2.092
 8428SOL    HW226184   5.822   0.377   2.173
 8429SOL     OW26185   2.799   5.975   5.457
 8429SOL    HW126186   2.857   6.035   5.402
 8429SOL    HW226187   2.847   5.890   5.477
 8430SOL     OW26188   5.013   6.567   5.143
 8430SOL    HW126189   5.072   6.522   5.076
 8430SOL    HW226190   4.917   6.553   5.117
 8431SOL     OW26191   2.266   3.292   6.003
 8431SOL    HW126192   2.363   3.305   5.981
 8431SOL    HW226193   2.224   3.382   6.019
 8432SOL     OW26194   6.340   5.319   5.920
 8432SOL    HW126195   6.275   5.246   5.939
 8432SOL    HW226196   6.311   5.402   5.968
 8433SOL     OW26197   5.018   2.350   1.154
 8433SOL    HW126198   4.999   2.280   1.223
 8433SOL    HW226199   5.002   2.440   1.192
 8434SOL     OW26200   2.773   6.086   5.001
 8434SOL    HW126201   2.783   6.043   4.911
 8434SOL    HW226202   2.777   6.016   5.072
 8435SOL     OW26203   6.301   1.448   3.142
 8435SOL    HW126204   6.346   1.538   3.137
 8435SOL    HW226205   6.232   1.442   3.071
 8436SOL     OW26206   1.889   5.894   2.448
 8436SOL    HW126207   1.822   5.820   2.437
 8436SOL    HW226208   1.979   5.855   2.465
 8437SOL     OW26209   1.305   6.108   0.762
 8437SOL    HW126210   1.389   6.157   0.782
 8437SOL    HW226211   1.308   6.017   0.802
 8438SOL     OW26212   1.205   4.090   2.556
 8438SOL    HW126213   1.111   4.060   2.567
 8438SOL    HW226214   1.264   4.011   2.539
 8439SOL     OW26215   6.345   4.592   2.385
 8439SOL    HW126216   6.291   4.662   2.431
 8439SOL    HW226217   6.333   4.505   2.432
 8440SOL     OW26218   1.780   1.963   2.378
 8440SOL    HW126219   1.813   1.870   2.390
 8440SOL    HW226220   1.833   2.009   2.306
 8441SOL     OW26221   6.753   2.295   6.023
 8441SOL    HW126222   6.669   2.284   6.076
 8441SOL    HW226223   6.759   2.390   5.990
 8442SOL     OW26224   4.027   2.262   0.164
 8442SOL    HW126225   4.012   2.163   0.156
 8442SOL    HW226226   3.945   2.304   0.205
 8443SOL     OW26227   2.063   4.269   2.871
 8443SOL    HW126228   2.147   4.243   2.824
 8443SOL    HW226229   2.021   4.188   2.913
 8444SOL     OW26230   5.468   5.531   4.520
 8444SOL    HW126231   5.393   5.508   4.457
 8444SOL    HW226232   5.448   5.494   4.610
 8445SOL     OW26233   4.581   6.683   6.842
 8445SOL    HW126234   4.563   6.771   6.886
 8445SOL    HW226235   4.647   6.694   6.768
 8446SOL     OW26236   6.896   5.754   4.696
 8446SOL    HW126237   6.810   5.763   4.645
 8446SOL    HW226238   6.893   5.672   4.752
 8447SOL     OW26239   3.755   1.400   4.009
 8447SOL    HW126240   3.733   1.470   4.076
 8447SOL    HW226241   3.824   1.338   4.046
 8448SOL     OW26242   3.729   5.826   3.103
 8448SOL    HW126243   3.632   5.822   3.128
 8448SOL    HW226244   3.739   5.874   3.016
 8449SOL     OW26245   1.529   2.337   4.183
 8449SOL    HW126246   1.455   2.307   4.244
 8449SOL    HW226247   1.491   2.399   4.114
 8450SOL     OW26248   6.780   0.988   0.376
 8450SOL    HW126249   6.789   1.060   0.446
 8450SOL    HW226250   6.858   0.992   0.313
 8451SOL     OW26251   3.859   2.689   1.400
 8451SOL    HW126252   3.833   2.785   1.410
 8451SOL    HW226253   3.819   2.652   1.316
 8452SOL     OW26254   5.132   1.581   5.704
 8452SOL    HW126255   5.199   1.508   5.718
 8452SOL    HW226256   5.066   1.554   5.634
 8453SOL     OW26257   6.735   0.400   6.862
 8453SOL    HW126258   6.685   0.465   6.920
 8453SOL    HW226259   6.685   0.313   6.858
 8454SOL     OW26260   6.207   5.665   6.497
 8454SOL    HW126261   6.275   5.593   6.489
 8454SOL    HW226262   6.244   5.750   6.459
 8455SOL     OW26263   6.507   0.994   2.494
 8455SOL    HW126264   6.560   1.037   2.421
 8455SOL    HW226265   6.426   0.949   2.454
 8456SOL     OW26266   6.909   0.771   2.068
 8456SOL    HW126267   6.977   0.717   2.018
 8456SOL    HW226268   6.892   0.729   2.157
 8457SOL     OW26269   0.125   0.467   5.133
 8457SOL    HW126270   0.184   0.388   5.149
 8457SOL    HW226271   0.180   0.550   5.136
 8458SOL     OW26272   1.285   6.624   6.721
 8458SOL    HW126273   1.284   6.549   6.787
 8458SOL    HW226274   1.228   6.699   6.756
 8459SOL     OW26275   1.189   5.779   3.055
 8459SOL    HW126276   1.229   5.727   3.131
 8459SOL    HW226277   1.171   5.718   2.978
 8460SOL     OW26278   4.025   3.766   3.030
 8460SOL    HW126279   4.122   3.785   3.044
 8460SOL    HW226280   4.012   3.718   2.943
 8461SOL     OW26281   6.042   3.475   3.591
 8461SOL    HW126282   5.950   3.468   3.630
 8461SOL    HW226283   6.102   3.408   3.635
 8462SOL     OW26284   2.777   2.624   1.743
 8462SOL    HW126285   2.813   2.558   1.809
 8462SOL    HW226286   2.695   2.587   1.700
 8463SOL     OW26287   6.068   0.590   1.740
 8463SOL    HW126288   6.025   0.546   1.661
 8463SOL    HW226289   6.143   0.647   1.709
 8464SOL     OW26290   6.612   1.147   4.437
 8464SOL    HW126291   6.522   1.145   4.481
 8464SOL    HW226292   6.683   1.155   4.508
 8465SOL     OW26293   1.566   1.852   0.546
 8465SOL    HW126294   1.475   1.893   0.541
 8465SOL    HW226295   1.557   1.753   0.560
 8466SOL     OW26296   0.798   6.892   4.313
 8466SOL    HW126297   0.718   6.841   4.283
 8466SOL    HW226298   0.772   6.986   4.336
 8467SOL     OW26299   4.401   5.320   0.517
 8467SOL    HW126300   4.311   5.338   0.478
 8467SOL    HW226301   4.467   5.307   0.443
 8468SOL     OW26302   3.467   2.605   0.242
 8468SOL    HW126303   3.415   2.629   0.160
 8468SOL    HW226304   3.562   2.585   0.217
 8469SOL     OW26305   4.170   2.173   5.760
 8469SOL    HW126306   4.163   2.102   5.690
 8469SOL    HW226307   4.170   2.130   5.850
 8470SOL     OW26308   1.772   2.914   6.943
 8470SOL    HW126309   1.714   2.990   6.974
 8470SOL    HW226310   1.851   2.905   7.003
 8471SOL     OW26311   4.382   1.716   4.719
 8471SOL    HW126312   4.475   1.706   4.684
 8471SOL    HW226313   4.318   1.723   4.642
 8472SOL     OW26314   1.259   6.494   2.803
 8472SOL    HW126315   1.299   6.581   2.774
 8472SOL    HW226316   1.331   6.425   2.809
 8473SOL     OW26317   6.518   5.807   6.422
 8473SOL    HW126318   6.490   5.897   6.454
 8473SOL    HW226319   6.489   5.795   6.327
 8474SOL     OW26320   4.009   5.618   0.445
 8474SOL    HW126321   3.969   5.597   0.534
 8474SOL    HW226322   3.952   5.683   0.396
 8475SOL     OW26323   4.771   2.235   2.949
 8475SOL    HW126324   4.705   2.193   3.012
 8475SOL    HW226325   4.729   2.314   2.906
 8476SOL     OW26326   4.430   0.521   2.404
 8476SOL    HW126327   4.504   0.486   2.460
 8476SOL    HW226328   4.435   0.621   2.399
 8477SOL     OW26329   2.871   0.154   3.101
 8477SOL    HW126330   2.925   0.096   3.041
 8477SOL    HW226331   2.837   0.233   3.050
 8478SOL     OW26332   1.424   0.574   5.864
 8478SOL    HW126333   1.359   0.649   5.877
 8478SOL    HW226334   1.487   0.571   5.941
 8479SOL     OW26335   5.206   0.904   2.520
 8479SOL    HW126336   5.238   0.992   2.554
 8479SOL    HW226337   5.138   0.919   2.447
 8480SOL     OW26338   1.876   1.346   1.076
 8480SOL    HW126339   1.863   1.399   0.993
 8480SOL    HW226340   1.973   1.343   1.100
 8481SOL     OW26341   4.223   0.325   5.796
 8481SOL    HW126342   4.316   0.289   5.792
 8481SOL    HW226343   4.178   0.294   5.880
 8482SOL     OW26344   0.127   0.259   1.542
 8482SOL    HW126345   0.051   0.316   1.575
 8482SOL    HW226346   0.208   0.316   1.530
 8483SOL     OW26347   5.551   6.259   1.639
 8483SOL    HW126348   5.453   6.240   1.630
 8483SOL    HW226349   5.565   6.325   1.712
 8484SOL     OW26350   6.808   4.675   5.364
 8484SOL    HW126351   6.762   4.591   5.336
 8484SOL    HW226352   6.878   4.654   5.432
 8485SOL     OW26353   2.067   3.454   6.406
 8485SOL    HW126354   2.003   3.526   6.380
 8485SOL    HW226355   2.150   3.495   6.445
 8486SOL     OW26356   4.228   0.643   2.616
 8486SOL    HW126357   4.297   0.674   2.552
 8486SOL    HW226358   4.161   0.585   2.568
 8487SOL     OW26359   4.540   0.843   0.827
 8487SOL    HW126360   4.440   0.854   0.825
 8487SOL    HW226361   4.581   0.899   0.755
 8488SOL     OW26362   5.769   3.629   4.909
 8488SOL    HW126363   5.795   3.724   4.894
 8488SOL    HW226364   5.704   3.624   4.985
 8489SOL     OW26365   3.333   6.561   2.604
 8489SOL    HW126366   3.269   6.498   2.649
 8489SOL    HW226367   3.284   6.643   2.575
 8490SOL     OW26368   3.888   5.228   2.569
 8490SOL    HW126369   3.839   5.192   2.489
 8490SOL    HW226370   3.974   5.269   2.538
 8491SOL     OW26371   1.093   1.164   1.468
 8491SOL    HW126372   1.043   1.239   1.424
 8491SOL    HW226373   1.045   1.137   1.552
 8492SOL     OW26374   5.696   4.117   4.528
 8492SOL    HW126375   5.698   4.215   4.512
 8492SOL    HW226376   5.788   4.083   4.545
 8493SOL     OW26377   3.797   2.563   1.167
 8493SOL    HW126378   3.766   2.583   1.074
 8493SOL    HW226379   3.735   2.496   1.209
 8494SOL     OW26380   3.537   5.817   6.797
 8494SOL    HW126381   3.537   5.886   6.869
 8494SOL    HW226382   3.610   5.836   6.732
 8495SOL     OW26383   0.467   2.594   0.083
 8495SOL    HW126384   0.427   2.513   0.041
 8495SOL    HW226385   0.567   2.591   0.073
 8496SOL     OW26386   0.833   1.805   3.630
 8496SOL    HW126387   0.803   1.712   3.610
 8496SOL    HW226388   0.806   1.866   3.556
 8497SOL     OW26389   5.717   4.123   3.191
 8497SOL    HW126390   5.752   4.165   3.274
 8497SOL    HW226391   5.677   4.034   3.213
 8498SOL     OW26392   6.607   0.941   1.546
 8498SOL    HW126393   6.537   0.920   1.478
 8498SOL    HW226394   6.603   1.038   1.570
 8499SOL     OW26395   0.576   4.029   6.952
 8499SOL    HW126396   0.601   4.093   6.879
 8499SOL    HW226397   0.569   4.079   0.021
 8500SOL     OW26398   2.991   0.510   5.751
 8500SOL    HW126399   2.989   0.600   5.795
 8500SOL    HW226400   2.908   0.498   5.697
 8501SOL     OW26401   2.845   4.216   5.928
 8501SOL    HW126402   2.943   4.200   5.913
 8501SOL    HW226403   2.796   4.201   5.842
 8502SOL     OW26404   0.731   7.015   1.461
 8502SOL    HW126405   0.642   6.971   1.471
 8502SOL    HW226406   0.773   6.987   1.375
 8503SOL     OW26407   3.508   5.832   3.691
 8503SOL    HW126408   3.512   5.913   3.749
 8503SOL    HW226409   3.552   5.755   3.737
 8504SOL     OW26410   1.604   5.039   3.246
 8504SOL    HW126411   1.588   4.982   3.326
 8504SOL    HW226412   1.650   4.985   3.175
 8505SOL     OW26413   4.580   2.021   3.554
 8505SOL    HW126414   4.627   2.097   3.509
 8505SOL    HW226415   4.492   2.005   3.509
 8506SOL     OW26416   1.310   6.246   6.836
 8506SOL    HW126417   1.223   6.203   6.862
 8506SOL    HW226418   1.302   6.285   6.744
 8507SOL     OW26419   1.707   0.224   4.880
 8507SOL    HW126420   1.643   0.215   4.805
 8507SOL    HW226421   1.665   0.190   4.964
 8508SOL     OW26422   0.159   2.968   5.336
 8508SOL    HW126423   0.162   2.988   5.434
 8508SOL    HW226424   0.252   2.968   5.299
 8509SOL     OW26425   6.036   1.895   4.906
 8509SOL    HW126426   5.952   1.843   4.890
 8509SOL    HW226427   6.114   1.833   4.899
 8510SOL     OW26428   5.293   0.122   2.034
 8510SOL    HW126429   5.238   0.202   2.059
 8510SOL    HW226430   5.381   0.153   1.997
 8511SOL     OW26431   6.440   5.497   1.785
 8511SOL    HW126432   6.480   5.562   1.850
 8511SOL    HW226433   6.362   5.541   1.739
 8512SOL     OW26434   3.604   2.817   0.883
 8512SOL    HW126435   3.514   2.860   0.890
 8512SOL    HW226436   3.599   2.725   0.921
 8513SOL     OW26437   1.008   3.341   0.840
 8513SOL    HW126438   0.911   3.319   0.838
 8513SOL    HW226439   1.022   3.429   0.884
 8514SOL     OW26440   2.282   2.733   5.019
 8514SOL    HW126441   2.189   2.722   5.055
 8514SOL    HW226442   2.310   2.828   5.027
 8515SOL     OW26443   2.950   0.510   0.375
 8515SOL    HW126444   2.957   0.415   0.345
 8515SOL    HW226445   2.890   0.561   0.313
 8516SOL     OW26446   5.878   3.398   4.553
 8516SOL    HW126447   5.897   3.307   4.518
 8516SOL    HW226448   5.844   3.392   4.647
 8517SOL     OW26449   1.850   1.803   5.892
 8517SOL    HW126450   1.797   1.726   5.927
 8517SOL    HW226451   1.863   1.871   5.964
 8518SOL     OW26452   5.214   4.690   6.848
 8518SOL    HW126453   5.151   4.625   6.807
 8518SOL    HW226454   5.290   4.640   6.890
 8519SOL     OW26455   0.424   3.966   0.473
 8519SOL    HW126456   0.435   4.053   0.521
 8519SOL    HW226457   0.372   3.902   0.530
 8520SOL     OW26458   3.349   3.970   5.782
 8520SOL    HW126459   3.376   4.041   5.847
 8520SOL    HW226460   3.322   3.888   5.831
 8521SOL     OW26461   1.807   6.563   4.797
 8521SOL    HW126462   1.820   6.476   4.750
 8521SOL    HW226463   1.782   6.633   4.730
 8522SOL     OW26464   0.620   0.497   6.862
 8522SOL    HW126465   0.580   0.566   6.801
 8522SOL    HW226466   0.550   0.467   6.928
 8523SOL     OW26467   4.004   1.497   1.021
 8523SOL    HW126468   3.927   1.465   0.967
 8523SOL    HW226469   4.071   1.542   0.961
 8524SOL     OW26470   2.555   6.147   5.365
 8524SOL    HW126471   2.640   6.098   5.342
 8524SOL    HW226472   2.499   6.089   5.424
 8525SOL     OW26473   6.279   2.672   2.285
 8525SOL    HW126474   6.331   2.752   2.255
 8525SOL    HW226475   6.325   2.629   2.362
 8526SOL     OW26476   0.025   4.411   6.687
 8526SOL    HW126477   0.100   4.354   6.719
 8526SOL    HW226478   6.972   4.415   6.757
 8527SOL     OW26479   2.983   0.873   6.065
 8527SOL    HW126480   3.077   0.839   6.063
 8527SOL    HW226481   2.979   0.955   6.123
 8528SOL     OW26482   5.718   0.883   1.242
 8528SOL    HW126483   5.699   0.910   1.148
 8528SOL    HW226484   5.816   0.868   1.254
 8529SOL     OW26485   0.927   6.364   6.150
 8529SOL    HW126486   0.970   6.454   6.153
 8529SOL    HW226487   0.869   6.357   6.069
 8530SOL     OW26488   3.791   3.562   2.489
 8530SOL    HW126489   3.831   3.501   2.558
 8530SOL    HW226490   3.748   3.639   2.535
 8531SOL     OW26491   6.710   5.607   3.049
 8531SOL    HW126492   6.641   5.663   3.004
 8531SOL    HW226493   6.668   5.526   3.090
 8532SOL     OW26494   3.185   5.349   0.020
 8532SOL    HW126495   3.278   5.385   0.005
 8532SOL    HW226496   3.133   5.357   6.953
 8533SOL     OW26497   2.191   6.152   4.959
 8533SOL    HW126498   2.101   6.110   4.951
 8533SOL    HW226499   2.247   6.100   5.024
 8534SOL     OW26500   1.844   2.778   2.171
 8534SOL    HW126501   1.876   2.689   2.139
 8534SOL    HW226502   1.862   2.847   2.101
 8535SOL     OW26503   5.953   0.599   2.312
 8535SOL    HW126504   5.951   0.511   2.264
 8535SOL    HW226505   5.962   0.583   2.411
 8536SOL     OW26506   1.640   1.005   3.809
 8536SOL    HW126507   1.587   0.980   3.890
 8536SOL    HW226508   1.678   1.097   3.821
 8537SOL     OW26509   6.111   0.953   3.614
 8537SOL    HW126510   6.077   1.021   3.548
 8537SOL    HW226511   6.074   0.863   3.591
 8538SOL     OW26512   0.808   2.390   0.183
 8538SOL    HW126513   0.808   2.372   0.085
 8538SOL    HW226514   0.718   2.369   0.221
 8539SOL     OW26515   5.025   3.187   1.874
 8539SOL    HW126516   4.989   3.210   1.784
 8539SOL    HW226517   5.028   3.087   1.885
 8540SOL     OW26518   4.611   0.566   1.696
 8540SOL    HW126519   4.698   0.562   1.648
 8540SOL    HW226520   4.567   0.654   1.678
 8541SOL     OW26521   2.151   3.181   3.554
 8541SOL    HW126522   2.162   3.082   3.557
 8541SOL    HW226523   2.153   3.218   3.647
 8542SOL     OW26524   3.055   4.836   6.549
 8542SOL    HW126525   3.128   4.895   6.583
 8542SOL    HW226526   2.977   4.841   6.611
 8543SOL     OW26527   3.839   1.970   6.789
 8543SOL    HW126528   3.781   2.023   6.852
 8543SOL    HW226529   3.781   1.925   6.721
 8544SOL     OW26530   6.355   1.769   4.814
 8544SOL    HW126531   6.335   1.692   4.753
 8544SOL    HW226532   6.318   1.853   4.774
 8545SOL     OW26533   4.191   6.511   5.586
 8545SOL    HW126534   4.226   6.534   5.676
 8545SOL    HW226535   4.231   6.572   5.518
 8546SOL     OW26536   3.845   2.282   6.941
 8546SOL    HW126537   3.790   2.279   6.857
 8546SOL    HW226538   3.925   2.223   6.930
 8547SOL     OW26539   1.849   4.760   2.230
 8547SOL    HW126540   1.766   4.765   2.173
 8547SOL    HW226541   1.909   4.689   2.195
 8548SOL     OW26542   6.216   2.409   5.566
 8548SOL    HW126543   6.270   2.339   5.613
 8548SOL    HW226544   6.273   2.455   5.498
 8549SOL     OW26545   5.187   3.342   5.266
 8549SOL    HW126546   5.124   3.286   5.319
 8549SOL    HW226547   5.195   3.306   5.173
 8550SOL     OW26548   1.719   4.518   5.407
 8550SOL    HW126549   1.671   4.543   5.323
 8550SOL    HW226550   1.817   4.531   5.395
 8551SOL     OW26551   2.233   4.319   1.222
 8551SOL    HW126552   2.142   4.283   1.203
 8551SOL    HW226553   2.295   4.297   1.147
 8552SOL     OW26554   2.989   6.454   4.561
 8552SOL    HW126555   2.986   6.502   4.649
 8552SOL    HW226556   2.982   6.521   4.487
 8553SOL     OW26557   6.172   5.609   6.977
 8553SOL    HW126558   6.113   5.625   0.038
 8553SOL    HW226559   6.263   5.644   6.996
 8554SOL     OW26560   5.987   3.724   0.294
 8554SOL    HW126561   5.920   3.760   0.229
 8554SOL    HW226562   5.945   3.651   0.348
 8555SOL     OW26563   1.925   6.367   4.373
 8555SOL    HW126564   2.024   6.376   4.373
 8555SOL    HW226565   1.895   6.327   4.459
 8556SOL     OW26566   6.020   0.026   4.559
 8556SOL    HW126567   5.930   0.054   4.525
 8556SOL    HW226568   6.078   0.001   4.482
 8557SOL     OW26569   6.970   1.861   0.752
 8557SOL    HW126570   0.020   1.934   0.737
 8557SOL    HW226571   6.887   1.883   0.701
 8558SOL     OW26572   1.587   4.809   2.098
 8558SOL    HW126573   1.504   4.792   2.150
 8558SOL    HW226574   1.565   4.814   2.000
 8559SOL     OW26575   0.605   1.416   5.206
 8559SOL    HW126576   0.697   1.456   5.199
 8559SOL    HW226577   0.608   1.321   5.174
 8560SOL     OW26578   6.391   2.536   6.779
 8560SOL    HW126579   6.409   2.486   6.694
 8560SOL    HW226580   6.412   2.633   6.767
 8561SOL     OW26581   4.753   5.977   5.999
 8561SOL    HW126582   4.785   6.067   5.969
 8561SOL    HW226583   4.818   5.907   5.967
 8562SOL     OW26584   3.561   0.005   4.477
 8562SOL    HW126585   3.598   0.078   4.535
 8562SOL    HW226586   3.496   6.969   4.530
 8563SOL     OW26587   2.906   2.582   6.637
 8563SOL    HW126588   2.857   2.534   6.710
 8563SOL    HW226589   2.924   2.676   6.666
 8564SOL     OW26590   0.977   6.238   3.162
 8564SOL    HW126591   0.912   6.183   3.216
 8564SOL    HW226592   1.059   6.184   3.145
 8565SOL     OW26593   3.621   0.695   1.424
 8565SOL    HW126594   3.643   0.660   1.333
 8565SOL    HW226595   3.569   0.780   1.415
 8566SOL     OW26596   1.736   3.594   4.092
 8566SOL    HW126597   1.666   3.651   4.048
 8566SOL    HW226598   1.796   3.653   4.147
 8567SOL     OW26599   5.119   6.073   6.116
 8567SOL    HW126600   5.187   6.113   6.178
 8567SOL    HW226601   5.167   6.026   6.041
 8568SOL     OW26602   5.547   0.351   0.260
 8568SOL    HW126603   5.611   0.428   0.254
 8568SOL    HW226604   5.483   0.368   0.335
 8569SOL     OW26605   3.716   0.899   5.800
 8569SOL    HW126606   3.647   0.866   5.865
 8569SOL    HW226607   3.800   0.922   5.849
 8570SOL     OW26608   6.469   3.322   6.258
 8570SOL    HW126609   6.482   3.375   6.175
 8570SOL    HW226610   6.558   3.306   6.301
 8571SOL     OW26611   0.230   4.644   5.642
 8571SOL    HW126612   0.295   4.719   5.634
 8571SOL    HW226613   0.277   4.557   5.625
 8572SOL     OW26614   2.713   5.332   5.670
 8572SOL    HW126615   2.676   5.258   5.726
 8572SOL    HW226616   2.641   5.364   5.607
 8573SOL     OW26617   3.435   5.683   4.474
 8573SOL    HW126618   3.526   5.662   4.512
 8573SOL    HW226619   3.432   5.778   4.445
 8574SOL     OW26620   0.559   4.146   4.005
 8574SOL    HW126621   0.532   4.076   3.940
 8574SOL    HW226622   0.508   4.230   3.987
 8575SOL     OW26623   2.877   3.552   6.397
 8575SOL    HW126624   2.935   3.622   6.355
 8575SOL    HW226625   2.852   3.484   6.328
 8576SOL     OW26626   2.023   0.028   0.577
 8576SOL    HW126627   1.994   0.076   0.660
 8576SOL    HW226628   1.942   7.012   0.529
 8577SOL     OW26629   6.311   5.653   4.502
 8577SOL    HW126630   6.324   5.741   4.546
 8577SOL    HW226631   6.277   5.666   4.409
 8578SOL     OW26632   4.494   0.677   3.016
 8578SOL    HW126633   4.404   0.634   3.024
 8578SOL    HW226634   4.548   0.655   3.097
 8579SOL     OW26635   0.584   4.899   2.366
 8579SOL    HW126636   0.534   4.861   2.288
 8579SOL    HW226637   0.572   4.838   2.445
 8580SOL     OW26638   2.494   5.632   5.822
 8580SOL    HW126639   2.551   5.554   5.848
 8580SOL    HW226640   2.410   5.599   5.779
 8581SOL     OW26641   2.963   3.443   0.543
 8581SOL    HW126642   2.899   3.519   0.556
 8581SOL    HW226643   2.943   3.371   0.610
 8582SOL     OW26644   3.826   5.112   0.033
 8582SOL    HW126645   3.919   5.076   0.027
 8582SOL    HW226646   3.827   5.210   0.012
 8583SOL     OW26647   5.539   6.893   5.193
 8583SOL    HW126648   5.501   6.880   5.102
 8583SOL    HW226649   5.542   6.805   5.241
 8584SOL     OW26650   0.434   5.747   6.327
 8584SOL    HW126651   0.448   5.768   6.423
 8584SOL    HW226652   0.502   5.796   6.272
 8585SOL     OW26653   1.564   1.849   1.245
 8585SOL    HW126654   1.631   1.775   1.239
 8585SOL    HW226655   1.601   1.930   1.201
 8586SOL     OW26656   3.789   5.161   3.903
 8586SOL    HW126657   3.783   5.145   3.805
 8586SOL    HW226658   3.876   5.126   3.937
 8587SOL     OW26659   6.486   1.888   1.327
 8587SOL    HW126660   6.454   1.865   1.235
 8587SOL    HW226661   6.431   1.839   1.395
 8588SOL     OW26662   3.637   2.678   6.107
 8588SOL    HW126663   3.716   2.701   6.051
 8588SOL    HW226664   3.555   2.720   6.068
 8589SOL     OW26665   2.494   1.583   4.572
 8589SOL    HW126666   2.573   1.609   4.629
 8589SOL    HW226667   2.496   1.484   4.556
 8590SOL     OW26668   5.596   5.022   5.442
 8590SOL    HW126669   5.568   4.983   5.530
 8590SOL    HW226670   5.580   5.121   5.444
 8591SOL     OW26671   0.319   2.843   0.405
 8591SOL    HW126672   0.224   2.811   0.402
 8591SOL    HW226673   0.323   2.929   0.455
 8592SOL     OW26674   6.204   6.243   6.969
 8592SOL    HW126675   6.295   6.213   6.939
 8592SOL    HW226676   6.191   6.220   0.047
 8593SOL     OW26677   0.543   5.704   3.220
 8593SOL    HW126678   0.613   5.721   3.289
 8593SOL    HW226679   0.503   5.613   3.236
 8594SOL     OW26680   3.788   3.966   2.951
 8594SOL    HW126681   3.743   3.948   3.038
 8594SOL    HW226682   3.885   3.984   2.967
 8595SOL     OW26683   1.420   2.746   1.715
 8595SOL    HW126684   1.370   2.679   1.661
 8595SOL    HW226685   1.465   2.701   1.792
 8596SOL     OW26686   6.613   4.121   2.305
 8596SOL    HW126687   6.561   4.200   2.272
 8596SOL    HW226688   6.644   4.139   2.399
 8597SOL     OW26689   2.270   1.477   0.862
 8597SOL    HW126690   2.233   1.386   0.844
 8597SOL    HW226691   2.211   1.546   0.822
 8598SOL     OW26692   6.107   3.203   1.827
 8598SOL    HW126693   6.109   3.105   1.808
 8598SOL    HW226694   6.015   3.238   1.807
 8599SOL     OW26695   0.678   3.086   0.742
 8599SOL    HW126696   0.700   3.169   0.794
 8599SOL    HW226697   0.762   3.050   0.701
 8600SOL     OW26698   6.448   2.321   6.086
 8600SOL    HW126699   6.436   2.403   6.030
 8600SOL    HW226700   6.388   2.326   6.166
 8601SOL     OW26701   0.751   7.016   4.938
 8601SOL    HW126702   0.841   0.042   4.942
 8601SOL    HW226703   0.683   0.064   4.908
 8602SOL     OW26704   1.521   6.369   1.926
 8602SOL    HW126705   1.612   6.408   1.942
 8602SOL    HW226706   1.517   6.333   1.832
 8603SOL     OW26707   4.764   3.353   1.233
 8603SOL    HW126708   4.770   3.334   1.135
 8603SOL    HW226709   4.693   3.294   1.274
 8604SOL     OW26710   6.009   3.041   2.978
 8604SOL    HW126711   5.963   3.057   2.891
 8604SOL    HW226712   5.941   3.023   3.049
 8605SOL     OW26713   2.922   4.993   1.727
 8605SOL    HW126714   2.888   5.055   1.797
 8605SOL    HW226715   2.996   4.938   1.765
 8606SOL     OW26716   4.155   5.384   4.818
 8606SOL    HW126717   4.091   5.372   4.894
 8606SOL    HW226718   4.106   5.377   4.731
 8607SOL     OW26719   2.689   6.466   1.025
 8607SOL    HW126720   2.630   6.417   0.961
 8607SOL    HW226721   2.635   6.535   1.073
 8608SOL     OW26722   5.917   6.901   2.492
 8608SOL    HW126723   5.927   6.881   2.590
 8608SOL    HW226724   5.990   6.963   2.464
 8609SOL     OW26725   4.909   0.189   6.001
 8609SOL    HW126726   4.985   0.253   6.013
 8609SOL    HW226727   4.830   0.222   6.053
 8610SOL     OW26728   6.612   6.522   5.590
 8610SOL    HW126729   6.622   6.435   5.638
 8610SOL    HW226730   6.518   6.554   5.598
 8611SOL     OW26731   1.676   1.964   3.267
 8611SOL    HW126732   1.602   1.898   3.263
 8611SOL    HW226733   1.643   2.054   3.240
 8612SOL     OW26734   5.001   3.204   4.532
 8612SOL    HW126735   4.951   3.119   4.549
 8612SOL    HW226736   4.974   3.240   4.442
 8613SOL     OW26737   1.292   0.778   0.676
 8613SOL    HW126738   1.349   0.730   0.743
 8613SOL    HW226739   1.223   0.715   0.640
 8614SOL     OW26740   1.576   2.275   3.523
 8614SOL    HW126741   1.639   2.352   3.526
 8614SOL    HW226742   1.623   2.193   3.556
 8615SOL     OW26743   4.700   1.686   5.796
 8615SOL    HW126744   4.750   1.744   5.732
 8615SOL    HW226745   4.602   1.707   5.792
 8616SOL     OW26746   1.012   3.320   0.416
 8616SOL    HW126747   1.064   3.234   0.418
 8616SOL    HW226748   0.931   3.311   0.475
 8617SOL     OW26749   5.677   2.914   0.852
 8617SOL    HW126750   5.696   2.856   0.773
 8617SOL    HW226751   5.761   2.957   0.883
 8618SOL     OW26752   3.723   1.286   3.076
 8618SOL    HW126753   3.748   1.253   3.167
 8618SOL    HW226754   3.623   1.283   3.065
 8619SOL     OW26755   4.045   6.465   0.720
 8619SOL    HW126756   4.026   6.543   0.660
 8619SOL    HW226757   4.073   6.498   0.810
 8620SOL     OW26758   6.009   5.886   3.817
 8620SOL    HW126759   5.963   5.857   3.733
 8620SOL    HW226760   5.991   5.820   3.890
 8621SOL     OW26761   5.257   0.957   4.066
 8621SOL    HW126762   5.191   0.966   4.141
 8621SOL    HW226763   5.349   0.953   4.104
 8622SOL     OW26764   4.908   5.232   6.364
 8622SOL    HW126765   4.845   5.195   6.297
 8622SOL    HW226766   4.981   5.282   6.317
 8623SOL     OW26767   6.192   1.801   3.947
 8623SOL    HW126768   6.242   1.886   3.965
 8623SOL    HW226769   6.121   1.789   4.017
 8624SOL     OW26770   6.099   3.207   3.669
 8624SOL    HW126771   6.071   3.243   3.758
 8624SOL    HW226772   6.196   3.181   3.672
 8625SOL     OW26773   3.664   1.248   6.550
 8625SOL    HW126774   3.750   1.298   6.536
 8625SOL    HW226775   3.682   1.167   6.607
 8626SOL     OW26776   2.843   3.462   2.596
 8626SOL    HW126777   2.799   3.471   2.507
 8626SOL    HW226778   2.870   3.552   2.629
 8627SOL     OW26779   2.830   0.278   0.015
 8627SOL    HW126780   2.869   0.189   7.008
 8627SOL    HW226781   2.899   0.349   7.018
 8628SOL     OW26782   5.877   1.783   1.231
 8628SOL    HW126783   5.883   1.820   1.138
 8628SOL    HW226784   5.883   1.684   1.227
 8629SOL     OW26785   1.697   5.861   3.280
 8629SOL    HW126786   1.745   5.876   3.194
 8629SOL    HW226787   1.625   5.792   3.266
 8630SOL     OW26788   5.110   5.068   4.179
 8630SOL    HW126789   5.114   5.017   4.265
 8630SOL    HW226790   5.180   5.140   4.180
 8631SOL     OW26791   4.242   6.187   3.728
 8631SOL    HW126792   4.320   6.125   3.734
 8631SOL    HW226793   4.270   6.272   3.682
 8632SOL     OW26794   3.167   0.977   3.072
 8632SOL    HW126795   3.142   1.047   3.006
 8632SOL    HW226796   3.085   0.932   3.107
 8633SOL     OW26797   6.657   6.646   2.662
 8633SOL    HW126798   6.709   6.573   2.706
 8633SOL    HW226799   6.565   6.649   2.700
 8634SOL     OW26800   6.416   5.924   2.017
 8634SOL    HW126801   6.340   5.865   2.043
 8634SOL    HW226802   6.381   6.004   1.968
 8635SOL     OW26803   6.270   3.495   5.709
 8635SOL    HW126804   6.186   3.522   5.754
 8635SOL    HW226805   6.346   3.552   5.740
 8636SOL     OW26806   5.849   4.864   0.790
 8636SOL    HW126807   5.752   4.885   0.792
 8636SOL    HW226808   5.862   4.766   0.804
 8637SOL     OW26809   1.410   0.949   1.663
 8637SOL    HW126810   1.479   1.011   1.701
 8637SOL    HW226811   1.372   0.989   1.579
 8638SOL     OW26812   5.639   4.703   1.249
 8638SOL    HW126813   5.639   4.789   1.198
 8638SOL    HW226814   5.571   4.708   1.322
 8639SOL     OW26815   5.818   2.367   2.108
 8639SOL    HW126816   5.784   2.396   2.018
 8639SOL    HW226817   5.858   2.276   2.100
 8640SOL     OW26818   5.080   5.992   1.654
 8640SOL    HW126819   5.003   6.026   1.599
 8640SOL    HW226820   5.065   6.014   1.750
 8641SOL     OW26821   4.841   4.631   3.697
 8641SOL    HW126822   4.926   4.684   3.698
 8641SOL    HW226823   4.837   4.577   3.613
 8642SOL     OW26824   4.263   1.254   1.993
 8642SOL    HW126825   4.328   1.277   2.065
 8642SOL    HW226826   4.232   1.337   1.947
 8643SOL     OW26827   4.639   0.169   0.086
 8643SOL    HW126828   4.729   0.137   0.058
 8643SOL    HW226829   4.642   0.268   0.101
 8644SOL     OW26830   6.487   3.314   5.130
 8644SOL    HW126831   6.446   3.299   5.040
 8644SOL    HW226832   6.498   3.412   5.145
 8645SOL     OW26833   6.375   4.034   1.561
 8645SOL    HW126834   6.474   4.030   1.573
 8645SOL    HW226835   6.341   4.120   1.599
 8646SOL     OW26836   4.887   6.032   0.799
 8646SOL    HW126837   4.876   5.934   0.785
 8646SOL    HW226838   4.984   6.053   0.811
 8647SOL     OW26839   4.410   4.919   2.220
 8647SOL    HW126840   4.500   4.909   2.180
 8647SOL    HW226841   4.379   4.831   2.257
 8648SOL     OW26842   5.957   0.778   3.820
 8648SOL    HW126843   6.053   0.759   3.842
 8648SOL    HW226844   5.942   0.759   3.723
 8649SOL     OW26845   6.295   4.425   5.519
 8649SOL    HW126846   6.338   4.500   5.570
 8649SOL    HW226847   6.344   4.340   5.536
 8650SOL     OW26848   0.540   5.727   1.413
 8650SOL    HW126849   0.486   5.644   1.430
 8650SOL    HW226850   0.489   5.788   1.353
 8651SOL     OW26851   4.176   3.036   0.866
 8651SOL    HW126852   4.175   2.985   0.780
 8651SOL    HW226853   4.209   3.129   0.850
 8652SOL     OW26854   0.717   2.982   4.565
 8652SOL    HW126855   0.776   3.011   4.640
 8652SOL    HW226856   0.662   2.904   4.594
 8653SOL     OW26857   5.346   2.933   6.220
 8653SOL    HW126858   5.280   3.002   6.250
 8653SOL    HW226859   5.348   2.859   6.287
 8654SOL     OW26860   1.407   5.004   1.595
 8654SOL    HW126861   1.445   5.041   1.680
 8654SOL    HW226862   1.308   5.001   1.602
 8655SOL     OW26863   6.006   6.247   2.108
 8655SOL    HW126864   5.946   6.311   2.156
 8655SOL    HW226865   5.991   6.255   2.010
 8656SOL     OW26866   6.324   2.317   1.788
 8656SOL    HW126867   6.315   2.226   1.747
 8656SOL    HW226868   6.420   2.344   1.789
 8657SOL     OW26869   2.900   4.688   0.743
 8657SOL    HW126870   2.888   4.594   0.775
 8657SOL    HW226871   2.913   4.687   0.643
 8658SOL     OW26872   1.351   5.385   6.202
 8658SOL    HW126873   1.383   5.355   6.292
 8658SOL    HW226874   1.251   5.385   6.200
 8659SOL     OW26875   4.238   0.023   4.604
 8659SOL    HW126876   4.252   0.110   4.652
 8659SOL    HW226877   4.260   6.965   4.666
 8660SOL     OW26878   5.296   4.421   6.767
 8660SOL    HW126879   5.350   4.397   6.847
 8660SOL    HW226880   5.294   4.343   6.703
 8661SOL     OW26881   6.331   3.279   1.665
 8661SOL    HW126882   6.289   3.301   1.577
 8661SOL    HW226883   6.260   3.266   1.734
 8662SOL     OW26884   0.816   0.661   6.969
 8662SOL    HW126885   0.757   0.587   6.935
 8662SOL    HW226886   0.893   0.621   0.002
 8663SOL     OW26887   2.657   5.098   1.176
 8663SOL    HW126888   2.626   5.053   1.093
 8663SOL    HW226889   2.672   5.030   1.248
 8664SOL     OW26890   4.404   4.806   1.544
 8664SOL    HW126891   4.398   4.843   1.636
 8664SOL    HW226892   4.467   4.862   1.490
 8665SOL     OW26893   4.869   4.933   4.427
 8665SOL    HW126894   4.860   4.998   4.502
 8665SOL    HW226895   4.934   4.861   4.452
 8666SOL     OW26896   6.663   4.307   4.045
 8666SOL    HW126897   6.682   4.222   3.996
 8666SOL    HW226898   6.714   4.308   4.131
 8667SOL     OW26899   5.914   2.277   3.494
 8667SOL    HW126900   5.841   2.304   3.556
 8667SOL    HW226901   5.908   2.332   3.410
 8668SOL     OW26902   3.387   0.915   4.606
 8668SOL    HW126903   3.452   0.958   4.669
 8668SOL    HW226904   3.365   0.823   4.638
 8669SOL     OW26905   4.253   6.771   6.169
 8669SOL    HW126906   4.189   6.819   6.229
 8669SOL    HW226907   4.206   6.747   6.084
 8670SOL     OW26908   4.277   4.652   2.813
 8670SOL    HW126909   4.241   4.718   2.747
 8670SOL    HW226910   4.268   4.559   2.775
 8671SOL     OW26911   6.219   6.230   2.628
 8671SOL    HW126912   6.265   6.181   2.702
 8671SOL    HW226913   6.273   6.221   2.544
 8672SOL     OW26914   3.678   5.611   4.915
 8672SOL    HW126915   3.669   5.523   4.869
 8672SOL    HW226916   3.628   5.681   4.865
 8673SOL     OW26917   4.856   2.226   0.175
 8673SOL    HW126918   4.929   2.161   0.194
 8673SOL    HW226919   4.796   2.234   0.255
 8674SOL     OW26920   0.798   0.028   2.780
 8674SOL    HW126921   0.831   7.016   2.869
 8674SOL    HW226922   0.794   0.128   2.778
 8675SOL     OW26923   2.554   2.007   3.158
 8675SOL    HW126924   2.583   2.069   3.086
 8675SOL    HW226925   2.511   2.058   3.232
 8676SOL     OW26926   4.459   1.147   4.452
 8676SOL    HW126927   4.493   1.213   4.385
 8676SOL    HW226928   4.407   1.076   4.404
 8677SOL     OW26929   2.082   3.681   5.543
 8677SOL    HW126930   2.076   3.780   5.535
 8677SOL    HW226931   2.120   3.658   5.633
 8678SOL     OW26932   1.706   0.689   5.785
 8678SOL    HW126933   1.686   0.600   5.744
 8678SOL    HW226934   1.684   0.686   5.883
 8679SOL     OW26935   6.044   1.699   4.704
 8679SOL    HW126936   6.046   1.779   4.644
 8679SOL    HW226937   5.966   1.641   4.681
 8680SOL     OW26938   0.610   3.887   0.775
 8680SOL    HW126939   0.618   3.892   0.874
 8680SOL    HW226940   0.683   3.829   0.739
 8681SOL     OW26941   4.121   3.729   1.422
 8681SOL    HW126942   4.099   3.678   1.339
 8681SOL    HW226943   4.075   3.687   1.500
 8682SOL     OW26944   1.367   5.710   2.634
 8682SOL    HW126945   1.320   5.798   2.647
 8682SOL    HW226946   1.300   5.640   2.609
 8683SOL     OW26947   4.865   2.690   6.124
 8683SOL    HW126948   4.950   2.733   6.093
 8683SOL    HW226949   4.882   2.640   6.209
 8684SOL     OW26950   6.381   3.090   3.661
 8684SOL    HW126951   6.368   3.004   3.711
 8684SOL    HW226952   6.431   3.072   3.576
 8685SOL     OW26953   6.997   1.181   5.716
 8685SOL    HW126954   0.020   1.090   5.726
 8685SOL    HW226955   6.926   1.178   5.645
 8686SOL     OW26956   6.229   1.530   3.992
 8686SOL    HW126957   6.307   1.525   4.054
 8686SOL    HW226958   6.234   1.614   3.938
 8687SOL     OW26959   3.763   1.003   2.464
 8687SOL    HW126960   3.840   1.049   2.418
 8687SOL    HW226961   3.773   1.013   2.563
 8688SOL     OW26962   1.287   6.868   1.856
 8688SOL    HW126963   1.347   6.794   1.886
 8688SOL    HW226964   1.341   6.938   1.809
 8689SOL     OW26965   5.098   4.830   0.969
 8689SOL    HW126966   5.194   4.808   0.954
 8689SOL    HW226967   5.040   4.769   0.915
 8690SOL     OW26968   1.705   0.991   2.682
 8690SOL    HW126969   1.612   0.982   2.716
 8690SOL    HW226970   1.751   0.902   2.685
 8691SOL     OW26971   5.985   1.595   0.365
 8691SOL    HW126972   6.026   1.547   0.442
 8691SOL    HW226973   6.040   1.677   0.344
 8692SOL     OW26974   1.724   1.268   3.813
 8692SOL    HW126975   1.667   1.332   3.865
 8692SOL    HW226976   1.767   1.317   3.737
 8693SOL     OW26977   5.167   2.202   6.957
 8693SOL    HW126978   5.225   2.152   6.894
 8693SOL    HW226979   5.149   2.146   0.020
 8694SOL     OW26980   3.679   0.097   0.056
 8694SOL    HW126981   3.703   0.015   0.004
 8694SOL    HW226982   3.763   0.142   0.087
 8695SOL     OW26983   4.434   4.166   5.374
 8695SOL    HW126984   4.485   4.125   5.449
 8695SOL    HW226985   4.348   4.117   5.362
 8696SOL     OW26986   2.383   5.132   0.784
 8696SOL    HW126987   2.392   5.071   0.705
 8696SOL    HW226988   2.357   5.078   0.864
 8697SOL     OW26989   4.919   4.775   6.619
 8697SOL    HW126990   4.873   4.737   6.699
 8697SOL    HW226991   5.010   4.736   6.612
 8698SOL     OW26992   5.803   6.098   4.985
 8698SOL    HW126993   5.778   6.182   4.938
 8698SOL    HW226994   5.728   6.031   4.977
 8699SOL     OW26995   1.359   1.676   5.042
 8699SOL    HW126996   1.453   1.667   5.011
 8699SOL    HW226997   1.351   1.640   5.135
 8700SOL     OW26998   2.931   2.276   5.969
 8700SOL    HW126999   3.010   2.313   5.920
 8700SOL    HW227000   2.875   2.223   5.906
 8701SOL     OW27001   1.033   1.232   3.269
 8701SOL    HW127002   0.988   1.286   3.198
 8701SOL    HW227003   1.132   1.232   3.253
 8702SOL     OW27004   5.331   6.360   6.806
 8702SOL    HW127005   5.419   6.395   6.775
 8702SOL    HW227006   5.336   6.338   6.903
 8703SOL     OW27007   1.417   5.242   1.365
 8703SOL    HW127008   1.407   5.170   1.297
 8703SOL    HW227009   1.351   5.315   1.346
 8704SOL     OW27010   0.875   4.450   1.901
 8704SOL    HW127011   0.945   4.381   1.915
 8704SOL    HW227012   0.786   4.415   1.932
 8705SOL     OW27013   4.996   6.601   4.217
 8705SOL    HW127014   5.043   6.527   4.264
 8705SOL    HW227015   5.029   6.608   4.123
 8706SOL     OW27016   4.905   1.324   5.626
 8706SOL    HW127017   4.847   1.402   5.603
 8706SOL    HW227018   4.976   1.313   5.558
 8707SOL     OW27019   4.401   1.873   5.525
 8707SOL    HW127020   4.413   1.822   5.610
 8707SOL    HW227021   4.484   1.927   5.507
 8708SOL     OW27022   4.014   1.594   0.646
 8708SOL    HW127023   4.008   1.502   0.608
 8708SOL    HW227024   3.922   1.634   0.650
 8709SOL     OW27025   5.663   3.556   0.425
 8709SOL    HW127026   5.642   3.496   0.503
 8709SOL    HW227027   5.618   3.645   0.439
 8710SOL     OW27028   6.250   3.100   4.053
 8710SOL    HW127029   6.182   3.135   4.118
 8710SOL    HW227030   6.269   3.169   3.984
 8711SOL     OW27031   1.103   1.201   4.590
 8711SOL    HW127032   1.142   1.271   4.531
 8711SOL    HW227033   1.162   1.121   4.590
 8712SOL     OW27034   3.592   0.339   6.852
 8712SOL    HW127035   3.571   0.321   6.756
 8712SOL    HW227036   3.527   0.290   6.910
 8713SOL     OW27037   6.180   4.750   2.509
 8713SOL    HW127038   6.105   4.770   2.445
 8713SOL    HW227039   6.243   4.827   2.510
 8714SOL     OW27040   1.488   1.529   4.296
 8714SOL    HW127041   1.407   1.586   4.312
 8714SOL    HW227042   1.566   1.588   4.273
 8715SOL     OW27043   5.840   0.950   2.749
 8715SOL    HW127044   5.795   1.039   2.745
 8715SOL    HW227045   5.775   0.878   2.725
 8716SOL     OW27046   0.579   1.173   2.174
 8716SOL    HW127047   0.506   1.104   2.178
 8716SOL    HW227048   0.612   1.193   2.266
 8717SOL     OW27049   4.263   3.554   0.917
 8717SOL    HW127050   4.266   3.634   0.857
 8717SOL    HW227051   4.331   3.564   0.989
 8718SOL     OW27052   6.949   2.651   5.820
 8718SOL    HW127053   0.029   2.671   5.809
 8718SOL    HW227054   6.901   2.734   5.850
 8719SOL     OW27055   6.143   1.096   5.825
 8719SOL    HW127056   6.222   1.145   5.788
 8719SOL    HW227057   6.069   1.096   5.758
 8720SOL     OW27058   4.792   3.591   5.566
 8720SOL    HW127059   4.723   3.600   5.493
 8720SOL    HW227060   4.810   3.494   5.583
 8721SOL     OW27061   6.614   0.885   5.153
 8721SOL    HW127062   6.624   0.791   5.186
 8721SOL    HW227063   6.635   0.889   5.055
 8722SOL     OW27064   3.312   3.086   1.042
 8722SOL    HW127065   3.351   3.032   1.116
 8722SOL    HW227066   3.288   3.025   0.966
 8723SOL     OW27067   0.283   5.816   0.291
 8723SOL    HW127068   0.316   5.809   0.385
 8723SOL    HW227069   0.345   5.766   0.230
 8724SOL     OW27070   4.929   6.177   6.619
 8724SOL    HW127071   4.894   6.187   6.712
 8724SOL    HW227072   5.024   6.145   6.622
 8725SOL     OW27073   2.092   6.207   1.120
 8725SOL    HW127074   2.124   6.271   1.190
 8725SOL    HW227075   2.165   6.190   1.054
 8726SOL     OW27076   6.869   0.922   1.368
 8726SOL    HW127077   6.777   0.939   1.403
 8726SOL    HW227078   6.889   0.988   1.296
 8727SOL     OW27079   5.961   6.707   1.148
 8727SOL    HW127080   5.998   6.787   1.195
 8727SOL    HW227081   5.968   6.720   1.049
 8728SOL     OW27082   2.175   6.110   5.391
 8728SOL    HW127083   2.242   6.117   5.318
 8728SOL    HW227084   2.165   6.014   5.418
 8729SOL     OW27085   4.880   6.012   4.735
 8729SOL    HW127086   4.782   6.019   4.752
 8729SOL    HW227087   4.895   5.971   4.645
 8730SOL     OW27088   6.859   6.093   0.723
 8730SOL    HW127089   6.861   6.160   0.649
 8730SOL    HW227090   6.829   6.005   0.687
 8731SOL     OW27091   0.630   1.244   2.442
 8731SOL    HW127092   0.551   1.273   2.497
 8731SOL    HW227093   0.698   1.318   2.440
 8732SOL     OW27094   6.674   5.828   2.371
 8732SOL    HW127095   6.695   5.868   2.281
 8732SOL    HW227096   6.758   5.824   2.425
 8733SOL     OW27097   7.018   0.043   0.985
 8733SOL    HW127098   6.944   0.024   0.920
 8733SOL    HW227099   6.986   0.023   1.078
 8734SOL     OW27100   6.877   6.309   0.558
 8734SOL    HW127101   6.950   6.250   0.524
 8734SOL    HW227102   6.916   6.389   0.602
 8735SOL     OW27103   0.248   2.802   6.210
 8735SOL    HW127104   0.333   2.763   6.175
 8735SOL    HW227105   0.269   2.873   6.277
 8736SOL     OW27106   0.081   4.745   5.877
 8736SOL    HW127107   0.141   4.727   5.799
 8736SOL    HW227108   0.092   4.672   5.944
 8737SOL     OW27109   3.967   6.151   6.845
 8737SOL    HW127110   4.041   6.210   6.814
 8737SOL    HW227111   4.002   6.058   6.856
 8738SOL     OW27112   0.684   3.760   5.550
 8738SOL    HW127113   0.779   3.770   5.519
 8738SOL    HW227114   0.682   3.761   5.650
 8739SOL     OW27115   1.002   3.769   5.557
 8739SOL    HW127116   0.988   3.681   5.602
 8739SOL    HW227117   1.086   3.812   5.591
 8740SOL     OW27118   1.430   6.647   0.564
 8740SOL    HW127119   1.437   6.744   0.543
 8740SOL    HW227120   1.395   6.636   0.658
 8741SOL     OW27121   1.555   3.783   2.059
 8741SOL    HW127122   1.478   3.801   2.121
 8741SOL    HW227123   1.629   3.739   2.110
 8742SOL     OW27124   4.847   5.754   2.138
 8742SOL    HW127125   4.822   5.715   2.226
 8742SOL    HW227126   4.849   5.682   2.069
 8743SOL     OW27127   2.455   4.798   2.613
 8743SOL    HW127128   2.549   4.776   2.586
 8743SOL    HW227129   2.391   4.753   2.551
 8744SOL     OW27130   3.057   3.407   5.499
 8744SOL    HW127131   3.085   3.315   5.473
 8744SOL    HW227132   2.983   3.438   5.439
 8745SOL     OW27133   5.990   1.709   0.034
 8745SOL    HW127134   5.905   1.673   7.015
 8745SOL    HW227135   6.067   1.658   7.014
 8746SOL     OW27136   5.133   3.500   4.741
 8746SOL    HW127137   5.106   3.404   4.740
 8746SOL    HW227138   5.107   3.541   4.829
 8747SOL     OW27139   0.450   2.027   4.034
 8747SOL    HW127140   0.477   2.068   4.122
 8747SOL    HW227141   0.447   1.927   4.043
 8748SOL     OW27142   2.913   6.729   0.404
 8748SOL    HW127143   3.001   6.757   0.366
 8748SOL    HW227144   2.920   6.635   0.438
 8749SOL     OW27145   3.812   1.690   3.579
 8749SOL    HW127146   3.861   1.691   3.492
 8749SOL    HW227147   3.736   1.625   3.573
 8750SOL     OW27148   1.938   0.529   5.113
 8750SOL    HW127149   2.030   0.496   5.093
 8750SOL    HW227150   1.943   0.609   5.172
 8751SOL     OW27151   2.062   6.177   3.113
 8751SOL    HW127152   2.073   6.269   3.150
 8751SOL    HW227153   2.009   6.182   3.028
 8752SOL     OW27154   2.461   1.132   5.850
 8752SOL    HW127155   2.465   1.033   5.861
 8752SOL    HW227156   2.503   1.157   5.762
 8753SOL     OW27157   5.412   1.415   5.154
 8753SOL    HW127158   5.437   1.510   5.134
 8753SOL    HW227159   5.466   1.383   5.232
 8754SOL     OW27160   2.037   1.214   5.497
 8754SOL    HW127161   2.040   1.154   5.578
 8754SOL    HW227162   2.094   1.175   5.425
 8755SOL     OW27163   2.354   2.230   0.405
 8755SOL    HW127164   2.429   2.224   0.470
 8755SOL    HW227165   2.389   2.222   0.312
 8756SOL     OW27166   1.939   4.340   4.395
 8756SOL    HW127167   1.924   4.265   4.459
 8756SOL    HW227168   2.031   4.377   4.408
 8757SOL     OW27169   3.469   5.323   4.124
 8757SOL    HW127170   3.459   5.257   4.198
 8757SOL    HW227171   3.456   5.415   4.160
 8758SOL     OW27172   4.999   6.480   2.441
 8758SOL    HW127173   4.908   6.448   2.465
 8758SOL    HW227174   5.008   6.484   2.341
 8759SOL     OW27175   5.310   0.819   5.977
 8759SOL    HW127176   5.300   0.743   6.041
 8759SOL    HW227177   5.342   0.785   5.889
 8760SOL     OW27178   2.125   3.243   3.817
 8760SOL    HW127179   2.038   3.292   3.823
 8760SOL    HW227180   2.133   3.179   3.894
 8761SOL     OW27181   5.271   6.162   1.541
 8761SOL    HW127182   5.196   6.108   1.579
 8761SOL    HW227183   5.326   6.105   1.480
 8762SOL     OW27184   0.799   4.467   0.870
 8762SOL    HW127185   0.894   4.442   0.850
 8762SOL    HW227186   0.790   4.490   0.967
 8763SOL     OW27187   0.458   6.225   6.449
 8763SOL    HW127188   0.444   6.323   6.437
 8763SOL    HW227189   0.373   6.183   6.481
 8764SOL     OW27190   3.354   2.051   6.540
 8764SOL    HW127191   3.402   2.130   6.504
 8764SOL    HW227192   3.339   1.984   6.467
 8765SOL     OW27193   6.795   0.490   4.570
 8765SOL    HW127194   6.822   0.405   4.615
 8765SOL    HW227195   6.726   0.536   4.625
 8766SOL     OW27196   1.897   4.464   2.232
 8766SOL    HW127197   1.827   4.434   2.168
 8766SOL    HW227198   1.947   4.385   2.268
 8767SOL     OW27199   4.871   0.608   5.520
 8767SOL    HW127200   4.963   0.647   5.522
 8767SOL    HW227201   4.805   0.679   5.494
 8768SOL     OW27202   1.060   3.880   6.891
 8768SOL    HW127203   1.013   3.843   6.971
 8768SOL    HW227204   1.158   3.862   6.898
 8769SOL     OW27205   1.955   0.923   6.007
 8769SOL    HW127206   1.961   0.858   5.931
 8769SOL    HW227207   1.874   0.904   6.061
 8770SOL     OW27208   5.516   1.195   3.228
 8770SOL    HW127209   5.613   1.221   3.233
 8770SOL    HW227210   5.461   1.276   3.207
 8771SOL     OW27211   2.684   3.238   5.554
 8771SOL    HW127212   2.744   3.237   5.635
 8771SOL    HW227213   2.590   3.217   5.581
 8772SOL     OW27214   6.518   6.819   6.732
 8772SOL    HW127215   6.475   6.834   6.821
 8772SOL    HW227216   6.471   6.872   6.662
 8773SOL     OW27217   2.767   1.881   3.293
 8773SOL    HW127218   2.825   1.944   3.242
 8773SOL    HW227219   2.673   1.890   3.263
 8774SOL     OW27220   1.249   0.598   0.177
 8774SOL    HW127221   1.294   0.607   0.089
 8774SOL    HW227222   1.250   0.686   0.225
 8775SOL     OW27223   6.320   6.260   4.341
 8775SOL    HW127224   6.376   6.192   4.389
 8775SOL    HW227225   6.225   6.230   4.340
 8776SOL     OW27226   3.311   3.975   5.194
 8776SOL    HW127227   3.378   4.031   5.243
 8776SOL    HW227228   3.259   3.920   5.259
 8777SOL     OW27229   6.135   5.909   2.685
 8777SOL    HW127230   6.110   5.897   2.589
 8777SOL    HW227231   6.210   5.976   2.691
 8778SOL     OW27232   1.323   2.918   2.626
 8778SOL    HW127233   1.267   2.972   2.564
 8778SOL    HW227234   1.399   2.973   2.659
 8779SOL     OW27235   1.615   4.649   1.283
 8779SOL    HW127236   1.708   4.673   1.255
 8779SOL    HW227237   1.583   4.715   1.351
 8780SOL     OW27238   1.863   5.408   4.805
 8780SOL    HW127239   1.781   5.419   4.861
 8780SOL    HW227240   1.909   5.324   4.830
 8781SOL     OW27241   0.992   2.301   2.968
 8781SOL    HW127242   0.980   2.312   3.067
 8781SOL    HW227243   0.915   2.249   2.932
 8782SOL     OW27244   5.113   1.115   3.846
 8782SOL    HW127245   5.186   1.169   3.805
 8782SOL    HW227246   5.150   1.065   3.925
 8783SOL     OW27247   6.186   2.764   5.546
 8783SOL    HW127248   6.269   2.818   5.539
 8783SOL    HW227249   6.112   2.821   5.583
 8784SOL     OW27250   6.070   4.437   5.754
 8784SOL    HW127251   6.014   4.365   5.794
 8784SOL    HW227252   6.161   4.435   5.795
 8785SOL     OW27253   5.212   3.951   5.544
 8785SOL    HW127254   5.197   3.987   5.452
 8785SOL    HW227255   5.307   3.918   5.552
 8786SOL     OW27256   1.946   6.331   0.097
 8786SOL    HW127257   1.954   6.340   7.015
 8786SOL    HW227258   1.854   6.298   0.119
 8787SOL     OW27259   1.305   2.778   6.934
 8787SOL    HW127260   1.259   2.865   6.921
 8787SOL    HW227261   1.242   2.713   6.977
 8788SOL     OW27262   1.560   2.122   5.545
 8788SOL    HW127263   1.529   2.162   5.459
 8788SOL    HW227264   1.574   2.194   5.613
 8789SOL     OW27265   0.461   1.340   0.330
 8789SOL    HW127266   0.410   1.298   0.405
 8789SOL    HW227267   0.558   1.345   0.354
 8790SOL     OW27268   3.935   1.461   6.283
 8790SOL    HW127269   3.895   1.370   6.284
 8790SOL    HW227270   3.983   1.476   6.196
 8791SOL     OW27271   5.043   6.236   5.171
 8791SOL    HW127272   5.083   6.309   5.228
 8791SOL    HW227273   5.059   6.148   5.215
 8792SOL     OW27274   5.341   6.833   2.550
 8792SOL    HW127275   5.434   6.800   2.533
 8792SOL    HW227276   5.291   6.765   2.604
 8793SOL     OW27277   1.137   4.518   3.587
 8793SOL    HW127278   1.124   4.428   3.545
 8793SOL    HW227279   1.048   4.555   3.614
 8794SOL     OW27280   2.757   5.763   2.685
 8794SOL    HW127281   2.728   5.852   2.719
 8794SOL    HW227282   2.707   5.691   2.733
 8795SOL     OW27283   3.212   6.097   4.832
 8795SOL    HW127284   3.181   6.191   4.845
 8795SOL    HW227285   3.221   6.079   4.734
 8796SOL     OW27286   4.898   2.313   5.062
 8796SOL    HW127287   4.917   2.337   4.967
 8796SOL    HW227288   4.984   2.299   5.110
 8797SOL     OW27289   0.868   6.073   6.745
 8797SOL    HW127290   0.768   6.076   6.733
 8797SOL    HW227291   0.903   6.166   6.759
 8798SOL     OW27292   3.050   3.126   5.452
 8798SOL    HW127293   3.121   3.055   5.455
 8798SOL    HW227294   3.027   3.146   5.356
 8799SOL     OW27295   2.939   0.695   2.436
 8799SOL    HW127296   2.955   0.598   2.453
 8799SOL    HW227297   3.025   0.745   2.438
 8800SOL     OW27298   3.895   4.308   0.621
 8800SOL    HW127299   3.835   4.367   0.566
 8800SOL    HW227300   3.842   4.267   0.695
 8801SOL     OW27301   3.082   6.800   5.793
 8801SOL    HW127302   3.024   6.792   5.874
 8801SOL    HW227303   3.130   6.714   5.777
 8802SOL     OW27304   2.374   6.255   1.525
 8802SOL    HW127305   2.343   6.288   1.614
 8802SOL    HW227306   2.466   6.290   1.507
 8803SOL     OW27307   3.964   5.791   2.085
 8803SOL    HW127308   3.957   5.863   2.016
 8803SOL    HW227309   3.944   5.829   2.175
 8804SOL     OW27310   2.787   0.981   1.690
 8804SOL    HW127311   2.796   0.956   1.787
 8804SOL    HW227312   2.726   0.916   1.645
 8805SOL     OW27313   0.679   0.387   3.589
 8805SOL    HW127314   0.672   0.287   3.595
 8805SOL    HW227315   0.618   0.429   3.656
 8806SOL     OW27316   1.640   4.980   0.417
 8806SOL    HW127317   1.737   4.957   0.416
 8806SOL    HW227318   1.594   4.926   0.487
 8807SOL     OW27319   2.440   5.495   6.351
 8807SOL    HW127320   2.399   5.550   6.278
 8807SOL    HW227321   2.530   5.531   6.373
 8808SOL     OW27322   5.437   2.360   0.890
 8808SOL    HW127323   5.413   2.391   0.798
 8808SOL    HW227324   5.372   2.398   0.956
 8809SOL     OW27325   5.920   4.920   0.122
 8809SOL    HW127326   5.918   4.821   0.136
 8809SOL    HW227327   5.869   4.965   0.195
 8810SOL     OW27328   5.030   1.708   3.978
 8810SOL    HW127329   5.093   1.631   3.991
 8810SOL    HW227330   4.941   1.673   3.948
 8811SOL     OW27331   1.195   0.896   3.245
 8811SOL    HW127332   1.291   0.883   3.270
 8811SOL    HW227333   1.191   0.939   3.155
 8812SOL     OW27334   2.618   1.063   0.074
 8812SOL    HW127335   2.715   1.041   0.071
 8812SOL    HW227336   2.606   1.160   0.093
 8813SOL     OW27337   1.336   5.505   1.316
 8813SOL    HW127338   1.428   5.518   1.278
 8813SOL    HW227339   1.270   5.558   1.263
 8814SOL     OW27340   5.714   6.595   5.670
 8814SOL    HW127341   5.699   6.663   5.742
 8814SOL    HW227342   5.626   6.557   5.641
 8815SOL     OW27343   6.133   5.579   3.029
 8815SOL    HW127344   6.065   5.507   3.021
 8815SOL    HW227345   6.189   5.563   3.111
 8816SOL     OW27346   0.598   5.243   2.030
 8816SOL    HW127347   0.550   5.326   2.002
 8816SOL    HW227348   0.668   5.266   2.098
 8817SOL     OW27349   2.218   3.849   5.271
 8817SOL    HW127350   2.286   3.901   5.219
 8817SOL    HW227351   2.243   3.752   5.271
 8818SOL     OW27352   6.984   4.636   5.025
 8818SOL    HW127353   0.037   4.585   4.975
 8818SOL    HW227354   6.944   4.704   4.964
 8819SOL     OW27355   6.687   0.439   4.004
 8819SOL    HW127356   6.694   0.461   4.101
 8819SOL    HW227357   6.724   0.348   3.987
 8820SOL     OW27358   1.346   2.421   3.261
 8820SOL    HW127359   1.322   2.457   3.352
 8820SOL    HW227360   1.406   2.486   3.214
 8821SOL     OW27361   1.790   6.992   6.605
 8821SOL    HW127362   1.850   6.931   6.657
 8821SOL    HW227363   1.768   6.949   6.517
 8822SOL     OW27364   1.345   2.712   4.129
 8822SOL    HW127365   1.285   2.750   4.058
 8822SOL    HW227366   1.292   2.652   4.189
 8823SOL     OW27367   2.340   5.190   1.506
 8823SOL    HW127368   2.404   5.253   1.550
 8823SOL    HW227369   2.328   5.217   1.410
 8824SOL     OW27370   4.828   4.299   0.978
 8824SOL    HW127371   4.730   4.281   0.971
 8824SOL    HW227372   4.863   4.263   1.064
 8825SOL     OW27373   2.359   2.244   0.141
 8825SOL    HW127374   2.328   2.177   0.074
 8825SOL    HW227375   2.371   2.333   0.096
 8826SOL     OW27376   5.920   0.456   1.530
 8826SOL    HW127377   6.011   0.422   1.508
 8826SOL    HW227378   5.864   0.459   1.448
 8827SOL     OW27379   6.437   1.730   3.640
 8827SOL    HW127380   6.404   1.696   3.552
 8827SOL    HW227381   6.525   1.688   3.661
 8828SOL     OW27382   1.369   6.184   3.444
 8828SOL    HW127383   1.439   6.144   3.503
 8828SOL    HW227384   1.298   6.227   3.500
 8829SOL     OW27385   1.538   0.802   1.348
 8829SOL    HW127386   1.620   0.779   1.400
 8829SOL    HW227387   1.467   0.835   1.410
 8830SOL     OW27388   1.338   1.167   0.682
 8830SOL    HW127389   1.298   1.225   0.611
 8830SOL    HW227390   1.382   1.088   0.639
 8831SOL     OW27391   6.368   1.222   1.743
 8831SOL    HW127392   6.441   1.238   1.676
 8831SOL    HW227393   6.327   1.309   1.769
 8832SOL     OW27394   6.040   1.332   2.657
 8832SOL    HW127395   5.959   1.314   2.712
 8832SOL    HW227396   6.121   1.332   2.716
 8833SOL     OW27397   1.074   5.604   2.038
 8833SOL    HW127398   1.055   5.650   1.951
 8833SOL    HW227399   1.124   5.667   2.098
 8834SOL     OW27400   5.788   4.252   3.760
 8834SOL    HW127401   5.768   4.166   3.712
 8834SOL    HW227402   5.703   4.301   3.777
 8835SOL     OW27403   0.719   1.387   0.415
 8835SOL    HW127404   0.778   1.432   0.348
 8835SOL    HW227405   0.748   1.292   0.427
 8836SOL     OW27406   4.747   1.866   1.977
 8836SOL    HW127407   4.795   1.952   1.956
 8836SOL    HW227408   4.749   1.807   1.896
 8837SOL     OW27409   0.100   2.264   1.971
 8837SOL    HW127410   0.163   2.186   1.969
 8837SOL    HW227411   0.145   2.343   1.931
 8838SOL     OW27412   1.410   6.142   3.901
 8838SOL    HW127413   1.338   6.099   3.955
 8838SOL    HW227414   1.481   6.177   3.962
 8839SOL     OW27415   5.236   5.792   4.387
 8839SOL    HW127416   5.246   5.693   4.386
 8839SOL    HW227417   5.252   5.826   4.480
 8840SOL     OW27418   4.072   0.620   1.961
 8840SOL    HW127419   4.009   0.652   2.031
 8840SOL    HW227420   4.162   0.605   2.002
 8841SOL     OW27421   3.615   0.291   3.786
 8841SOL    HW127422   3.588   0.285   3.882
 8841SOL    HW227423   3.534   0.278   3.728
 8842SOL     OW27424   1.556   2.375   1.669
 8842SOL    HW127425   1.517   2.323   1.593
 8842SOL    HW227426   1.577   2.313   1.744
 8843SOL     OW27427   0.093   2.883   4.206
 8843SOL    HW127428   0.187   2.910   4.187
 8843SOL    HW227429   0.070   2.905   4.301
 8844SOL     OW27430   5.642   1.861   6.918
 8844SOL    HW127431   5.632   1.821   7.009
 8844SOL    HW227432   5.595   1.803   6.851
 8845SOL     OW27433   4.895   2.747   6.938
 8845SOL    HW127434   4.840   2.663   6.941
 8845SOL    HW227435   4.835   2.826   6.929
 8846SOL     OW27436   3.357   4.924   3.679
 8846SOL    HW127437   3.453   4.898   3.685
 8846SOL    HW227438   3.315   4.920   3.770
 8847SOL     OW27439   0.891   1.365   3.107
 8847SOL    HW127440   0.962   1.429   3.075
 8847SOL    HW227441   0.807   1.416   3.125
 8848SOL     OW27442   0.629   1.145   3.558
 8848SOL    HW127443   0.651   1.135   3.655
 8848SOL    HW227444   0.608   1.055   3.520
 8849SOL     OW27445   3.038   6.962   1.475
 8849SOL    HW127446   2.955   7.007   1.441
 8849SOL    HW227447   3.023   6.863   1.478
 8850SOL     OW27448   3.113   2.398   6.947
 8850SOL    HW127449   3.072   2.325   7.002
 8850SOL    HW227450   3.076   2.395   6.855
 8851SOL     OW27451   2.139   3.763   1.962
 8851SOL    HW127452   2.174   3.811   2.043
 8851SOL    HW227453   2.177   3.671   1.958
 8852SOL     OW27454   0.467   2.214   4.576
 8852SOL    HW127455   0.488   2.240   4.670
 8852SOL    HW227456   0.380   2.165   4.573
 8853SOL     OW27457   4.870   0.555   1.596
 8853SOL    HW127458   4.936   0.480   1.589
 8853SOL    HW227459   4.919   0.642   1.605
 8854SOL     OW27460   6.733   2.789   4.807
 8854SOL    HW127461   6.733   2.765   4.904
 8854SOL    HW227462   6.733   2.888   4.796
 8855SOL     OW27463   4.780   4.773   1.093
 8855SOL    HW127464   4.808   4.734   1.005
 8855SOL    HW227465   4.799   4.707   1.166
 8856SOL     OW27466   5.677   0.619   5.908
 8856SOL    HW127467   5.709   0.592   5.817
 8856SOL    HW227468   5.719   0.561   5.977
 8857SOL     OW27469   6.691   2.180   6.598
 8857SOL    HW127470   6.597   2.208   6.579
 8857SOL    HW227471   6.714   2.202   6.692
 8858SOL     OW27472   6.640   5.619   4.729
 8858SOL    HW127473   6.733   5.588   4.752
 8858SOL    HW227474   6.616   5.586   4.638
 8859SOL     OW27475   0.866   5.690   3.035
 8859SOL    HW127476   0.918   5.677   2.951
 8859SOL    HW227477   0.892   5.619   3.101
 8860SOL     OW27478   6.454   2.599   2.056
 8860SOL    HW127479   6.518   2.672   2.032
 8860SOL    HW227480   6.382   2.637   2.114
 8861SOL     OW27481   3.231   2.576   1.394
 8861SOL    HW127482   3.307   2.563   1.331
 8861SOL    HW227483   3.165   2.640   1.354
 8862SOL     OW27484   4.329   4.646   4.670
 8862SOL    HW127485   4.316   4.631   4.768
 8862SOL    HW227486   4.401   4.585   4.636
 8863SOL     OW27487   1.453   3.597   1.733
 8863SOL    HW127488   1.418   3.523   1.790
 8863SOL    HW227489   1.432   3.685   1.775
 8864SOL     OW27490   6.293   1.762   5.100
 8864SOL    HW127491   6.321   1.791   5.008
 8864SOL    HW227492   6.371   1.770   5.162
 8865SOL     OW27493   3.222   1.292   0.821
 8865SOL    HW127494   3.248   1.232   0.896
 8865SOL    HW227495   3.277   1.375   0.823
 8866SOL     OW27496   6.052   6.758   1.812
 8866SOL    HW127497   6.108   6.703   1.873
 8866SOL    HW227498   6.109   6.823   1.762
 8867SOL     OW27499   6.200   2.893   2.839
 8867SOL    HW127500   6.294   2.914   2.864
 8867SOL    HW227501   6.137   2.943   2.899
 8868SOL     OW27502   0.173   2.920   3.330
 8868SOL    HW127503   0.245   2.952   3.268
 8868SOL    HW227504   0.191   2.954   3.422
 8869SOL     OW27505   4.797   0.146   3.530
 8869SOL    HW127506   4.720   0.114   3.475
 8869SOL    HW227507   4.767   0.156   3.625
 8870SOL     OW27508   0.681   0.896   1.913
 8870SOL    HW127509   0.762   0.938   1.955
 8870SOL    HW227510   0.708   0.809   1.870
 8871SOL     OW27511   0.252   6.876   1.315
 8871SOL    HW127512   0.239   6.974   1.295
 8871SOL    HW227513   0.349   6.855   1.312
 8872SOL     OW27514   6.993   4.670   3.569
 8872SOL    HW127515   7.002   4.753   3.514
 8872SOL    HW227516   6.904   4.669   3.615
 8873SOL     OW27517   1.912   1.522   3.350
 8873SOL    HW127518   1.966   1.605   3.363
 8873SOL    HW227519   1.815   1.544   3.352
 8874SOL     OW27520   2.766   5.839   0.770
 8874SOL    HW127521   2.802   5.831   0.677
 8874SOL    HW227522   2.667   5.825   0.768
 8875SOL     OW27523   6.095   2.879   4.551
 8875SOL    HW127524   6.194   2.889   4.560
 8875SOL    HW227525   6.075   2.795   4.501
 8876SOL     OW27526   4.409   0.673   0.650
 8876SOL    HW127527   4.372   0.724   0.573
 8876SOL    HW227528   4.490   0.720   0.686
 8877SOL     OW27529   0.600   4.660   1.220
 8877SOL    HW127530   0.682   4.635   1.170
 8877SOL    HW227531   0.586   4.595   1.295
 8878SOL     OW27532   4.973   3.742   1.847
 8878SOL    HW127533   5.008   3.796   1.923
 8878SOL    HW227534   4.936   3.656   1.882
 8879SOL     OW27535   6.635   4.042   3.955
 8879SOL    HW127536   6.605   3.964   3.898
 8879SOL    HW227537   6.645   4.012   4.050
 8880SOL     OW27538   4.208   2.048   3.020
 8880SOL    HW127539   4.183   1.951   3.014
 8880SOL    HW227540   4.283   2.067   2.957
 8881SOL     OW27541   3.864   5.285   2.954
 8881SOL    HW127542   3.886   5.199   2.910
 8881SOL    HW227543   3.840   5.268   3.050
 8882SOL     OW27544   3.849   1.144   0.519
 8882SOL    HW127545   3.934   1.194   0.534
 8882SOL    HW227546   3.772   1.196   0.557
 8883SOL     OW27547   0.939   6.460   2.946
 8883SOL    HW127548   0.975   6.416   3.028
 8883SOL    HW227549   0.841   6.440   2.938
 8884SOL     OW27550   4.487   2.783   5.811
 8884SOL    HW127551   4.398   2.740   5.796
 8884SOL    HW227552   4.538   2.731   5.880
 8885SOL     OW27553   5.941   5.040   1.026
 8885SOL    HW127554   5.939   5.132   0.987
 8885SOL    HW227555   5.930   4.972   0.953
 8886SOL     OW27556   5.210   6.467   0.371
 8886SOL    HW127557   5.130   6.432   0.420
 8886SOL    HW227558   5.192   6.468   0.273
 8887SOL     OW27559   3.678   0.224   1.588
 8887SOL    HW127560   3.695   0.298   1.653
 8887SOL    HW227561   3.742   0.232   1.512
 8888SOL     OW27562   3.896   2.109   2.143
 8888SOL    HW127563   3.870   2.149   2.230
 8888SOL    HW227564   3.825   2.128   2.075
 8889SOL     OW27565   1.477   4.548   6.731
 8889SOL    HW127566   1.414   4.616   6.769
 8889SOL    HW227567   1.470   4.463   6.783
 8890SOL     OW27568   1.522   5.746   0.094
 8890SOL    HW127569   1.563   5.741   0.003
 8890SOL    HW227570   1.458   5.822   0.097
 8891SOL     OW27571   6.095   3.494   5.019
 8891SOL    HW127572   6.115   3.396   5.020
 8891SOL    HW227573   5.997   3.507   5.001
 8892SOL     OW27574   2.321   5.207   4.777
 8892SOL    HW127575   2.223   5.189   4.784
 8892SOL    HW227576   2.366   5.131   4.731
 8893SOL     OW27577   0.476   4.686   5.217
 8893SOL    HW127578   0.381   4.718   5.212
 8893SOL    HW227579   0.521   4.728   5.296
 8894SOL     OW27580   5.146   2.491   1.904
 8894SOL    HW127581   5.137   2.591   1.910
 8894SOL    HW227582   5.241   2.465   1.926
 8895SOL     OW27583   6.946   3.672   1.521
 8895SOL    HW127584   6.889   3.732   1.577
 8895SOL    HW227585   0.013   3.720   1.498
 8896SOL     OW27586   0.746   1.041   3.802
 8896SOL    HW127587   0.808   0.989   3.743
 8896SOL    HW227588   0.752   1.007   3.896
 8897SOL     OW27589   1.554   5.428   4.300
 8897SOL    HW127590   1.532   5.524   4.316
 8897SOL    HW227591   1.575   5.383   4.387
 8898SOL     OW27592   5.496   4.886   2.519
 8898SOL    HW127593   5.534   4.899   2.428
 8898SOL    HW227594   5.444   4.801   2.522
 8899SOL     OW27595   2.004   4.147   1.953
 8899SOL    HW127596   2.027   4.180   1.861
 8899SOL    HW227597   1.934   4.077   1.946
 8900SOL     OW27598   4.008   1.641   4.333
 8900SOL    HW127599   3.967   1.686   4.255
 8900SOL    HW227600   3.937   1.604   4.392
 8901SOL     OW27601   1.514   5.166   4.897
 8901SOL    HW127602   1.526   5.237   4.829
 8901SOL    HW227603   1.578   5.180   4.973
 8902SOL     OW27604   0.544   5.101   6.441
 8902SOL    HW127605   0.506   5.133   6.527
 8902SOL    HW227606   0.484   5.126   6.366
 8903SOL     OW27607   0.628   0.426   4.675
 8903SOL    HW127608   0.565   0.491   4.718
 8903SOL    HW227609   0.714   0.472   4.652
 8904SOL     OW27610   0.127   1.286   3.278
 8904SOL    HW127611   0.098   1.380   3.256
 8904SOL    HW227612   0.226   1.280   3.271
 8905SOL     OW27613   2.020   4.687   1.407
 8905SOL    HW127614   2.097   4.641   1.363
 8905SOL    HW227615   1.974   4.625   1.470
 8906SOL     OW27616   6.136   0.678   6.761
 8906SOL    HW127617   6.203   0.723   6.702
 8906SOL    HW227618   6.134   0.724   6.850
 8907SOL     OW27619   2.615   3.413   5.377
 8907SOL    HW127620   2.542   3.371   5.322
 8907SOL    HW227621   2.644   3.349   5.448
 8908SOL     OW27622   1.812   5.581   5.982
 8908SOL    HW127623   1.725   5.557   5.939
 8908SOL    HW227624   1.829   5.678   5.971
 8909SOL     OW27625   2.562   6.109   2.080
 8909SOL    HW127626   2.543   6.193   2.131
 8909SOL    HW227627   2.629   6.054   2.131
 8910SOL     OW27628   1.248   1.113   3.767
 8910SOL    HW127629   1.278   1.020   3.745
 8910SOL    HW227630   1.292   1.178   3.704
 8911SOL     OW27631   5.446   2.802   4.470
 8911SOL    HW127632   5.522   2.825   4.409
 8911SOL    HW227633   5.364   2.787   4.415
 8912SOL     OW27634   3.408   2.937   3.714
 8912SOL    HW127635   3.460   2.912   3.633
 8912SOL    HW227636   3.423   2.870   3.786
 8913SOL     OW27637   5.122   5.558   1.189
 8913SOL    HW127638   5.044   5.497   1.175
 8913SOL    HW227639   5.104   5.646   1.144
 8914SOL     OW27640   4.691   5.874   5.411
 8914SOL    HW127641   4.726   5.798   5.466
 8914SOL    HW227642   4.685   5.956   5.467
 8915SOL     OW27643   2.646   0.940   3.678
 8915SOL    HW127644   2.577   0.903   3.739
 8915SOL    HW227645   2.644   0.891   3.591
 8916SOL     OW27646   5.801   0.991   2.476
 8916SOL    HW127647   5.857   1.036   2.406
 8916SOL    HW227648   5.857   0.973   2.557
 8917SOL     OW27649   5.684   2.206   0.505
 8917SOL    HW127650   5.738   2.179   0.426
 8917SOL    HW227651   5.744   2.220   0.584
 8918SOL     OW27652   1.478   3.352   2.625
 8918SOL    HW127653   1.541   3.373   2.700
 8918SOL    HW227654   1.497   3.412   2.548
 8919SOL     OW27655   6.595   2.674   2.659
 8919SOL    HW127656   6.668   2.605   2.654
 8919SOL    HW227657   6.512   2.631   2.694
 8920SOL     OW27658   1.058   1.951   0.958
 8920SOL    HW127659   1.087   1.976   1.050
 8920SOL    HW227660   0.958   1.960   0.951
 8921SOL     OW27661   1.045   2.805   1.466
 8921SOL    HW127662   1.108   2.883   1.464
 8921SOL    HW227663   1.066   2.744   1.390
 8922SOL     OW27664   2.956   4.919   3.322
 8922SOL    HW127665   2.986   4.940   3.415
 8922SOL    HW227666   2.897   4.838   3.324
 8923SOL     OW27667   2.715   1.437   3.654
 8923SOL    HW127668   2.721   1.495   3.735
 8923SOL    HW227669   2.620   1.425   3.628
 8924SOL     OW27670   6.220   4.962   4.733
 8924SOL    HW127671   6.294   5.008   4.683
 8924SOL    HW227672   6.255   4.927   4.820
 8925SOL     OW27673   0.538   6.615   4.003
 8925SOL    HW127674   0.524   6.646   3.909
 8925SOL    HW227675   0.452   6.581   4.040
 8926SOL     OW27676   5.726   2.216   0.040
 8926SOL    HW127677   5.741   2.314   0.025
 8926SOL    HW227678   5.733   2.168   6.970
 8927SOL     OW27679   1.518   1.636   6.463
 8927SOL    HW127680   1.526   1.548   6.417
 8927SOL    HW227681   1.474   1.702   6.401
 8928SOL     OW27682   1.685   6.853   5.596
 8928SOL    HW127683   1.713   6.868   5.501
 8928SOL    HW227684   1.594   6.892   5.611
 8929SOL     OW27685   0.029   1.552   3.497
 8929SOL    HW127686   7.012   1.637   3.458
 8929SOL    HW227687   6.974   1.506   3.547
 8930SOL     OW27688   2.471   5.490   2.996
 8930SOL    HW127689   2.455   5.392   2.983
 8930SOL    HW227690   2.408   5.525   3.066
 8931SOL     OW27691   4.098   3.010   6.915
 8931SOL    HW127692   4.189   2.997   6.876
 8931SOL    HW227693   4.052   3.085   6.866
 8932SOL     OW27694   0.303   3.984   2.999
 8932SOL    HW127695   0.314   4.029   3.088
 8932SOL    HW227696   0.373   3.912   2.990
 8933SOL     OW27697   4.868   1.871   6.072
 8933SOL    HW127698   4.804   1.888   6.147
 8933SOL    HW227699   4.827   1.806   6.008
 8934SOL     OW27700   2.644   6.025   2.737
 8934SOL    HW127701   2.644   6.037   2.837
 8934SOL    HW227702   2.594   6.100   2.695
 8935SOL     OW27703   6.900   5.544   0.019
 8935SOL    HW127704   6.964   5.478   0.060
 8935SOL    HW227705   6.871   5.609   0.089
 8936SOL     OW27706   4.094   2.945   1.134
 8936SOL    HW127707   4.127   2.855   1.159
 8936SOL    HW227708   4.121   2.965   1.040
 8937SOL     OW27709   0.664   1.278   6.222
 8937SOL    HW127710   0.607   1.349   6.263
 8937SOL    HW227711   0.759   1.309   6.221
 8938SOL     OW27712   4.392   5.960   1.768
 8938SOL    HW127713   4.465   5.896   1.744
 8938SOL    HW227714   4.406   6.047   1.720
 8939SOL     OW27715   5.829   2.268   4.187
 8939SOL    HW127716   5.738   2.266   4.229
 8939SOL    HW227717   5.860   2.363   4.179
 8940SOL     OW27718   5.660   6.979   2.491
 8940SOL    HW127719   5.688   0.028   2.422
 8940SOL    HW227720   5.739   6.925   2.519
 8941SOL     OW27721   3.845   1.568   0.111
 8941SOL    HW127722   3.891   1.484   0.081
 8941SOL    HW227723   3.759   1.578   0.062
 8942SOL     OW27724   1.118   2.284   5.740
 8942SOL    HW127725   1.056   2.225   5.689
 8942SOL    HW227726   1.174   2.337   5.676
 8943SOL     OW27727   5.192   3.766   0.656
 8943SOL    HW127728   5.176   3.723   0.567
 8943SOL    HW227729   5.289   3.792   0.662
 8944SOL     OW27730   4.118   5.562   1.460
 8944SOL    HW127731   4.019   5.548   1.456
 8944SOL    HW227732   4.157   5.508   1.535
 8945SOL     OW27733   2.335   0.996   3.944
 8945SOL    HW127734   2.258   0.998   4.007
 8945SOL    HW227735   2.315   1.055   3.865
 8946SOL     OW27736   4.022   0.607   4.567
 8946SOL    HW127737   3.965   0.689   4.564
 8946SOL    HW227738   4.035   0.580   4.663
 8947SOL     OW27739   3.867   3.715   5.331
 8947SOL    HW127740   3.918   3.774   5.268
 8947SOL    HW227741   3.859   3.623   5.292
 8948SOL     OW27742   5.694   4.697   3.431
 8948SOL    HW127743   5.666   4.612   3.388
 8948SOL    HW227744   5.675   4.774   3.369
 8949SOL     OW27745   1.364   5.503   5.884
 8949SOL    HW127746   1.268   5.475   5.890
 8949SOL    HW227747   1.385   5.567   5.957
 8950SOL     OW27748   4.795   2.682   4.532
 8950SOL    HW127749   4.716   2.649   4.481
 8950SOL    HW227750   4.779   2.670   4.630
 8951SOL     OW27751   2.978   2.519   5.511
 8951SOL    HW127752   3.027   2.432   5.500
 8951SOL    HW227753   2.923   2.536   5.429
 8952SOL     OW27754   6.334   6.557   3.411
 8952SOL    HW127755   6.325   6.632   3.346
 8952SOL    HW227756   6.431   6.538   3.428
 8953SOL     OW27757   1.631   5.416   5.831
 8953SOL    HW127758   1.681   5.330   5.840
 8953SOL    HW227759   1.537   5.403   5.864
 8954SOL     OW27760   2.587   6.300   6.066
 8954SOL    HW127761   2.671   6.354   6.060
 8954SOL    HW227762   2.554   6.301   6.161
 8955SOL     OW27763   6.662   3.802   4.498
 8955SOL    HW127764   6.674   3.722   4.439
 8955SOL    HW227765   6.571   3.798   4.541
 8956SOL     OW27766   0.858   0.554   4.607
 8956SOL    HW127767   0.949   0.513   4.609
 8956SOL    HW227768   0.859   0.635   4.549
 8957SOL     OW27769   3.229   5.952   1.726
 8957SOL    HW127770   3.156   5.946   1.795
 8957SOL    HW227771   3.265   6.045   1.724
 8958SOL     OW27772   3.070   0.431   4.364
 8958SOL    HW127773   3.042   0.432   4.460
 8958SOL    HW227774   3.021   0.358   4.316
 8959SOL     OW27775   3.792   5.410   6.991
 8959SOL    HW127776   3.804   5.482   0.042
 8959SOL    HW227777   3.700   5.417   6.952
 8960SOL     OW27778   4.099   5.841   0.989
 8960SOL    HW127779   4.032   5.911   1.011
 8960SOL    HW227780   4.130   5.852   0.894
 8961SOL     OW27781   0.594   2.972   3.954
 8961SOL    HW127782   0.614   3.019   4.040
 8961SOL    HW227783   0.496   2.979   3.935
 8962SOL     OW27784   4.691   0.497   3.917
 8962SOL    HW127785   4.745   0.545   3.848
 8962SOL    HW227786   4.594   0.514   3.902
 8963SOL     OW27787   0.660   1.051   4.059
 8963SOL    HW127788   0.561   1.041   4.046
 8963SOL    HW227789   0.679   1.140   4.102
 8964SOL     OW27790   6.749   3.319   2.635
 8964SOL    HW127791   6.734   3.370   2.551
 8964SOL    HW227792   6.661   3.284   2.668
 8965SOL     OW27793   1.929   5.148   1.326
 8965SOL    HW127794   1.868   5.222   1.355
 8965SOL    HW227795   1.916   5.069   1.385
 8966SOL     OW27796   3.953   1.849   5.066
 8966SOL    HW127797   3.931   1.944   5.044
 8966SOL    HW227798   3.870   1.801   5.095
 8967SOL     OW27799   5.240   6.239   0.679
 8967SOL    HW127800   5.198   6.261   0.766
 8967SOL    HW227801   5.233   6.140   0.663
 8968SOL     OW27802   5.683   4.055   3.600
 8968SOL    HW127803   5.706   3.970   3.648
 8968SOL    HW227804   5.584   4.065   3.597
 8969SOL     OW27805   6.857   6.939   4.220
 8969SOL    HW127806   6.787   7.011   4.219
 8969SOL    HW227807   6.820   6.858   4.265
 8970SOL     OW27808   3.153   2.848   1.437
 8970SOL    HW127809   3.170   2.943   1.461
 8970SOL    HW227810   3.109   2.801   1.514
 8971SOL     OW27811   3.986   6.164   2.843
 8971SOL    HW127812   3.888   6.185   2.841
 8971SOL    HW227813   4.034   6.230   2.900
 8972SOL     OW27814   4.963   0.239   4.624
 8972SOL    HW127815   5.008   0.288   4.699
 8972SOL    HW227816   4.973   0.291   4.539
 8973SOL     OW27817   1.990   4.772   6.249
 8973SOL    HW127818   1.911   4.764   6.188
 8973SOL    HW227819   2.065   4.817   6.201
 8974SOL     OW27820   0.328   2.969   3.930
 8974SOL    HW127821   0.251   2.974   3.867
 8974SOL    HW227822   0.311   3.028   4.008
 8975SOL     OW27823   3.617   1.148   6.236
 8975SOL    HW127824   3.538   1.191   6.193
 8975SOL    HW227825   3.610   1.155   6.335
 8976SOL     OW27826   1.590   5.622   3.919
 8976SOL    HW127827   1.523   5.567   3.968
 8976SOL    HW227828   1.590   5.597   3.822
 8977SOL     OW27829   5.328   1.332   0.107
 8977SOL    HW127830   5.322   1.300   0.013
 8977SOL    HW227831   5.238   1.359   0.140
 8978SOL     OW27832   5.823   5.412   1.348
 8978SOL    HW127833   5.728   5.441   1.363
 8978SOL    HW227834   5.835   5.318   1.382
 8979SOL     OW27835   0.926   4.643   4.732
 8979SOL    HW127836   0.828   4.624   4.734
 8979SOL    HW227837   0.976   4.561   4.705
 8980SOL     OW27838   3.731   2.934   4.456
 8980SOL    HW127839   3.738   2.896   4.548
 8980SOL    HW227840   3.635   2.939   4.429
 8981SOL     OW27841   2.702   1.776   5.145
 8981SOL    HW127842   2.791   1.778   5.099
 8981SOL    HW227843   2.631   1.752   5.078
 8982SOL     OW27844   3.493   4.827   0.339
 8982SOL    HW127845   3.532   4.916   0.361
 8982SOL    HW227846   3.452   4.787   0.421
 8983SOL     OW27847   4.995   4.479   0.862
 8983SOL    HW127848   4.938   4.559   0.843
 8983SOL    HW227849   4.937   4.401   0.886
 8984SOL     OW27850   1.381   6.736   3.438
 8984SOL    HW127851   1.399   6.731   3.340
 8984SOL    HW227852   1.467   6.746   3.488
 8985SOL     OW27853   3.237   3.334   6.177
 8985SOL    HW127854   3.205   3.287   6.095
 8985SOL    HW227855   3.288   3.271   6.234
 8986SOL     OW27856   2.824   6.232   2.191
 8986SOL    HW127857   2.839   6.277   2.104
 8986SOL    HW227858   2.801   6.136   2.175
 8987SOL     OW27859   5.302   6.840   2.071
 8987SOL    HW127860   5.274   6.934   2.050
 8987SOL    HW227861   5.244   6.804   2.144
 8988SOL     OW27862   0.390   4.715   4.701
 8988SOL    HW127863   0.473   4.668   4.732
 8988SOL    HW227864   0.364   4.680   4.611
 8989SOL     OW27865   2.414   2.402   6.722
 8989SOL    HW127866   2.359   2.324   6.692
 8989SOL    HW227867   2.451   2.449   6.642
 8990SOL     OW27868   0.094   4.934   3.536
 8990SOL    HW127869   0.156   5.010   3.519
 8990SOL    HW227870   0.034   4.956   3.612
 8991SOL     OW27871   1.321   2.350   5.267
 8991SOL    HW127872   1.255   2.321   5.197
 8991SOL    HW227873   1.399   2.287   5.266
 8992SOL     OW27874   6.175   2.289   1.502
 8992SOL    HW127875   6.271   2.277   1.475
 8992SOL    HW227876   6.170   2.350   1.581
 8993SOL     OW27877   4.285   2.191   0.806
 8993SOL    HW127878   4.211   2.242   0.763
 8993SOL    HW227879   4.300   2.224   0.899
 8994SOL     OW27880   1.637   5.682   2.619
 8994SOL    HW127881   1.538   5.683   2.633
 8994SOL    HW227882   1.683   5.713   2.702
 8995SOL     OW27883   0.438   0.132   1.594
 8995SOL    HW127884   0.496   0.205   1.558
 8995SOL    HW227885   0.376   0.169   1.663
 8996SOL     OW27886   4.118   6.126   5.788
 8996SOL    HW127887   4.084   6.169   5.704
 8996SOL    HW227888   4.040   6.095   5.843
 8997SOL     OW27889   6.353   0.111   4.821
 8997SOL    HW127890   6.407   0.028   4.809
 8997SOL    HW227891   6.410   0.191   4.806
 8998SOL     OW27892   0.008   4.166   4.536
 8998SOL    HW127893   0.092   4.126   4.573
 8998SOL    HW227894   6.951   4.101   4.545
 8999SOL     OW27895   4.161   5.960   6.091
 8999SOL    HW127896   4.174   5.923   6.183
 8999SOL    HW227897   4.091   6.032   6.094
 9000SOL     OW27898   0.870   3.768   1.650
 9000SOL    HW127899   0.887   3.844   1.588
 9000SOL    HW227900   0.945   3.702   1.643
 9001SOL     OW27901   1.548   5.778   1.154
 9001SOL    HW127902   1.572   5.706   1.219
 9001SOL    HW227903   1.621   5.787   1.086
 9002SOL     OW27904   6.843   4.916   6.270
 9002SOL    HW127905   6.917   4.981   6.283
 9002SOL    HW227906   6.851   4.873   6.180
 9003SOL     OW27907   5.275   6.895   0.687
 9003SOL    HW127908   5.332   6.934   0.759
 9003SOL    HW227909   5.309   6.924   0.597
 9004SOL     OW27910   6.188   5.166   1.430
 9004SOL    HW127911   6.135   5.144   1.512
 9004SOL    HW227912   6.143   5.128   1.350
 9005SOL     OW27913   4.970   0.559   5.137
 9005SOL    HW127914   4.977   0.636   5.201
 9005SOL    HW227915   5.060   0.540   5.098
 9006SOL     OW27916   4.014   5.893   0.274
 9006SOL    HW127917   3.996   5.958   0.348
 9006SOL    HW227918   4.108   5.904   0.242
 9007SOL     OW27919   1.154   1.062   3.018
 9007SOL    HW127920   1.059   1.037   3.000
 9007SOL    HW227921   1.183   1.132   2.953
 9008SOL     OW27922   0.321   5.103   2.442
 9008SOL    HW127923   0.369   5.094   2.354
 9008SOL    HW227924   0.272   5.190   2.445
 9009SOL     OW27925   2.801   6.580   2.056
 9009SOL    HW127926   2.836   6.500   2.007
 9009SOL    HW227927   2.767   6.553   2.146
 9010SOL     OW27928   1.397   5.629   4.414
 9010SOL    HW127929   1.322   5.606   4.477
 9010SOL    HW227930   1.370   5.708   4.359
 9011SOL     OW27931   1.945   2.182   2.298
 9011SOL    HW127932   1.968   2.279   2.288
 9011SOL    HW227933   2.020   2.135   2.344
 9012SOL     OW27934   2.581   5.984   6.863
 9012SOL    HW127935   2.499   5.975   6.919
 9012SOL    HW227936   2.639   5.904   6.876
 9013SOL     OW27937   1.844   0.314   4.499
 9013SOL    HW127938   1.777   0.263   4.445
 9013SOL    HW227939   1.936   0.284   4.472
 9014SOL     OW27940   5.206   3.121   3.409
 9014SOL    HW127941   5.251   3.098   3.323
 9014SOL    HW227942   5.232   3.214   3.436
 9015SOL     OW27943   4.700   0.066   6.260
 9015SOL    HW127944   4.644   0.123   6.201
 9015SOL    HW227945   4.738   7.008   6.207
 9016SOL     OW27946   4.658   4.821   5.797
 9016SOL    HW127947   4.653   4.791   5.701
 9016SOL    HW227948   4.738   4.880   5.809
 9017SOL     OW27949   3.566   0.378   5.331
 9017SOL    HW127950   3.594   0.472   5.349
 9017SOL    HW227951   3.473   0.377   5.295
 9018SOL     OW27952   3.608   5.061   0.400
 9018SOL    HW127953   3.634   5.099   0.488
 9018SOL    HW227954   3.580   5.134   0.338
 9019SOL     OW27955   0.566   3.312   3.726
 9019SOL    HW127956   0.497   3.307   3.654
 9019SOL    HW227957   0.620   3.228   3.726
 9020SOL     OW27958   5.646   4.469   3.276
 9020SOL    HW127959   5.641   4.515   3.187
 9020SOL    HW227960   5.735   4.423   3.284
 9021SOL     OW27961   0.221   1.320   4.143
 9021SOL    HW127962   0.255   1.246   4.201
 9021SOL    HW227963   0.206   1.402   4.199
 9022SOL     OW27964   4.460   3.526   6.849
 9022SOL    HW127965   4.541   3.543   6.792
 9022SOL    HW227966   4.489   3.496   6.939
 9023SOL     OW27967   0.068   4.794   0.426
 9023SOL    HW127968   0.128   4.764   0.500
 9023SOL    HW227969   6.992   4.763   0.445
 9024SOL     OW27970   2.421   4.997   6.430
 9024SOL    HW127971   2.351   4.989   6.501
 9024SOL    HW227972   2.466   4.909   6.418
 9025SOL     OW27973   1.046   5.948   1.035
 9025SOL    HW127974   0.988   6.012   0.984
 9025SOL    HW227975   1.002   5.858   1.039
 9026SOL     OW27976   5.556   0.926   0.400
 9026SOL    HW127977   5.519   1.016   0.378
 9026SOL    HW227978   5.587   0.926   0.495
 9027SOL     OW27979   0.448   3.917   3.527
 9027SOL    HW127980   0.357   3.951   3.551
 9027SOL    HW227981   0.439   3.827   3.483
 9028SOL     OW27982   3.163   5.174   6.256
 9028SOL    HW127983   3.226   5.150   6.330
 9028SOL    HW227984   3.092   5.235   6.290
 9029SOL     OW27985   4.557   6.538   4.826
 9029SOL    HW127986   4.520   6.617   4.874
 9029SOL    HW227987   4.533   6.542   4.729
 9030SOL     OW27988   2.742   2.184   2.272
 9030SOL    HW127989   2.795   2.234   2.203
 9030SOL    HW227990   2.784   2.095   2.288
 9031SOL     OW27991   4.956   7.011   4.825
 9031SOL    HW127992   4.913   0.071   4.780
 9031SOL    HW227993   5.049   6.999   4.789
 9032SOL     OW27994   5.505   2.590   1.242
 9032SOL    HW127995   5.452   2.525   1.297
 9032SOL    HW227996   5.598   2.557   1.231
 9033SOL     OW27997   1.477   6.338   2.896
 9033SOL    HW127998   1.534   6.256   2.893
 9033SOL    HW227999   1.460   6.363   2.992
 9034SOL     OW28000   4.785   6.650   4.368
 9034SOL    HW128001   4.858   6.631   4.302
 9034SOL    HW228002   4.818   6.630   4.460
 9035SOL     OW28003   3.362   5.124   5.974
 9035SOL    HW128004   3.422   5.089   6.046
 9035SOL    HW228005   3.268   5.131   6.009
 9036SOL     OW28006   0.875   4.922   5.232
 9036SOL    HW128007   0.965   4.880   5.242
 9036SOL    HW228008   0.844   4.958   5.320
 9037SOL     OW28009   0.060   0.621   1.899
 9037SOL    HW128010   0.101   0.628   1.990
 9037SOL    HW228011   0.113   0.676   1.835
 9038SOL     OW28012   3.946   3.397   5.991
 9038SOL    HW128013   4.022   3.448   5.950
 9038SOL    HW228014   3.907   3.335   5.923
 9039SOL     OW28015   4.587   6.246   6.804
 9039SOL    HW128016   4.621   6.299   6.726
 9039SOL    HW228017   4.557   6.156   6.772
 9040SOL     OW28018   2.102   2.227   1.394
 9040SOL    HW128019   2.139   2.157   1.333
 9040SOL    HW228020   2.176   2.261   1.453
 9041SOL     OW28021   6.220   2.159   2.966
 9041SOL    HW128022   6.232   2.246   2.919
 9041SOL    HW228023   6.123   2.140   2.977
 9042SOL     OW28024   5.291   5.475   0.002
 9042SOL    HW128025   5.215   5.410   0.006
 9042SOL    HW228026   5.255   5.568   0.008
 9043SOL     OW28027   2.798   3.182   1.739
 9043SOL    HW128028   2.722   3.247   1.737
 9043SOL    HW228029   2.769   3.095   1.699
 9044SOL     OW28030   1.106   0.586   0.559
 9044SOL    HW128031   1.073   0.524   0.631
 9044SOL    HW228032   1.039   0.592   0.486
 9045SOL     OW28033   4.061   0.432   3.958
 9045SOL    HW128034   4.117   0.362   3.914
 9045SOL    HW228035   3.992   0.465   3.894
 9046SOL     OW28036   3.914   2.992   2.515
 9046SOL    HW128037   3.900   3.090   2.504
 9046SOL    HW228038   3.990   2.963   2.457
 9047SOL     OW28039   0.591   4.422   5.881
 9047SOL    HW128040   0.522   4.354   5.903
 9047SOL    HW228041   0.609   4.479   5.962
 9048SOL     OW28042   6.879   1.686   5.623
 9048SOL    HW128043   6.808   1.641   5.677
 9048SOL    HW228044   6.876   1.653   5.529
 9049SOL     OW28045   2.389   6.535   5.195
 9049SOL    HW128046   2.367   6.619   5.243
 9049SOL    HW228047   2.450   6.479   5.252
 9050SOL     OW28048   0.717   4.361   0.610
 9050SOL    HW128049   0.643   4.302   0.644
 9050SOL    HW228050   0.789   4.367   0.680
 9051SOL     OW28051   2.194   0.754   1.595
 9051SOL    HW128052   2.163   0.798   1.680
 9051SOL    HW228053   2.239   0.822   1.537
 9052SOL     OW28054   2.155   3.809   6.505
 9052SOL    HW128055   2.088   3.879   6.479
 9052SOL    HW228056   2.228   3.851   6.559
 9053SOL     OW28057   0.609   1.145   6.857
 9053SOL    HW128058   0.619   1.047   6.877
 9053SOL    HW228059   0.642   1.164   6.765
 9054SOL     OW28060   1.345   5.487   2.831
 9054SOL    HW128061   1.350   5.573   2.780
 9054SOL    HW228062   1.274   5.495   2.902
 9055SOL     OW28063   0.508   2.435   5.980
 9055SOL    HW128064   0.607   2.428   5.990
 9055SOL    HW228065   0.486   2.448   5.883
 9056SOL     OW28066   5.617   1.645   3.893
 9056SOL    HW128067   5.608   1.691   3.805
 9056SOL    HW228068   5.625   1.713   3.966
 9057SOL     OW28069   4.702   1.894   3.762
 9057SOL    HW128070   4.742   1.943   3.839
 9057SOL    HW228071   4.626   1.947   3.725
 9058SOL     OW28072   2.627   0.228   5.659
 9058SOL    HW128073   2.605   0.318   5.699
 9058SOL    HW228074   2.552   0.199   5.600
 9059SOL     OW28075   1.052   2.453   3.864
 9059SOL    HW128076   1.152   2.448   3.852
 9059SOL    HW228077   1.018   2.363   3.892
 9060SOL     OW28078   5.172   3.041   5.078
 9060SOL    HW128079   5.232   3.048   4.998
 9060SOL    HW228080   5.218   2.992   5.151
 9061SOL     OW28081   1.702   4.544   3.295
 9061SOL    HW128082   1.749   4.574   3.378
 9061SOL    HW228083   1.755   4.572   3.215
 9062SOL     OW28084   1.836   6.155   1.508
 9062SOL    HW128085   1.767   6.085   1.488
 9062SOL    HW228086   1.916   6.111   1.549
 9063SOL     OW28087   2.936   1.931   2.643
 9063SOL    HW128088   2.954   1.943   2.546
 9063SOL    HW228089   3.008   1.974   2.697
 9064SOL     OW28090   5.101   4.087   0.032
 9064SOL    HW128091   5.067   3.998   0.060
 9064SOL    HW228092   5.036   4.158   0.060
 9065SOL     OW28093   3.023   0.962   1.531
 9065SOL    HW128094   2.953   0.969   1.603
 9065SOL    HW228095   2.979   0.956   1.442
 9066SOL     OW28096   5.431   6.862   6.995
 9066SOL    HW128097   5.350   6.850   0.034
 9066SOL    HW228098   5.424   6.805   6.913
 9067SOL     OW28099   1.142   0.371   1.596
 9067SOL    HW128100   1.108   0.280   1.576
 9067SOL    HW228101   1.209   0.398   1.528
 9068SOL     OW28102   1.523   6.135   6.092
 9068SOL    HW128103   1.450   6.147   6.159
 9068SOL    HW228104   1.503   6.056   6.035
 9069SOL     OW28105   1.193   2.284   6.196
 9069SOL    HW128106   1.115   2.304   6.256
 9069SOL    HW228107   1.194   2.350   6.121
 9070SOL     OW28108   1.542   4.415   4.109
 9070SOL    HW128109   1.589   4.478   4.171
 9070SOL    HW228110   1.472   4.464   4.059
 9071SOL     OW28111   4.811   5.708   6.846
 9071SOL    HW128112   4.860   5.623   6.863
 9071SOL    HW228113   4.876   5.783   6.837
 9072SOL     OW28114   4.635   4.467   0.542
 9072SOL    HW128115   4.686   4.548   0.511
 9072SOL    HW228116   4.574   4.494   0.616
 9073SOL     OW28117   2.217   7.004   1.271
 9073SOL    HW128118   2.222   0.036   1.357
 9073SOL    HW228119   2.286   6.932   1.270
 9074SOL     OW28120   0.463   0.498   2.113
 9074SOL    HW128121   0.550   0.463   2.148
 9074SOL    HW228122   0.478   0.586   2.069
 9075SOL     OW28123   6.828   0.277   1.347
 9075SOL    HW128124   6.807   0.340   1.422
 9075SOL    HW228125   6.921   0.295   1.314
 9076SOL     OW28126   0.920   2.146   5.624
 9076SOL    HW128127   0.835   2.161   5.575
 9076SOL    HW228128   0.956   2.055   5.601
 9077SOL     OW28129   5.835   6.481   2.151
 9077SOL    HW128130   5.771   6.485   2.074
 9077SOL    HW228131   5.883   6.568   2.159
 9078SOL     OW28132   4.531   3.210   5.730
 9078SOL    HW128133   4.503   3.274   5.802
 9078SOL    HW228134   4.537   3.259   5.643
 9079SOL     OW28135   3.204   0.443   5.592
 9079SOL    HW128136   3.249   0.528   5.619
 9079SOL    HW228137   3.127   0.425   5.654
 9080SOL     OW28138   4.685   0.942   0.016
 9080SOL    HW128139   4.642   0.961   6.945
 9080SOL    HW228140   4.625   0.881   0.068
 9081SOL     OW28141   5.447   0.046   3.262
 9081SOL    HW128142   5.381   7.004   3.306
 9081SOL    HW228143   5.417   0.141   3.270
 9082SOL     OW28144   2.323   0.701   2.076
 9082SOL    HW128145   2.329   0.776   2.143
 9082SOL    HW228146   2.269   0.626   2.114
 9083SOL     OW28147   4.468   4.786   3.730
 9083SOL    HW128148   4.551   4.741   3.764
 9083SOL    HW228149   4.423   4.833   3.806
 9084SOL     OW28150   4.010   3.898   2.495
 9084SOL    HW128151   4.043   3.871   2.405
 9084SOL    HW228152   4.084   3.891   2.562
 9085SOL     OW28153   0.682   2.442   0.909
 9085SOL    HW128154   0.752   2.499   0.953
 9085SOL    HW228155   0.608   2.501   0.877
 9086SOL     OW28156   6.597   3.873   6.726
 9086SOL    HW128157   6.517   3.907   6.676
 9086SOL    HW228158   6.678   3.924   6.697
 9087SOL     OW28159   5.175   3.405   1.916
 9087SOL    HW128160   5.196   3.416   2.013
 9087SOL    HW228161   5.154   3.309   1.896
 9088SOL     OW28162   5.581   5.064   1.786
 9088SOL    HW128163   5.629   5.113   1.858
 9088SOL    HW228164   5.486   5.050   1.813
 9089SOL     OW28165   3.967   0.943   5.912
 9089SOL    HW128166   4.060   0.910   5.928
 9089SOL    HW228167   3.967   1.043   5.908
 9090SOL     OW28168   6.069   1.602   3.681
 9090SOL    HW128169   6.121   1.682   3.650
 9090SOL    HW228170   6.018   1.626   3.764
 9091SOL     OW28171   3.865   2.525   5.681
 9091SOL    HW128172   3.893   2.538   5.776
 9091SOL    HW228173   3.909   2.442   5.645
 9092SOL     OW28174   6.744   3.185   6.059
 9092SOL    HW128175   6.802   3.178   6.141
 9092SOL    HW228176   6.802   3.195   5.978
 9093SOL     OW28177   2.244   6.306   4.739
 9093SOL    HW128178   2.331   6.351   4.758
 9093SOL    HW228179   2.221   6.246   4.816
 9094SOL     OW28180   1.729   3.734   0.507
 9094SOL    HW128181   1.685   3.813   0.549
 9094SOL    HW228182   1.770   3.760   0.420
 9095SOL     OW28183   0.302   6.869   6.473
 9095SOL    HW128184   0.263   6.923   6.548
 9095SOL    HW228185   0.227   6.834   6.416
 9096SOL     OW28186   6.133   5.357   3.958
 9096SOL    HW128187   6.130   5.418   3.878
 9096SOL    HW228188   6.194   5.280   3.938
 9097SOL     OW28189   1.097   3.557   6.484
 9097SOL    HW128190   1.088   3.522   6.577
 9097SOL    HW228191   1.127   3.483   6.423
 9098SOL     OW28192   1.812   4.712   3.871
 9098SOL    HW128193   1.811   4.633   3.809
 9098SOL    HW228194   1.765   4.788   3.828
 9099SOL     OW28195   2.561   1.701   6.490
 9099SOL    HW128196   2.491   1.765   6.458
 9099SOL    HW228197   2.520   1.611   6.502
 9100SOL     OW28198   1.516   4.952   4.300
 9100SOL    HW128199   1.574   4.932   4.221
 9100SOL    HW228200   1.480   4.866   4.337
 9101SOL     OW28201   0.306   2.051   1.012
 9101SOL    HW128202   0.335   2.084   0.922
 9101SOL    HW228203   0.343   2.110   1.083
 9102SOL     OW28204   3.755   0.990   2.980
 9102SOL    HW128205   3.738   0.897   3.014
 9102SOL    HW228206   3.847   1.018   3.006
 9103SOL     OW28207   6.514   0.393   1.246
 9103SOL    HW128208   6.525   0.396   1.345
 9103SOL    HW228209   6.531   0.300   1.213
 9104SOL     OW28210   5.953   2.019   6.155
 9104SOL    HW128211   5.997   1.932   6.138
 9104SOL    HW228212   5.881   2.034   6.087
 9105SOL     OW28213   2.954   0.522   6.697
 9105SOL    HW128214   2.976   0.618   6.679
 9105SOL    HW228215   3.025   0.481   6.754
 9106SOL     OW28216   2.483   2.843   6.255
 9106SOL    HW128217   2.570   2.836   6.305
 9106SOL    HW228218   2.472   2.762   6.198
 9107SOL     OW28219   3.466   0.814   1.113
 9107SOL    HW128220   3.391   0.765   1.069
 9107SOL    HW228221   3.459   0.912   1.092
 9108SOL     OW28222   6.447   6.360   5.919
 9108SOL    HW128223   6.362   6.357   5.865
 9108SOL    HW228224   6.427   6.336   6.014
 9109SOL     OW28225   5.411   4.416   3.387
 9109SOL    HW128226   5.353   4.492   3.356
 9109SOL    HW228227   5.503   4.426   3.349
 9110SOL     OW28228   1.217   6.904   2.433
 9110SOL    HW128229   1.217   6.804   2.434
 9110SOL    HW228230   1.123   6.937   2.442
 9111SOL     OW28231   4.007   3.024   5.637
 9111SOL    HW128232   4.002   3.119   5.606
 9111SOL    HW228233   4.067   3.018   5.717
 9112SOL     OW28234   0.644   4.413   2.091
 9112SOL    HW128235   0.581   4.435   2.016
 9112SOL    HW228236   0.595   4.420   2.178
 9113SOL     OW28237   5.769   0.133   4.485
 9113SOL    HW128238   5.720   0.130   4.398
 9113SOL    HW228239   5.705   0.115   4.560
 9114SOL     OW28240   0.969   1.274   6.215
 9114SOL    HW128241   1.035   1.308   6.148
 9114SOL    HW228242   1.011   1.201   6.270
 9115SOL     OW28243   4.964   3.555   4.449
 9115SOL    HW128244   5.056   3.535   4.483
 9115SOL    HW228245   4.945   3.497   4.370
 9116SOL     OW28246   1.054   4.985   3.798
 9116SOL    HW128247   1.014   5.077   3.801
 9116SOL    HW228248   1.006   4.930   3.730
 9117SOL     OW28249   2.141   6.780   0.232
 9117SOL    HW128250   2.043   6.790   0.212
 9117SOL    HW228251   2.187   6.867   0.217
 9118SOL     OW28252   6.742   5.040   1.390
 9118SOL    HW128253   6.709   5.133   1.399
 9118SOL    HW228254   6.788   5.012   1.474
 9119SOL     OW28255   3.505   1.071   1.099
 9119SOL    HW128256   3.526   1.166   1.078
 9119SOL    HW228257   3.571   1.036   1.166
 9120SOL     OW28258   6.685   4.213   4.655
 9120SOL    HW128259   6.754   4.284   4.641
 9120SOL    HW228260   6.696   4.174   4.746
 9121SOL     OW28261   4.076   1.309   4.479
 9121SOL    HW128262   4.055   1.327   4.383
 9121SOL    HW228263   4.171   1.334   4.498
 9122SOL     OW28264   0.089   1.798   1.844
 9122SOL    HW128265   0.107   1.852   1.762
 9122SOL    HW228266   0.172   1.792   1.899
 9123SOL     OW28267   0.536   6.477   4.653
 9123SOL    HW128268   0.465   6.473   4.724
 9123SOL    HW228269   0.626   6.479   4.697
 9124SOL     OW28270   3.673   5.640   0.623
 9124SOL    HW128271   3.740   5.694   0.674
 9124SOL    HW228272   3.702   5.544   0.622
 9125SOL     OW28273   5.173   6.560   1.617
 9125SOL    HW128274   5.193   6.573   1.714
 9125SOL    HW228275   5.074   6.564   1.602
 9126SOL     OW28276   3.799   5.350   0.480
 9126SOL    HW128277   3.759   5.279   0.539
 9126SOL    HW228278   3.787   5.325   0.384
 9127SOL     OW28279   6.745   4.257   5.425
 9127SOL    HW128280   6.689   4.333   5.390
 9127SOL    HW228281   6.685   4.181   5.451
 9128SOL     OW28282   5.549   3.744   6.379
 9128SOL    HW128283   5.564   3.757   6.281
 9128SOL    HW228284   5.547   3.833   6.424
 9129SOL     OW28285   0.120   2.990   0.805
 9129SOL    HW128286   0.082   2.901   0.827
 9129SOL    HW228287   0.187   3.016   0.874
 9130SOL     OW28288   2.990   3.294   6.286
 9130SOL    HW128289   2.967   3.204   6.249
 9130SOL    HW228290   3.080   3.322   6.252
 9131SOL     OW28291   6.231   3.183   0.715
 9131SOL    HW128292   6.309   3.196   0.655
 9131SOL    HW228293   6.151   3.155   0.660
 9132SOL     OW28294   1.105   4.125   3.762
 9132SOL    HW128295   1.178   4.170   3.710
 9132SOL    HW228296   1.146   4.068   3.833
 9133SOL     OW28297   5.413   0.056   0.857
 9133SOL    HW128298   5.504   0.019   0.873
 9133SOL    HW228299   5.367   0.070   0.944
 9134SOL     OW28300   4.941   4.419   6.547
 9134SOL    HW128301   4.951   4.466   6.459
 9134SOL    HW228302   4.950   4.321   6.533
 9135SOL     OW28303   6.786   5.510   2.517
 9135SOL    HW128304   6.829   5.600   2.527
 9135SOL    HW228305   6.794   5.480   2.422
 9136SOL     OW28306   0.765   5.302   6.550
 9136SOL    HW128307   0.852   5.254   6.551
 9136SOL    HW228308   0.690   5.236   6.549
 9137SOL     OW28309   5.823   5.672   6.120
 9137SOL    HW128310   5.877   5.664   6.204
 9137SOL    HW228311   5.805   5.580   6.083
 9138SOL     OW28312   1.484   4.398   6.268
 9138SOL    HW128313   1.545   4.319   6.272
 9138SOL    HW228314   1.435   4.397   6.180
 9139SOL     OW28315   0.297   0.130   1.333
 9139SOL    HW128316   0.392   0.136   1.305
 9139SOL    HW228317   0.291   0.136   1.433
 9140SOL     OW28318   1.169   4.283   2.844
 9140SOL    HW128319   1.110   4.202   2.838
 9140SOL    HW228320   1.250   4.262   2.899
 9141SOL     OW28321   0.213   5.820   4.626
 9141SOL    HW128322   0.246   5.748   4.687
 9141SOL    HW228323   0.290   5.874   4.593
 9142SOL     OW28324   1.253   5.238   3.508
 9142SOL    HW128325   1.179   5.290   3.551
 9142SOL    HW228326   1.223   5.144   3.492
 9143SOL     OW28327   5.396   3.726   2.310
 9143SOL    HW128328   5.351   3.701   2.396
 9143SOL    HW228329   5.338   3.699   2.234
 9144SOL     OW28330   2.773   4.220   5.387
 9144SOL    HW128331   2.686   4.232   5.338
 9144SOL    HW228332   2.841   4.284   5.351
 9145SOL     OW28333   3.078   6.650   6.780
 9145SOL    HW128334   3.057   6.570   6.723
 9145SOL    HW228335   3.169   6.684   6.755
 9146SOL     OW28336   5.655   1.947   4.494
 9146SOL    HW128337   5.712   2.020   4.532
 9146SOL    HW228338   5.560   1.962   4.519
 9147SOL     OW28339   4.294   0.452   6.402
 9147SOL    HW128340   4.291   0.383   6.474
 9147SOL    HW228341   4.347   0.531   6.434
 9148SOL     OW28342   3.850   5.374   2.222
 9148SOL    HW128343   3.836   5.276   2.236
 9148SOL    HW228344   3.786   5.426   2.279
 9149SOL     OW28345   0.710   4.115   1.385
 9149SOL    HW128346   0.762   4.200   1.392
 9149SOL    HW228347   0.773   4.038   1.375
 9150SOL     OW28348   3.379   3.299   6.994
 9150SOL    HW128349   3.472   3.296   6.956
 9150SOL    HW228350   3.384   3.295   0.075
 9151SOL     OW28351   2.129   3.493   4.306
 9151SOL    HW128352   2.156   3.589   4.296
 9151SOL    HW228353   2.063   3.470   4.234
 9152SOL     OW28354   2.026   5.272   1.841
 9152SOL    HW128355   2.050   5.263   1.744
 9152SOL    HW228356   2.110   5.279   1.895
 9153SOL     OW28357   0.826   3.833   0.447
 9153SOL    HW128358   0.737   3.790   0.462
 9153SOL    HW228359   0.870   3.792   0.367
 9154SOL     OW28360   4.555   5.459   3.020
 9154SOL    HW128361   4.618   5.523   3.065
 9154SOL    HW228362   4.580   5.450   2.924
 9155SOL     OW28363   1.096   6.644   2.473
 9155SOL    HW128364   1.061   6.577   2.539
 9155SOL    HW228365   1.021   6.680   2.418
 9156SOL     OW28366   6.979   4.601   5.557
 9156SOL    HW128367   0.036   4.647   5.605
 9156SOL    HW228368   7.017   4.531   5.496
 9157SOL     OW28369   1.966   4.550   4.924
 9157SOL    HW128370   1.910   4.517   4.848
 9157SOL    HW228371   2.041   4.487   4.940
 9158SOL     OW28372   6.638   2.189   3.648
 9158SOL    HW128373   6.581   2.108   3.654
 9158SOL    HW228374   6.593   2.266   3.694
 9159SOL     OW28375   2.142   0.840   3.713
 9159SOL    HW128376   2.059   0.866   3.663
 9159SOL    HW228377   2.132   0.866   3.809
 9160SOL     OW28378   0.671   3.849   6.476
 9160SOL    HW128379   0.765   3.820   6.490
 9160SOL    HW228380   0.622   3.845   6.563
 9161SOL     OW28381   5.848   3.242   2.471
 9161SOL    HW128382   5.852   3.342   2.477
 9161SOL    HW228383   5.763   3.215   2.428
 9162SOL     OW28384   4.811   1.878   2.304
 9162SOL    HW128385   4.813   1.786   2.343
 9162SOL    HW228386   4.796   1.872   2.206
 9163SOL     OW28387   2.165   3.534   3.442
 9163SOL    HW128388   2.248   3.489   3.475
 9163SOL    HW228389   2.181   3.632   3.433
 9164SOL     OW28390   3.355   0.300   0.694
 9164SOL    HW128391   3.358   0.212   0.742
 9164SOL    HW228392   3.378   0.374   0.758
 9165SOL     OW28393   6.033   0.845   6.153
 9165SOL    HW128394   6.117   0.796   6.176
 9165SOL    HW228395   6.036   0.874   6.057
 9166SOL     OW28396   4.037   5.793   1.603
 9166SOL    HW128397   4.043   5.709   1.550
 9166SOL    HW228398   4.000   5.866   1.545
 9167SOL     OW28399   1.150   2.680   5.120
 9167SOL    HW128400   1.222   2.618   5.149
 9167SOL    HW228401   1.137   2.672   5.021
 9168SOL     OW28402   6.353   5.875   4.650
 9168SOL    HW128403   6.404   5.860   4.734
 9168SOL    HW228404   6.255   5.882   4.670
 9169SOL     OW28405   6.112   5.733   0.253
 9169SOL    HW128406   6.152   5.739   0.344
 9169SOL    HW228407   6.075   5.642   0.238
 9170SOL     OW28408   1.603   0.256   5.423
 9170SOL    HW128409   1.654   0.300   5.497
 9170SOL    HW228410   1.640   0.164   5.408
 9171SOL     OW28411   4.265   5.948   0.166
 9171SOL    HW128412   4.269   5.863   0.113
 9171SOL    HW228413   4.286   6.025   0.106
 9172SOL     OW28414   5.075   0.984   5.879
 9172SOL    HW128415   5.061   0.973   5.781
 9172SOL    HW228416   5.100   0.896   5.920
 9173SOL     OW28417   5.783   4.619   5.912
 9173SOL    HW128418   5.861   4.676   5.887
 9173SOL    HW228419   5.701   4.653   5.866
 9174SOL     OW28420   5.963   4.916   6.784
 9174SOL    HW128421   6.029   4.974   6.737
 9174SOL    HW228422   6.009   4.869   6.860
 9175SOL     OW28423   2.009   1.079   1.499
 9175SOL    HW128424   2.035   1.003   1.440
 9175SOL    HW228425   2.056   1.070   1.587
 9176SOL     OW28426   1.157   0.079   2.246
 9176SOL    HW128427   1.216   0.123   2.179
 9176SOL    HW228428   1.205   0.003   2.289
 9177SOL     OW28429   0.285   5.848   3.644
 9177SOL    HW128430   0.228   5.923   3.678
 9177SOL    HW228431   0.341   5.812   3.719
 9178SOL     OW28432   1.213   3.535   1.026
 9178SOL    HW128433   1.235   3.613   1.085
 9178SOL    HW228434   1.221   3.451   1.079
 9179SOL     OW28435   3.976   5.494   3.069
 9179SOL    HW128436   3.940   5.414   3.022
 9179SOL    HW228437   4.074   5.501   3.054
 9180SOL     OW28438   0.259   1.004   5.216
 9180SOL    HW128439   0.179   1.053   5.180
 9180SOL    HW228440   0.272   1.029   5.312
 9181SOL     OW28441   2.885   2.269   3.551
 9181SOL    HW128442   2.890   2.276   3.650
 9181SOL    HW228443   2.964   2.218   3.517
 9182SOL     OW28444   6.603   1.482   3.133
 9182SOL    HW128445   6.645   1.445   3.051
 9182SOL    HW228446   6.632   1.428   3.212
 9183SOL     OW28447   2.951   2.029   5.423
 9183SOL    HW128448   2.861   2.013   5.383
 9183SOL    HW228449   3.013   1.956   5.396
 9184SOL     OW28450   3.002   5.046   1.082
 9184SOL    HW128451   3.059   4.989   1.141
 9184SOL    HW228452   2.992   5.137   1.123
 9185SOL     OW28453   0.578   0.835   5.240
 9185SOL    HW128454   0.512   0.830   5.315
 9185SOL    HW228455   0.594   0.931   5.216
 9186SOL     OW28456   5.619   6.776   5.845
 9186SOL    HW128457   5.606   6.807   5.939
 9186SOL    HW228458   5.539   6.801   5.790
 9187SOL     OW28459   5.152   3.525   1.051
 9187SOL    HW128460   5.165   3.426   1.065
 9187SOL    HW228461   5.097   3.540   0.969
 9188SOL     OW28462   0.922   0.695   2.680
 9188SOL    HW128463   0.825   0.721   2.671
 9188SOL    HW228464   0.947   0.637   2.603
 9189SOL     OW28465   3.165   0.662   6.490
 9189SOL    HW128466   3.120   0.731   6.546
 9189SOL    HW228467   3.239   0.619   6.542
 9190SOL     OW28468   3.974   1.028   6.307
 9190SOL    HW128469   3.953   1.096   6.236
 9190SOL    HW228470   4.052   1.059   6.360
 9191SOL     OW28471   5.502   0.112   1.533
 9191SOL    HW128472   5.480   0.084   1.626
 9191SOL    HW228473   5.515   0.211   1.531
 9192SOL     OW28474   4.372   4.665   4.205
 9192SOL    HW128475   4.327   4.670   4.294
 9192SOL    HW228476   4.444   4.733   4.199
 9193SOL     OW28477   3.736   3.202   2.545
 9193SOL    HW128478   3.654   3.166   2.588
 9193SOL    HW228479   3.711   3.259   2.466
 9194SOL     OW28480   2.824   5.146   3.200
 9194SOL    HW128481   2.871   5.066   3.238
 9194SOL    HW228482   2.866   5.171   3.112
 9195SOL     OW28483   0.403   3.324   3.979
 9195SOL    HW128484   0.478   3.335   3.913
 9195SOL    HW228485   0.315   3.327   3.930
 9196SOL     OW28486   5.451   5.668   3.666
 9196SOL    HW128487   5.380   5.597   3.670
 9196SOL    HW228488   5.538   5.630   3.700
 9197SOL     OW28489   4.383   2.476   6.801
 9197SOL    HW128490   4.329   2.520   6.730
 9197SOL    HW228491   4.381   2.533   6.884
 9198SOL     OW28492   5.940   2.753   4.940
 9198SOL    HW128493   6.003   2.830   4.942
 9198SOL    HW228494   5.880   2.761   4.860
 9199SOL     OW28495   0.957   3.809   6.454
 9199SOL    HW128496   0.961   3.897   6.501
 9199SOL    HW228497   0.983   3.736   6.518
 9200SOL     OW28498   4.556   6.099   1.937
 9200SOL    HW128499   4.504   6.040   1.874
 9200SOL    HW228500   4.578   6.048   2.020
 9201SOL     OW28501   7.014   3.184   2.457
 9201SOL    HW128502   0.056   3.258   2.487
 9201SOL    HW228503   6.963   3.150   2.536
 9202SOL     OW28504   2.165   5.614   3.478
 9202SOL    HW128505   2.095   5.563   3.428
 9202SOL    HW228506   2.185   5.566   3.564
 9203SOL     OW28507   5.014   2.171   0.911
 9203SOL    HW128508   5.113   2.158   0.925
 9203SOL    HW228509   4.976   2.221   0.988
 9204SOL     OW28510   4.907   4.410   1.993
 9204SOL    HW128511   4.878   4.476   2.061
 9204SOL    HW228512   4.877   4.318   2.019
 9205SOL     OW28513   4.292   2.300   1.047
 9205SOL    HW128514   4.315   2.397   1.047
 9205SOL    HW228515   4.247   2.276   1.133
 9206SOL     OW28516   6.939   0.151   5.324
 9206SOL    HW128517   6.892   0.064   5.310
 9206SOL    HW228518   6.968   0.158   5.420
 9207SOL     OW28519   5.758   6.698   0.536
 9207SOL    HW128520   5.713   6.774   0.584
 9207SOL    HW228521   5.728   6.696   0.441
 9208SOL     OW28522   5.447   4.934   1.368
 9208SOL    HW128523   5.473   4.919   1.463
 9208SOL    HW228524   5.440   5.032   1.350
 9209SOL     OW28525   4.974   0.343   4.350
 9209SOL    HW128526   5.069   0.342   4.321
 9209SOL    HW228527   4.914   0.335   4.270
 9210SOL     OW28528   1.337   6.903   7.006
 9210SOL    HW128529   1.354   6.806   0.006
 9210SOL    HW228530   1.239   6.919   7.000
 9211SOL     OW28531   5.307   1.522   6.026
 9211SOL    HW128532   5.352   1.471   5.952
 9211SOL    HW228533   5.215   1.547   5.998
 9212SOL     OW28534   6.093   3.536   6.283
 9212SOL    HW128535   6.017   3.547   6.220
 9212SOL    HW228536   6.097   3.614   6.345
 9213SOL     OW28537   0.217   5.427   3.112
 9213SOL    HW128538   0.187   5.347   3.163
 9213SOL    HW228539   0.155   5.504   3.130
 9214SOL     OW28540   1.951   1.077   5.743
 9214SOL    HW128541   2.011   1.054   5.819
 9214SOL    HW228542   1.855   1.067   5.772
 9215SOL     OW28543   6.675   3.924   3.489
 9215SOL    HW128544   6.699   3.994   3.557
 9215SOL    HW228545   6.746   3.920   3.419
 9216SOL     OW28546   2.021   6.614   3.818
 9216SOL    HW128547   2.029   6.702   3.864
 9216SOL    HW228548   1.930   6.575   3.835
 9217SOL     OW28549   3.030   2.542   0.266
 9217SOL    HW128550   2.990   2.609   0.328
 9217SOL    HW228551   3.102   2.586   0.212
 9218SOL     OW28552   4.459   5.925   5.735
 9218SOL    HW128553   4.434   5.991   5.805
 9218SOL    HW228554   4.443   5.832   5.769
 9219SOL     OW28555   3.995   3.108   6.578
 9219SOL    HW128556   3.904   3.083   6.545
 9219SOL    HW228557   3.988   3.145   6.671
 9220SOL     OW28558   1.010   6.744   3.653
 9220SOL    HW128559   0.956   6.797   3.587
 9220SOL    HW228560   1.038   6.658   3.610
 9221SOL     OW28561   2.366   1.667   2.142
 9221SOL    HW128562   2.441   1.602   2.150
 9221SOL    HW228563   2.279   1.619   2.156
 9222SOL     OW28564   2.231   5.548   3.750
 9222SOL    HW128565   2.264   5.634   3.789
 9222SOL    HW228566   2.303   5.507   3.695
 9223SOL     OW28567   6.201   2.328   4.561
 9223SOL    HW128568   6.175   2.403   4.621
 9223SOL    HW228569   6.297   2.305   4.575
 9224SOL     OW28570   1.705   5.785   2.864
 9224SOL    HW128571   1.797   5.824   2.865
 9224SOL    HW228572   1.691   5.729   2.945
 9225SOL     OW28573   0.554   5.699   5.791
 9225SOL    HW128574   0.539   5.656   5.881
 9225SOL    HW228575   0.471   5.748   5.764
 9226SOL     OW28576   1.023   6.736   4.936
 9226SOL    HW128577   0.953   6.680   4.981
 9226SOL    HW228578   1.031   6.708   4.840
 9227SOL     OW28579   3.939   3.383   0.556
 9227SOL    HW128580   3.888   3.314   0.608
 9227SOL    HW228581   3.917   3.474   0.591
 9228SOL     OW28582   3.771   3.261   4.629
 9228SOL    HW128583   3.691   3.292   4.578
 9228SOL    HW228584   3.833   3.210   4.568
 9229SOL     OW28585   0.179   5.872   0.946
 9229SOL    HW128586   0.148   5.800   0.884
 9229SOL    HW228587   0.105   5.896   1.009
 9230SOL     OW28588   3.389   6.838   6.244
 9230SOL    HW128589   3.408   6.753   6.294
 9230SOL    HW228590   3.385   6.819   6.146
 9231SOL     OW28591   6.257   6.415   1.565
 9231SOL    HW128592   6.167   6.377   1.546
 9231SOL    HW228593   6.263   6.508   1.531
 9232SOL     OW28594   0.941   5.121   1.771
 9232SOL    HW128595   0.888   5.077   1.845
 9232SOL    HW228596   0.956   5.217   1.793
 9233SOL     OW28597   1.738   0.089   5.985
 9233SOL    HW128598   1.814   0.140   6.024
 9233SOL    HW228599   1.654   0.106   6.037
 9234SOL     OW28600   3.144   3.967   6.576
 9234SOL    HW128601   3.121   3.872   6.560
 9234SOL    HW228602   3.147   4.017   6.489
 9235SOL     OW28603   2.142   2.374   3.624
 9235SOL    HW128604   2.155   2.452   3.562
 9235SOL    HW228605   2.148   2.289   3.572
 9236SOL     OW28606   1.773   4.347   6.381
 9236SOL    HW128607   1.866   4.342   6.416
 9236SOL    HW228608   1.738   4.440   6.394
 9237SOL     OW28609   6.854   5.262   3.743
 9237SOL    HW128610   6.835   5.326   3.818
 9237SOL    HW228611   6.794   5.282   3.666
 9238SOL     OW28612   1.467   2.387   5.727
 9238SOL    HW128613   1.561   2.422   5.719
 9238SOL    HW228614   1.453   2.350   5.819
 9239SOL     OW28615   1.971   6.126   6.363
 9239SOL    HW128616   1.877   6.107   6.336
 9239SOL    HW228617   1.987   6.090   6.456
 9240SOL     OW28618   3.723   1.521   4.720
 9240SOL    HW128619   3.792   1.449   4.714
 9240SOL    HW228620   3.718   1.556   4.813
 9241SOL     OW28621   5.977   6.553   0.566
 9241SOL    HW128622   6.041   6.626   0.590
 9241SOL    HW228623   5.884   6.591   0.560
 9242SOL     OW28624   2.451   2.457   7.008
 9242SOL    HW128625   2.452   2.472   6.909
 9242SOL    HW228626   2.475   2.542   0.037
 9243SOL     OW28627   2.243   0.253   0.197
 9243SOL    HW128628   2.276   0.161   0.220
 9243SOL    HW228629   2.180   0.247   0.120
 9244SOL     OW28630   2.878   6.523   0.148
 9244SOL    HW128631   2.875   6.600   0.084
 9244SOL    HW228632   2.807   6.535   0.218
 9245SOL     OW28633   0.688   3.950   2.781
 9245SOL    HW128634   0.646   3.980   2.695
 9245SOL    HW228635   0.625   3.888   2.828
 9246SOL     OW28636   5.071   0.466   6.893
 9246SOL    HW128637   5.090   0.375   6.930
 9246SOL    HW228638   4.975   0.489   6.910
 9247SOL     OW28639   3.028   6.741   2.896
 9247SOL    HW128640   3.062   6.755   2.803
 9247SOL    HW228641   3.015   6.830   2.941
 9248SOL     OW28642   2.960   0.099   6.704
 9248SOL    HW128643   3.034   0.034   6.689
 9248SOL    HW228644   2.912   0.076   6.789
 9249SOL     OW28645   3.939   1.169   0.875
 9249SOL    HW128646   3.883   1.240   0.833
 9249SOL    HW228647   3.890   1.129   0.952
 9250SOL     OW28648   0.645   3.345   2.424
 9250SOL    HW128649   0.645   3.393   2.336
 9250SOL    HW228650   0.598   3.258   2.413
 9251SOL     OW28651   4.218   1.612   0.805
 9251SOL    HW128652   4.132   1.603   0.755
 9251SOL    HW228653   4.282   1.668   0.753
 9252SOL     OW28654   5.636   1.666   4.495
 9252SOL    HW128655   5.658   1.764   4.502
 9252SOL    HW228656   5.595   1.648   4.405
 9253SOL     OW28657   2.673   4.937   3.716
 9253SOL    HW128658   2.610   5.007   3.749
 9253SOL    HW228659   2.685   4.867   3.787
 9254SOL     OW28660   6.628   6.166   2.981
 9254SOL    HW128661   6.566   6.202   3.051
 9254SOL    HW228662   6.712   6.220   2.980
 9255SOL     OW28663   6.898   3.072   1.188
 9255SOL    HW128664   6.931   3.052   1.280
 9255SOL    HW228665   6.969   3.120   1.136
 9256SOL     OW28666   2.170   6.292   1.366
 9256SOL    HW128667   2.091   6.325   1.418
 9256SOL    HW228668   2.245   6.272   1.429
 9257SOL     OW28669   6.068   6.036   4.986
 9257SOL    HW128670   6.098   6.062   5.077
 9257SOL    HW228671   5.972   6.060   4.974
 9258SOL     OW28672   5.035   3.830   2.749
 9258SOL    HW128673   5.053   3.764   2.676
 9258SOL    HW228674   5.122   3.864   2.785
 9259SOL     OW28675   0.908   2.801   6.751
 9259SOL    HW128676   0.940   2.725   6.695
 9259SOL    HW228677   0.811   2.788   6.773
 9260SOL     OW28678   4.985   4.333   4.940
 9260SOL    HW128679   5.001   4.263   4.870
 9260SOL    HW228680   4.931   4.294   5.014
 9261SOL     OW28681   1.736   3.174   1.233
 9261SOL    HW128682   1.720   3.092   1.178
 9261SOL    HW228683   1.678   3.248   1.202
 9262SOL     OW28684   0.145   6.606   5.834
 9262SOL    HW128685   0.145   6.685   5.773
 9262SOL    HW228686   0.167   6.636   5.927
 9263SOL     OW28687   2.624   4.585   2.778
 9263SOL    HW128688   2.701   4.568   2.717
 9263SOL    HW228689   2.574   4.666   2.748
 9264SOL     OW28690   5.037   3.476   5.697
 9264SOL    HW128691   4.969   3.408   5.668
 9264SOL    HW228692   5.099   3.494   5.621
 9265SOL     OW28693   4.739   0.485   1.917
 9265SOL    HW128694   4.691   0.503   1.831
 9265SOL    HW228695   4.672   0.483   1.992
 9266SOL     OW28696   0.453   4.356   1.251
 9266SOL    HW128697   0.418   4.269   1.286
 9266SOL    HW228698   0.498   4.406   1.326
 9267SOL     OW28699   6.850   1.000   3.494
 9267SOL    HW128700   6.786   0.932   3.458
 9267SOL    HW228701   6.939   0.989   3.450
 9268SOL     OW28702   0.206   0.231   0.941
 9268SOL    HW128703   0.150   0.160   0.984
 9268SOL    HW228704   0.172   0.321   0.969
 9269SOL     OW28705   2.965   6.234   0.938
 9269SOL    HW128706   2.941   6.322   0.898
 9269SOL    HW228707   3.062   6.214   0.920
 9270SOL     OW28708   2.264   1.287   4.829
 9270SOL    HW128709   2.341   1.234   4.794
 9270SOL    HW228710   2.217   1.331   4.752
 9271SOL     OW28711   1.610   4.886   5.307
 9271SOL    HW128712   1.552   4.904   5.386
 9271SOL    HW228713   1.694   4.841   5.337
 9272SOL     OW28714   6.486   6.820   5.877
 9272SOL    HW128715   6.456   6.890   5.813
 9272SOL    HW228716   6.576   6.786   5.849
 9273SOL     OW28717   6.497   3.559   3.379
 9273SOL    HW128718   6.530   3.474   3.339
 9273SOL    HW228719   6.572   3.606   3.425
 9274SOL     OW28720   6.847   3.370   0.594
 9274SOL    HW128721   6.771   3.316   0.631
 9274SOL    HW228722   6.840   3.464   0.628
 9275SOL     OW28723   4.764   1.554   0.828
 9275SOL    HW128724   4.763   1.469   0.879
 9275SOL    HW228725   4.682   1.607   0.848
 9276SOL     OW28726   1.658   4.320   0.396
 9276SOL    HW128727   1.682   4.224   0.409
 9276SOL    HW228728   1.737   4.370   0.362
 9277SOL     OW28729   3.328   5.990   2.764
 9277SOL    HW128730   3.382   6.034   2.692
 9277SOL    HW228731   3.295   5.901   2.730
 9278SOL     OW28732   1.735   6.615   5.073
 9278SOL    HW128733   1.773   6.575   4.990
 9278SOL    HW228734   1.804   6.614   5.145
 9279SOL     OW28735   3.355   6.257   1.801
 9279SOL    HW128736   3.313   6.257   1.710
 9279SOL    HW228737   3.407   6.342   1.813
 9280SOL     OW28738   1.586   4.830   1.496
 9280SOL    HW128739   1.520   4.888   1.543
 9280SOL    HW228740   1.667   4.884   1.472
 9281SOL     OW28741   1.525   5.398   0.904
 9281SOL    HW128742   1.609   5.405   0.959
 9281SOL    HW228743   1.493   5.489   0.879
 9282SOL     OW28744   1.903   0.523   4.114
 9282SOL    HW128745   1.878   0.426   4.115
 9282SOL    HW228746   1.820   0.578   4.101
 9283SOL     OW28747   5.487   5.306   6.586
 9283SOL    HW128748   5.475   5.383   6.649
 9283SOL    HW228749   5.529   5.230   6.635
 9284SOL     OW28750   4.162   6.511   1.273
 9284SOL    HW128751   4.146   6.464   1.186
 9284SOL    HW228752   4.075   6.523   1.321
 9285SOL     OW28753   7.004   5.778   3.359
 9285SOL    HW128754   6.982   5.847   3.428
 9285SOL    HW228755   0.085   5.767   3.353
 9286SOL     OW28756   5.327   5.937   1.397
 9286SOL    HW128757   5.361   5.843   1.398
 9286SOL    HW228758   5.249   5.943   1.334
 9287SOL     OW28759   4.228   4.598   0.378
 9287SOL    HW128760   4.237   4.584   0.279
 9287SOL    HW228761   4.201   4.512   0.421
 9288SOL     OW28762   4.155   0.971   3.250
 9288SOL    HW128763   4.226   1.023   3.298
 9288SOL    HW228764   4.070   0.976   3.302
 9289SOL     OW28765   4.497   6.004   2.475
 9289SOL    HW128766   4.408   6.003   2.520
 9289SOL    HW228767   4.498   5.936   2.402
 9290SOL     OW28768   5.230   0.731   3.567
 9290SOL    HW128769   5.175   0.812   3.584
 9290SOL    HW228770   5.301   0.753   3.499
 9291SOL     OW28771   0.516   4.769   5.553
 9291SOL    HW128772   0.532   4.740   5.647
 9291SOL    HW228773   0.570   4.852   5.534
 9292SOL     OW28774   1.938   2.007   6.775
 9292SOL    HW128775   1.959   2.103   6.756
 9292SOL    HW228776   2.024   1.955   6.778
 9293SOL     OW28777   4.242   0.868   5.908
 9293SOL    HW128778   4.275   0.924   5.984
 9293SOL    HW228779   4.267   0.772   5.925
 9294SOL     OW28780   5.232   6.360   6.039
 9294SOL    HW128781   5.302   6.360   5.967
 9294SOL    HW228782   5.268   6.316   6.121
 9295SOL     OW28783   6.438   0.446   2.876
 9295SOL    HW128784   6.396   0.356   2.869
 9295SOL    HW228785   6.412   0.502   2.797
 9296SOL     OW28786   2.362   3.262   5.601
 9296SOL    HW128787   2.306   3.337   5.565
 9296SOL    HW228788   2.377   3.275   5.699
 9297SOL     OW28789   6.842   5.614   1.917
 9297SOL    HW128790   6.747   5.624   1.945
 9297SOL    HW228791   6.902   5.649   1.988
 9298SOL     OW28792   0.054   4.953   6.798
 9298SOL    HW128793   6.994   4.999   6.840
 9298SOL    HW228794   0.024   4.869   6.754
 9299SOL     OW28795   3.218   2.050   4.197
 9299SOL    HW128796   3.124   2.081   4.213
 9299SOL    HW228797   3.278   2.089   4.267
 9300SOL     OW28798   2.855   5.939   6.133
 9300SOL    HW128799   2.797   5.999   6.077
 9300SOL    HW228800   2.829   5.844   6.118
 9301SOL     OW28801   0.079   3.343   4.657
 9301SOL    HW128802   0.009   3.412   4.674
 9301SOL    HW228803   0.139   3.375   4.583
 9302SOL     OW28804   2.832   5.859   3.843
 9302SOL    HW128805   2.807   5.955   3.829
 9302SOL    HW228806   2.884   5.827   3.764
 9303SOL     OW28807   2.619   4.611   6.649
 9303SOL    HW128808   2.615   4.520   6.609
 9303SOL    HW228809   2.676   4.670   6.591
 9304SOL     OW28810   6.015   5.943   5.870
 9304SOL    HW128811   5.922   5.913   5.892
 9304SOL    HW228812   6.022   5.960   5.772
 9305SOL     OW28813   2.193   1.811   1.023
 9305SOL    HW128814   2.093   1.808   1.023
 9305SOL    HW228815   2.225   1.866   0.947
 9306SOL     OW28816   6.859   6.194   4.137
 9306SOL    HW128817   6.798   6.174   4.060
 9306SOL    HW228818   6.812   6.255   4.201
 9307SOL     OW28819   1.983   4.262   1.113
 9307SOL    HW128820   1.958   4.358   1.096
 9307SOL    HW228821   1.917   4.202   1.068
 9308SOL     OW28822   2.436   3.483   1.139
 9308SOL    HW128823   2.466   3.576   1.160
 9308SOL    HW228824   2.348   3.465   1.184
 9309SOL     OW28825   3.524   4.937   5.584
 9309SOL    HW128826   3.443   4.978   5.625
 9309SOL    HW228827   3.579   5.007   5.539
 9310SOL     OW28828   6.708   6.753   5.757
 9310SOL    HW128829   6.713   6.674   5.696
 9310SOL    HW228830   6.798   6.797   5.762
 9311SOL     OW28831   5.744   4.695   6.916
 9311SOL    HW128832   5.809   4.645   6.974
 9311SOL    HW228833   5.794   4.744   6.845
 9312SOL     OW28834   5.704   3.284   3.716
 9312SOL    HW128835   5.744   3.271   3.807
 9312SOL    HW228836   5.711   3.380   3.690
 9313SOL     OW28837   0.239   0.848   1.846
 9313SOL    HW128838   0.335   0.820   1.846
 9313SOL    HW228839   0.221   0.908   1.768
 9314SOL     OW28840   4.712   5.044   1.163
 9314SOL    HW128841   4.782   5.089   1.107
 9314SOL    HW228842   4.731   4.946   1.167
 9315SOL     OW28843   5.783   5.708   5.678
 9315SOL    HW128844   5.728   5.779   5.634
 9315SOL    HW228845   5.878   5.717   5.650
 9316SOL     OW28846   5.021   5.818   0.384
 9316SOL    HW128847   5.082   5.816   0.305
 9316SOL    HW228848   5.011   5.912   0.417
 9317SOL     OW28849   2.982   6.558   3.167
 9317SOL    HW128850   2.950   6.650   3.145
 9317SOL    HW228851   3.066   6.564   3.220
 9318SOL     OW28852   2.982   0.301   3.324
 9318SOL    HW128853   2.937   0.266   3.242
 9318SOL    HW228854   3.058   0.240   3.349
 9319SOL     OW28855   3.782   2.468   0.864
 9319SOL    HW128856   3.741   2.461   0.773
 9319SOL    HW228857   3.710   2.463   0.934
 9320SOL     OW28858   6.535   0.210   6.847
 9320SOL    HW128859   6.443   0.249   6.854
 9320SOL    HW228860   6.559   0.166   6.934
 9321SOL     OW28861   0.977   2.234   4.294
 9321SOL    HW128862   1.048   2.304   4.303
 9321SOL    HW228863   0.905   2.251   4.361
 9322SOL     OW28864   5.407   3.202   0.145
 9322SOL    HW128865   5.470   3.273   0.177
 9322SOL    HW228866   5.446   3.112   0.163
 9323SOL     OW28867   0.711   2.610   4.925
 9323SOL    HW128868   0.689   2.600   5.022
 9323SOL    HW228869   0.649   2.677   4.884
 9324SOL     OW28870   0.507   4.006   1.205
 9324SOL    HW128871   0.574   4.064   1.251
 9324SOL    HW228872   0.415   4.042   1.220
 9325SOL     OW28873   0.535   4.220   3.291
 9325SOL    HW128874   0.498   4.307   3.322
 9325SOL    HW228875   0.467   4.173   3.234
 9326SOL     OW28876   4.504   4.862   0.984
 9326SOL    HW128877   4.586   4.821   1.024
 9326SOL    HW228878   4.467   4.930   1.048
 9327SOL     OW28879   2.121   1.458   3.194
 9327SOL    HW128880   2.107   1.489   3.100
 9327SOL    HW228881   2.038   1.474   3.247
 9328SOL     OW28882   1.442   0.075   3.691
 9328SOL    HW128883   1.532   0.044   3.660
 9328SOL    HW228884   1.371   0.022   3.645
 9329SOL     OW28885   1.734   5.001   6.043
 9329SOL    HW128886   1.726   5.038   6.135
 9329SOL    HW228887   1.726   4.901   6.046
 9330SOL     OW28888   0.884   6.548   0.793
 9330SOL    HW128889   0.928   6.503   0.871
 9330SOL    HW228890   0.801   6.595   0.825
 9331SOL     OW28891   1.648   4.870   4.808
 9331SOL    HW128892   1.605   4.920   4.733
 9331SOL    HW228893   1.600   4.891   4.893
 9332SOL     OW28894   6.240   5.643   0.508
 9332SOL    HW128895   6.203   5.550   0.503
 9332SOL    HW228896   6.339   5.638   0.518
 9333SOL     OW28897   1.795   5.054   0.667
 9333SOL    HW128898   1.834   4.975   0.620
 9333SOL    HW228899   1.763   5.026   0.758
 9334SOL     OW28900   6.777   5.489   0.474
 9334SOL    HW128901   6.753   5.399   0.511
 9334SOL    HW228902   6.871   5.488   0.440
 9335SOL     OW28903   6.868   3.796   1.075
 9335SOL    HW128904   6.797   3.725   1.079
 9335SOL    HW228905   6.957   3.755   1.091
 9336SOL     OW28906   4.322   5.458   5.414
 9336SOL    HW128907   4.278   5.510   5.340
 9336SOL    HW228908   4.282   5.366   5.418
 9337SOL     OW28909   3.431   1.682   4.556
 9337SOL    HW128910   3.380   1.641   4.632
 9337SOL    HW228911   3.474   1.610   4.502
 9338SOL     OW28912   4.632   6.848   1.355
 9338SOL    HW128913   4.575   6.765   1.347
 9338SOL    HW228914   4.599   6.917   1.291
 9339SOL     OW28915   6.821   3.670   5.125
 9339SOL    HW128916   6.726   3.638   5.123
 9339SOL    HW228917   6.874   3.622   5.055
 9340SOL     OW28918   2.288   4.869   2.191
 9340SOL    HW128919   2.251   4.917   2.270
 9340SOL    HW228920   2.213   4.825   2.140
 9341SOL     OW28921   6.043   5.758   0.988
 9341SOL    HW128922   6.099   5.790   1.064
 9341SOL    HW228923   6.096   5.694   0.932
 9342SOL     OW28924   2.531   0.293   4.597
 9342SOL    HW128925   2.574   0.383   4.601
 9342SOL    HW228926   2.463   0.285   4.669
 9343SOL     OW28927   5.431   3.683   1.429
 9343SOL    HW128928   5.412   3.781   1.442
 9343SOL    HW228929   5.520   3.672   1.386
 9344SOL     OW28930   5.724   6.835   4.837
 9344SOL    HW128931   5.750   6.931   4.851
 9344SOL    HW228932   5.634   6.819   4.876
 9345SOL     OW28933   6.820   4.565   6.409
 9345SOL    HW128934   6.908   4.587   6.366
 9345SOL    HW228935   6.782   4.647   6.450
 9346SOL     OW28936   5.311   0.750   1.683
 9346SOL    HW128937   5.288   0.692   1.761
 9346SOL    HW228938   5.387   0.810   1.707
 9347SOL     OW28939   4.763   6.793   2.095
 9347SOL    HW128940   4.752   6.849   2.177
 9347SOL    HW228941   4.770   6.853   2.015
 9348SOL     OW28942   2.331   5.529   1.899
 9348SOL    HW128943   2.279   5.528   1.814
 9348SOL    HW228944   2.345   5.435   1.930
 9349SOL     OW28945   6.694   5.503   1.522
 9349SOL    HW128946   6.737   5.586   1.485
 9349SOL    HW228947   6.610   5.527   1.570
 9350SOL     OW28948   6.378   0.646   6.962
 9350SOL    HW128949   6.309   0.712   6.991
 9350SOL    HW228950   6.385   0.573   0.013
 9351SOL     OW28951   4.665   3.692   6.275
 9351SOL    HW128952   4.656   3.710   6.177
 9351SOL    HW228953   4.606   3.754   6.326
 9352SOL     OW28954   2.652   1.982   0.114
 9352SOL    HW128955   2.608   1.970   0.203
 9352SOL    HW228956   2.636   1.901   0.058
 9353SOL     OW28957   1.109   2.974   2.127
 9353SOL    HW128958   1.037   2.909   2.151
 9353SOL    HW228959   1.180   2.926   2.075
 9354SOL     OW28960   5.721   2.278   2.552
 9354SOL    HW128961   5.662   2.198   2.540
 9354SOL    HW228962   5.709   2.340   2.474
 9355SOL     OW28963   0.170   1.562   2.085
 9355SOL    HW128964   0.165   1.650   2.131
 9355SOL    HW228965   0.264   1.528   2.087
 9356SOL     OW28966   4.621   2.643   2.291
 9356SOL    HW128967   4.540   2.659   2.235
 9356SOL    HW228968   4.627   2.546   2.314
 9357SOL     OW28969   2.227   4.618   6.552
 9357SOL    HW128970   2.281   4.596   6.471
 9357SOL    HW228971   2.131   4.631   6.526
 9358SOL     OW28972   5.220   4.113   2.476
 9358SOL    HW128973   5.290   4.075   2.416
 9358SOL    HW228974   5.131   4.073   2.453
 9359SOL     OW28975   4.721   5.212   5.865
 9359SOL    HW128976   4.698   5.214   5.962
 9359SOL    HW228977   4.665   5.279   5.816
 9360SOL     OW28978   1.334   0.993   5.139
 9360SOL    HW128979   1.428   1.020   5.162
 9360SOL    HW228980   1.290   1.068   5.089
 9361SOL     OW28981   1.804   1.099   2.188
 9361SOL    HW128982   1.771   1.183   2.145
 9361SOL    HW228983   1.877   1.120   2.253
 9362SOL     OW28984   1.352   1.558   2.926
 9362SOL    HW128985   1.370   1.641   2.873
 9362SOL    HW228986   1.416   1.486   2.897
 9363SOL     OW28987   1.277   6.304   2.036
 9363SOL    HW128988   1.248   6.351   2.119
 9363SOL    HW228989   1.374   6.322   2.020
 9364SOL     OW28990   5.519   4.033   1.238
 9364SOL    HW128991   5.474   4.119   1.264
 9364SOL    HW228992   5.609   4.053   1.200
 9365SOL     OW28993   1.953   1.556   3.908
 9365SOL    HW128994   1.982   1.460   3.905
 9365SOL    HW228995   2.031   1.614   3.927
 9366SOL     OW28996   2.817   1.576   1.716
 9366SOL    HW128997   2.774   1.666   1.717
 9366SOL    HW228998   2.913   1.585   1.690
 9367SOL     OW28999   5.456   6.476   3.721
 9367SOL    HW129000   5.533   6.416   3.743
 9367SOL    HW229001   5.490   6.557   3.672
 9368SOL     OW29002   5.385   2.937   0.420
 9368SOL    HW129003   5.363   2.903   0.511
 9368SOL    HW229004   5.450   2.875   0.376
 9369SOL     OW29005   0.241   1.540   5.153
 9369SOL    HW129006   0.324   1.594   5.138
 9369SOL    HW229007   0.263   1.458   5.205
 9370SOL     OW29008   5.817   5.472   2.514
 9370SOL    HW129009   5.901   5.522   2.533
 9370SOL    HW229010   5.810   5.393   2.575
 9371SOL     OW29011   1.884   6.724   0.325
 9371SOL    HW129012   1.875   6.815   0.365
 9371SOL    HW229013   1.921   6.662   0.394
 9372SOL     OW29014   5.616   5.803   0.296
 9372SOL    HW129015   5.559   5.733   0.339
 9372SOL    HW229016   5.673   5.761   0.225
 9373SOL     OW29017   5.390   2.986   4.078
 9373SOL    HW129018   5.315   2.944   4.027
 9373SOL    HW229019   5.457   2.916   4.103
 9374SOL     OW29020   5.264   3.892   6.616
 9374SOL    HW129021   5.228   3.902   6.523
 9374SOL    HW229022   5.217   3.955   6.677
 9375SOL     OW29023   6.480   0.307   4.261
 9375SOL    HW129024   6.485   0.267   4.352
 9375SOL    HW229025   6.418   0.386   4.263
 9376SOL     OW29026   2.612   3.390   1.794
 9376SOL    HW129027   2.679   3.414   1.864
 9376SOL    HW229028   2.522   3.424   1.821
 9377SOL     OW29029   6.317   4.713   3.532
 9377SOL    HW129030   6.339   4.625   3.575
 9377SOL    HW229031   6.398   4.771   3.530
 9378SOL     OW29032   3.895   6.041   0.967
 9378SOL    HW129033   3.909   6.099   0.887
 9378SOL    HW229034   3.850   6.095   1.039
 9379SOL     OW29035   4.948   5.132   5.474
 9379SOL    HW129036   4.927   5.047   5.523
 9379SOL    HW229037   4.873   5.155   5.413
 9380SOL     OW29038   6.344   5.831   5.656
 9380SOL    HW129039   6.354   5.795   5.564
 9380SOL    HW229040   6.320   5.928   5.652
 9381SOL     OW29041   1.063   0.891   0.036
 9381SOL    HW129042   1.126   0.902   0.113
 9381SOL    HW229043   0.969   0.900   0.067
 9382SOL     OW29044   5.363   1.443   3.166
 9382SOL    HW129045   5.270   1.415   3.189
 9382SOL    HW229046   5.362   1.502   3.085
 9383SOL     OW29047   6.463   5.269   6.243
 9383SOL    HW129048   6.391   5.335   6.221
 9383SOL    HW229049   6.421   5.185   6.277
 9384SOL     OW29050   3.859   6.917   2.867
 9384SOL    HW129051   3.794   6.991   2.884
 9384SOL    HW229052   3.812   6.830   2.872
 9385SOL     OW29053   3.812   0.140   3.664
 9385SOL    HW129054   3.742   0.202   3.700
 9385SOL    HW229055   3.892   0.193   3.637
 9386SOL     OW29056   3.958   0.129   5.275
 9386SOL    HW129057   3.991   0.047   5.229
 9386SOL    HW229058   4.025   0.160   5.342
 9387SOL     OW29059   4.872   5.256   0.529
 9387SOL    HW129060   4.789   5.288   0.484
 9387SOL    HW229061   4.951   5.283   0.474
 9388SOL     OW29062   6.637   0.278   1.683
 9388SOL    HW129063   6.586   0.354   1.643
 9388SOL    HW229064   6.574   0.203   1.704
 9389SOL     OW29065   2.678   1.022   0.461
 9389SOL    HW129066   2.674   0.980   0.551
 9389SOL    HW229067   2.597   0.995   0.408
 9390SOL     OW29068   3.625   5.227   0.961
 9390SOL    HW129069   3.663   5.244   1.052
 9390SOL    HW229070   3.527   5.247   0.962
 9391SOL     OW29071   5.998   1.103   3.868
 9391SOL    HW129072   6.051   1.183   3.839
 9391SOL    HW229073   6.058   1.023   3.871
 9392SOL     OW29074   0.823   6.474   4.811
 9392SOL    HW129075   0.778   6.512   4.892
 9392SOL    HW229076   0.856   6.382   4.831
 9393SOL     OW29077   4.439   1.480   5.595
 9393SOL    HW129078   4.408   1.527   5.513
 9393SOL    HW229079   4.507   1.411   5.570
 9394SOL     OW29080   5.907   1.924   2.228
 9394SOL    HW129081   5.842   1.970   2.168
 9394SOL    HW229082   5.886   1.826   2.232
 9395SOL     OW29083   1.923   2.924   6.391
 9395SOL    HW129084   1.922   2.894   6.487
 9395SOL    HW229085   1.829   2.928   6.357
 9396SOL     OW29086   6.946   1.006   6.314
 9396SOL    HW129087   0.020   1.033   6.344
 9396SOL    HW229088   6.953   0.931   6.248
 9397SOL     OW29089   1.948   1.856   0.040
 9397SOL    HW129090   1.931   1.800   0.121
 9397SOL    HW229091   1.959   1.952   0.068
 9398SOL     OW29092   2.575   1.725   1.599
 9398SOL    HW129093   2.620   1.643   1.562
 9398SOL    HW229094   2.489   1.699   1.643
 9399SOL     OW29095   0.471   0.292   6.029
 9399SOL    HW129096   0.373   0.280   6.046
 9399SOL    HW229097   0.523   0.228   6.084
 9400SOL     OW29098   3.499   1.623   3.817
 9400SOL    HW129099   3.464   1.698   3.759
 9400SOL    HW229100   3.584   1.588   3.778
 9401SOL     OW29101   4.722   6.412   4.263
 9401SOL    HW129102   4.635   6.366   4.274
 9401SOL    HW229103   4.716   6.504   4.302
 9402SOL     OW29104   2.831   4.939   6.351
 9402SOL    HW129105   2.922   4.899   6.366
 9402SOL    HW229106   2.841   5.034   6.323
 9403SOL     OW29107   6.148   7.001   4.315
 9403SOL    HW129108   6.239   6.992   4.275
 9403SOL    HW229109   6.092   6.923   4.287
 9404SOL     OW29110   1.432   3.773   5.591
 9404SOL    HW129111   1.484   3.706   5.537
 9404SOL    HW229112   1.494   3.822   5.651
 9405SOL     OW29113   0.578   0.466   1.028
 9405SOL    HW129114   0.515   0.523   0.975
 9405SOL    HW229115   0.600   0.510   1.115
 9406SOL     OW29116   6.749   1.088   5.314
 9406SOL    HW129117   6.723   1.156   5.246
 9406SOL    HW229118   6.690   1.008   5.306
 9407SOL     OW29119   3.915   5.687   2.887
 9407SOL    HW129120   3.827   5.655   2.851
 9407SOL    HW229121   3.948   5.623   2.956
 9408SOL     OW29122   3.943   2.234   6.616
 9408SOL    HW129123   3.924   2.251   6.519
 9408SOL    HW229124   3.862   2.195   6.660
 9409SOL     OW29125   6.113   3.660   3.337
 9409SOL    HW129126   6.050   3.735   3.315
 9409SOL    HW229127   6.107   3.590   3.265
 9410SOL     OW29128   4.401   6.595   1.622
 9410SOL    HW129129   4.410   6.666   1.691
 9410SOL    HW229130   4.488   6.547   1.612
 9411SOL     OW29131   4.903   5.203   2.034
 9411SOL    HW129132   4.985   5.244   1.994
 9411SOL    HW229133   4.870   5.130   1.975
 9412SOL     OW29134   6.021   2.581   3.181
 9412SOL    HW129135   6.052   2.676   3.184
 9412SOL    HW229136   6.090   2.522   3.222
 9413SOL     OW29137   3.976   5.312   3.563
 9413SOL    HW129138   3.952   5.389   3.504
 9413SOL    HW229139   3.990   5.344   3.657
 9414SOL     OW29140   2.378   0.341   2.273
 9414SOL    HW129141   2.414   0.250   2.298
 9414SOL    HW229142   2.428   0.411   2.325
 9415SOL     OW29143   1.549   0.721   2.062
 9415SOL    HW129144   1.563   0.675   2.150
 9415SOL    HW229145   1.638   0.745   2.023
 9416SOL     OW29146   1.544   2.184   1.200
 9416SOL    HW129147   1.625   2.147   1.155
 9416SOL    HW229148   1.464   2.170   1.142
 9417SOL     OW29149   1.489   0.351   4.727
 9417SOL    HW129150   1.467   0.376   4.821
 9417SOL    HW229151   1.409   0.365   4.669
 9418SOL     OW29152   4.526   4.188   1.044
 9418SOL    HW129153   4.576   4.102   1.031
 9418SOL    HW229154   4.439   4.170   1.090
 9419SOL     OW29155   2.779   5.186   3.609
 9419SOL    HW129156   2.756   5.089   3.619
 9419SOL    HW229157   2.749   5.218   3.519
 9420SOL     OW29158   1.775   0.457   3.747
 9420SOL    HW129159   1.794   0.537   3.692
 9420SOL    HW229160   1.712   0.482   3.821
 9421SOL     OW29161   1.687   5.280   5.236
 9421SOL    HW129162   1.618   5.209   5.244
 9421SOL    HW229163   1.719   5.307   5.327
 9422SOL     OW29164   4.189   1.266   2.975
 9422SOL    HW129165   4.132   1.326   2.919
 9422SOL    HW229166   4.156   1.172   2.966
 9423SOL     OW29167   4.302   0.285   4.711
 9423SOL    HW129168   4.368   0.256   4.642
 9423SOL    HW229169   4.224   0.329   4.666
 9424SOL     OW29170   3.877   5.890   3.532
 9424SOL    HW129171   3.880   5.790   3.521
 9424SOL    HW229172   3.969   5.924   3.550
 9425SOL     OW29173   0.608   5.301   3.039
 9425SOL    HW129174   0.558   5.337   3.118
 9425SOL    HW229175   0.695   5.262   3.070
 9426SOL     OW29176   3.855   5.480   0.953
 9426SOL    HW129177   3.909   5.526   1.023
 9426SOL    HW229178   3.910   5.471   0.870
 9427SOL     OW29179   2.860   4.937   4.113
 9427SOL    HW129180   2.774   4.946   4.062
 9427SOL    HW229181   2.934   4.912   4.051
 9428SOL     OW29182   4.774   6.363   2.477
 9428SOL    HW129183   4.713   6.335   2.551
 9428SOL    HW229184   4.735   6.334   2.389
 9429SOL     OW29185   0.666   3.562   2.789
 9429SOL    HW129186   0.690   3.543   2.885
 9429SOL    HW229187   0.708   3.493   2.730
 9430SOL     OW29188   6.694   6.619   1.374
 9430SOL    HW129189   6.606   6.609   1.420
 9430SOL    HW229190   6.679   6.636   1.276
 9431SOL     OW29191   6.669   4.453   0.038
 9431SOL    HW129192   6.652   4.523   0.107
 9431SOL    HW229193   6.664   4.363   0.081
 9432SOL     OW29194   6.634   6.755   4.348
 9432SOL    HW129195   6.616   6.666   4.306
 9432SOL    HW229196   6.548   6.803   4.363
 9433SOL     OW29197   2.519   5.552   4.157
 9433SOL    HW129198   2.587   5.479   4.158
 9433SOL    HW229199   2.433   5.517   4.120
 9434SOL     OW29200   6.184   4.275   3.500
 9434SOL    HW129201   6.198   4.272   3.599
 9434SOL    HW229202   6.238   4.204   3.456
 9435SOL     OW29203   2.458   2.228   5.238
 9435SOL    HW129204   2.514   2.278   5.171
 9435SOL    HW229205   2.504   2.229   5.327
 9436SOL     OW29206   3.182   1.616   5.482
 9436SOL    HW129207   3.197   1.709   5.447
 9436SOL    HW229208   3.258   1.590   5.541
 9437SOL     OW29209   0.020   5.617   4.496
 9437SOL    HW129210   0.016   5.670   4.581
 9437SOL    HW229211   0.079   5.663   4.430
 9438SOL     OW29212   0.674   6.419   1.945
 9438SOL    HW129213   0.726   6.376   1.872
 9438SOL    HW229214   0.735   6.445   2.020
 9439SOL     OW29215   1.592   3.432   1.102
 9439SOL    HW129216   1.626   3.449   1.010
 9439SOL    HW229217   1.631   3.499   1.165
 9440SOL     OW29218   3.227   5.316   4.450
 9440SOL    HW129219   3.143   5.359   4.482
 9440SOL    HW229220   3.306   5.360   4.493
 9441SOL     OW29221   1.696   5.593   5.305
 9441SOL    HW129222   1.763   5.590   5.230
 9441SOL    HW229223   1.632   5.516   5.296
 9442SOL     OW29224   0.688   3.525   1.030
 9442SOL    HW129225   0.690   3.624   1.016
 9442SOL    HW229226   0.659   3.506   1.124
 9443SOL     OW29227   1.333   2.628   1.353
 9443SOL    HW129228   1.423   2.606   1.315
 9443SOL    HW229229   1.334   2.613   1.451
 9444SOL     OW29230   1.213   4.259   5.559
 9444SOL    HW129231   1.201   4.244   5.657
 9444SOL    HW229232   1.250   4.351   5.544
 9445SOL     OW29233   6.012   2.524   1.774
 9445SOL    HW129234   6.089   2.500   1.833
 9445SOL    HW229235   6.016   2.621   1.752
 9446SOL     OW29236   6.061   3.936   6.850
 9446SOL    HW129237   6.160   3.942   6.862
 9446SOL    HW229238   6.025   3.859   6.903
 9447SOL     OW29239   5.504   1.496   1.844
 9447SOL    HW129240   5.529   1.454   1.931
 9447SOL    HW229241   5.482   1.425   1.778
 9448SOL     OW29242   6.321   6.002   0.588
 9448SOL    HW129243   6.395   5.984   0.524
 9448SOL    HW229244   6.245   6.047   0.541
 9449SOL     OW29245   5.786   5.419   5.103
 9449SOL    HW129246   5.723   5.471   5.046
 9449SOL    HW229247   5.840   5.357   5.046
 9450SOL     OW29248   2.020   6.023   4.064
 9450SOL    HW129249   1.923   5.999   4.064
 9450SOL    HW229250   2.071   5.959   4.005
 9451SOL     OW29251   3.779   3.495   5.485
 9451SOL    HW129252   3.835   3.557   5.431
 9451SOL    HW229253   3.753   3.416   5.429
 9452SOL     OW29254   3.261   3.895   0.770
 9452SOL    HW129255   3.308   3.807   0.762
 9452SOL    HW229256   3.317   3.958   0.824
 9453SOL     OW29257   3.455   5.413   1.265
 9453SOL    HW129258   3.525   5.455   1.207
 9453SOL    HW229259   3.451   5.462   1.353
 9454SOL     OW29260   2.062   2.400   5.831
 9454SOL    HW129261   2.158   2.379   5.813
 9454SOL    HW229262   2.004   2.327   5.796
 9455SOL     OW29263   1.901   2.106   2.807
 9455SOL    HW129264   1.973   2.038   2.807
 9455SOL    HW229265   1.872   2.124   2.713
 9456SOL     OW29266   1.202   3.148   0.778
 9456SOL    HW129267   1.160   3.060   0.756
 9456SOL    HW229268   1.130   3.216   0.795
 9457SOL     OW29269   6.471   3.785   7.017
 9457SOL    HW129270   6.495   3.827   6.930
 9457SOL    HW229271   6.554   3.763   0.050
 9458SOL     OW29272   1.115   6.048   4.324
 9458SOL    HW129273   1.076   5.976   4.382
 9458SOL    HW229274   1.061   6.132   4.334
 9459SOL     OW29275   4.779   5.711   1.356
 9459SOL    HW129276   4.749   5.702   1.262
 9459SOL    HW229277   4.792   5.620   1.396
 9460SOL     OW29278   1.198   3.907   5.664
 9460SOL    HW129279   1.278   3.875   5.613
 9460SOL    HW229280   1.195   3.861   5.753
 9461SOL     OW29281   1.588   0.578   2.616
 9461SOL    HW129282   1.607   0.620   2.705
 9461SOL    HW229283   1.502   0.528   2.620
 9462SOL     OW29284   0.526   3.090   3.341
 9462SOL    HW129285   0.489   3.092   3.433
 9462SOL    HW229286   0.621   3.122   3.342
 9463SOL     OW29287   5.749   2.252   6.719
 9463SOL    HW129288   5.827   2.190   6.729
 9463SOL    HW229289   5.769   2.338   6.764
 9464SOL     OW29290   4.182   6.415   5.944
 9464SOL    HW129291   4.197   6.340   5.880
 9464SOL    HW229292   4.239   6.492   5.919
 9465SOL     OW29293   5.291   6.551   4.345
 9465SOL    HW129294   5.205   6.583   4.385
 9465SOL    HW229295   5.362   6.620   4.360
 9466SOL     OW29296   3.470   1.796   0.139
 9466SOL    HW129297   3.561   1.759   0.118
 9466SOL    HW229298   3.424   1.735   0.203
 9467SOL     OW29299   1.762   3.259   2.397
 9467SOL    HW129300   1.757   3.328   2.325
 9467SOL    HW229301   1.691   3.190   2.380
 9468SOL     OW29302   0.733   2.277   5.842
 9468SOL    HW129303   0.801   2.300   5.773
 9468SOL    HW229304   0.641   2.290   5.804
 9469SOL     OW29305   6.827   4.217   2.529
 9469SOL    HW129306   6.781   4.297   2.489
 9469SOL    HW229307   6.873   4.166   2.456
 9470SOL     OW29308   6.764   3.454   0.916
 9470SOL    HW129309   6.799   3.499   0.834
 9470SOL    HW229310   6.793   3.358   0.916
 9471SOL     OW29311   0.345   2.435   6.185
 9471SOL    HW129312   0.408   2.444   6.109
 9471SOL    HW229313   0.254   2.466   6.157
 9472SOL     OW29314   6.580   2.188   5.338
 9472SOL    HW129315   6.608   2.238   5.255
 9472SOL    HW229316   6.650   2.200   5.408
 9473SOL     OW29317   3.163   5.254   5.147
 9473SOL    HW129318   3.149   5.353   5.147
 9473SOL    HW229319   3.244   5.231   5.200
 9474SOL     OW29320   3.465   5.307   3.691
 9474SOL    HW129321   3.467   5.384   3.756
 9474SOL    HW229322   3.533   5.322   3.619
 9475SOL     OW29323   2.236   3.289   1.501
 9475SOL    HW129324   2.196   3.212   1.452
 9475SOL    HW229325   2.335   3.277   1.508
 9476SOL     OW29326   2.336   3.877   5.581
 9476SOL    HW129327   2.301   3.821   5.505
 9476SOL    HW229328   2.409   3.936   5.547
 9477SOL     OW29329   0.687   2.063   0.321
 9477SOL    HW129330   0.632   2.101   0.247
 9477SOL    HW229331   0.636   1.989   0.366
 9478SOL     OW29332   5.562   4.201   5.857
 9478SOL    HW129333   5.618   4.261   5.914
 9478SOL    HW229334   5.468   4.202   5.890
 9479SOL     OW29335   5.425   5.196   5.147
 9479SOL    HW129336   5.328   5.186   5.167
 9479SOL    HW229337   5.461   5.276   5.197
 9480SOL     OW29338   6.628   3.888   6.244
 9480SOL    HW129339   6.537   3.851   6.222
 9480SOL    HW229340   6.665   3.840   6.324
 9481SOL     OW29341   0.075   2.986   2.894
 9481SOL    HW129342   0.030   2.901   2.866
 9481SOL    HW229343   0.046   3.060   2.834
 9482SOL     OW29344   4.612   0.189   2.279
 9482SOL    HW129345   4.513   0.185   2.270
 9482SOL    HW229346   4.636   0.220   2.371
 9483SOL     OW29347   1.070   1.179   0.739
 9483SOL    HW129348   1.168   1.164   0.728
 9483SOL    HW229349   1.055   1.252   0.805
 9484SOL     OW29350   6.087   0.289   3.261
 9484SOL    HW129351   6.075   0.288   3.161
 9484SOL    HW229352   6.171   0.240   3.284
 9485SOL     OW29353   0.744   7.009   2.228
 9485SOL    HW129354   0.651   0.028   2.235
 9485SOL    HW229355   0.769   6.998   2.132
 9486SOL     OW29356   2.390   6.697   2.241
 9486SOL    HW129357   2.340   6.779   2.267
 9486SOL    HW229358   2.376   6.626   2.310
 9487SOL     OW29359   3.777   3.462   3.934
 9487SOL    HW129360   3.745   3.471   4.028
 9487SOL    HW229361   3.743   3.376   3.895
 9488SOL     OW29362   1.735   1.169   1.516
 9488SOL    HW129363   1.701   1.137   1.604
 9488SOL    HW229364   1.828   1.135   1.502
 9489SOL     OW29365   2.736   4.437   0.444
 9489SOL    HW129366   2.775   4.347   0.462
 9489SOL    HW229367   2.696   4.438   0.353
 9490SOL     OW29368   4.884   1.301   6.880
 9490SOL    HW129369   4.949   1.234   6.914
 9490SOL    HW229370   4.818   1.257   6.820
 9491SOL     OW29371   6.464   5.857   5.901
 9491SOL    HW129372   6.484   5.955   5.897
 9491SOL    HW229373   6.410   5.831   5.821
 9492SOL     OW29374   2.340   4.611   1.600
 9492SOL    HW129375   2.351   4.711   1.603
 9492SOL    HW229376   2.314   4.583   1.508
 9493SOL     OW29377   5.201   6.605   2.647
 9493SOL    HW129378   5.157   6.574   2.730
 9493SOL    HW229379   5.176   6.545   2.571
 9494SOL     OW29380   3.586   3.308   6.782
 9494SOL    HW129381   3.518   3.358   6.728
 9494SOL    HW229382   3.576   3.210   6.766
 9495SOL     OW29383   5.255   2.490   4.215
 9495SOL    HW129384   5.325   2.470   4.146
 9495SOL    HW229385   5.174   2.434   4.197
 9496SOL     OW29386   6.278   4.190   0.374
 9496SOL    HW129387   6.240   4.131   0.304
 9496SOL    HW229388   6.358   4.147   0.415
 9497SOL     OW29389   0.880   6.003   5.964
 9497SOL    HW129390   0.938   5.922   5.964
 9497SOL    HW229391   0.788   5.979   5.934
 9498SOL     OW29392   4.033   6.863   6.672
 9498SOL    HW129393   3.958   6.913   6.716
 9498SOL    HW229394   4.024   6.871   6.573
 9499SOL     OW29395   4.431   3.912   5.697
 9499SOL    HW129396   4.479   3.997   5.677
 9499SOL    HW229397   4.338   3.933   5.728
 9500SOL     OW29398   4.725   5.437   1.461
 9500SOL    HW129399   4.800   5.393   1.511
 9500SOL    HW229400   4.657   5.471   1.526
 9501SOL     OW29401   3.419   2.098   4.964
 9501SOL    HW129402   3.400   2.051   4.878
 9501SOL    HW229403   3.334   2.119   5.011
 9502SOL     OW29404   3.643   3.236   5.653
 9502SOL    HW129405   3.544   3.240   5.659
 9502SOL    HW229406   3.671   3.256   5.559
 9503SOL     OW29407   1.252   6.836   1.396
 9503SOL    HW129408   1.185   6.776   1.439
 9503SOL    HW229409   1.242   6.929   1.432
 9504SOL     OW29410   0.609   3.195   0.285
 9504SOL    HW129411   0.567   3.268   0.231
 9504SOL    HW229412   0.702   3.222   0.311
 9505SOL     OW29413   5.136   3.071   2.867
 9505SOL    HW129414   5.039   3.073   2.890
 9505SOL    HW229415   5.171   3.165   2.863
 9506SOL     OW29416   6.683   2.166   1.237
 9506SOL    HW129417   6.749   2.093   1.258
 9506SOL    HW229418   6.724   2.232   1.174
 9507SOL     OW29419   1.443   2.593   5.288
 9507SOL    HW129420   1.411   2.499   5.274
 9507SOL    HW229421   1.529   2.591   5.338
 9508SOL     OW29422   4.816   1.268   6.059
 9508SOL    HW129423   4.859   1.180   6.078
 9508SOL    HW229424   4.857   1.339   6.117
 9509SOL     OW29425   3.724   0.139   6.178
 9509SOL    HW129426   3.759   0.051   6.207
 9509SOL    HW229427   3.669   0.128   6.095
 9510SOL     OW29428   6.195   4.300   2.734
 9510SOL    HW129429   6.122   4.367   2.745
 9510SOL    HW229430   6.158   4.208   2.743
 9511SOL     OW29431   2.386   1.296   1.112
 9511SOL    HW129432   2.421   1.206   1.140
 9511SOL    HW229433   2.444   1.333   1.040
 9512SOL     OW29434   1.359   3.631   5.319
 9512SOL    HW129435   1.268   3.672   5.309
 9512SOL    HW229436   1.425   3.703   5.339
 9513SOL     OW29437   2.292   4.260   4.417
 9513SOL    HW129438   2.290   4.318   4.335
 9513SOL    HW229439   2.242   4.176   4.400
 9514SOL     OW29440   3.119   2.811   6.210
 9514SOL    HW129441   3.107   2.769   6.120
 9514SOL    HW229442   3.124   2.740   6.280
 9515SOL     OW29443   2.229   5.335   5.945
 9515SOL    HW129444   2.213   5.418   5.999
 9515SOL    HW229445   2.156   5.269   5.962
 9516SOL     OW29446   5.713   4.432   5.008
 9516SOL    HW129447   5.709   4.382   5.095
 9516SOL    HW229448   5.720   4.367   4.932
 9517SOL     OW29449   0.632   5.477   2.753
 9517SOL    HW129450   0.569   5.507   2.825
 9517SOL    HW229451   0.606   5.519   2.666
 9518SOL     OW29452   0.692   3.035   5.760
 9518SOL    HW129453   0.668   3.080   5.674
 9518SOL    HW229454   0.616   2.976   5.788
 9519SOL     OW29455   3.110   3.136   3.310
 9519SOL    HW129456   3.115   3.061   3.243
 9519SOL    HW229457   3.126   3.223   3.263
 9520SOL     OW29458   5.437   0.832   6.837
 9520SOL    HW129459   5.371   0.902   6.863
 9520SOL    HW229460   5.397   0.742   6.851
 9521SOL     OW29461   3.683   1.093   1.365
 9521SOL    HW129462   3.772   1.059   1.337
 9521SOL    HW229463   3.686   1.193   1.372
 9522SOL     OW29464   3.551   6.194   1.133
 9522SOL    HW129465   3.547   6.288   1.099
 9522SOL    HW229466   3.508   6.133   1.066
 9523SOL     OW29467   2.389   4.891   4.695
 9523SOL    HW129468   2.349   4.865   4.783
 9523SOL    HW229469   2.485   4.916   4.707
 9524SOL     OW29470   1.886   4.420   0.324
 9524SOL    HW129471   1.944   4.388   0.400
 9524SOL    HW229472   1.900   4.361   0.244
 9525SOL     OW29473   2.467   3.283   6.422
 9525SOL    HW129474   2.462   3.364   6.480
 9525SOL    HW229475   2.378   3.269   6.378
 9526SOL     OW29476   5.601   5.361   6.338
 9526SOL    HW129477   5.559   5.386   6.426
 9526SOL    HW229478   5.531   5.363   6.266
 9527SOL     OW29479   3.769   6.761   4.494
 9527SOL    HW129480   3.692   6.825   4.491
 9527SOL    HW229481   3.735   6.668   4.490
 9528SOL     OW29482   5.132   2.425   0.768
 9528SOL    HW129483   5.105   2.336   0.806
 9528SOL    HW229484   5.064   2.453   0.700
 9529SOL     OW29485   5.479   0.887   1.888
 9529SOL    HW129486   5.506   0.968   1.939
 9529SOL    HW229487   5.557   0.855   1.834
 9530SOL     OW29488   0.787   5.882   3.839
 9530SOL    HW129489   0.825   5.950   3.902
 9530SOL    HW229490   0.782   5.921   3.747
 9531SOL     OW29491   3.295   5.115   1.878
 9531SOL    HW129492   3.386   5.157   1.882
 9531SOL    HW229493   3.286   5.062   1.794
 9532SOL     OW29494   6.895   4.733   4.015
 9532SOL    HW129495   6.895   4.638   3.982
 9532SOL    HW229496   6.989   4.767   4.019
 9533SOL     OW29497   1.375   3.793   3.626
 9533SOL    HW129498   1.418   3.706   3.649
 9533SOL    HW229499   1.365   3.848   3.708
 9534SOL     OW29500   4.475   5.866   4.268
 9534SOL    HW129501   4.399   5.830   4.322
 9534SOL    HW229502   4.536   5.918   4.328
 9535SOL     OW29503   0.121   1.166   4.635
 9535SOL    HW129504   0.205   1.193   4.587
 9535SOL    HW229505   0.144   1.114   4.717
 9536SOL     OW29506   3.544   3.648   5.386
 9536SOL    HW129507   3.476   3.578   5.364
 9536SOL    HW229508   3.618   3.608   5.440
 9537SOL     OW29509   6.994   0.781   4.033
 9537SOL    HW129510   6.909   0.831   4.050
 9537SOL    HW229511   0.050   0.847   4.016
 9538SOL     OW29512   5.505   0.344   4.440
 9538SOL    HW129513   5.486   0.359   4.537
 9538SOL    HW229514   5.530   0.430   4.397
 9539SOL     OW29515   3.633   4.088   2.766
 9539SOL    HW129516   3.687   4.035   2.830
 9539SOL    HW229517   3.681   4.095   2.678
 9540SOL     OW29518   4.270   4.736   3.436
 9540SOL    HW129519   4.339   4.753   3.365
 9540SOL    HW229520   4.180   4.759   3.400
 9541SOL     OW29521   1.447   5.921   5.563
 9541SOL    HW129522   1.357   5.898   5.601
 9541SOL    HW229523   1.510   5.941   5.638
 9542SOL     OW29524   6.036   4.094   3.090
 9542SOL    HW129525   6.045   4.182   3.043
 9542SOL    HW229526   5.957   4.096   3.151
 9543SOL     OW29527   2.596   0.437   5.846
 9543SOL    HW129528   2.515   0.493   5.858
 9543SOL    HW229529   2.657   0.448   5.925
 9544SOL     OW29530   6.105   3.539   4.448
 9544SOL    HW129531   6.024   3.500   4.492
 9544SOL    HW229532   6.185   3.484   4.471
 9545SOL     OW29533   6.543   4.393   2.295
 9545SOL    HW129534   6.586   4.410   2.384
 9545SOL    HW229535   6.464   4.453   2.284
 9546SOL     OW29536   3.062   2.894   1.172
 9546SOL    HW129537   2.967   2.884   1.142
 9546SOL    HW229538   3.069   2.872   1.269
 9547SOL     OW29539   4.504   0.386   3.520
 9547SOL    HW129540   4.474   0.478   3.546
 9547SOL    HW229541   4.579   0.393   3.453
 9548SOL     OW29542   0.813   5.174   6.093
 9548SOL    HW129543   0.870   5.122   6.030
 9548SOL    HW229544   0.793   5.119   6.173
 9549SOL     OW29545   3.953   1.676   1.671
 9549SOL    HW129546   3.984   1.767   1.700
 9549SOL    HW229547   3.877   1.648   1.729
 9550SOL     OW29548   5.993   2.668   1.443
 9550SOL    HW129549   5.997   2.743   1.510
 9550SOL    HW229550   6.085   2.633   1.426
 9551SOL     OW29551   5.703   2.991   6.609
 9551SOL    HW129552   5.683   2.896   6.632
 9551SOL    HW229553   5.745   3.037   6.688
 9552SOL     OW29554   2.902   1.771   0.312
 9552SOL    HW129555   2.860   1.852   0.269
 9552SOL    HW229556   2.923   1.704   0.241
 9553SOL     OW29557   5.821   1.421   0.235
 9553SOL    HW129558   5.728   1.449   0.260
 9553SOL    HW229559   5.887   1.482   0.277
 9554SOL     OW29560   2.950   1.018   4.377
 9554SOL    HW129561   3.004   1.044   4.457
 9554SOL    HW229562   2.874   1.082   4.366
 9555SOL     OW29563   0.415   6.230   3.595
 9555SOL    HW129564   0.370   6.294   3.532
 9555SOL    HW229565   0.448   6.150   3.543
 9556SOL     OW29566   2.314   4.587   6.301
 9556SOL    HW129567   2.300   4.497   6.260
 9556SOL    HW229568   2.411   4.610   6.298
 9557SOL     OW29569   6.001   0.908   1.251
 9557SOL    HW129570   6.087   0.925   1.204
 9557SOL    HW229571   6.014   0.840   1.323
 9558SOL     OW29572   4.877   6.460   6.245
 9558SOL    HW129573   4.895   6.362   6.245
 9558SOL    HW229574   4.933   6.505   6.175
 9559SOL     OW29575   2.193   5.143   6.886
 9559SOL    HW129576   2.172   5.058   6.933
 9559SOL    HW229577   2.271   5.188   6.931
 9560SOL     OW29578   2.459   0.121   2.624
 9560SOL    HW129579   2.507   0.147   2.708
 9560SOL    HW229580   2.515   0.145   2.544
 9561SOL     OW29581   0.103   0.297   6.775
 9561SOL    HW129582   0.031   0.273   6.709
 9561SOL    HW229583   0.118   0.395   6.773
 9562SOL     OW29584   2.363   5.876   2.917
 9562SOL    HW129585   2.310   5.887   3.001
 9562SOL    HW229586   2.336   5.790   2.872
 9563SOL     OW29587   1.039   5.926   6.213
 9563SOL    HW129588   1.015   5.997   6.146
 9563SOL    HW229589   1.138   5.914   6.215
 9564SOL     OW29590   1.520   1.255   0.872
 9564SOL    HW129591   1.451   1.252   0.800
 9564SOL    HW229592   1.610   1.242   0.832
 9565SOL     OW29593   2.457   1.707   4.314
 9565SOL    HW129594   2.364   1.742   4.298
 9565SOL    HW229595   2.462   1.665   4.404
 9566SOL     OW29596   3.041   0.062   0.438
 9566SOL    HW129597   2.999   6.992   0.460
 9566SOL    HW229598   3.140   0.049   0.428
 9567SOL     OW29599   0.092   3.956   1.330
 9567SOL    HW129600   0.001   3.991   1.309
 9567SOL    HW229601   0.141   3.936   1.245
 9568SOL     OW29602   4.398   1.551   6.068
 9568SOL    HW129603   4.407   1.553   6.167
 9568SOL    HW229604   4.474   1.500   6.028
 9569SOL     OW29605   5.994   0.387   1.913
 9569SOL    HW129606   6.025   0.467   1.860
 9569SOL    HW229607   5.994   0.307   1.854
 9570SOL     OW29608   0.371   3.250   1.797
 9570SOL    HW129609   0.341   3.346   1.802
 9570SOL    HW229610   0.429   3.237   1.717
 9571SOL     OW29611   1.339   1.080   6.916
 9571SOL    HW129612   1.275   1.143   6.960
 9571SOL    HW229613   1.297   0.990   6.907
 9572SOL     OW29614   2.209   4.893   4.476
 9572SOL    HW129615   2.270   4.862   4.548
 9572SOL    HW229616   2.116   4.863   4.495
 9573SOL     OW29617   5.988   0.190   4.269
 9573SOL    HW129618   6.025   0.103   4.300
 9573SOL    HW229619   6.057   0.240   4.217
 9574SOL     OW29620   4.201   3.051   0.413
 9574SOL    HW129621   4.290   3.014   0.442
 9574SOL    HW229622   4.191   3.144   0.447
 9575SOL     OW29623   5.513   0.090   2.220
 9575SOL    HW129624   5.541   0.184   2.240
 9575SOL    HW229625   5.426   0.092   2.170
 9576SOL     OW29626   1.130   1.460   6.708
 9576SOL    HW129627   1.224   1.489   6.691
 9576SOL    HW229628   1.123   1.361   6.697
 9577SOL     OW29629   6.356   5.203   3.424
 9577SOL    HW129630   6.324   5.120   3.379
 9577SOL    HW229631   6.281   5.268   3.432
 9578SOL     OW29632   1.713   3.442   2.216
 9578SOL    HW129633   1.666   3.424   2.129
 9578SOL    HW229634   1.725   3.541   2.227
 9579SOL     OW29635   6.123   5.831   2.422
 9579SOL    HW129636   6.222   5.841   2.432
 9579SOL    HW229637   6.087   5.908   2.371
 9580SOL     OW29638   4.714   4.240   3.379
 9580SOL    HW129639   4.694   4.292   3.462
 9580SOL    HW229640   4.740   4.146   3.404
 9581SOL     OW29641   5.266   2.077   6.693
 9581SOL    HW129642   5.364   2.068   6.679
 9581SOL    HW229643   5.218   2.058   6.607
 9582SOL     OW29644   5.293   6.717   4.616
 9582SOL    HW129645   5.379   6.666   4.612
 9582SOL    HW229646   5.247   6.698   4.703
 9583SOL     OW29647   3.633   5.037   1.931
 9583SOL    HW129648   3.617   4.940   1.949
 9583SOL    HW229649   3.725   5.050   1.896
 9584SOL     OW29650   2.791   5.086   4.346
 9584SOL    HW129651   2.877   5.048   4.380
 9584SOL    HW229652   2.778   5.059   4.251
 9585SOL     OW29653   4.454   6.239   0.765
 9585SOL    HW129654   4.412   6.310   0.710
 9585SOL    HW229655   4.459   6.269   0.861
 9586SOL     OW29656   3.510   5.518   2.972
 9586SOL    HW129657   3.553   5.447   2.916
 9586SOL    HW229658   3.536   5.505   3.068
 9587SOL     OW29659   3.482   6.143   0.652
 9587SOL    HW129660   3.500   6.241   0.654
 9587SOL    HW229661   3.556   6.097   0.602
 9588SOL     OW29662   6.596   6.227   0.094
 9588SOL    HW129663   6.535   6.280   0.035
 9588SOL    HW229664   6.571   6.241   0.190
 9589SOL     OW29665   1.596   2.211   6.316
 9589SOL    HW129666   1.616   2.309   6.324
 9589SOL    HW229667   1.509   2.198   6.269
 9590SOL     OW29668   6.541   0.137   1.103
 9590SOL    HW129669   6.595   0.085   1.168
 9590SOL    HW229670   6.597   0.160   1.023
 9591SOL     OW29671   5.156   1.040   0.648
 9591SOL    HW129672   5.131   1.059   0.553
 9591SOL    HW229673   5.220   1.110   0.680
 9592SOL     OW29674   2.277   6.258   5.645
 9592SOL    HW129675   2.344   6.329   5.625
 9592SOL    HW229676   2.230   6.232   5.561
 9593SOL     OW29677   2.153   2.535   4.002
 9593SOL    HW129678   2.168   2.631   3.981
 9593SOL    HW229679   2.058   2.520   4.027
 9594SOL     OW29680   0.366   6.403   3.385
 9594SOL    HW129681   0.315   6.480   3.347
 9594SOL    HW229682   0.436   6.375   3.321
 9595SOL     OW29683   0.403   3.337   3.531
 9595SOL    HW129684   0.470   3.396   3.486
 9595SOL    HW229685   0.347   3.391   3.593
 9596SOL     OW29686   1.258   6.582   0.349
 9596SOL    HW129687   1.318   6.557   0.425
 9596SOL    HW229688   1.252   6.505   0.285
 9597SOL     OW29689   1.274   3.280   1.747
 9597SOL    HW129690   1.230   3.301   1.835
 9597SOL    HW229691   1.209   3.231   1.689
 9598SOL     OW29692   2.092   4.094   4.104
 9598SOL    HW129693   2.016   4.158   4.101
 9598SOL    HW229694   2.150   4.108   4.023
 9599SOL     OW29695   4.655   6.888   4.387
 9599SOL    HW129696   4.708   6.958   4.436
 9599SOL    HW229697   4.707   6.803   4.384
 9600SOL     OW29698   3.807   1.405   1.326
 9600SOL    HW129699   3.873   1.441   1.392
 9600SOL    HW229700   3.844   1.323   1.283
 9601SOL     OW29701   1.007   3.628   0.922
 9601SOL    HW129702   0.948   3.636   1.003
 9601SOL    HW229703   1.095   3.590   0.948
 9602SOL     OW29704   4.289   4.730   5.427
 9602SOL    HW129705   4.206   4.730   5.483
 9602SOL    HW229706   4.296   4.643   5.379
 9603SOL     OW29707   5.166   6.857   5.497
 9603SOL    HW129708   5.248   6.908   5.521
 9603SOL    HW229709   5.085   6.906   5.530
 9604SOL     OW29710   4.663   6.940   1.081
 9604SOL    HW129711   4.625   6.960   0.991
 9604SOL    HW229712   4.714   0.002   1.113
 9605SOL     OW29713   5.476   5.549   1.759
 9605SOL    HW129714   5.460   5.616   1.832
 9605SOL    HW229715   5.408   5.476   1.765
 9606SOL     OW29716   1.106   1.233   0.015
 9606SOL    HW129717   1.072   1.326   0.006
 9606SOL    HW229718   1.051   1.171   6.976
 9607SOL     OW29719   1.762   2.101   6.509
 9607SOL    HW129720   1.785   2.192   6.543
 9607SOL    HW229721   1.697   2.109   6.434
 9608SOL     OW29722   6.071   2.622   4.478
 9608SOL    HW129723   6.063   2.603   4.380
 9608SOL    HW229724   5.995   2.579   4.527
 9609SOL     OW29725   4.559   2.901   0.091
 9609SOL    HW129726   4.638   2.886   0.150
 9609SOL    HW229727   4.524   2.993   0.104
 9610SOL     OW29728   0.775   4.795   2.845
 9610SOL    HW129729   0.788   4.841   2.757
 9610SOL    HW229730   0.688   4.823   2.886
 9611SOL     OW29731   2.154   0.796   0.230
 9611SOL    HW129732   2.161   0.844   0.143
 9611SOL    HW229733   2.158   0.698   0.215
 9612SOL     OW29734   6.988   2.075   3.982
 9612SOL    HW129735   6.989   1.975   3.987
 9612SOL    HW229736   0.048   2.112   4.033
 9613SOL     OW29737   6.184   4.934   3.416
 9613SOL    HW129738   6.087   4.912   3.429
 9613SOL    HW229739   6.240   4.865   3.462
 9614SOL     OW29740   4.407   2.355   3.114
 9614SOL    HW129741   4.437   2.262   3.137
 9614SOL    HW229742   4.466   2.421   3.160
 9615SOL     OW29743   1.648   4.417   1.648
 9615SOL    HW129744   1.657   4.323   1.680
 9615SOL    HW229745   1.738   4.460   1.641
 9616SOL     OW29746   4.059   3.497   6.709
 9616SOL    HW129747   3.963   3.471   6.715
 9616SOL    HW229748   4.097   3.506   6.801
 9617SOL     OW29749   1.995   2.752   2.672
 9617SOL    HW129750   1.959   2.777   2.582
 9617SOL    HW229751   1.965   2.819   2.740
 9618SOL     OW29752   2.532   2.024   0.869
 9618SOL    HW129753   2.530   1.944   0.929
 9618SOL    HW229754   2.627   2.047   0.847
 9619SOL     OW29755   2.355   0.493   6.531
 9619SOL    HW129756   2.396   0.409   6.567
 9619SOL    HW229757   2.396   0.572   6.576
 9620SOL     OW29758   5.295   0.939   5.366
 9620SOL    HW129759   5.278   0.955   5.269
 9620SOL    HW229760   5.392   0.918   5.380
 9621SOL     OW29761   1.844   3.329   3.059
 9621SOL    HW129762   1.833   3.423   3.026
 9621SOL    HW229763   1.865   3.269   2.982
 9622SOL     OW29764   4.899   0.278   0.582
 9622SOL    HW129765   4.945   0.278   0.493
 9622SOL    HW229766   4.860   0.188   0.599
 9623SOL     OW29767   2.275   4.192   6.643
 9623SOL    HW129768   2.334   4.144   6.578
 9623SOL    HW229769   2.187   4.145   6.650
 9624SOL     OW29770   6.503   2.961   4.068
 9624SOL    HW129771   6.431   3.004   4.123
 9624SOL    HW229772   6.582   2.941   4.125
 9625SOL     OW29773   5.738   5.991   1.444
 9625SOL    HW129774   5.732   5.897   1.479
 9625SOL    HW229775   5.685   5.998   1.359
 9626SOL     OW29776   3.779   6.703   0.415
 9626SOL    HW129777   3.689   6.704   0.457
 9626SOL    HW229778   3.849   6.691   0.485
 9627SOL     OW29779   1.081   6.824   6.724
 9627SOL    HW129780   1.102   6.895   6.657
 9627SOL    HW229781   1.026   6.753   6.680
 9628SOL     OW29782   2.919   6.852   2.060
 9628SOL    HW129783   2.894   6.756   2.069
 9628SOL    HW229784   2.980   6.864   1.981
 9629SOL     OW29785   2.546   0.157   1.213
 9629SOL    HW129786   2.562   0.185   1.118
 9629SOL    HW229787   2.526   0.060   1.216
 9630SOL     OW29788   6.729   1.899   6.464
 9630SOL    HW129789   6.735   1.954   6.381
 9630SOL    HW229790   6.787   1.939   6.534
 9631SOL     OW29791   6.495   6.534   0.051
 9631SOL    HW129792   6.568   6.594   0.020
 9631SOL    HW229793   6.505   6.519   0.150
 9632SOL     OW29794   1.046   5.441   2.318
 9632SOL    HW129795   1.072   5.537   2.310
 9632SOL    HW229796   0.977   5.419   2.249
 9633SOL     OW29797   6.640   4.994   6.111
 9633SOL    HW129798   6.570   5.063   6.131
 9633SOL    HW229799   6.696   4.978   6.192
 9634SOL     OW29800   1.102   6.169   6.079
 9634SOL    HW129801   1.044   6.231   6.132
 9634SOL    HW229802   1.094   6.191   5.982
 9635SOL     OW29803   0.180   6.071   5.385
 9635SOL    HW129804   0.258   6.072   5.323
 9635SOL    HW229805   0.105   6.018   5.345
 9636SOL     OW29806   4.074   1.484   0.281
 9636SOL    HW129807   3.987   1.517   0.244
 9636SOL    HW229808   4.127   1.442   0.208
 9637SOL     OW29809   2.470   1.200   6.627
 9637SOL    HW129810   2.419   1.125   6.669
 9637SOL    HW229811   2.536   1.163   6.561
 9638SOL     OW29812   6.602   2.464   6.942
 9638SOL    HW129813   6.517   2.482   6.893
 9638SOL    HW229814   6.637   2.374   6.916
 9639SOL     OW29815   3.575   0.504   2.444
 9639SOL    HW129816   3.655   0.500   2.504
 9639SOL    HW229817   3.499   0.547   2.492
 9640SOL     OW29818   1.021   1.220   2.487
 9640SOL    HW129819   0.976   1.136   2.516
 9640SOL    HW229820   0.965   1.265   2.418
 9641SOL     OW29821   5.531   6.093   6.630
 9641SOL    HW129822   5.518   5.995   6.641
 9641SOL    HW229823   5.559   6.133   6.717
 9642SOL     OW29824   3.375   6.865   3.582
 9642SOL    HW129825   3.387   6.847   3.679
 9642SOL    HW229826   3.327   6.952   3.569
 9643SOL     OW29827   4.110   4.782   3.004
 9643SOL    HW129828   4.179   4.852   3.023
 9643SOL    HW229829   4.141   4.724   2.929
 9644SOL     OW29830   3.032   1.555   0.521
 9644SOL    HW129831   2.946   1.556   0.469
 9644SOL    HW229832   3.065   1.648   0.534
 9645SOL     OW29833   2.681   5.482   4.856
 9645SOL    HW129834   2.690   5.580   4.842
 9645SOL    HW229835   2.595   5.463   4.904
 9646SOL     OW29836   3.637   5.398   3.943
 9646SOL    HW129837   3.695   5.324   3.908
 9646SOL    HW229838   3.577   5.363   4.014
 9647SOL     OW29839   6.519   3.054   5.805
 9647SOL    HW129840   6.514   3.136   5.748
 9647SOL    HW229841   6.460   3.065   5.885
 9648SOL     OW29842   4.141   3.929   0.875
 9648SOL    HW129843   4.150   4.028   0.880
 9648SOL    HW229844   4.215   3.886   0.927
 9649SOL     OW29845   2.245   5.283   2.249
 9649SOL    HW129846   2.198   5.198   2.276
 9649SOL    HW229847   2.177   5.356   2.240
 9650SOL     OW29848   1.149   0.421   1.255
 9650SOL    HW129849   1.089   0.496   1.284
 9650SOL    HW229850   1.237   0.459   1.226
 9651SOL     OW29851   0.687   1.922   6.957
 9651SOL    HW129852   0.611   1.934   6.893
 9651SOL    HW229853   0.700   2.007   7.008
 9652SOL     OW29854   1.214   4.922   1.907
 9652SOL    HW129855   1.168   4.973   1.980
 9652SOL    HW229856   1.156   4.845   1.878
 9653SOL     OW29857   6.023   6.223   4.405
 9653SOL    HW129858   5.959   6.183   4.471
 9653SOL    HW229859   5.972   6.255   4.325
 9654SOL     OW29860   2.154   3.006   2.669
 9654SOL    HW129861   2.135   3.104   2.669
 9654SOL    HW229862   2.115   2.965   2.587
 9655SOL     OW29863   5.908   2.033   6.799
 9655SOL    HW129864   5.853   1.952   6.779
 9655SOL    HW229865   5.955   2.021   6.886
 9656SOL     OW29866   2.603   1.657   3.391
 9656SOL    HW129867   2.687   1.710   3.387
 9656SOL    HW229868   2.528   1.715   3.423
 9657SOL     OW29869   6.948   0.316   4.990
 9657SOL    HW129870   6.942   0.222   5.024
 9657SOL    HW229871   0.007   0.362   5.035
 9658SOL     OW29872   5.958   1.990   2.995
 9658SOL    HW129873   6.014   1.933   3.056
 9658SOL    HW229874   5.996   1.986   2.902
 9659SOL     OW29875   1.059   5.002   6.809
 9659SOL    HW129876   1.034   5.025   6.904
 9659SOL    HW229877   1.155   5.024   6.794
 9660SOL     OW29878   1.094   5.149   0.353
 9660SOL    HW129879   1.007   5.149   0.402
 9660SOL    HW229880   1.154   5.219   0.391
 9661SOL     OW29881   4.029   0.216   0.685
 9661SOL    HW129882   3.966   0.155   0.636
 9661SOL    HW229883   3.981   0.299   0.712
 9662SOL     OW29884   5.557   1.644   4.258
 9662SOL    HW129885   5.481   1.700   4.225
 9662SOL    HW229886   5.596   1.593   4.182
 9663SOL     OW29887   2.217   5.847   3.362
 9663SOL    HW129888   2.184   5.777   3.426
 9663SOL    HW229889   2.187   5.937   3.393
 9664SOL     OW29890   2.287   5.795   1.707
 9664SOL    HW129891   2.377   5.839   1.711
 9664SOL    HW229892   2.278   5.744   1.622
 9665SOL     OW29893   5.146   4.302   3.655
 9665SOL    HW129894   5.058   4.303   3.702
 9665SOL    HW229895   5.135   4.265   3.563
 9666SOL     OW29896   5.319   5.025   4.753
 9666SOL    HW129897   5.257   5.090   4.797
 9666SOL    HW229898   5.278   4.935   4.751
 9667SOL     OW29899   3.164   2.988   3.867
 9667SOL    HW129900   3.217   2.944   3.795
 9667SOL    HW229901   3.087   3.037   3.826
 9668SOL     OW29902   0.249   1.043   5.479
 9668SOL    HW129903   0.237   1.117   5.545
 9668SOL    HW229904   0.188   0.967   5.503
 9669SOL     OW29905   1.678   5.987   6.919
 9669SOL    HW129906   1.589   5.943   6.912
 9669SOL    HW229907   1.699   6.004   7.015
 9670SOL     OW29908   5.853   4.680   6.431
 9670SOL    HW129909   5.835   4.582   6.444
 9670SOL    HW229910   5.807   4.711   6.348
 9671SOL     OW29911   6.901   0.555   0.199
 9671SOL    HW129912   6.810   0.548   0.157
 9671SOL    HW229913   6.916   0.650   0.229
 9672SOL     OW29914   1.625   6.186   5.083
 9672SOL    HW129915   1.716   6.225   5.091
 9672SOL    HW229916   1.564   6.231   5.148
 9673SOL     OW29917   2.348   2.926   6.526
 9673SOL    HW129918   2.396   2.918   6.439
 9673SOL    HW229919   2.283   3.002   6.521
 9674SOL     OW29920   2.331   6.561   2.459
 9674SOL    HW129921   2.427   6.546   2.481
 9674SOL    HW229922   2.279   6.477   2.474
 9675SOL     OW29923   0.045   2.396   2.563
 9675SOL    HW129924   0.143   2.381   2.551
 9675SOL    HW229925   7.013   2.359   2.485
 9676SOL     OW29926   0.022   2.451   4.653
 9676SOL    HW129927   0.064   2.537   4.682
 9676SOL    HW229928   6.940   2.460   4.654
 9677SOL     OW29929   1.730   3.326   5.749
 9677SOL    HW129930   1.761   3.338   5.655
 9677SOL    HW229931   1.674   3.243   5.755
 9678SOL     OW29932   3.456   3.325   3.145
 9678SOL    HW129933   3.495   3.248   3.195
 9678SOL    HW229934   3.527   3.366   3.087
 9679SOL     OW29935   0.707   3.804   1.016
 9679SOL    HW129936   0.805   3.804   1.035
 9679SOL    HW229937   0.657   3.783   1.101
 9680SOL     OW29938   4.877   5.267   2.849
 9680SOL    HW129939   4.862   5.176   2.810
 9680SOL    HW229940   4.813   5.331   2.807
 9681SOL     OW29941   1.120   0.547   4.381
 9681SOL    HW129942   1.074   0.636   4.386
 9681SOL    HW229943   1.137   0.523   4.286
 9682SOL     OW29944   0.357   4.478   2.944
 9682SOL    HW129945   0.312   4.494   3.032
 9682SOL    HW229946   0.332   4.550   2.880
 9683SOL     OW29947   4.768   0.121   5.770
 9683SOL    HW129948   4.829   0.138   5.847
 9683SOL    HW229949   4.765   0.202   5.712
 9684SOL     OW29950   0.835   4.126   3.729
 9684SOL    HW129951   0.934   4.123   3.744
 9684SOL    HW229952   0.800   4.033   3.720
 9685SOL     OW29953   2.260   1.638   6.731
 9685SOL    HW129954   2.226   1.595   6.648
 9685SOL    HW229955   2.296   1.568   6.793
 9686SOL     OW29956   5.463   2.556   1.845
 9686SOL    HW129957   5.521   2.526   1.769
 9686SOL    HW229958   5.449   2.481   1.909
 9687SOL     OW29959   3.597   1.161   4.476
 9687SOL    HW129960   3.551   1.073   4.489
 9687SOL    HW229961   3.565   1.203   4.391
 9688SOL     OW29962   5.955   1.829   4.109
 9688SOL    HW129963   5.927   1.753   4.166
 9688SOL    HW229964   5.942   1.915   4.158
 9689SOL     OW29965   2.415   4.968   5.297
 9689SOL    HW129966   2.511   4.994   5.294
 9689SOL    HW229967   2.390   4.943   5.391
 9690SOL     OW29968   6.228   3.847   0.326
 9690SOL    HW129969   6.243   3.900   0.244
 9690SOL    HW229970   6.139   3.801   0.321
 9691SOL     OW29971   1.524   4.496   0.573
 9691SOL    HW129972   1.579   4.430   0.523
 9691SOL    HW229973   1.430   4.463   0.581
 9692SOL     OW29974   3.114   5.639   0.772
 9692SOL    HW129975   3.043   5.591   0.823
 9692SOL    HW229976   3.203   5.622   0.814
 9693SOL     OW29977   6.118   5.980   1.602
 9693SOL    HW129978   6.149   5.926   1.680
 9693SOL    HW229979   6.171   5.955   1.521
 9694SOL     OW29980   1.043   1.535   1.150
 9694SOL    HW129981   1.030   1.584   1.064
 9694SOL    HW229982   1.140   1.538   1.175
 9695SOL     OW29983   6.669   4.678   0.231
 9695SOL    HW129984   6.750   4.643   0.279
 9695SOL    HW229985   6.592   4.683   0.293
 9696SOL     OW29986   3.686   4.591   0.270
 9696SOL    HW129987   3.602   4.645   0.263
 9696SOL    HW229988   3.745   4.609   0.191
 9697SOL     OW29989   0.476   6.188   5.933
 9697SOL    HW129990   0.506   6.271   5.979
 9697SOL    HW229991   0.431   6.127   5.999
 9698SOL     OW29992   4.581   1.151   5.065
 9698SOL    HW129993   4.511   1.209   5.022
 9698SOL    HW229994   4.621   1.091   4.996
 9699SOL     OW29995   1.823   2.323   6.640
 9699SOL    HW129996   1.765   2.317   6.721
 9699SOL    HW229997   1.912   2.361   6.665
 9700SOL     OW29998   4.100   3.504   3.223
 9700SOL    HW129999   4.176   3.508   3.159
 9700SOL    HW230000   4.136   3.490   3.316
 9701SOL     OW30001   4.187   4.747   4.432
 9701SOL    HW130002   4.213   4.734   4.528
 9701SOL    HW230003   4.091   4.775   4.427
 9702SOL     OW30004   5.533   0.550   0.643
 9702SOL    HW130005   5.503   0.464   0.601
 9702SOL    HW230006   5.581   0.530   0.729
 9703SOL     OW30007   2.500   5.768   4.294
 9703SOL    HW130008   2.404   5.797   4.297
 9703SOL    HW230009   2.508   5.687   4.235
 9704SOL     OW30010   2.335   1.359   3.788
 9704SOL    HW130011   2.395   1.315   3.855
 9704SOL    HW230012   2.384   1.369   3.701
 9705SOL     OW30013   3.714   4.160   0.797
 9705SOL    HW130014   3.780   4.091   0.829
 9705SOL    HW230015   3.662   4.123   0.720
 9706SOL     OW30016   6.912   2.368   3.543
 9706SOL    HW130017   6.920   2.357   3.642
 9706SOL    HW230018   6.905   2.278   3.500
 9707SOL     OW30019   2.714   5.220   2.479
 9707SOL    HW130020   2.626   5.213   2.433
 9707SOL    HW230021   2.785   5.177   2.423
 9708SOL     OW30022   1.871   2.159   2.035
 9708SOL    HW130023   1.870   2.186   2.131
 9708SOL    HW230024   1.845   2.063   2.027
 9709SOL     OW30025   1.347   5.954   3.296
 9709SOL    HW130026   1.367   6.043   3.337
 9709SOL    HW230027   1.404   5.941   3.215
 9710SOL     OW30028   0.939   0.221   3.969
 9710SOL    HW130029   0.892   0.286   3.908
 9710SOL    HW230030   0.900   0.130   3.957
 9711SOL     OW30031   1.462   3.053   6.448
 9711SOL    HW130032   1.379   2.999   6.459
 9711SOL    HW230033   1.539   3.004   6.488
 9712SOL     OW30034   4.920   3.830   4.813
 9712SOL    HW130035   4.858   3.767   4.860
 9712SOL    HW230036   5.013   3.794   4.816
 9713SOL     OW30037   6.874   5.089   3.047
 9713SOL    HW130038   6.802   5.157   3.031
 9713SOL    HW230039   6.947   5.103   2.980
 9714SOL     OW30040   2.268   2.129   2.655
 9714SOL    HW130041   2.249   2.186   2.576
 9714SOL    HW230042   2.210   2.047   2.652
 9715SOL     OW30043   5.975   5.290   5.795
 9715SOL    HW130044   6.004   5.322   5.885
 9715SOL    HW230045   5.875   5.287   5.792
 9716SOL     OW30046   3.396   1.316   6.154
 9716SOL    HW130047   3.408   1.387   6.085
 9716SOL    HW230048   3.332   1.247   6.121
 9717SOL     OW30049   5.543   5.275   3.466
 9717SOL    HW130050   5.512   5.197   3.412
 9717SOL    HW230051   5.621   5.318   3.421
 9718SOL     OW30052   4.816   2.846   1.673
 9718SOL    HW130053   4.740   2.804   1.724
 9718SOL    HW230054   4.887   2.875   1.737
 9719SOL     OW30055   0.199   1.141   0.293
 9719SOL    HW130056   0.243   1.119   0.206
 9719SOL    HW230057   0.255   1.208   0.343
 9720SOL     OW30058   0.678   0.514   0.647
 9720SOL    HW130059   0.637   0.448   0.711
 9720SOL    HW230060   0.734   0.579   0.698
 9721SOL     OW30061   0.239   2.627   3.169
 9721SOL    HW130062   0.338   2.635   3.170
 9721SOL    HW230063   0.200   2.678   3.246
 9722SOL     OW30064   0.149   0.141   4.431
 9722SOL    HW130065   0.208   0.072   4.471
 9722SOL    HW230066   0.066   0.150   4.485
 9723SOL     OW30067   6.807   0.180   3.965
 9723SOL    HW130068   6.805   0.086   3.931
 9723SOL    HW230069   6.892   0.224   3.936
 9724SOL     OW30070   3.972   2.645   1.662
 9724SOL    HW130071   3.903   2.701   1.706
 9724SOL    HW230072   3.962   2.653   1.563
 9725SOL     OW30073   3.866   3.244   5.794
 9725SOL    HW130074   3.778   3.249   5.747
 9725SOL    HW230075   3.939   3.263   5.728
 9726SOL     OW30076   5.459   5.996   4.718
 9726SOL    HW130077   5.500   5.965   4.803
 9726SOL    HW230078   5.363   5.968   4.716
 9727SOL     OW30079   1.296   0.402   6.859
 9727SOL    HW130080   1.337   0.489   6.886
 9727SOL    HW230081   1.362   0.328   6.873
 9728SOL     OW30082   3.479   6.011   6.343
 9728SOL    HW130083   3.406   6.055   6.292
 9728SOL    HW230084   3.505   6.068   6.421
 9729SOL     OW30085   3.050   5.352   2.270
 9729SOL    HW130086   3.024   5.262   2.306
 9729SOL    HW230087   3.053   5.348   2.171
 9730SOL     OW30088   5.567   3.579   3.148
 9730SOL    HW130089   5.585   3.486   3.181
 9730SOL    HW230090   5.604   3.645   3.213
 9731SOL     OW30091   5.238   5.443   1.383
 9731SOL    HW130092   5.241   5.346   1.362
 9731SOL    HW230093   5.179   5.490   1.317
 9732SOL     OW30094   5.068   6.639   4.492
 9732SOL    HW130095   5.149   6.670   4.542
 9732SOL    HW230096   4.997   6.613   4.558
 9733SOL     OW30097   5.171   4.844   5.789
 9733SOL    HW130098   5.158   4.921   5.852
 9733SOL    HW230099   5.252   4.792   5.817
 9734SOL     OW30100   6.112   1.675   5.829
 9734SOL    HW130101   6.138   1.603   5.763
 9734SOL    HW230102   6.146   1.651   5.919
 9735SOL     OW30103   3.167   4.680   0.876
 9735SOL    HW130104   3.067   4.669   0.877
 9735SOL    HW230105   3.210   4.589   0.875
 9736SOL     OW30106   2.860   1.862   2.053
 9736SOL    HW130107   2.889   1.954   2.077
 9736SOL    HW230108   2.784   1.867   1.987
 9737SOL     OW30109   4.248   2.247   4.475
 9737SOL    HW130110   4.342   2.212   4.474
 9737SOL    HW230111   4.213   2.245   4.569
 9738SOL     OW30112   2.388   1.076   1.829
 9738SOL    HW130113   2.453   1.134   1.781
 9738SOL    HW230114   2.436   0.996   1.868
 9739SOL     OW30115   5.574   4.384   1.720
 9739SOL    HW130116   5.480   4.402   1.748
 9739SOL    HW230117   5.587   4.415   1.626
 9740SOL     OW30118   6.744   2.784   2.433
 9740SOL    HW130119   6.722   2.881   2.422
 9740SOL    HW230120   6.680   2.743   2.497
 9741SOL     OW30121   3.969   1.885   2.433
 9741SOL    HW130122   3.919   1.820   2.490
 9741SOL    HW230123   3.921   1.973   2.431
 9742SOL     OW30124   3.974   1.329   3.577
 9742SOL    HW130125   4.036   1.397   3.538
 9742SOL    HW230126   3.996   1.316   3.674
 9743SOL     OW30127   1.714   1.465   5.190
 9743SOL    HW130128   1.701   1.388   5.127
 9743SOL    HW230129   1.639   1.467   5.256
 9744SOL     OW30130   2.543   0.217   1.485
 9744SOL    HW130131   2.615   0.287   1.487
 9744SOL    HW230132   2.528   0.187   1.391
 9745SOL     OW30133   0.436   0.664   4.713
 9745SOL    HW130134   0.473   0.721   4.786
 9745SOL    HW230135   0.345   0.632   4.738
 9746SOL     OW30136   6.193   0.602   3.900
 9746SOL    HW130137   6.157   0.523   3.948
 9746SOL    HW230138   6.293   0.595   3.895
 9747SOL     OW30139   0.407   0.014   6.136
 9747SOL    HW130140   0.457   6.978   6.068
 9747SOL    HW230141   0.441   7.009   6.228
 9748SOL     OW30142   1.014   3.891   4.247
 9748SOL    HW130143   0.928   3.941   4.235
 9748SOL    HW230144   1.091   3.953   4.231
 9749SOL     OW30145   0.500   5.073   4.381
 9749SOL    HW130146   0.412   5.058   4.427
 9749SOL    HW230147   0.527   4.990   4.333
 9750SOL     OW30148   3.025   5.613   2.633
 9750SOL    HW130149   2.928   5.635   2.638
 9750SOL    HW230150   3.042   5.550   2.557
 9751SOL     OW30151   1.431   2.623   0.540
 9751SOL    HW130152   1.382   2.672   0.467
 9751SOL    HW230153   1.462   2.535   0.506
 9752SOL     OW30154   3.963   0.319   6.263
 9752SOL    HW130155   3.930   0.413   6.264
 9752SOL    HW230156   3.885   0.256   6.259
 9753SOL     OW30157   0.078   6.802   6.924
 9753SOL    HW130158   7.006   6.833   6.954
 9753SOL    HW230159   0.147   6.825   6.993
 9754SOL     OW30160   0.128   3.107   6.113
 9754SOL    HW130161   0.080   3.020   6.108
 9754SOL    HW230162   0.146   3.130   6.209
 9755SOL     OW30163   3.543   5.612   5.153
 9755SOL    HW130164   3.448   5.613   5.122
 9755SOL    HW230165   3.603   5.588   5.077
 9756SOL     OW30166   5.095   2.763   6.001
 9756SOL    HW130167   5.040   2.800   5.926
 9756SOL    HW230168   5.177   2.819   6.013
 9757SOL     OW30169   6.460   0.851   3.955
 9757SOL    HW130170   6.447   0.759   3.918
 9757SOL    HW230171   6.387   0.871   4.020
 9758SOL     OW30172   3.457   0.637   0.617
 9758SOL    HW130173   3.368   0.597   0.592
 9758SOL    HW230174   3.521   0.627   0.541
 9759SOL     OW30175   2.869   5.792   1.733
 9759SOL    HW130176   2.846   5.711   1.788
 9759SOL    HW230177   2.954   5.831   1.767
 9760SOL     OW30178   5.475   4.721   5.864
 9760SOL    HW130179   5.495   4.687   5.772
 9760SOL    HW230180   5.434   4.647   5.918
 9761SOL     OW30181   5.268   5.247   2.682
 9761SOL    HW130182   5.206   5.243   2.760
 9761SOL    HW230183   5.287   5.343   2.660
 9762SOL     OW30184   3.244   0.338   2.471
 9762SOL    HW130185   3.289   0.353   2.383
 9762SOL    HW230186   3.274   0.407   2.536
 9763SOL     OW30187   2.307   1.963   1.746
 9763SOL    HW130188   2.294   1.864   1.759
 9763SOL    HW230189   2.388   1.993   1.795
 9764SOL     OW30190   0.988   2.535   3.390
 9764SOL    HW130191   1.015   2.617   3.340
 9764SOL    HW230192   0.979   2.557   3.488
 9765SOL     OW30193   0.502   0.544   5.895
 9765SOL    HW130194   0.528   0.471   5.958
 9765SOL    HW230195   0.494   0.630   5.945
 9766SOL     OW30196   2.173   1.006   3.096
 9766SOL    HW130197   2.184   1.102   3.120
 9766SOL    HW230198   2.212   0.949   3.168
 9767SOL     OW30199   4.861   0.357   5.257
 9767SOL    HW130200   4.800   0.387   5.331
 9767SOL    HW230201   4.886   0.435   5.201
 9768SOL     OW30202   4.421   2.279   3.822
 9768SOL    HW130203   4.346   2.310   3.881
 9768SOL    HW230204   4.396   2.191   3.780
 9769SOL     OW30205   0.509   1.872   1.065
 9769SOL    HW130206   0.508   1.849   1.162
 9769SOL    HW230207   0.420   1.910   1.039
 9770SOL     OW30208   0.683   2.702   5.729
 9770SOL    HW130209   0.689   2.602   5.722
 9770SOL    HW230210   0.743   2.733   5.802
 9771SOL     OW30211   2.506   6.029   4.095
 9771SOL    HW130212   2.547   6.030   4.187
 9771SOL    HW230213   2.518   5.938   4.055
 9772SOL     OW30214   6.006   6.834   0.823
 9772SOL    HW130215   6.038   6.805   0.733
 9772SOL    HW230216   6.027   6.931   0.837
 9773SOL     OW30217   4.879   5.521   3.835
 9773SOL    HW130218   4.964   5.520   3.888
 9773SOL    HW230219   4.821   5.445   3.864
 9774SOL     OW30220   6.883   5.106   4.427
 9774SOL    HW130221   6.968   5.060   4.452
 9774SOL    HW230222   6.846   5.064   4.344
 9775SOL     OW30223   2.933   1.793   4.992
 9775SOL    HW130224   2.948   1.704   5.035
 9775SOL    HW230225   3.019   1.825   4.952
 9776SOL     OW30226   6.942   4.723   4.372
 9776SOL    HW130227   7.008   4.720   4.297
 9776SOL    HW230228   6.849   4.713   4.335
 9777SOL     OW30229   5.199   5.896   6.311
 9777SOL    HW130230   5.263   5.822   6.293
 9777SOL    HW230231   5.148   5.917   6.228
 9778SOL     OW30232   4.074   0.553   4.315
 9778SOL    HW130233   3.986   0.563   4.269
 9778SOL    HW230234   4.070   0.598   4.404
 9779SOL     OW30235   3.272   2.547   6.722
 9779SOL    HW130236   3.263   2.536   6.821
 9779SOL    HW230237   3.304   2.639   6.701
 9780SOL     OW30238   2.042   3.684   1.094
 9780SOL    HW130239   2.121   3.647   1.144
 9780SOL    HW230240   1.958   3.663   1.143
 9781SOL     OW30241   0.964   6.670   4.663
 9781SOL    HW130242   0.908   6.599   4.705
 9781SOL    HW230243   1.060   6.644   4.668
 9782SOL     OW30244   5.934   0.155   0.634
 9782SOL    HW130245   5.963   0.150   0.730
 9782SOL    HW230246   6.010   0.129   0.575
 9783SOL     OW30247   6.100   6.935   3.693
 9783SOL    HW130248   6.023   6.875   3.711
 9783SOL    HW230249   6.174   6.883   3.651
 9784SOL     OW30250   5.538   0.126   4.293
 9784SOL    HW130251   5.606   0.130   4.220
 9784SOL    HW230252   5.532   0.216   4.338
 9785SOL     OW30253   1.007   2.425   1.332
 9785SOL    HW130254   1.038   2.351   1.271
 9785SOL    HW230255   1.060   2.507   1.314
 9786SOL     OW30256   2.234   0.044   4.086
 9786SOL    HW130257   2.244   0.092   3.998
 9786SOL    HW230258   2.136   0.037   4.108
 9787SOL     OW30259   5.469   4.301   1.248
 9787SOL    HW130260   5.452   4.398   1.233
 9787SOL    HW230261   5.567   4.286   1.259
 9788SOL     OW30262   6.668   0.780   6.071
 9788SOL    HW130263   6.740   0.734   6.122
 9788SOL    HW230264   6.649   0.730   5.987
 9789SOL     OW30265   1.464   4.635   4.816
 9789SOL    HW130266   1.369   4.659   4.836
 9789SOL    HW230267   1.520   4.718   4.812
 9790SOL     OW30268   0.089   1.087   3.773
 9790SOL    HW130269   0.109   1.116   3.679
 9790SOL    HW230270   0.011   1.024   3.773
 9791SOL     OW30271   1.374   2.600   1.023
 9791SOL    HW130272   1.446   2.586   1.092
 9791SOL    HW230273   1.405   2.564   0.935
 9792SOL     OW30274   3.607   5.666   2.332
 9792SOL    HW130275   3.617   5.598   2.404
 9792SOL    HW230276   3.581   5.754   2.373
 9793SOL     OW30277   5.470   6.508   2.229
 9793SOL    HW130278   5.520   6.439   2.281
 9793SOL    HW230279   5.470   6.595   2.279
 9794SOL     OW30280   3.783   3.023   0.027
 9794SOL    HW130281   3.698   3.027   0.080
 9794SOL    HW230282   3.860   3.041   0.088
 9795SOL     OW30283   1.784   4.915   3.069
 9795SOL    HW130284   1.861   4.976   3.084
 9795SOL    HW230285   1.817   4.820   3.065
 9796SOL     OW30286   3.427   5.193   6.633
 9796SOL    HW130287   3.404   5.250   6.711
 9796SOL    HW230288   3.351   5.131   6.613
 9797SOL     OW30289   5.729   2.978   5.323
 9797SOL    HW130290   5.748   2.884   5.294
 9797SOL    HW230291   5.775   2.995   5.410
 9798SOL     OW30292   2.602   1.612   1.948
 9798SOL    HW130293   2.692   1.570   1.938
 9798SOL    HW230294   2.607   1.709   1.925
 9799SOL     OW30295   3.768   3.653   2.963
 9799SOL    HW130296   3.764   3.601   3.048
 9799SOL    HW230297   3.838   3.724   2.971
 9800SOL     OW30298   3.769   5.972   0.144
 9800SOL    HW130299   3.852   5.924   0.171
 9800SOL    HW230300   3.761   6.057   0.197
 9801SOL     OW30301   5.312   5.196   1.258
 9801SOL    HW130302   5.258   5.126   1.212
 9801SOL    HW230303   5.356   5.255   1.190
 9802SOL     OW30304   0.744   5.837   2.048
 9802SOL    HW130305   0.778   5.842   1.954
 9802SOL    HW230306   0.684   5.915   2.066
 9803SOL     OW30307   5.334   6.879   6.479
 9803SOL    HW130308   5.296   6.786   6.483
 9803SOL    HW230309   5.270   6.943   6.522
 9804SOL     OW30310   4.982   5.011   4.895
 9804SOL    HW130311   5.013   4.964   4.977
 9804SOL    HW230312   4.942   4.946   4.832
 9805SOL     OW30313   3.643   3.804   0.940
 9805SOL    HW130314   3.630   3.828   1.036
 9805SOL    HW230315   3.732   3.837   0.909
 9806SOL     OW30316   6.906   1.770   2.437
 9806SOL    HW130317   6.924   1.708   2.361
 9806SOL    HW230318   6.952   1.857   2.420
 9807SOL     OW30319   2.144   3.145   1.104
 9807SOL    HW130320   2.061   3.163   1.051
 9807SOL    HW230321   2.222   3.136   1.042
 9808SOL     OW30322   1.843   1.905   3.719
 9808SOL    HW130323   1.814   1.955   3.801
 9808SOL    HW230324   1.936   1.871   3.733
 9809SOL     OW30325   0.721   0.703   4.175
 9809SOL    HW130326   0.662   0.734   4.100
 9809SOL    HW230327   0.678   0.724   4.263
 9810SOL     OW30328   4.377   1.699   2.654
 9810SOL    HW130329   4.467   1.743   2.644
 9810SOL    HW230330   4.390   1.607   2.693
 9811SOL     OW30331   1.395   0.577   3.220
 9811SOL    HW130332   1.420   0.671   3.243
 9811SOL    HW230333   1.325   0.545   3.284
 9812SOL     OW30334   5.770   3.281   6.147
 9812SOL    HW130335   5.687   3.225   6.145
 9812SOL    HW230336   5.794   3.300   6.242
 9813SOL     OW30337   6.522   4.712   0.450
 9813SOL    HW130338   6.436   4.764   0.454
 9813SOL    HW230339   6.512   4.629   0.505
 9814SOL     OW30340   6.223   0.872   5.926
 9814SOL    HW130341   6.204   0.951   5.867
 9814SOL    HW230342   6.321   0.859   5.934
 9815SOL     OW30343   0.116   4.830   2.160
 9815SOL    HW130344   0.033   4.801   2.112
 9815SOL    HW230345   0.110   4.928   2.180
 9816SOL     OW30346   6.537   1.760   5.239
 9816SOL    HW130347   6.601   1.835   5.227
 9816SOL    HW230348   6.586   1.678   5.269
 9817SOL     OW30349   2.492   1.181   0.823
 9817SOL    HW130350   2.590   1.201   0.815
 9817SOL    HW230351   2.477   1.083   0.814
 9818SOL     OW30352   0.502   0.116   2.128
 9818SOL    HW130353   0.421   0.130   2.073
 9818SOL    HW230354   0.477   0.071   2.214
 9819SOL     OW30355   5.903   1.674   4.345
 9819SOL    HW130356   5.864   1.603   4.285
 9819SOL    HW230357   5.832   1.706   4.408
 9820SOL     OW30358   3.754   0.785   6.838
 9820SOL    HW130359   3.677   0.783   6.774
 9820SOL    HW230360   3.731   0.841   6.917
 9821SOL     OW30361   4.573   3.815   6.977
 9821SOL    HW130362   4.513   3.766   0.023
 9821SOL    HW230363   4.633   3.749   6.931
 9822SOL     OW30364   3.055   5.264   4.023
 9822SOL    HW130365   3.046   5.257   4.122
 9822SOL    HW230366   3.110   5.344   3.999
 9823SOL     OW30367   4.908   6.302   2.849
 9823SOL    HW130368   4.942   6.242   2.922
 9823SOL    HW230369   4.825   6.349   2.880
 9824SOL     OW30370   1.200   5.807   5.668
 9824SOL    HW130371   1.251   5.722   5.651
 9824SOL    HW230372   1.105   5.795   5.643
 9825SOL     OW30373   1.271   6.362   4.908
 9825SOL    HW130374   1.288   6.425   4.984
 9825SOL    HW230375   1.258   6.269   4.945
 9826SOL     OW30376   2.154   5.904   6.202
 9826SOL    HW130377   2.195   5.814   6.217
 9826SOL    HW230378   2.070   5.912   6.256
 9827SOL     OW30379   2.128   4.858   1.808
 9827SOL    HW130380   2.033   4.888   1.810
 9827SOL    HW230381   2.131   4.758   1.811
 9828SOL     OW30382   4.452   1.994   3.948
 9828SOL    HW130383   4.523   2.055   3.914
 9828SOL    HW230384   4.362   2.030   3.921
 9829SOL     OW30385   5.534   4.985   6.021
 9829SOL    HW130386   5.480   4.992   6.105
 9829SOL    HW230387   5.543   4.889   5.995
 9830SOL     OW30388   6.444   1.137   2.923
 9830SOL    HW130389   6.381   1.202   2.879
 9830SOL    HW230390   6.510   1.103   2.856
 9831SOL     OW30391   0.891   5.166   1.417
 9831SOL    HW130392   0.868   5.085   1.364
 9831SOL    HW230393   0.957   5.142   1.488
 9832SOL     OW30394   5.045   5.994   5.308
 9832SOL    HW130395   5.055   5.911   5.252
 9832SOL    HW230396   5.022   5.969   5.402
 9833SOL     OW30397   3.988   3.063   4.497
 9833SOL    HW130398   3.911   3.027   4.446
 9833SOL    HW230399   3.996   3.015   4.585
 9834SOL     OW30400   3.705   6.027   6.149
 9834SOL    HW130401   3.655   6.023   6.236
 9834SOL    HW230402   3.645   6.066   6.078
 9835SOL     OW30403   3.839   3.576   3.675
 9835SOL    HW130404   3.918   3.632   3.651
 9835SOL    HW230405   3.850   3.542   3.768
 9836SOL     OW30406   6.333   2.775   5.934
 9836SOL    HW130407   6.392   2.768   5.854
 9836SOL    HW230408   6.285   2.689   5.948
 9837SOL     OW30409   6.808   0.567   3.790
 9837SOL    HW130410   6.752   0.537   3.867
 9837SOL    HW230411   6.891   0.611   3.825
 9838SOL     OW30412   0.439   5.885   0.991
 9838SOL    HW130413   0.340   5.888   0.977
 9838SOL    HW230414   0.482   5.959   0.939
 9839SOL     OW30415   3.922   6.556   3.685
 9839SOL    HW130416   4.014   6.585   3.660
 9839SOL    HW230417   3.882   6.505   3.609
 9840SOL     OW30418   6.407   2.239   6.588
 9840SOL    HW130419   6.383   2.176   6.662
 9840SOL    HW230420   6.324   2.279   6.550
 9841SOL     OW30421   0.286   5.848   2.259
 9841SOL    HW130422   0.340   5.850   2.174
 9841SOL    HW230423   0.323   5.778   2.320
 9842SOL     OW30424   3.793   0.071   0.470
 9842SOL    HW130425   3.712   0.018   0.446
 9842SOL    HW230426   3.855   0.015   0.526
 9843SOL     OW30427   0.567   0.103   0.483
 9843SOL    HW130428   0.605   0.183   0.528
 9843SOL    HW230429   0.640   0.055   0.434
 9844SOL     OW30430   4.849   0.808   4.877
 9844SOL    HW130431   4.919   0.793   4.807
 9844SOL    HW230432   4.848   0.731   4.940
 9845SOL     OW30433   1.120   3.384   2.028
 9845SOL    HW130434   1.070   3.297   2.033
 9845SOL    HW230435   1.087   3.445   2.100
 9846SOL     OW30436   5.462   1.977   2.152
 9846SOL    HW130437   5.540   1.984   2.089
 9846SOL    HW230438   5.466   2.052   2.218
 9847SOL     OW30439   3.892   4.283   0.025
 9847SOL    HW130440   3.981   4.273   6.998
 9847SOL    HW230441   3.901   4.257   0.121
 9848SOL     OW30442   2.725   4.029   5.737
 9848SOL    HW130443   2.806   4.071   5.698
 9848SOL    HW230444   2.700   3.947   5.685
 9849SOL     OW30445   1.814   2.144   2.565
 9849SOL    HW130446   1.805   2.078   2.490
 9849SOL    HW230447   1.725   2.187   2.581
 9850SOL     OW30448   1.794   0.275   4.143
 9850SOL    HW130449   1.739   0.261   4.060
 9850SOL    HW230450   1.734   0.272   4.223
 9851SOL     OW30451   3.591   5.233   3.423
 9851SOL    HW130452   3.543   5.146   3.411
 9851SOL    HW230453   3.674   5.232   3.368
 9852SOL     OW30454   2.659   0.237   0.324
 9852SOL    HW130455   2.626   0.153   0.281
 9852SOL    HW230456   2.720   0.213   0.400
 9853SOL     OW30457   6.976   3.975   3.936
 9853SOL    HW130458   0.049   4.002   3.904
 9853SOL    HW230459   6.956   3.882   3.904
 9854SOL     OW30460   6.232   4.176   6.714
 9854SOL    HW130461   6.207   4.226   6.631
 9854SOL    HW230462   6.298   4.105   6.692
 9855SOL     OW30463   1.208   5.782   0.692
 9855SOL    HW130464   1.233   5.812   0.784
 9855SOL    HW230465   1.122   5.826   0.665
 9856SOL     OW30466   5.020   4.310   3.179
 9856SOL    HW130467   5.095   4.324   3.114
 9856SOL    HW230468   4.993   4.398   3.218
 9857SOL     OW30469   5.218   0.382   6.101
 9857SOL    HW130470   5.278   0.316   6.146
 9857SOL    HW230471   5.268   0.425   6.025
 9858SOL     OW30472   0.132   5.307   2.508
 9858SOL    HW130473   0.064   5.264   2.568
 9858SOL    HW230474   0.116   5.406   2.507
 9859SOL     OW30475   0.779   5.231   2.320
 9859SOL    HW130476   0.866   5.198   2.356
 9859SOL    HW230477   0.704   5.181   2.364
 9860SOL     OW30478   1.751   3.520   3.645
 9860SOL    HW130479   1.656   3.508   3.675
 9860SOL    HW230480   1.770   3.458   3.569
 9861SOL     OW30481   3.622   2.082   4.336
 9861SOL    HW130482   3.649   1.990   4.364
 9861SOL    HW230483   3.703   2.139   4.323
 9862SOL     OW30484   1.952   2.898   6.669
 9862SOL    HW130485   1.919   2.960   6.741
 9862SOL    HW230486   2.052   2.900   6.667
 9863SOL     OW30487   3.797   6.273   1.588
 9863SOL    HW130488   3.800   6.301   1.683
 9863SOL    HW230489   3.704   6.284   1.552
 9864SOL     OW30490   2.996   5.873   4.988
 9864SOL    HW130491   2.923   5.910   4.931
 9864SOL    HW230492   3.083   5.911   4.959
 9865SOL     OW30493   2.307   6.436   5.951
 9865SOL    HW130494   2.269   6.458   6.040
 9865SOL    HW230495   2.389   6.379   5.963
 9866SOL     OW30496   6.886   5.497   6.109
 9866SOL    HW130497   6.911   5.592   6.094
 9866SOL    HW230498   6.899   5.446   6.024
 9867SOL     OW30499   4.549   1.034   2.571
 9867SOL    HW130500   4.625   1.051   2.634
 9867SOL    HW230501   4.462   1.038   2.621
 9868SOL     OW30502   2.415   4.365   2.966
 9868SOL    HW130503   2.505   4.400   2.942
 9868SOL    HW230504   2.381   4.414   3.047
 9869SOL     OW30505   5.790   2.217   3.077
 9869SOL    HW130506   5.878   2.251   3.043
 9869SOL    HW230507   5.780   2.120   3.054
 9870SOL     OW30508   1.891   2.861   2.940
 9870SOL    HW130509   1.926   2.768   2.954
 9870SOL    HW230510   1.966   2.927   2.951
 9871SOL     OW30511   5.742   5.455   3.406
 9871SOL    HW130512   5.709   5.462   3.312
 9871SOL    HW230513   5.799   5.534   3.428
 9872SOL     OW30514   0.750   6.665   5.533
 9872SOL    HW130515   0.822   6.709   5.479
 9872SOL    HW230516   0.775   6.570   5.550
 9873SOL     OW30517   0.454   0.417   4.947
 9873SOL    HW130518   0.457   0.512   4.979
 9873SOL    HW230519   0.385   0.409   4.875
 9874SOL     OW30520   6.641   1.563   3.750
 9874SOL    HW130521   6.605   1.473   3.775
 9874SOL    HW230522   6.657   1.617   3.833
 9875SOL     OW30523   6.297   6.113   1.058
 9875SOL    HW130524   6.279   6.190   1.119
 9875SOL    HW230525   6.244   6.123   0.974
 9876SOL     OW30526   0.294   0.180   3.244
 9876SOL    HW130527   0.361   0.122   3.197
 9876SOL    HW230528   0.224   0.209   3.179
 9877SOL     OW30529   1.463   5.774   4.829
 9877SOL    HW130530   1.503   5.695   4.875
 9877SOL    HW230531   1.456   5.850   4.893
 9878SOL     OW30532   4.448   3.140   0.115
 9878SOL    HW130533   4.503   3.198   0.175
 9878SOL    HW230534   4.370   3.104   0.167
 9879SOL     OW30535   5.118   5.242   4.436
 9879SOL    HW130536   5.185   5.300   4.389
 9879SOL    HW230537   5.158   5.152   4.452
 9880SOL     OW30538   2.764   1.205   0.740
 9880SOL    HW130539   2.834   1.243   0.801
 9880SOL    HW230540   2.783   1.109   0.724
 9881SOL     OW30541   7.009   6.754   2.847
 9881SOL    HW130542   7.000   6.667   2.896
 9881SOL    HW230543   0.041   6.739   2.761
 9882SOL     OW30544   3.089   3.938   4.379
 9882SOL    HW130545   3.109   3.929   4.476
 9882SOL    HW230546   3.116   3.855   4.331
 9883SOL     OW30547   1.828   6.343   2.667
 9883SOL    HW130548   1.888   6.280   2.619
 9883SOL    HW230549   1.860   6.437   2.653
 9884SOL     OW30550   3.243   2.606   5.294
 9884SOL    HW130551   3.309   2.594   5.368
 9884SOL    HW230552   3.195   2.520   5.277
 9885SOL     OW30553   5.117   2.241   5.198
 9885SOL    HW130554   5.205   2.261   5.155
 9885SOL    HW230555   5.124   2.254   5.297
 9886SOL     OW30556   2.604   6.375   1.473
 9886SOL    HW130557   2.674   6.347   1.408
 9886SOL    HW230558   2.599   6.475   1.476
 9887SOL     OW30559   3.924   1.184   0.227
 9887SOL    HW130560   3.984   1.233   0.290
 9887SOL    HW230561   3.898   1.096   0.267
 9888SOL     OW30562   6.298   6.683   4.336
 9888SOL    HW130563   6.206   6.649   4.355
 9888SOL    HW230564   6.314   6.767   4.388
 9889SOL     OW30565   6.674   5.936   2.125
 9889SOL    HW130566   6.581   5.921   2.092
 9889SOL    HW230567   6.739   5.921   2.051
 9890SOL     OW30568   1.817   2.809   3.199
 9890SOL    HW130569   1.740   2.745   3.202
 9890SOL    HW230570   1.861   2.804   3.110
 9891SOL     OW30571   3.774   6.789   1.782
 9891SOL    HW130572   3.721   6.874   1.776
 9891SOL    HW230573   3.870   6.808   1.764
 9892SOL     OW30574   2.191   5.917   3.115
 9892SOL    HW130575   2.134   5.998   3.100
 9892SOL    HW230576   2.199   5.900   3.213
 9893SOL     OW30577   5.967   4.842   5.151
 9893SOL    HW130578   5.928   4.790   5.076
 9893SOL    HW230579   5.896   4.896   5.196
 9894SOL     OW30580   4.208   3.923   5.851
 9894SOL    HW130581   4.241   3.918   5.945
 9894SOL    HW230582   4.130   3.861   5.839
 9895SOL     OW30583   5.128   2.069   5.653
 9895SOL    HW130584   5.077   2.031   5.730
 9895SOL    HW230585   5.206   2.010   5.632
 9896SOL     OW30586   4.306   4.097   0.373
 9896SOL    HW130587   4.221   4.142   0.403
 9896SOL    HW230588   4.286   4.039   0.294
 9897SOL     OW30589   1.271   1.247   2.581
 9897SOL    HW130590   1.177   1.244   2.545
 9897SOL    HW230591   1.306   1.340   2.574
 9898SOL     OW30592   0.325   5.532   0.188
 9898SOL    HW130593   0.343   5.556   0.092
 9898SOL    HW230594   0.410   5.499   0.230
 9899SOL     OW30595   4.298   5.725   1.365
 9899SOL    HW130596   4.326   5.686   1.278
 9899SOL    HW230597   4.229   5.666   1.407
 9900SOL     OW30598   1.965   5.447   3.364
 9900SOL    HW130599   2.041   5.394   3.326
 9900SOL    HW230600   1.886   5.439   3.305
 9901SOL     OW30601   3.098   1.661   5.871
 9901SOL    HW130602   3.127   1.756   5.871
 9901SOL    HW230603   3.057   1.638   5.783
 9902SOL     OW30604   3.957   4.112   0.429
 9902SOL    HW130605   3.864   4.107   0.393
 9902SOL    HW230606   3.961   4.182   0.500
 9903SOL     OW30607   2.468   1.047   1.214
 9903SOL    HW130608   2.401   0.988   1.168
 9903SOL    HW230609   2.555   0.999   1.222
 9904SOL     OW30610   6.713   6.422   2.276
 9904SOL    HW130611   6.762   6.490   2.221
 9904SOL    HW230612   6.703   6.338   2.223
 9905SOL     OW30613   2.501   0.085   0.013
 9905SOL    HW130614   2.473   0.172   6.991
 9905SOL    HW230615   2.545   0.028   6.961
 9906SOL     OW30616   3.657   4.122   5.889
 9906SOL    HW130617   3.697   4.031   5.893
 9906SOL    HW230618   3.632   4.151   5.981
 9907SOL     OW30619   1.033   6.414   2.653
 9907SOL    HW130620   0.986   6.440   2.737
 9907SOL    HW230621   1.131   6.425   2.665
 9908SOL     OW30622   6.752   3.059   4.771
 9908SOL    HW130623   6.846   3.072   4.803
 9908SOL    HW230624   6.689   3.093   4.841
 9909SOL     OW30625   2.532   6.054   3.021
 9909SOL    HW130626   2.455   6.000   2.986
 9909SOL    HW230627   2.564   6.014   3.107
 9910SOL     OW30628   0.659   5.420   0.948
 9910SOL    HW130629   0.567   5.457   0.935
 9910SOL    HW230630   0.686   5.432   1.043
 9911SOL     OW30631   3.946   5.049   2.766
 9911SOL    HW130632   3.959   5.130   2.710
 9911SOL    HW230633   3.861   5.003   2.739
 9912SOL     OW30634   5.836   6.705   6.938
 9912SOL    HW130635   5.822   6.764   7.017
 9912SOL    HW230636   5.934   6.687   6.926
 9913SOL     OW30637   5.840   1.628   3.074
 9913SOL    HW130638   5.775   1.556   3.096
 9913SOL    HW230639   5.844   1.641   2.975
 9914SOL     OW30640   1.825   5.058   4.018
 9914SOL    HW130641   1.775   5.143   4.002
 9914SOL    HW230642   1.891   5.043   3.945
 9915SOL     OW30643   6.060   4.809   4.557
 9915SOL    HW130644   6.059   4.864   4.474
 9915SOL    HW230645   6.018   4.861   4.632
 9916SOL     OW30646   1.808   3.261   0.386
 9916SOL    HW130647   1.896   3.213   0.398
 9916SOL    HW230648   1.766   3.275   0.476
 9917SOL     OW30649   1.639   3.683   4.560
 9917SOL    HW130650   1.539   3.684   4.565
 9917SOL    HW230651   1.671   3.588   4.563
 9918SOL     OW30652   1.827   1.803   4.682
 9918SOL    HW130653   1.774   1.831   4.762
 9918SOL    HW230654   1.836   1.880   4.619
 9919SOL     OW30655   0.719   5.815   1.177
 9919SOL    HW130656   0.809   5.773   1.185
 9919SOL    HW230657   0.707   5.852   1.085
 9920SOL     OW30658   3.064   0.469   3.074
 9920SOL    HW130659   3.106   0.478   3.164
 9920SOL    HW230660   3.099   0.541   3.013
 9921SOL     OW30661   5.039   0.638   2.161
 9921SOL    HW130662   5.030   0.642   2.061
 9921SOL    HW230663   4.950   0.656   2.202
 9922SOL     OW30664   5.970   2.976   2.239
 9922SOL    HW130665   6.032   2.982   2.318
 9922SOL    HW230666   5.981   2.887   2.195
 9923SOL     OW30667   5.715   0.145   6.448
 9923SOL    HW130668   5.696   0.051   6.474
 9923SOL    HW230669   5.727   0.151   6.349
 9924SOL     OW30670   5.560   0.290   3.549
 9924SOL    HW130671   5.573   0.197   3.515
 9924SOL    HW230672   5.630   0.349   3.510
 9925SOL     OW30673   3.955   2.122   5.022
 9925SOL    HW130674   3.975   2.171   4.937
 9925SOL    HW230675   3.980   2.180   5.100
 9926SOL     OW30676   2.178   0.858   5.777
 9926SOL    HW130677   2.252   0.850   5.843
 9926SOL    HW230678   2.214   0.889   5.689
 9927SOL     OW30679   1.499   3.566   3.728
 9927SOL    HW130680   1.420   3.504   3.734
 9927SOL    HW230681   1.532   3.587   3.820
 9928SOL     OW30682   6.750   2.880   2.158
 9928SOL    HW130683   6.749   2.804   2.223
 9928SOL    HW230684   6.819   2.947   2.185
 9929SOL     OW30685   1.085   5.105   4.644
 9929SOL    HW130686   1.141   5.050   4.706
 9929SOL    HW230687   0.991   5.071   4.645
 9930SOL     OW30688   0.025   5.296   6.621
 9930SOL    HW130689   0.107   5.239   6.633
 9930SOL    HW230690   0.024   5.336   6.530
 9931SOL     OW30691   1.881   4.260   0.080
 9931SOL    HW130692   1.974   4.257   0.041
 9931SOL    HW230693   1.822   4.312   0.019
 9932SOL     OW30694   2.210   2.027   1.210
 9932SOL    HW130695   2.309   2.038   1.216
 9932SOL    HW230696   2.188   1.949   1.151
 9933SOL     OW30697   1.043   1.400   3.540
 9933SOL    HW130698   1.068   1.330   3.473
 9933SOL    HW230699   1.069   1.491   3.506
 9934SOL     OW30700   4.987   0.481   6.188
 9934SOL    HW130701   4.961   0.462   6.283
 9934SOL    HW230702   5.068   0.428   6.164
 9935SOL     OW30703   2.665   2.947   0.445
 9935SOL    HW130704   2.602   2.873   0.420
 9935SOL    HW230705   2.613   3.023   0.484
 9936SOL     OW30706   4.429   6.151   0.013
 9936SOL    HW130707   4.464   6.194   6.947
 9936SOL    HW230708   4.506   6.130   0.073
 9937SOL     OW30709   1.558   6.744   4.413
 9937SOL    HW130710   1.493   6.814   4.384
 9937SOL    HW230711   1.522   6.653   4.392
 9938SOL     OW30712   0.268   1.568   3.037
 9938SOL    HW130713   0.277   1.479   2.992
 9938SOL    HW230714   0.198   1.622   2.990
 9939SOL     OW30715   3.031   3.743   0.983
 9939SOL    HW130716   3.048   3.696   1.069
 9939SOL    HW230717   3.056   3.840   0.992
 9940SOL     OW30718   0.457   0.787   3.067
 9940SOL    HW130719   0.408   0.701   3.077
 9940SOL    HW230720   0.549   0.778   3.105
 9941SOL     OW30721   5.923   3.477   0.414
 9941SOL    HW130722   5.946   3.440   0.324
 9941SOL    HW230723   5.826   3.501   0.417
 9942SOL     OW30724   6.036   5.603   2.582
 9942SOL    HW130725   6.077   5.679   2.531
 9942SOL    HW230726   6.108   5.537   2.605
 9943SOL     OW30727   0.973   4.944   4.894
 9943SOL    HW130728   0.897   4.879   4.899
 9943SOL    HW230729   0.987   4.985   4.984
 9944SOL     OW30730   2.566   5.798   6.379
 9944SOL    HW130731   2.612   5.713   6.402
 9944SOL    HW230732   2.627   5.875   6.399
 9945SOL     OW30733   6.270   3.044   5.943
 9945SOL    HW130734   6.228   3.060   5.853
 9945SOL    HW230735   6.293   2.947   5.951
 9946SOL     OW30736   5.632   2.076   1.266
 9946SOL    HW130737   5.685   2.027   1.335
 9946SOL    HW230738   5.692   2.100   1.189
 9947SOL     OW30739   0.700   0.218   3.318
 9947SOL    HW130740   0.798   0.228   3.304
 9947SOL    HW230741   0.653   0.300   3.283
 9948SOL     OW30742   5.212   0.683   5.488
 9948SOL    HW130743   5.202   0.600   5.433
 9948SOL    HW230744   5.263   0.751   5.435
 9949SOL     OW30745   6.891   3.088   2.700
 9949SOL    HW130746   6.826   3.044   2.762
 9949SOL    HW230747   6.858   3.179   2.675
 9950SOL     OW30748   5.173   5.007   6.406
 9950SOL    HW130749   5.190   5.103   6.429
 9950SOL    HW230750   5.193   4.950   6.485
 9951SOL     OW30751   0.021   2.008   2.344
 9951SOL    HW130752   0.054   2.101   2.358
 9951SOL    HW230753   6.975   2.007   2.267
 9952SOL     OW30754   1.464   4.846   1.833
 9952SOL    HW130755   1.376   4.847   1.881
 9952SOL    HW230756   1.464   4.774   1.765
 9953SOL     OW30757   5.861   4.671   4.918
 9953SOL    HW130758   5.816   4.602   4.975
 9953SOL    HW230759   5.860   4.640   4.823
 9954SOL     OW30760   4.335   1.639   1.596
 9954SOL    HW130761   4.418   1.622   1.649
 9954SOL    HW230762   4.293   1.552   1.571
 9955SOL     OW30763   6.522   5.109   1.570
 9955SOL    HW130764   6.466   5.139   1.646
 9955SOL    HW230765   6.516   5.176   1.496
 9956SOL     OW30766   1.661   3.950   3.233
 9956SOL    HW130767   1.604   3.939   3.314
 9956SOL    HW230768   1.720   3.870   3.223
 9957SOL     OW30769   5.836   6.821   0.172
 9957SOL    HW130770   5.887   6.746   0.216
 9957SOL    HW230771   5.743   6.824   0.210
 9958SOL     OW30772   6.669   6.071   5.594
 9958SOL    HW130773   6.675   5.972   5.585
 9958SOL    HW230774   6.637   6.094   5.686
 9959SOL     OW30775   6.031   5.675   6.727
 9959SOL    HW130776   6.069   5.625   6.805
 9959SOL    HW230777   6.092   5.667   6.649
 9960SOL     OW30778   6.725   0.066   6.184
 9960SOL    HW130779   6.644   0.010   6.164
 9960SOL    HW230780   6.706   0.126   6.261
 9961SOL     OW30781   3.459   6.485   0.369
 9961SOL    HW130782   3.373   6.437   0.382
 9961SOL    HW230783   3.509   6.488   0.456
 9962SOL     OW30784   3.347   0.510   1.328
 9962SOL    HW130785   3.414   0.585   1.326
 9962SOL    HW230786   3.306   0.505   1.419
 9963SOL     OW30787   1.134   0.014   6.535
 9963SOL    HW130788   1.099   0.107   6.547
 9963SOL    HW230789   1.233   0.018   6.518
 9964SOL     OW30790   4.606   5.354   5.449
 9964SOL    HW130791   4.591   5.277   5.511
 9964SOL    HW230792   4.518   5.382   5.409
 9965SOL     OW30793   1.719   5.133   4.465
 9965SOL    HW130794   1.799   5.091   4.508
 9965SOL    HW230795   1.743   5.163   4.372
 9966SOL     OW30796   2.356   4.986   1.928
 9966SOL    HW130797   2.363   4.959   2.024
 9966SOL    HW230798   2.287   4.931   1.882
 9967SOL     OW30799   6.905   0.667   2.305
 9967SOL    HW130800   6.998   0.669   2.342
 9967SOL    HW230801   6.840   0.682   2.380
 9968SOL     OW30802   4.795   6.293   0.423
 9968SOL    HW130803   4.758   6.246   0.504
 9968SOL    HW230804   4.859   6.363   0.452
 9969SOL     OW30805   0.572   6.325   3.193
 9969SOL    HW130806   0.626   6.364   3.118
 9969SOL    HW230807   0.576   6.226   3.189
 9970SOL     OW30808   6.963   3.020   1.455
 9970SOL    HW130809   6.884   3.013   1.515
 9970SOL    HW230810   0.002   3.097   1.483
 9971SOL     OW30811   6.581   5.320   5.759
 9971SOL    HW130812   6.590   5.233   5.807
 9971SOL    HW230813   6.493   5.362   5.781
 9972SOL     OW30814   2.826   4.595   5.585
 9972SOL    HW130815   2.817   4.691   5.611
 9972SOL    HW230816   2.816   4.587   5.486
 9973SOL     OW30817   2.757   2.367   3.073
 9973SOL    HW130818   2.816   2.354   2.994
 9973SOL    HW230819   2.668   2.401   3.042
 9974SOL     OW30820   0.968   2.994   3.313
 9974SOL    HW130821   1.066   3.015   3.308
 9974SOL    HW230822   0.950   2.910   3.261
 9975SOL     OW30823   1.118   4.496   0.104
 9975SOL    HW130824   1.064   4.548   0.171
 9975SOL    HW230825   1.210   4.481   0.139
 9976SOL     OW30826   4.328   6.084   5.254
 9976SOL    HW130827   4.306   5.994   5.217
 9976SOL    HW230828   4.427   6.092   5.267
 9977SOL     OW30829   4.486   0.055   5.553
 9977SOL    HW130830   4.408   0.033   5.495
 9977SOL    HW230831   4.542   6.991   5.567
 9978SOL     OW30832   6.630   2.778   0.515
 9978SOL    HW130833   6.699   2.823   0.573
 9978SOL    HW230834   6.614   2.685   0.550
 9979SOL     OW30835   3.724   4.061   3.642
 9979SOL    HW130836   3.754   3.970   3.611
 9979SOL    HW230837   3.761   4.079   3.733
 9980SOL     OW30838   0.341   0.163   6.759
 9980SOL    HW130839   0.264   0.226   6.767
 9980SOL    HW230840   0.402   0.174   6.838
 9981SOL     OW30841   5.687   1.312   1.061
 9981SOL    HW130842   5.767   1.262   1.096
 9981SOL    HW230843   5.604   1.269   1.096
 9982SOL     OW30844   2.704   2.297   5.398
 9982SOL    HW130845   2.653   2.227   5.448
 9982SOL    HW230846   2.753   2.255   5.322
 9983SOL     OW30847   0.223   3.011   2.294
 9983SOL    HW130848   0.316   2.983   2.272
 9983SOL    HW230849   0.218   3.038   2.390
 9984SOL     OW30850   0.899   4.319   1.316
 9984SOL    HW130851   0.962   4.353   1.387
 9984SOL    HW230852   0.937   4.237   1.274
 9985SOL     OW30853   4.530   3.949   6.302
 9985SOL    HW130854   4.610   4.009   6.296
 9985SOL    HW230855   4.447   4.004   6.293
 9986SOL     OW30856   5.818   4.433   6.546
 9986SOL    HW130857   5.886   4.467   6.611
 9986SOL    HW230858   5.822   4.333   6.542
 9987SOL     OW30859   5.208   2.498   1.025
 9987SOL    HW130860   5.154   2.426   1.068
 9987SOL    HW230861   5.197   2.493   0.926
 9988SOL     OW30862   5.743   6.422   3.461
 9988SOL    HW130863   5.791   6.353   3.516
 9988SOL    HW230864   5.690   6.481   3.521
 9989SOL     OW30865   5.988   5.720   1.904
 9989SOL    HW130866   5.981   5.812   1.944
 9989SOL    HW230867   5.902   5.698   1.857
 9990SOL     OW30868   0.534   6.003   3.192
 9990SOL    HW130869   0.448   6.048   3.169
 9990SOL    HW230870   0.530   5.906   3.166
 9991SOL     OW30871   1.923   3.542   2.027
 9991SOL    HW130872   1.877   3.457   2.002
 9991SOL    HW230873   2.022   3.533   2.012
 9992SOL     OW30874   2.043   4.845   0.290
 9992SOL    HW130875   1.957   4.795   0.287
 9992SOL    HW230876   2.120   4.781   0.280
 9993SOL     OW30877   3.189   6.954   4.191
 9993SOL    HW130878   3.185   6.867   4.241
 9993SOL    HW230879   3.218   0.008   4.253
 9994SOL     OW30880   5.665   5.032   5.146
 9994SOL    HW130881   5.580   5.086   5.147
 9994SOL    HW230882   5.700   5.022   5.239
 9995SOL     OW30883   4.430   1.266   6.260
 9995SOL    HW130884   4.346   1.243   6.211
 9995SOL    HW230885   4.420   1.240   6.356
 9996SOL     OW30886   2.561   4.476   0.899
 9996SOL    HW130887   2.544   4.378   0.894
 9996SOL    HW230888   2.614   4.505   0.820
 9997SOL     OW30889   6.206   0.722   2.878
 9997SOL    HW130890   6.134   0.655   2.896
 9997SOL    HW230891   6.208   0.789   2.952
 9998SOL     OW30892   5.218   3.644   2.106
 9998SOL    HW130893   5.121   3.619   2.117
 9998SOL    HW230894   5.259   3.588   2.034
 9999SOL     OW30895   0.535   6.727   5.210
 9999SOL    HW130896   0.538   6.724   5.310
 9999SOL    HW230897   0.462   6.788   5.181
10000SOL     OW30898   4.381   3.081   1.102
10000SOL    HW130899   4.372   3.041   1.193
10000SOL    HW230900   4.299   3.062   1.049
10001SOL     OW30901   3.966   6.628   1.438
10001SOL    HW130902   3.887   6.683   1.464
10001SOL    HW230903   4.032   6.628   1.513
10002SOL     OW30904   2.005   6.538   2.525
10002SOL    HW130905   2.014   6.633   2.493
10002SOL    HW230906   2.089   6.488   2.503
10003SOL     OW30907   0.463   0.940   2.644
10003SOL    HW130908   0.452   1.036   2.670
10003SOL    HW230909   0.383   0.888   2.674
10004SOL     OW30910   6.942   2.999   3.143
10004SOL    HW130911   6.977   2.980   3.052
10004SOL    HW230912   7.015   2.988   3.210
10005SOL     OW30913   2.138   5.835   2.528
10005SOL    HW130914   2.205   5.762   2.512
10005SOL    HW230915   2.164   5.888   2.608
10006SOL     OW30916   5.428   2.002   5.850
10006SOL    HW130917   5.481   2.078   5.811
10006SOL    HW230918   5.383   2.033   5.933
10007SOL     OW30919   1.305   4.901   3.786
10007SOL    HW130920   1.218   4.951   3.785
10007SOL    HW230921   1.312   4.845   3.704
10008SOL     OW30922   3.928   0.674   5.982
10008SOL    HW130923   3.988   0.644   6.056
10008SOL    HW230924   3.939   0.772   5.967
10009SOL     OW30925   1.390   5.140   1.872
10009SOL    HW130926   1.296   5.120   1.901
10009SOL    HW230927   1.443   5.055   1.873
10010SOL     OW30928   1.855   4.490   1.015
10010SOL    HW130929   1.898   4.518   0.929
10010SOL    HW230930   1.842   4.570   1.074
10011SOL     OW30931   3.456   4.032   0.340
10011SOL    HW130932   3.451   3.939   0.377
10011SOL    HW230933   3.484   4.028   0.244
10012SOL     OW30934   5.525   2.042   3.315
10012SOL    HW130935   5.616   2.075   3.291
10012SOL    HW230936   5.463   2.057   3.238
10013SOL     OW30937   0.627   6.278   5.385
10013SOL    HW130938   0.547   6.273   5.445
10013SOL    HW230939   0.706   6.307   5.438
10014SOL     OW30940   1.493   0.883   2.966
10014SOL    HW130941   1.480   0.951   2.894
10014SOL    HW230942   1.480   0.926   3.055
10015SOL     OW30943   4.533   0.232   6.607
10015SOL    HW130944   4.562   0.219   6.512
10015SOL    HW230945   4.444   0.277   6.608
10016SOL     OW30946   3.147   1.075   4.578
10016SOL    HW130947   3.184   1.159   4.618
10016SOL    HW230948   3.217   1.004   4.578
10017SOL     OW30949   2.982   1.116   2.631
10017SOL    HW130950   2.958   1.097   2.726
10017SOL    HW230951   2.900   1.110   2.575
10018SOL     OW30952   0.037   4.949   5.515
10018SOL    HW130953   0.125   4.982   5.550
10018SOL    HW230954   0.054   4.888   5.438
10019SOL     OW30955   6.626   1.725   2.753
10019SOL    HW130956   6.559   1.661   2.792
10019SOL    HW230957   6.665   1.686   2.670
10020SOL     OW30958   6.466   0.699   2.436
10020SOL    HW130959   6.379   0.745   2.420
10020SOL    HW230960   6.499   0.660   2.350
10021SOL     OW30961   1.492   3.161   1.808
10021SOL    HW130962   1.405   3.207   1.790
10021SOL    HW230963   1.538   3.142   1.721
10022SOL     OW30964   1.392   6.766   5.864
10022SOL    HW130965   1.453   6.691   5.890
10022SOL    HW230966   1.374   6.762   5.766
10023SOL     OW30967   1.063   1.927   5.581
10023SOL    HW130968   1.033   1.882   5.664
10023SOL    HW230969   1.042   1.870   5.502
10024SOL     OW30970   2.198   4.131   3.442
10024SOL    HW130971   2.129   4.202   3.426
10024SOL    HW230972   2.265   4.133   3.368
10025SOL     OW30973   0.531   2.666   0.802
10025SOL    HW130974   0.533   2.725   0.883
10025SOL    HW230975   0.574   2.714   0.725
10026SOL     OW30976   6.427   1.173   5.141
10026SOL    HW130977   6.501   1.239   5.131
10026SOL    HW230978   6.460   1.082   5.117
10027SOL     OW30979   3.469   1.241   5.711
10027SOL    HW130980   3.535   1.233   5.636
10027SOL    HW230981   3.488   1.172   5.781
10028SOL     OW30982   3.912   6.819   2.437
10028SOL    HW130983   3.987   6.758   2.463
10028SOL    HW230984   3.830   6.795   2.491
10029SOL     OW30985   6.399   4.847   4.051
10029SOL    HW130986   6.498   4.844   4.036
10029SOL    HW230987   6.379   4.907   4.128
10030SOL     OW30988   2.760   6.798   4.055
10030SOL    HW130989   2.707   6.714   4.063
10030SOL    HW230990   2.858   6.776   4.054
10031SOL     OW30991   1.878   6.284   4.103
10031SOL    HW130992   1.952   6.341   4.067
10031SOL    HW230993   1.879   6.288   4.203
10032SOL     OW30994   2.928   5.580   3.997
10032SOL    HW130995   2.889   5.488   4.001
10032SOL    HW230996   3.027   5.575   4.014
10033SOL     OW30997   2.977   1.200   4.799
10033SOL    HW130998   2.952   1.139   4.723
10033SOL    HW230999   3.071   1.231   4.787
10034SOL     OW31000   2.141   1.104   1.730
10034SOL    HW131001   2.235   1.087   1.762
10034SOL    HW231002   2.081   1.119   1.809
10035SOL     OW31003   0.349   3.322   2.230
10035SOL    HW131004   0.392   3.236   2.204
10035SOL    HW231005   0.331   3.321   2.329
10036SOL     OW31006   0.235   1.266   6.868
10036SOL    HW131007   0.237   1.180   6.816
10036SOL    HW231008   0.318   1.273   6.923
10037SOL     OW31009   6.319   0.528   6.017
10037SOL    HW131010   6.363   0.613   6.046
10037SOL    HW231011   6.347   0.453   6.077
10038SOL     OW31012   5.455   6.688   6.797
10038SOL    HW131013   5.468   6.670   6.700
10038SOL    HW231014   5.490   6.611   6.850
10039SOL     OW31015   0.195   5.376   1.835
10039SOL    HW131016   0.247   5.415   1.910
10039SOL    HW231017   0.189   5.277   1.846
10040SOL     OW31018   2.475   7.003   0.311
10040SOL    HW131019   2.421   7.001   0.228
10040SOL    HW231020   2.428   0.039   0.381
10041SOL     OW31021   5.188   5.248   5.268
10041SOL    HW131022   5.125   5.321   5.243
10041SOL    HW231023   5.136   5.169   5.301
10042SOL     OW31024   6.095   0.714   5.416
10042SOL    HW131025   6.121   0.622   5.446
10042SOL    HW231026   6.173   0.776   5.429
10043SOL     OW31027   0.826   0.549   2.902
10043SOL    HW131028   0.878   0.601   2.834
10043SOL    HW231029   0.744   0.512   2.858
10044SOL     OW31030   2.882   2.297   6.623
10044SOL    HW131031   2.872   2.339   6.713
10044SOL    HW231032   2.929   2.361   6.562
10045SOL     OW31033   4.182   6.935   4.006
10045SOL    HW131034   4.189   0.008   4.048
10045SOL    HW231035   4.188   6.866   4.077
10046SOL     OW31036   6.897   2.102   1.657
10046SOL    HW131037   6.992   2.072   1.649
10046SOL    HW231038   6.895   2.200   1.677
10047SOL     OW31039   1.695   2.521   3.103
10047SOL    HW131040   1.606   2.508   3.059
10047SOL    HW231041   1.682   2.548   3.198
10048SOL     OW31042   3.490   2.606   1.766
10048SOL    HW131043   3.444   2.646   1.845
10048SOL    HW231044   3.534   2.520   1.793
10049SOL     OW31045   1.591   5.786   4.602
10049SOL    HW131046   1.536   5.772   4.685
10049SOL    HW231047   1.539   5.755   4.522
10050SOL     OW31048   5.829   1.537   4.638
10050SOL    HW131049   5.749   1.546   4.577
10050SOL    HW231050   5.882   1.457   4.611
10051SOL     OW31051   6.431   2.138   0.935
10051SOL    HW131052   6.399   2.113   1.026
10051SOL    HW231053   6.516   2.190   0.942
10052SOL     OW31054   2.092   5.081   0.906
10052SOL    HW131055   2.179   5.032   0.907
10052SOL    HW231056   2.083   5.132   0.820
10053SOL     OW31057   2.772   6.113   3.239
10053SOL    HW131058   2.839   6.174   3.282
10053SOL    HW231059   2.801   6.093   3.145
10054SOL     OW31060   4.467   5.235   3.733
10054SOL    HW131061   4.459   5.298   3.810
10054SOL    HW231062   4.535   5.165   3.754
10055SOL     OW31063   5.301   2.844   7.004
10055SOL    HW131064   5.345   2.900   0.056
10055SOL    HW231065   5.280   2.900   6.924
10056SOL     OW31066   5.419   4.059   2.810
10056SOL    HW131067   5.334   4.030   2.854
10056SOL    HW231068   5.404   4.145   2.761
10057SOL     OW31069   2.477   2.639   3.300
10057SOL    HW131070   2.533   2.597   3.228
10057SOL    HW231071   2.429   2.718   3.263
10058SOL     OW31072   0.574   4.857   4.209
10058SOL    HW131073   0.544   4.772   4.166
10058SOL    HW231074   0.618   4.915   4.140
10059SOL     OW31075   5.048   6.948   1.542
10059SOL    HW131076   5.097   6.896   1.612
10059SOL    HW231077   5.111   7.012   1.498
10060SOL     OW31078   2.147   2.631   2.317
10060SOL    HW131079   2.238   2.591   2.329
10060SOL    HW231080   2.155   2.730   2.308
10061SOL     OW31081   6.474   1.822   5.527
10061SOL    HW131082   6.567   1.807   5.495
10061SOL    HW231083   6.440   1.910   5.493
10062SOL     OW31084   5.646   6.334   2.954
10062SOL    HW131085   5.591   6.373   3.028
10062SOL    HW231086   5.629   6.236   2.948
10063SOL     OW31087   0.877   2.512   2.018
10063SOL    HW131088   0.911   2.418   2.011
10063SOL    HW231089   0.953   2.576   2.011
10064SOL     OW31090   4.789   5.641   5.579
10064SOL    HW131091   4.691   5.644   5.594
10064SOL    HW231092   4.836   5.620   5.665
10065SOL     OW31093   0.571   6.908   2.703
10065SOL    HW131094   0.486   6.957   2.717
10065SOL    HW231095   0.647   6.962   2.739
10066SOL     OW31096   0.240   0.741   3.447
10066SOL    HW131097   0.225   0.667   3.513
10066SOL    HW231098   0.154   0.789   3.430
10067SOL     OW31099   4.648   6.712   3.596
10067SOL    HW131100   4.745   6.713   3.570
10067SOL    HW231101   4.640   6.723   3.695
10068SOL     OW31102   5.199   3.511   5.467
10068SOL    HW131103   5.198   3.439   5.397
10068SOL    HW231104   5.232   3.597   5.426
10069SOL     OW31105   5.257   1.314   4.115
10069SOL    HW131106   5.318   1.273   4.047
10069SOL    HW231107   5.163   1.311   4.082
10070SOL     OW31108   1.165   0.127   4.352
10070SOL    HW131109   1.143   0.078   4.436
10070SOL    HW231110   1.243   0.083   4.307
10071SOL     OW31111   5.255   4.839   5.514
10071SOL    HW131112   5.250   4.936   5.494
10071SOL    HW231113   5.201   4.820   5.597
10072SOL     OW31114   1.301   6.781   4.362
10072SOL    HW131115   1.223   6.840   4.379
10072SOL    HW231116   1.291   6.696   4.414
10073SOL     OW31117   6.883   5.698   6.567
10073SOL    HW131118   6.872   5.756   6.487
10073SOL    HW231119   6.843   5.608   6.549
10074SOL     OW31120   2.731   0.039   5.096
10074SOL    HW131121   2.689   6.981   5.047
10074SOL    HW231122   2.668   0.117   5.095
10075SOL     OW31123   1.449   2.591   4.449
10075SOL    HW131124   1.495   2.577   4.536
10075SOL    HW231125   1.455   2.507   4.394
10076SOL     OW31126   5.723   6.941   3.809
10076SOL    HW131127   5.649   6.954   3.743
10076SOL    HW231128   5.784   6.868   3.777
10077SOL     OW31129   2.961   1.594   6.798
10077SOL    HW131130   2.862   1.592   6.813
10077SOL    HW231131   3.001   1.674   6.842
10078SOL     OW31132   5.312   5.952   5.605
10078SOL    HW131133   5.236   5.991   5.657
10078SOL    HW231134   5.330   6.009   5.525
10079SOL     OW31135   0.109   2.574   6.072
10079SOL    HW131136   0.037   2.515   6.109
10079SOL    HW231137   0.139   2.638   6.142
10080SOL     OW31138   0.894   2.726   5.549
10080SOL    HW131139   0.856   2.633   5.542
10080SOL    HW231140   0.850   2.773   5.626
10081SOL     OW31141   0.235   1.459   0.181
10081SOL    HW131142   0.248   1.522   0.105
10081SOL    HW231143   0.324   1.425   0.213
10082SOL     OW31144   6.859   0.443   0.598
10082SOL    HW131145   6.876   0.439   0.696
10082SOL    HW231146   6.885   0.356   0.556
10083SOL     OW31147   5.597   1.417   4.055
10083SOL    HW131148   5.577   1.320   4.044
10083SOL    HW231149   5.580   1.465   3.969
10084SOL     OW31150   2.427   0.738   6.663
10084SOL    HW131151   2.335   0.770   6.638
10084SOL    HW231152   2.489   0.816   6.666
10085SOL     OW31153   0.889   5.134   2.815
10085SOL    HW131154   0.979   5.090   2.819
10085SOL    HW231155   0.834   5.092   2.742
10086SOL     OW31156   6.985   3.334   1.929
10086SOL    HW131157   6.961   3.414   1.874
10086SOL    HW231158   7.002   3.362   2.023
10087SOL     OW31159   1.815   0.568   3.092
10087SOL    HW131160   1.812   0.498   3.020
10087SOL    HW231161   1.911   0.591   3.112
10088SOL     OW31162   6.276   0.351   4.554
10088SOL    HW131163   6.238   0.401   4.476
10088SOL    HW231164   6.202   0.319   4.613
10089SOL     OW31165   2.127   2.219   1.887
10089SOL    HW131166   2.104   2.303   1.935
10089SOL    HW231167   2.060   2.148   1.911
10090SOL     OW31168   0.039   5.454   2.259
10090SOL    HW131169   0.075   5.503   2.180
10090SOL    HW231170   0.046   5.512   2.340
10091SOL     OW31171   0.236   1.878   3.695
10091SOL    HW131172   0.285   1.847   3.776
10091SOL    HW231173   0.300   1.885   3.618
10092SOL     OW31174   1.830   3.018   5.161
10092SOL    HW131175   1.879   3.100   5.191
10092SOL    HW231176   1.737   3.043   5.135
10093SOL     OW31177   0.025   6.339   6.200
10093SOL    HW131178   0.046   6.332   6.298
10093SOL    HW231179   6.946   6.319   6.186
10094SOL     OW31180   1.764   0.673   1.858
10094SOL    HW131181   1.849   0.633   1.895
10094SOL    HW231182   1.780   0.769   1.834
10095SOL     OW31183   0.051   2.181   5.197
10095SOL    HW131184   0.094   2.269   5.180
10095SOL    HW231185   0.052   2.162   5.295
10096SOL     OW31186   0.091   5.572   2.492
10096SOL    HW131187   0.029   5.633   2.543
10096SOL    HW231188   0.172   5.624   2.464
10097SOL     OW31189   0.934   2.537   5.901
10097SOL    HW131190   0.910   2.513   5.807
10097SOL    HW231191   0.884   2.479   5.965
10098SOL     OW31192   3.771   5.052   6.452
10098SOL    HW131193   3.739   5.118   6.384
10098SOL    HW231194   3.802   4.969   6.406
10099SOL     OW31195   6.979   4.812   4.809
10099SOL    HW131196   6.905   4.754   4.774
10099SOL    HW231197   6.944   4.903   4.828
10100SOL     OW31198   4.894   0.436   5.727
10100SOL    HW131199   4.857   0.478   5.645
10100SOL    HW231200   4.871   0.492   5.807
10101SOL     OW31201   6.900   4.642   2.548
10101SOL    HW131202   6.930   4.625   2.642
10101SOL    HW231203   6.942   4.727   2.515
10102SOL     OW31204   3.610   0.186   4.251
10102SOL    HW131205   3.542   0.192   4.177
10102SOL    HW231206   3.567   0.146   4.332
10103SOL     OW31207   0.990   2.286   0.596
10103SOL    HW131208   1.002   2.378   0.558
10103SOL    HW231209   0.894   2.273   0.623
10104SOL     OW31210   2.289   6.063   5.830
10104SOL    HW131211   2.289   6.141   5.767
10104SOL    HW231212   2.208   6.067   5.888
10105SOL     OW31213   3.407   0.605   0.273
10105SOL    HW131214   3.336   0.600   0.343
10105SOL    HW231215   3.434   0.512   0.247
10106SOL     OW31216   4.577   4.992   1.413
10106SOL    HW131217   4.523   5.067   1.453
10106SOL    HW231218   4.635   5.028   1.340
10107SOL     OW31219   5.669   1.325   5.953
10107SOL    HW131220   5.573   1.298   5.943
10107SOL    HW231221   5.720   1.251   5.996
10108SOL     OW31222   5.822   6.270   6.534
10108SOL    HW131223   5.841   6.354   6.483
10108SOL    HW231224   5.748   6.220   6.488
10109SOL     OW31225   4.517   5.775   3.685
10109SOL    HW131226   4.509   5.676   3.699
10109SOL    HW231227   4.611   5.798   3.660
10110SOL     OW31228   3.270   1.138   5.197
10110SOL    HW131229   3.254   1.172   5.290
10110SOL    HW231230   3.195   1.077   5.171
10111SOL     OW31231   6.986   2.538   2.233
10111SOL    HW131232   7.017   2.631   2.251
10111SOL    HW231233   6.945   2.534   2.141
10112SOL     OW31234   4.418   3.263   6.395
10112SOL    HW131235   4.449   3.350   6.434
10112SOL    HW231236   4.483   3.232   6.325
10113SOL     OW31237   4.233   6.885   0.537
10113SOL    HW131238   4.242   6.983   0.517
10113SOL    HW231239   4.310   6.836   0.498
10114SOL     OW31240   4.577   1.268   1.953
10114SOL    HW131241   4.544   1.344   1.898
10114SOL    HW231242   4.576   1.294   2.050
10115SOL     OW31243   0.955   1.722   4.392
10115SOL    HW131244   0.896   1.765   4.324
10115SOL    HW231245   1.045   1.704   4.352
10116SOL     OW31246   0.503   0.602   0.440
10116SOL    HW131247   0.551   0.596   0.527
10116SOL    HW231248   0.493   0.511   0.401
10117SOL     OW31249   4.657   0.302   5.468
10117SOL    HW131250   4.635   0.368   5.539
10117SOL    HW231251   4.633   0.210   5.498
10118SOL     OW31252   6.147   5.612   2.146
10118SOL    HW131253   6.122   5.660   2.062
10118SOL    HW231254   6.078   5.629   2.217
10119SOL     OW31255   2.245   0.413   6.034
10119SOL    HW131256   2.282   0.448   6.121
10119SOL    HW231257   2.279   0.469   5.959
10120SOL     OW31258   5.731   2.882   3.246
10120SOL    HW131259   5.789   2.823   3.302
10120SOL    HW231260   5.778   2.968   3.229
10121SOL     OW31261   5.798   4.776   3.862
10121SOL    HW131262   5.745   4.826   3.793
10121SOL    HW231263   5.822   4.686   3.827
10122SOL     OW31264   5.074   3.100   6.867
10122SOL    HW131265   5.101   3.195   6.851
10122SOL    HW231266   5.095   3.074   6.961
10123SOL     OW31267   0.269   6.868   0.111
10123SOL    HW131268   0.308   6.959   0.129
10123SOL    HW231269   0.239   6.828   0.198
10124SOL     OW31270   3.230   4.424   1.083
10124SOL    HW131271   3.207   4.504   1.140
10124SOL    HW231272   3.228   4.342   1.139
10125SOL     OW31273   2.163   0.504   0.513
10125SOL    HW131274   2.067   0.509   0.485
10125SOL    HW231275   2.198   0.413   0.495
10126SOL     OW31276   5.409   5.050   6.873
10126SOL    HW131277   5.487   5.023   6.930
10126SOL    HW231278   5.434   5.043   6.777
10127SOL     OW31279   3.445   4.834   5.175
10127SOL    HW131280   3.400   4.880   5.252
10127SOL    HW231281   3.396   4.856   5.090
10128SOL     OW31282   0.564   1.736   1.331
10128SOL    HW131283   0.620   1.676   1.389
10128SOL    HW231284   0.468   1.710   1.341
10129SOL     OW31285   5.410   2.437   3.293
10129SOL    HW131286   5.453   2.404   3.209
10129SOL    HW231287   5.430   2.374   3.368
10130SOL     OW31288   6.504   5.950   1.549
10130SOL    HW131289   6.463   6.040   1.561
10130SOL    HW231290   6.589   5.958   1.496
10131SOL     OW31291   0.445   0.335   0.375
10131SOL    HW131292   0.346   0.334   0.385
10131SOL    HW231293   0.481   0.244   0.397
10132SOL     OW31294   2.494   6.858   2.484
10132SOL    HW131295   2.584   6.822   2.460
10132SOL    HW231296   2.470   6.827   2.576
10133SOL     OW31297   5.991   4.858   2.342
10133SOL    HW131298   6.041   4.942   2.366
10133SOL    HW231299   5.932   4.877   2.263
10134SOL     OW31300   0.590   1.676   1.818
10134SOL    HW131301   0.525   1.638   1.752
10134SOL    HW231302   0.619   1.604   1.881
10135SOL     OW31303   2.959   6.082   3.018
10135SOL    HW131304   2.984   6.051   2.926
10135SOL    HW231305   2.923   6.175   3.012
10136SOL     OW31306   6.328   6.825   2.391
10136SOL    HW131307   6.399   6.866   2.333
10136SOL    HW231308   6.310   6.732   2.360
10137SOL     OW31309   5.406   5.207   4.378
10137SOL    HW131310   5.406   5.187   4.280
10137SOL    HW231311   5.431   5.125   4.430
10138SOL     OW31312   5.763   2.122   5.974
10138SOL    HW131313   5.767   2.133   5.875
10138SOL    HW231314   5.709   2.196   6.015
10139SOL     OW31315   3.587   2.940   3.477
10139SOL    HW131316   3.645   2.957   3.398
10139SOL    HW231317   3.518   3.011   3.484
10140SOL     OW31318   1.239   5.238   3.914
10140SOL    HW131319   1.197   5.329   3.910
10140SOL    HW231320   1.332   5.246   3.950
10141SOL     OW31321   2.070   0.546   3.869
10141SOL    HW131322   2.143   0.604   3.903
10141SOL    HW231323   2.008   0.522   3.944
10142SOL     OW31324   5.332   5.931   4.194
10142SOL    HW131325   5.275   5.885   4.262
10142SOL    HW231326   5.297   5.911   4.102
10143SOL     OW31327   4.632   5.911   1.460
10143SOL    HW131328   4.685   5.830   1.434
10143SOL    HW231329   4.608   5.906   1.557
10144SOL     OW31330   2.896   4.776   2.990
10144SOL    HW131331   2.928   4.815   3.077
10144SOL    HW231332   2.823   4.711   3.008
10145SOL     OW31333   2.774   6.897   6.215
10145SOL    HW131334   2.829   6.942   6.285
10145SOL    HW231335   2.729   6.816   6.253
10146SOL     OW31336   4.889   4.784   4.107
10146SOL    HW131337   4.837   4.870   4.107
10146SOL    HW231338   4.978   4.799   4.149
10147SOL     OW31339   5.019   5.778   4.222
10147SOL    HW131340   5.099   5.788   4.281
10147SOL    HW231341   4.985   5.685   4.228
10148SOL     OW31342   6.151   5.364   0.513
10148SOL    HW131343   6.196   5.317   0.589
10148SOL    HW231344   6.059   5.391   0.541
10149SOL     OW31345   4.263   3.288   0.834
10149SOL    HW131346   4.329   3.275   0.760
10149SOL    HW231347   4.273   3.381   0.870
10150SOL     OW31348   5.380   3.978   0.688
10150SOL    HW131349   5.325   4.033   0.624
10150SOL    HW231350   5.477   3.990   0.666
10151SOL     OW31351   0.866   6.256   5.880
10151SOL    HW131352   0.776   6.249   5.838
10151SOL    HW231353   0.894   6.166   5.913
10152SOL     OW31354   0.176   5.674   4.282
10152SOL    HW131355   0.126   5.594   4.249
10152SOL    HW231356   0.265   5.680   4.237
10153SOL     OW31357   5.211   5.913   3.936
10153SOL    HW131358   5.119   5.951   3.934
10153SOL    HW231359   5.232   5.873   3.847
10154SOL     OW31360   6.873   6.048   5.999
10154SOL    HW131361   6.915   6.034   5.909
10154SOL    HW231362   6.923   6.119   6.048
10155SOL     OW31363   3.676   1.651   6.237
10155SOL    HW131364   3.688   1.726   6.302
10155SOL    HW231365   3.677   1.564   6.286
10156SOL     OW31366   5.938   0.077   2.195
10156SOL    HW131367   6.029   0.048   2.226
10156SOL    HW231368   5.931   0.176   2.202
10157SOL     OW31369   4.785   0.664   4.175
10157SOL    HW131370   4.736   0.633   4.094
10157SOL    HW231371   4.883   0.648   4.163
10158SOL     OW31372   4.965   3.023   6.138
10158SOL    HW131373   4.974   2.991   6.044
10158SOL    HW231374   4.902   3.100   6.142
10159SOL     OW31375   1.670   1.121   6.427
10159SOL    HW131376   1.708   1.078   6.509
10159SOL    HW231377   1.742   1.131   6.358
10160SOL     OW31378   0.510   5.935   3.494
10160SOL    HW131379   0.497   5.972   3.402
10160SOL    HW231380   0.422   5.901   3.529
10161SOL     OW31381   2.195   5.806   5.331
10161SOL    HW131382   2.135   5.727   5.336
10161SOL    HW231383   2.289   5.778   5.353
10162SOL     OW31384   3.456   2.779   6.694
10162SOL    HW131385   3.522   2.738   6.757
10162SOL    HW231386   3.490   2.772   6.601
10163SOL     OW31387   0.181   3.133   5.855
10163SOL    HW131388   0.174   3.144   5.954
10163SOL    HW231389   0.089   3.132   5.815
10164SOL     OW31390   1.254   2.413   5.540
10164SOL    HW131391   1.335   2.410   5.599
10164SOL    HW231392   1.281   2.394   5.446
10165SOL     OW31393   0.205   1.898   2.943
10165SOL    HW131394   0.273   1.825   2.940
10165SOL    HW231395   0.249   1.986   2.926
10166SOL     OW31396   0.708   1.259   1.950
10166SOL    HW131397   0.649   1.221   1.878
10166SOL    HW231398   0.667   1.240   2.039
10167SOL     OW31399   5.091   0.692   0.777
10167SOL    HW131400   5.160   0.707   0.706
10167SOL    HW231401   5.134   0.655   0.859
10168SOL     OW31402   6.515   4.673   4.650
10168SOL    HW131403   6.475   4.694   4.739
10168SOL    HW231404   6.452   4.701   4.578
10169SOL     OW31405   6.632   4.199   4.372
10169SOL    HW131406   6.637   4.194   4.471
10169SOL    HW231407   6.561   4.265   4.345
10170SOL     OW31408   1.355   3.932   4.805
10170SOL    HW131409   1.349   4.029   4.828
10170SOL    HW231410   1.304   3.878   4.872
10171SOL     OW31411   5.758   3.253   6.430
10171SOL    HW131412   5.691   3.318   6.465
10171SOL    HW231413   5.781   3.188   6.501
10172SOL     OW31414   4.525   0.910   4.228
10172SOL    HW131415   4.460   0.986   4.222
10172SOL    HW231416   4.618   0.946   4.218
10173SOL     OW31417   2.465   2.303   3.230
10173SOL    HW131418   2.555   2.333   3.260
10173SOL    HW231419   2.437   2.356   3.150
10174SOL     OW31420   5.958   4.184   0.982
10174SOL    HW131421   6.029   4.143   1.038
10174SOL    HW231422   5.943   4.128   0.901
10175SOL     OW31423   5.810   2.419   5.768
10175SOL    HW131424   5.896   2.368   5.770
10175SOL    HW231425   5.733   2.355   5.768
10176SOL     OW31426   2.204   3.464   0.308
10176SOL    HW131427   2.287   3.518   0.304
10176SOL    HW231428   2.169   3.464   0.402
10177SOL     OW31429   2.139   0.025   5.453
10177SOL    HW131430   2.228   0.061   5.481
10177SOL    HW231431   2.102   0.080   5.378
10178SOL     OW31432   5.455   3.018   5.489
10178SOL    HW131433   5.473   3.117   5.492
10178SOL    HW231434   5.401   2.997   5.408
10179SOL     OW31435   0.061   3.512   6.436
10179SOL    HW131436   6.984   3.538   6.453
10179SOL    HW231437   0.086   3.536   6.342
10180SOL     OW31438   2.204   6.661   5.670
10180SOL    HW131439   2.270   6.607   5.724
10180SOL    HW231440   2.131   6.600   5.638
10181SOL     OW31441   5.907   3.292   1.518
10181SOL    HW131442   5.944   3.383   1.495
10181SOL    HW231443   5.902   3.282   1.617
10182SOL     OW31444   4.483   1.335   0.159
10182SOL    HW131445   4.484   1.434   0.145
10182SOL    HW231446   4.550   1.310   0.229
10183SOL     OW31447   1.930   1.317   6.600
10183SOL    HW131448   1.903   1.354   6.689
10183SOL    HW231449   1.913   1.386   6.530
10184SOL     OW31450   4.855   0.129   6.925
10184SOL    HW131451   4.894   0.216   6.895
10184SOL    HW231452   4.778   0.105   6.867
10185SOL     OW31453   4.862   1.085   0.164
10185SOL    HW131454   4.938   1.031   0.127
10185SOL    HW231455   4.776   1.044   0.134
10186SOL     OW31456   5.012   2.141   3.021
10186SOL    HW131457   4.940   2.199   2.984
10186SOL    HW231458   5.065   2.192   3.088
10187SOL     OW31459   1.000   2.260   2.057
10187SOL    HW131460   0.969   2.232   2.148
10187SOL    HW231461   1.017   2.178   2.002
10188SOL     OW31462   3.810   4.914   0.624
10188SOL    HW131463   3.814   4.851   0.546
10188SOL    HW231464   3.903   4.934   0.654
10189SOL     OW31465   1.404   6.909   5.619
10189SOL    HW131466   1.351   6.982   5.661
10189SOL    HW231467   1.345   6.853   5.561
10190SOL     OW31468   4.679   2.586   6.863
10190SOL    HW131469   4.587   2.560   6.836
10190SOL    HW231470   4.743   2.565   6.789
10191SOL     OW31471   6.695   5.026   6.678
10191SOL    HW131472   6.695   5.122   6.649
10191SOL    HW231473   6.714   4.967   6.600
10192SOL     OW31474   3.540   1.456   0.360
10192SOL    HW131475   3.566   1.398   0.282
10192SOL    HW231476   3.466   1.517   0.332
10193SOL     OW31477   4.155   4.370   0.516
10193SOL    HW131478   4.228   4.327   0.568
10193SOL    HW231479   4.068   4.359   0.563
10194SOL     OW31480   4.972   2.970   5.324
10194SOL    HW131481   4.972   2.953   5.225
10194SOL    HW231482   5.007   2.890   5.372
10195SOL     OW31483   6.035   4.297   1.813
10195SOL    HW131484   6.019   4.373   1.750
10195SOL    HW231485   5.951   4.277   1.863
10196SOL     OW31486   0.308   1.781   4.687
10196SOL    HW131487   0.398   1.824   4.690
10196SOL    HW231488   0.240   1.842   4.727
10197SOL     OW31489   5.655   0.761   6.691
10197SOL    HW131490   5.627   0.674   6.650
10197SOL    HW231491   5.577   0.803   6.738
10198SOL     OW31492   4.172   6.640   3.586
10198SOL    HW131493   4.222   6.678   3.664
10198SOL    HW231494   4.129   6.715   3.536
10199SOL     OW31495   0.537   2.209   5.293
10199SOL    HW131496   0.457   2.268   5.297
10199SOL    HW231497   0.508   2.114   5.283
10200SOL     OW31498   4.841   1.754   1.757
10200SOL    HW131499   4.861   1.820   1.685
10200SOL    HW231500   4.926   1.714   1.791
10201SOL     OW31501   1.296   3.810   0.961
10201SOL    HW131502   1.298   3.891   0.902
10201SOL    HW231503   1.341   3.733   0.914
10202SOL     OW31504   5.098   0.778   3.896
10202SOL    HW131505   5.130   0.843   3.965
10202SOL    HW231506   5.173   0.719   3.869
10203SOL     OW31507   6.940   2.779   4.474
10203SOL    HW131508   0.002   2.740   4.519
10203SOL    HW231509   6.863   2.716   4.484
10204SOL     OW31510   5.758   4.849   6.643
10204SOL    HW131511   5.791   4.818   6.553
10204SOL    HW231512   5.835   4.882   6.697
10205SOL     OW31513   0.332   1.477   6.501
10205SOL    HW131514   0.342   1.384   6.537
10205SOL    HW231515   0.285   1.534   6.568
10206SOL     OW31516   2.035   1.641   4.777
10206SOL    HW131517   1.975   1.708   4.735
10206SOL    HW231518   2.021   1.641   4.876
10207SOL     OW31519   2.462   2.657   5.838
10207SOL    HW131520   2.560   2.676   5.833
10207SOL    HW231521   2.442   2.570   5.791
10208SOL     OW31522   0.057   6.563   5.487
10208SOL    HW131523   0.120   6.500   5.441
10208SOL    HW231524   7.017   6.511   5.550
10209SOL     OW31525   6.921   6.458   5.706
10209SOL    HW131526   6.844   6.405   5.743
10209SOL    HW231527   7.007   6.420   5.738
10210SOL     OW31528   3.740   0.391   1.800
10210SOL    HW131529   3.674   0.465   1.784
10210SOL    HW231530   3.712   0.339   1.881
10211SOL     OW31531   5.095   5.456   6.156
10211SOL    HW131532   5.055   5.450   6.064
10211SOL    HW231533   5.125   5.550   6.174
10212SOL     OW31534   0.788   0.620   6.582
10212SOL    HW131535   0.690   0.637   6.585
10212SOL    HW231536   0.807   0.527   6.613
10213SOL     OW31537   6.770   2.520   0.982
10213SOL    HW131538   6.709   2.566   0.919
10213SOL    HW231539   6.839   2.585   1.016
10214SOL     OW31540   1.485   2.740   0.129
10214SOL    HW131541   1.479   2.643   0.153
10214SOL    HW231542   1.446   2.754   0.038
10215SOL     OW31543   3.080   3.960   2.964
10215SOL    HW131544   3.159   3.899   2.959
10215SOL    HW231545   2.996   3.906   2.974
10216SOL     OW31546   0.598   6.066   2.127
10216SOL    HW131547   0.537   6.123   2.071
10216SOL    HW231548   0.562   6.061   2.221
10217SOL     OW31549   4.221   1.787   5.133
10217SOL    HW131550   4.122   1.794   5.118
10217SOL    HW231551   4.259   1.717   5.072
10218SOL     OW31552   1.226   3.300   2.729
10218SOL    HW131553   1.296   3.335   2.667
10218SOL    HW231554   1.261   3.299   2.823
10219SOL     OW31555   0.275   6.080   3.078
10219SOL    HW131556   0.323   6.110   2.996
10219SOL    HW231557   0.177   6.075   3.060
10220SOL     OW31558   3.244   3.068   0.182
10220SOL    HW131559   3.199   3.066   0.272
10220SOL    HW231560   3.342   3.048   0.193
10221SOL     OW31561   1.042   5.127   3.288
10221SOL    HW131562   1.088   5.062   3.348
10221SOL    HW231563   0.995   5.195   3.343
10222SOL     OW31564   3.224   3.654   3.811
10222SOL    HW131565   3.275   3.568   3.821
10222SOL    HW231566   3.126   3.633   3.804
10223SOL     OW31567   2.533   6.582   1.231
10223SOL    HW131568   2.526   6.573   1.330
10223SOL    HW231569   2.444   6.563   1.189
10224SOL     OW31570   6.608   3.349   3.249
10224SOL    HW131571   6.692   3.317   3.294
10224SOL    HW231572   6.567   3.274   3.198
10225SOL     OW31573   1.839   3.783   5.834
10225SOL    HW131574   1.810   3.770   5.739
10225SOL    HW231575   1.939   3.780   5.840
10226SOL     OW31576   4.878   4.235   0.102
10226SOL    HW131577   4.799   4.189   0.062
10226SOL    HW231578   4.861   4.251   0.200
10227SOL     OW31579   5.714   3.773   1.477
10227SOL    HW131580   5.741   3.849   1.417
10227SOL    HW231581   5.773   3.772   1.558
10228SOL     OW31582   5.260   0.234   0.731
10228SOL    HW131583   5.179   0.202   0.781
10228SOL    HW231584   5.342   0.195   0.772
10229SOL     OW31585   0.015   2.590   4.944
10229SOL    HW131586   0.009   2.677   4.894
10229SOL    HW231587   0.081   2.530   4.899
10230SOL     OW31588   6.889   6.281   1.436
10230SOL    HW131589   6.834   6.292   1.520
10230SOL    HW231590   6.856   6.344   1.366
10231SOL     OW31591   0.160   4.342   2.492
10231SOL    HW131592   0.172   4.345   2.591
10231SOL    HW231593   0.201   4.424   2.451
10232SOL     OW31594   4.638   4.700   2.780
10232SOL    HW131595   4.588   4.614   2.790
10232SOL    HW231596   4.584   4.775   2.818
10233SOL     OW31597   2.527   4.224   5.298
10233SOL    HW131598   2.449   4.241   5.359
10233SOL    HW231599   2.506   4.146   5.239
10234SOL     OW31600   0.464   0.751   2.043
10234SOL    HW131601   0.527   0.808   1.990
10234SOL    HW231602   0.466   0.779   2.139
10235SOL     OW31603   1.337   1.309   3.316
10235SOL    HW131604   1.352   1.238   3.247
10235SOL    HW231605   1.358   1.399   3.276
10236SOL     OW31606   0.608   0.417   2.735
10236SOL    HW131607   0.540   0.436   2.665
10236SOL    HW231608   0.696   0.395   2.692
10237SOL     OW31609   6.910   3.409   5.229
10237SOL    HW131610   7.006   3.385   5.220
10237SOL    HW231611   6.900   3.508   5.238
10238SOL     OW31612   2.816   6.665   1.254
10238SOL    HW131613   2.726   6.620   1.250
10238SOL    HW231614   2.850   6.679   1.161
10239SOL     OW31615   0.947   2.436   5.125
10239SOL    HW131616   0.856   2.396   5.140
10239SOL    HW231617   0.937   2.525   5.080
10240SOL     OW31618   2.285   5.994   1.334
10240SOL    HW131619   2.227   6.053   1.390
10240SOL    HW231620   2.369   6.043   1.309
10241SOL     OW31621   4.467   3.807   1.650
10241SOL    HW131622   4.380   3.790   1.697
10241SOL    HW231623   4.476   3.905   1.632
10242SOL     OW31624   6.856   3.624   0.725
10242SOL    HW131625   6.955   3.612   0.719
10242SOL    HW231626   6.832   3.718   0.701
10243SOL     OW31627   2.946   5.799   2.092
10243SOL    HW131628   2.876   5.753   2.038
10243SOL    HW231629   3.024   5.738   2.104
10244SOL     OW31630   2.720   4.962   2.027
10244SOL    HW131631   2.784   4.888   2.048
10244SOL    HW231632   2.640   4.925   1.981
10245SOL     OW31633   5.314   4.250   1.031
10245SOL    HW131634   5.361   4.270   1.117
10245SOL    HW231635   5.381   4.218   0.964
10246SOL     OW31636   3.445   3.156   4.011
10246SOL    HW131637   3.378   3.163   3.937
10246SOL    HW231638   3.455   3.061   4.039
10247SOL     OW31639   0.716   2.524   4.571
10247SOL    HW131640   0.790   2.552   4.633
10247SOL    HW231641   0.746   2.537   4.477
10248SOL     OW31642   0.302   1.346   5.339
10248SOL    HW131643   0.281   1.249   5.337
10248SOL    HW231644   0.389   1.363   5.294
10249SOL     OW31645   2.565   4.651   6.146
10249SOL    HW131646   2.541   4.562   6.108
10249SOL    HW231647   2.646   4.686   6.100
10250SOL     OW31648   3.187   2.319   0.790
10250SOL    HW131649   3.116   2.386   0.813
10250SOL    HW231650   3.271   2.366   0.766
10251SOL     OW31651   1.701   0.897   4.689
10251SOL    HW131652   1.766   0.947   4.633
10251SOL    HW231653   1.647   0.836   4.631
10252SOL     OW31654   4.353   4.448   5.902
10252SOL    HW131655   4.364   4.367   5.960
10252SOL    HW231656   4.279   4.431   5.836
10253SOL     OW31657   3.716   6.239   6.720
10253SOL    HW131658   3.655   6.270   6.793
10253SOL    HW231659   3.802   6.207   6.759
10254SOL     OW31660   6.645   1.332   6.084
10254SOL    HW131661   6.731   1.313   6.036
10254SOL    HW231662   6.584   1.383   6.024
10255SOL     OW31663   3.973   4.438   1.620
10255SOL    HW131664   4.039   4.471   1.688
10255SOL    HW231665   4.017   4.372   1.560
10256SOL     OW31666   3.187   1.475   4.457
10256SOL    HW131667   3.159   1.544   4.524
10256SOL    HW231668   3.206   1.519   4.370
10257SOL     OW31669   3.873   5.653   3.258
10257SOL    HW131670   3.918   5.599   3.186
10257SOL    HW231671   3.831   5.734   3.217
10258SOL     OW31672   2.288   1.784   2.660
10258SOL    HW131673   2.305   1.787   2.562
10258SOL    HW231674   2.271   1.689   2.689
10259SOL     OW31675   1.246   3.520   4.220
10259SOL    HW131676   1.201   3.453   4.161
10259SOL    HW231677   1.186   3.543   4.297
10260SOL     OW31678   0.600   6.998   3.386
10260SOL    HW131679   0.649   0.066   3.372
10260SOL    HW231680   0.518   6.997   3.328
10261SOL     OW31681   0.133   4.123   0.815
10261SOL    HW131682   0.152   4.104   0.719
10261SOL    HW231683   0.212   4.095   0.870
10262SOL     OW31684   3.483   0.650   6.940
10262SOL    HW131685   3.522   0.686   0.007
10262SOL    HW231686   3.534   0.568   6.912
10263SOL     OW31687   5.710   0.467   2.694
10263SOL    HW131688   5.662   0.513   2.769
10263SOL    HW231689   5.727   0.372   2.719
10264SOL     OW31690   6.574   0.516   6.348
10264SOL    HW131691   6.638   0.504   6.273
10264SOL    HW231692   6.513   0.437   6.353
10265SOL     OW31693   1.956   1.746   2.026
10265SOL    HW131694   1.883   1.812   2.046
10265SOL    HW231695   2.019   1.784   1.959
10266SOL     OW31696   2.837   3.548   1.468
10266SOL    HW131697   2.764   3.485   1.440
10266SOL    HW231698   2.897   3.502   1.534
10267SOL     OW31699   6.529   0.385   0.699
10267SOL    HW131700   6.433   0.378   0.671
10267SOL    HW231701   6.575   0.455   0.645
10268SOL     OW31702   3.253   5.734   2.719
10268SOL    HW131703   3.304   5.735   2.632
10268SOL    HW231704   3.159   5.705   2.702
10269SOL     OW31705   2.123   1.385   0.438
10269SOL    HW131706   2.096   1.340   0.353
10269SOL    HW231707   2.106   1.323   0.515
10270SOL     OW31708   2.874   0.122   3.548
10270SOL    HW131709   2.840   0.216   3.560
10270SOL    HW231710   2.973   0.121   3.565
10271SOL     OW31711   2.073   0.999   6.813
10271SOL    HW131712   2.140   0.950   6.870
10271SOL    HW231713   2.114   1.084   6.779
10272SOL     OW31714   6.249   6.703   4.711
10272SOL    HW131715   6.279   6.745   4.797
10272SOL    HW231716   6.158   6.738   4.688
10273SOL     OW31717   1.996   5.012   3.775
10273SOL    HW131718   1.961   4.980   3.687
10273SOL    HW231719   2.042   5.099   3.763
10274SOL     OW31720   1.045   3.968   5.129
10274SOL    HW131721   0.948   3.968   5.155
10274SOL    HW231722   1.080   4.061   5.128
10275SOL     OW31723   6.663   1.574   2.102
10275SOL    HW131724   6.671   1.592   2.004
10275SOL    HW231725   6.597   1.637   2.142
10276SOL     OW31726   2.862   5.547   5.293
10276SOL    HW131727   2.919   5.629   5.294
10276SOL    HW231728   2.765   5.573   5.295
10277SOL     OW31729   1.132   5.484   3.922
10277SOL    HW131730   1.035   5.500   3.905
10277SOL    HW231731   1.184   5.565   3.897
10278SOL     OW31732   6.485   0.146   4.507
10278SOL    HW131733   6.573   0.164   4.551
10278SOL    HW231734   6.414   0.202   4.551
10279SOL     OW31735   1.081   4.815   3.997
10279SOL    HW131736   1.112   4.866   4.078
10279SOL    HW231737   1.082   4.876   3.918
10280SOL     OW31738   6.263   5.130   0.252
10280SOL    HW131739   6.192   5.178   0.304
10280SOL    HW231740   6.223   5.092   0.168
10281SOL     OW31741   6.365   0.540   3.598
10281SOL    HW131742   6.366   0.448   3.559
10281SOL    HW231743   6.358   0.608   3.525
10282SOL     OW31744   5.029   2.754   3.165
10282SOL    HW131745   4.947   2.811   3.172
10282SOL    HW231746   5.098   2.801   3.111
10283SOL     OW31747   0.554   2.618   1.121
10283SOL    HW131748   0.527   2.522   1.112
10283SOL    HW231749   0.645   2.631   1.082
10284SOL     OW31750   0.330   4.622   4.346
10284SOL    HW131751   0.317   4.546   4.410
10284SOL    HW231752   0.424   4.655   4.352
10285SOL     OW31753   0.107   6.746   6.322
10285SOL    HW131754   0.119   6.675   6.252
10285SOL    HW231755   0.015   6.784   6.315
10286SOL     OW31756   2.756   1.492   2.590
10286SOL    HW131757   2.852   1.510   2.569
10286SOL    HW231758   2.712   1.576   2.620
10287SOL     OW31759   1.157   5.545   2.590
10287SOL    HW131760   1.098   5.579   2.517
10287SOL    HW231761   1.107   5.478   2.645
10288SOL     OW31762   3.684   6.275   4.591
10288SOL    HW131763   3.666   6.361   4.638
10288SOL    HW231764   3.734   6.293   4.507
10289SOL     OW31765   4.202   6.312   0.156
10289SOL    HW131766   4.284   6.280   0.109
10289SOL    HW231767   4.199   6.275   0.249
10290SOL     OW31768   2.821   3.453   2.306
10290SOL    HW131769   2.844   3.544   2.274
10290SOL    HW231770   2.781   3.400   2.231
10291SOL     OW31771   2.413   2.162   2.280
10291SOL    HW131772   2.507   2.195   2.274
10291SOL    HW231773   2.413   2.062   2.284
10292SOL     OW31774   6.962   6.964   5.745
10292SOL    HW131775   0.019   6.985   5.808
10292SOL    HW231776   6.992   6.895   5.679
10293SOL     OW31777   1.192   3.788   4.961
10293SOL    HW131778   1.229   3.707   5.005
10293SOL    HW231779   1.172   3.857   5.030
10294SOL     OW31780   2.699   0.274   2.179
10294SOL    HW131781   2.659   0.362   2.203
10294SOL    HW231782   2.644   0.231   2.107
10295SOL     OW31783   1.266   1.616   0.594
10295SOL    HW131784   1.295   1.710   0.574
10295SOL    HW231785   1.205   1.584   0.522
10296SOL     OW31786   6.507   2.011   6.074
10296SOL    HW131787   6.445   2.083   6.105
10296SOL    HW231788   6.504   1.935   6.138
10297SOL     OW31789   4.260   0.933   0.843
10297SOL    HW131790   4.266   1.026   0.807
10297SOL    HW231791   4.184   0.885   0.799
10298SOL     OW31792   1.120   1.965   2.132
10298SOL    HW131793   1.069   1.961   2.046
10298SOL    HW231794   1.207   2.012   2.117
10299SOL     OW31795   4.605   0.210   2.563
10299SOL    HW131796   4.635   0.136   2.623
10299SOL    HW231797   4.524   0.254   2.602
10300SOL     OW31798   1.303   3.074   1.008
10300SOL    HW131799   1.359   2.994   0.987
10300SOL    HW231800   1.288   3.127   0.925
10301SOL     OW31801   3.902   0.907   0.259
10301SOL    HW131802   3.988   0.898   0.309
10301SOL    HW231803   3.843   0.829   0.278
10302SOL     OW31804   3.319   6.625   5.142
10302SOL    HW131805   3.328   6.722   5.164
10302SOL    HW231806   3.241   6.613   5.080
10303SOL     OW31807   0.089   4.729   4.579
10303SOL    HW131808   0.047   4.759   4.665
10303SOL    HW231809   0.023   4.737   4.505
10304SOL     OW31810   5.492   6.370   0.988
10304SOL    HW131811   5.541   6.443   1.036
10304SOL    HW231812   5.451   6.407   0.905
10305SOL     OW31813   2.842   3.954   5.399
10305SOL    HW131814   2.823   4.051   5.384
10305SOL    HW231815   2.862   3.910   5.312
10306SOL     OW31816   3.996   0.937   0.725
10306SOL    HW131817   3.917   0.875   0.725
10306SOL    HW231818   3.971   1.023   0.768
10307SOL     OW31819   1.886   0.004   5.158
10307SOL    HW131820   1.943   0.082   5.184
10307SOL    HW231821   1.877   0.002   5.058
10308SOL     OW31822   3.109   4.605   1.701
10308SOL    HW131823   3.200   4.569   1.678
10308SOL    HW231824   3.050   4.529   1.729
10309SOL     OW31825   0.205   0.828   6.045
10309SOL    HW131826   0.170   0.747   6.000
10309SOL    HW231827   0.305   0.823   6.051
10310SOL     OW31828   2.971   4.131   5.654
10310SOL    HW131829   2.989   4.082   5.569
10310SOL    HW231830   3.057   4.163   5.693
10311SOL     OW31831   5.424   5.975   0.176
10311SOL    HW131832   5.452   6.056   0.125
10311SOL    HW231833   5.504   5.920   0.198
10312SOL     OW31834   3.131   6.895   2.482
10312SOL    HW131835   3.196   6.957   2.527
10312SOL    HW231836   3.074   6.948   2.419
10313SOL     OW31837   4.888   0.022   2.518
10313SOL    HW131838   4.943   6.957   2.526
10313SOL    HW231839   4.827   0.029   2.596
10314SOL     OW31840   0.628   0.293   0.839
10314SOL    HW131841   0.701   0.230   0.865
10314SOL    HW231842   0.617   0.363   0.910
10315SOL     OW31843   5.303   5.184   3.359
10315SOL    HW131844   5.333   5.133   3.279
10315SOL    HW231845   5.247   5.126   3.418
10316SOL     OW31846   0.694   1.783   0.155
10316SOL    HW131847   0.785   1.752   0.182
10316SOL    HW231848   0.697   1.821   0.063
10317SOL     OW31849   3.758   6.090   5.122
10317SOL    HW131850   3.696   6.013   5.110
10317SOL    HW231851   3.848   6.066   5.086
10318SOL     OW31852   6.289   0.772   0.506
10318SOL    HW131853   6.264   0.702   0.572
10318SOL    HW231854   6.360   0.831   0.545
10319SOL     OW31855   0.481   4.640   4.114
10319SOL    HW131856   0.421   4.659   4.192
10319SOL    HW231857   0.462   4.548   4.080
10320SOL     OW31858   0.129   0.012   2.977
10320SOL    HW131859   0.083   6.969   2.912
10320SOL    HW231860   0.094   7.013   3.069
10321SOL     OW31861   5.957   2.848   2.719
10321SOL    HW131862   6.051   2.854   2.752
10321SOL    HW231863   5.940   2.758   2.680
10322SOL     OW31864   4.586   4.523   4.924
10322SOL    HW131865   4.605   4.427   4.945
10322SOL    HW231866   4.487   4.538   4.926
10323SOL     OW31867   1.119   4.130   5.837
10323SOL    HW131868   1.142   4.069   5.761
10323SOL    HW231869   1.148   4.088   5.923
10324SOL     OW31870   3.083   3.061   2.635
10324SOL    HW131871   2.985   3.041   2.637
10324SOL    HW231872   3.124   3.016   2.555
10325SOL     OW31873   5.862   6.060   4.560
10325SOL    HW131874   5.764   6.076   4.577
10325SOL    HW231875   5.915   6.090   4.640
10326SOL     OW31876   5.342   3.237   6.523
10326SOL    HW131877   5.272   3.284   6.470
10326SOL    HW231878   5.371   3.155   6.473
10327SOL     OW31879   2.302   5.534   6.648
10327SOL    HW131880   2.348   5.492   6.570
10327SOL    HW231881   2.359   5.608   6.684
10328SOL     OW31882   5.450   2.208   2.321
10328SOL    HW131883   5.498   2.296   2.313
10328SOL    HW231884   5.356   2.225   2.350
10329SOL     OW31885   3.287   1.961   2.225
10329SOL    HW131886   3.212   1.949   2.160
10329SOL    HW231887   3.359   2.017   2.183
10330SOL     OW31888   5.638   0.667   1.727
10330SOL    HW131889   5.681   0.678   1.817
10330SOL    HW231890   5.639   0.571   1.702
10331SOL     OW31891   5.706   6.086   5.631
10331SOL    HW131892   5.706   6.124   5.723
10331SOL    HW231893   5.661   6.149   5.568
10332SOL     OW31894   1.636   1.932   6.245
10332SOL    HW131895   1.561   1.868   6.262
10332SOL    HW231896   1.607   2.025   6.271
10333SOL     OW31897   1.224   3.299   4.522
10333SOL    HW131898   1.221   3.228   4.591
10333SOL    HW231899   1.305   3.288   4.465
10334SOL     OW31900   3.342   1.823   4.058
10334SOL    HW131901   3.287   1.825   3.974
10334SOL    HW231902   3.306   1.891   4.123
10335SOL     OW31903   1.690   2.563   5.412
10335SOL    HW131904   1.787   2.538   5.420
10335SOL    HW231905   1.675   2.651   5.458
10336SOL     OW31906   5.704   6.783   3.082
10336SOL    HW131907   5.687   6.787   2.983
10336SOL    HW231908   5.747   6.696   3.105
10337SOL     OW31909   6.311   5.970   6.804
10337SOL    HW131910   6.256   6.040   6.759
10337SOL    HW231911   6.262   5.937   6.885
10338SOL     OW31912   1.309   6.490   1.438
10338SOL    HW131913   1.356   6.525   1.519
10338SOL    HW231914   1.319   6.556   1.363
10339SOL     OW31915   5.854   2.639   6.051
10339SOL    HW131916   5.761   2.607   6.068
10339SOL    HW231917   5.871   2.641   5.952
10340SOL     OW31918   1.996   3.933   6.128
10340SOL    HW131919   2.046   3.848   6.145
10340SOL    HW231920   2.059   4.004   6.100
10341SOL     OW31921   2.392   4.350   3.725
10341SOL    HW131922   2.416   4.370   3.630
10341SOL    HW231923   2.450   4.403   3.786
10342SOL     OW31924   0.442   0.949   3.920
10342SOL    HW131925   0.475   0.961   3.826
10342SOL    HW231926   0.462   0.856   3.951
10343SOL     OW31927   3.853   5.302   1.690
10343SOL    HW131928   3.934   5.243   1.695
10343SOL    HW231929   3.826   5.330   1.782
10344SOL     OW31930   4.987   6.714   6.815
10344SOL    HW131931   4.910   6.751   6.763
10344SOL    HW231932   5.018   6.629   6.771
10345SOL     OW31933   1.634   3.915   4.174
10345SOL    HW131934   1.579   3.914   4.258
10345SOL    HW231935   1.612   3.998   4.122
10346SOL     OW31936   0.154   6.406   0.126
10346SOL    HW131937   0.228   6.393   0.192
10346SOL    HW231938   0.175   6.357   0.042
10347SOL     OW31939   5.785   2.037   5.128
10347SOL    HW131940   5.860   2.055   5.066
10347SOL    HW231941   5.820   1.988   5.209
10348SOL     OW31942   0.084   5.179   1.211
10348SOL    HW131943   0.176   5.215   1.199
10348SOL    HW231944   0.081   5.121   1.293
10349SOL     OW31945   0.497   6.727   6.070
10349SOL    HW131946   0.537   6.772   5.990
10349SOL    HW231947   0.551   6.747   6.151
10350SOL     OW31948   3.354   0.308   6.250
10350SOL    HW131949   3.309   0.352   6.172
10350SOL    HW231950   3.346   0.368   6.330
10351SOL     OW31951   4.245   5.277   5.911
10351SOL    HW131952   4.248   5.319   6.002
10351SOL    HW231953   4.335   5.287   5.868
10352SOL     OW31954   4.147   3.888   6.405
10352SOL    HW131955   4.190   3.909   6.493
10352SOL    HW231956   4.051   3.917   6.408
10353SOL     OW31957   0.409   3.027   5.231
10353SOL    HW131958   0.382   3.051   5.138
10353SOL    HW231959   0.502   3.059   5.248
10354SOL     OW31960   5.280   2.140   0.956
10354SOL    HW131961   5.335   2.056   0.950
10354SOL    HW231962   5.333   2.217   0.923
10355SOL     OW31963   1.155   4.629   3.276
10355SOL    HW131964   1.254   4.642   3.279
10355SOL    HW231965   1.121   4.604   3.367
10356SOL     OW31966   0.215   2.425   4.835
10356SOL    HW131967   0.303   2.386   4.807
10356SOL    HW231968   0.145   2.405   4.767
10357SOL     OW31969   3.555   3.043   6.739
10357SOL    HW131970   3.532   2.949   6.763
10357SOL    HW231971   3.604   3.043   6.651
10358SOL     OW31972   0.105   1.257   2.268
10358SOL    HW131973   0.041   1.300   2.205
10358SOL    HW231974   0.192   1.241   2.222
10359SOL     OW31975   0.434   1.451   1.093
10359SOL    HW131976   0.512   1.467   1.153
10359SOL    HW231977   0.367   1.395   1.141
10360SOL     OW31978   0.277   4.642   3.179
10360SOL    HW131979   0.181   4.615   3.172
10360SOL    HW231980   0.293   4.685   3.268
10361SOL     OW31981   2.338   4.984   1.006
10361SOL    HW131982   2.430   4.944   1.000
10361SOL    HW231983   2.294   4.954   1.090
10362SOL     OW31984   1.247   4.640   5.309
10362SOL    HW131985   1.211   4.730   5.285
10362SOL    HW231986   1.301   4.604   5.233
10363SOL     OW31987   5.529   6.671   3.546
10363SOL    HW131988   5.504   6.689   3.451
10363SOL    HW231989   5.506   6.750   3.602
10364SOL     OW31990   1.340   4.130   0.875
10364SOL    HW131991   1.266   4.155   0.937
10364SOL    HW231992   1.303   4.075   0.799
10365SOL     OW31993   4.915   5.102   6.841
10365SOL    HW131994   5.005   5.059   6.842
10365SOL    HW231995   4.867   5.077   6.756
10366SOL     OW31996   3.735   6.764   3.739
10366SOL    HW131997   3.802   6.695   3.710
10366SOL    HW231998   3.779   6.830   3.800
10367SOL     OW31999   6.690   1.350   3.347
10367SOL    HW132000   6.747   1.390   3.419
10367SOL    HW232001   6.727   1.262   3.319
10368SOL     OW32002   2.284   0.546   1.147
10368SOL    HW132003   2.296   0.478   1.219
10368SOL    HW232004   2.227   0.508   1.074
10369SOL     OW32005   4.081   2.623   0.109
10369SOL    HW132006   3.990   2.664   0.105
10369SOL    HW232007   4.107   2.588   0.019
10370SOL     OW32008   4.001   0.977   5.380
10370SOL    HW132009   3.989   0.931   5.292
10370SOL    HW232010   4.070   0.928   5.434
10371SOL     OW32011   5.047   6.686   5.697
10371SOL    HW132012   4.995   6.605   5.726
10371SOL    HW232013   5.084   6.670   5.605
10372SOL     OW32014   1.117   0.846   3.861
10372SOL    HW132015   1.026   0.847   3.820
10372SOL    HW232016   1.186   0.859   3.790
10373SOL     OW32017   1.102   5.221   4.956
10373SOL    HW132018   1.024   5.246   4.898
10373SOL    HW232019   1.138   5.303   5.000
10374SOL     OW32020   3.191   1.759   3.834
10374SOL    HW132021   3.112   1.820   3.825
10374SOL    HW232022   3.160   1.669   3.864
10375SOL     OW32023   0.063   1.982   1.120
10375SOL    HW132024   0.139   2.020   1.067
10375SOL    HW232025   0.043   1.889   1.088
10376SOL     OW32026   6.249   0.053   3.361
10376SOL    HW132027   6.216   0.028   3.270
10376SOL    HW232028   6.286   6.989   3.406
10377SOL     OW32029   0.308   6.548   4.166
10377SOL    HW132030   0.212   6.564   4.144
10377SOL    HW232031   0.316   6.499   4.253
10378SOL     OW32032   6.217   6.327   5.791
10378SOL    HW132033   6.191   6.255   5.856
10378SOL    HW232034   6.135   6.370   5.755
10379SOL     OW32035   4.510   1.742   4.049
10379SOL    HW132036   4.493   1.829   4.005
10379SOL    HW232037   4.496   1.667   3.984
10380SOL     OW32038   3.819   0.962   3.745
10380SOL    HW132039   3.848   0.984   3.653
10380SOL    HW232040   3.742   1.021   3.771
10381SOL     OW32041   3.615   5.371   4.814
10381SOL    HW132042   3.549   5.383   4.739
10381SOL    HW232043   3.678   5.297   4.791
10382SOL     OW32044   0.507   5.964   0.102
10382SOL    HW132045   0.566   5.894   0.143
10382SOL    HW232046   0.510   5.955   0.002
10383SOL     OW32047   5.533   2.719   0.328
10383SOL    HW132048   5.455   2.685   0.276
10383SOL    HW232049   5.580   2.642   0.372
10384SOL     OW32050   5.831   1.259   6.778
10384SOL    HW132051   5.870   1.209   6.701
10384SOL    HW232052   5.777   1.197   6.835
10385SOL     OW32053   0.205   2.567   6.567
10385SOL    HW132054   0.137   2.542   6.498
10385SOL    HW232055   0.267   2.490   6.582
10386SOL     OW32056   6.743   2.035   6.232
10386SOL    HW132057   6.670   2.024   6.165
10386SOL    HW232058   6.757   2.132   6.251
10387SOL     OW32059   1.594   3.775   2.832
10387SOL    HW132060   1.666   3.740   2.773
10387SOL    HW232061   1.514   3.800   2.777
10388SOL     OW32062   1.547   4.118   2.050
10388SOL    HW132063   1.506   4.031   2.024
10388SOL    HW232064   1.508   4.149   2.137
10389SOL     OW32065   0.880   5.600   3.876
10389SOL    HW132066   0.868   5.615   3.778
10389SOL    HW232067   0.844   5.679   3.926
10390SOL     OW32068   2.175   3.808   3.403
10390SOL    HW132069   2.201   3.900   3.433
10390SOL    HW232070   2.157   3.809   3.305
10391SOL     OW32071   3.929   6.137   4.453
10391SOL    HW132072   3.988   6.215   4.431
10391SOL    HW232073   3.858   6.128   4.383
10392SOL     OW32074   6.266   5.451   6.214
10392SOL    HW132075   6.211   5.442   6.298
10392SOL    HW232076   6.264   5.545   6.183
10393SOL     OW32077   0.374   0.998   4.660
10393SOL    HW132078   0.376   1.087   4.616
10393SOL    HW232079   0.466   0.973   4.691
10394SOL     OW32080   3.351   0.121   0.943
10394SOL    HW132081   3.356   0.188   1.017
10394SOL    HW232082   3.258   0.119   0.906
10395SOL     OW32083   1.295   0.784   4.136
10395SOL    HW132084   1.239   0.862   4.107
10395SOL    HW232085   1.264   0.702   4.089
10396SOL     OW32086   0.352   6.884   5.092
10396SOL    HW132087   0.351   6.803   5.034
10396SOL    HW232088   0.382   6.963   5.038
10397SOL     OW32089   4.392   2.351   2.194
10397SOL    HW132090   4.473   2.308   2.236
10397SOL    HW232091   4.313   2.339   2.255
10398SOL     OW32092   6.952   3.066   2.210
10398SOL    HW132093   6.996   3.076   2.120
10398SOL    HW232094   7.016   3.094   2.281
10399SOL     OW32095   6.499   3.318   5.705
10399SOL    HW132096   6.411   3.353   5.739
10399SOL    HW232097   6.562   3.394   5.692
10400SOL     OW32098   1.842   4.885   1.758
10400SOL    HW132099   1.856   4.807   1.819
10400SOL    HW232100   1.779   4.950   1.800
10401SOL     OW32101   1.287   5.032   1.148
10401SOL    HW132102   1.356   5.037   1.076
10401SOL    HW232103   1.223   5.109   1.139
10402SOL     OW32104   0.997   2.292   4.700
10402SOL    HW132105   0.973   2.388   4.710
10402SOL    HW232106   0.955   2.255   4.618
10403SOL     OW32107   5.206   1.161   2.656
10403SOL    HW132108   5.128   1.207   2.614
10403SOL    HW232109   5.205   1.176   2.755
10404SOL     OW32110   0.342   0.557   4.200
10404SOL    HW132111   0.334   0.605   4.287
10404SOL    HW232112   0.322   0.460   4.213
10405SOL     OW32113   3.176   6.748   0.249
10405SOL    HW132114   3.153   6.665   0.198
10405SOL    HW232115   3.273   6.746   0.273
10406SOL     OW32116   1.540   5.834   5.298
10406SOL    HW132117   1.585   5.745   5.300
10406SOL    HW232118   1.531   5.868   5.392
10407SOL     OW32119   2.721   0.724   6.548
10407SOL    HW132120   2.715   0.660   6.624
10407SOL    HW232121   2.797   0.700   6.489
10408SOL     OW32122   3.693   0.080   3.029
10408SOL    HW132123   3.704   0.026   3.113
10408SOL    HW232124   3.685   0.177   3.052
10409SOL     OW32125   0.071   4.812   2.431
10409SOL    HW132126   0.079   4.780   2.337
10409SOL    HW232127   0.070   4.912   2.433
10410SOL     OW32128   4.999   5.786   1.052
10410SOL    HW132129   4.996   5.869   1.107
10410SOL    HW232130   4.907   5.749   1.041
10411SOL     OW32131   2.111   4.926   2.610
10411SOL    HW132132   2.155   4.865   2.675
10411SOL    HW232133   2.018   4.892   2.591
10412SOL     OW32134   0.771   3.064   6.901
10412SOL    HW132135   0.738   3.042   6.993
10412SOL    HW232136   0.700   3.044   6.834
10413SOL     OW32137   6.631   1.727   4.907
10413SOL    HW132138   6.535   1.758   4.902
10413SOL    HW232139   6.664   1.736   5.001
10414SOL     OW32140   5.475   6.090   5.148
10414SOL    HW132141   5.388   6.073   5.101
10414SOL    HW232142   5.517   6.173   5.111
10415SOL     OW32143   6.917   5.167   3.301
10415SOL    HW132144   7.013   5.150   3.324
10415SOL    HW232145   6.900   5.136   3.207
10416SOL     OW32146   5.260   0.629   0.210
10416SOL    HW132147   5.310   0.646   0.295
10416SOL    HW232148   5.258   0.531   0.192
10417SOL     OW32149   4.905   4.480   4.455
10417SOL    HW132150   4.836   4.534   4.406
10417SOL    HW232151   4.859   4.422   4.522
10418SOL     OW32152   6.036   3.360   0.191
10418SOL    HW132153   6.037   3.366   0.091
10418SOL    HW232154   5.985   3.278   0.219
10419SOL     OW32155   1.262   0.379   4.580
10419SOL    HW132156   1.298   0.332   4.499
10419SOL    HW232157   1.248   0.476   4.557
10420SOL     OW32158   6.186   3.855   4.051
10420SOL    HW132159   6.163   3.796   3.973
10420SOL    HW232160   6.151   3.948   4.034
10421SOL     OW32161   6.855   3.520   4.710
10421SOL    HW132162   6.912   3.537   4.790
10421SOL    HW232163   6.758   3.526   4.736
10422SOL     OW32164   5.844   2.993   5.585
10422SOL    HW132165   5.836   2.898   5.614
10422SOL    HW232166   5.809   3.053   5.657
10423SOL     OW32167   2.428   5.727   2.493
10423SOL    HW132168   2.444   5.781   2.576
10423SOL    HW232169   2.488   5.648   2.492
10424SOL     OW32170   4.445   0.814   2.435
10424SOL    HW132171   4.484   0.887   2.490
10424SOL    HW232172   4.444   0.840   2.339
10425SOL     OW32173   0.813   4.141   0.433
10425SOL    HW132174   0.791   4.044   0.432
10425SOL    HW232175   0.751   4.188   0.496
10426SOL     OW32176   6.386   1.932   0.416
10426SOL    HW132177   6.358   2.025   0.392
10426SOL    HW232178   6.391   1.924   0.516
10427SOL     OW32179   6.266   0.256   3.738
10427SOL    HW132180   6.293   0.191   3.809
10427SOL    HW232181   6.336   0.259   3.667
10428SOL     OW32182   1.730   6.754   4.621
10428SOL    HW132183   1.796   6.814   4.576
10428SOL    HW232184   1.652   6.740   4.560
10429SOL     OW32185   2.290   4.214   2.347
10429SOL    HW132186   2.205   4.198   2.298
10429SOL    HW232187   2.339   4.291   2.305
10430SOL     OW32188   3.257   0.868   3.743
10430SOL    HW132189   3.307   0.892   3.825
10430SOL    HW232190   3.173   0.923   3.737
10431SOL     OW32191   4.208   2.341   3.986
10431SOL    HW132192   4.140   2.349   3.914
10431SOL    HW232193   4.190   2.259   4.041
10432SOL     OW32194   0.548   4.629   0.878
10432SOL    HW132195   0.451   4.613   0.898
10432SOL    HW232196   0.600   4.545   0.897
10433SOL     OW32197   3.452   6.502   4.503
10433SOL    HW132198   3.398   6.578   4.538
10433SOL    HW232199   3.549   6.520   4.519
10434SOL     OW32200   4.245   1.792   6.865
10434SOL    HW132201   4.303   1.784   6.946
10434SOL    HW232202   4.223   1.889   6.850
10435SOL     OW32203   2.515   1.364   1.892
10435SOL    HW132204   2.541   1.454   1.927
10435SOL    HW232205   2.543   1.356   1.796
10436SOL     OW32206   0.765   3.436   5.354
10436SOL    HW132207   0.847   3.487   5.327
10436SOL    HW232208   0.687   3.499   5.359
10437SOL     OW32209   0.018   6.907   4.811
10437SOL    HW132210   0.066   6.992   4.787
10437SOL    HW232211   0.027   6.842   4.736
10438SOL     OW32212   6.752   5.754   6.813
10438SOL    HW132213   6.800   5.756   6.725
10438SOL    HW232214   6.810   5.709   6.881
10439SOL     OW32215   5.889   5.684   4.781
10439SOL    HW132216   5.833   5.627   4.722
10439SOL    HW232217   5.837   5.766   4.807
10440SOL     OW32218   6.081   2.562   0.912
10440SOL    HW132219   6.111   2.604   0.997
10440SOL    HW232220   5.982   2.547   0.916
10441SOL     OW32221   4.676   1.409   6.359
10441SOL    HW132222   4.752   1.418   6.294
10441SOL    HW232223   4.592   1.386   6.309
10442SOL     OW32224   2.237   0.752   5.321
10442SOL    HW132225   2.281   0.664   5.339
10442SOL    HW232226   2.301   0.826   5.341
10443SOL     OW32227   0.630   0.969   0.214
10443SOL    HW132228   0.628   0.871   0.194
10443SOL    HW232229   0.610   0.982   0.312
10444SOL     OW32230   4.521   5.511   3.760
10444SOL    HW132231   4.588   5.505   3.834
10444SOL    HW232232   4.559   5.467   3.678
10445SOL     OW32233   1.029   3.471   3.858
10445SOL    HW132234   1.061   3.446   3.950
10445SOL    HW232235   0.929   3.478   3.859
10446SOL     OW32236   2.591   4.772   4.919
10446SOL    HW132237   2.514   4.710   4.906
10446SOL    HW232238   2.673   4.719   4.941
10447SOL     OW32239   1.533   2.218   2.704
10447SOL    HW132240   1.455   2.259   2.656
10447SOL    HW232241   1.557   2.273   2.783
10448SOL     OW32242   0.475   5.189   2.819
10448SOL    HW132243   0.375   5.187   2.826
10448SOL    HW232244   0.512   5.248   2.891
10449SOL     OW32245   3.854   4.966   4.538
10449SOL    HW132246   3.896   4.922   4.458
10449SOL    HW232247   3.904   4.941   4.620
10450SOL     OW32248   0.427   2.177   4.281
10450SOL    HW132249   0.337   2.169   4.237
10450SOL    HW232250   0.417   2.222   4.369
10451SOL     OW32251   2.652   1.618   4.804
10451SOL    HW132252   2.652   1.716   4.823
10451SOL    HW232253   2.696   1.569   4.879
10452SOL     OW32254   6.691   2.887   4.244
10452SOL    HW132255   6.719   2.917   4.335
10452SOL    HW232256   6.756   2.819   4.210
10453SOL     OW32257   2.696   5.301   4.131
10453SOL    HW132258   2.732   5.261   4.047
10453SOL    HW232259   2.613   5.253   4.158
10454SOL     OW32260   6.732   1.385   6.962
10454SOL    HW132261   6.717   1.473   7.007
10454SOL    HW232262   6.826   1.379   6.930
10455SOL     OW32263   0.618   5.945   2.578
10455SOL    HW132264   0.673   5.873   2.535
10455SOL    HW232265   0.560   5.904   2.649
10456SOL     OW32266   1.720   5.297   6.734
10456SOL    HW132267   1.812   5.302   6.773
10456SOL    HW232268   1.724   5.254   6.644
10457SOL     OW32269   4.206   1.207   0.813
10457SOL    HW132270   4.272   1.263   0.864
10457SOL    HW232271   4.118   1.208   0.860
10458SOL     OW32272   1.644   6.315   0.147
10458SOL    HW132273   1.582   6.311   0.226
10458SOL    HW232274   1.594   6.351   0.068
10459SOL     OW32275   5.485   6.098   1.012
10459SOL    HW132276   5.511   6.192   1.031
10459SOL    HW232277   5.391   6.083   1.044
10460SOL     OW32278   6.317   0.982   6.316
10460SOL    HW132279   6.377   1.016   6.388
10460SOL    HW232280   6.229   1.031   6.320
10461SOL     OW32281   6.777   3.920   5.292
10461SOL    HW132282   6.764   3.846   5.225
10461SOL    HW232283   6.874   3.946   5.294
10462SOL     OW32284   4.134   3.670   0.099
10462SOL    HW132285   4.066   3.666   0.172
10462SOL    HW232286   4.182   3.758   0.103
10463SOL     OW32287   4.668   2.424   5.167
10463SOL    HW132288   4.587   2.396   5.115
10463SOL    HW232289   4.749   2.380   5.129
10464SOL     OW32290   6.730   4.996   1.887
10464SOL    HW132291   6.698   4.938   1.812
10464SOL    HW232292   6.676   5.080   1.889
10465SOL     OW32293   5.337   4.587   1.221
10465SOL    HW132294   5.266   4.533   1.175
10465SOL    HW232295   5.341   4.678   1.180
10466SOL     OW32296   6.005   3.955   5.204
10466SOL    HW132297   6.013   3.856   5.215
10466SOL    HW232298   6.051   3.983   5.119
10467SOL     OW32299   0.308   3.001   6.436
10467SOL    HW132300   0.226   3.057   6.423
10467SOL    HW232301   0.376   3.052   6.488
10468SOL     OW32302   1.331   3.969   3.877
10468SOL    HW132303   1.350   3.923   3.963
10468SOL    HW232304   1.413   4.016   3.845
10469SOL     OW32305   1.303   1.059   4.031
10469SOL    HW132306   1.393   1.037   3.994
10469SOL    HW232307   1.242   1.087   3.957
10470SOL     OW32308   2.197   3.911   1.733
10470SOL    HW132309   2.272   3.901   1.667
10470SOL    HW232310   2.212   3.850   1.810
10471SOL     OW32311   2.684   4.788   5.858
10471SOL    HW132312   2.750   4.857   5.827
10471SOL    HW232313   2.731   4.722   5.917
10472SOL     OW32314   4.574   5.406   5.781
10472SOL    HW132315   4.529   5.479   5.831
10472SOL    HW232316   4.599   5.438   5.690
10473SOL     OW32317   6.066   5.472   0.194
10473SOL    HW132318   6.161   5.448   0.213
10473SOL    HW232319   6.005   5.408   0.241
10474SOL     OW32320   6.196   6.021   5.219
10474SOL    HW132321   6.129   5.962   5.264
10474SOL    HW232322   6.252   5.966   5.157
10475SOL     OW32323   0.516   5.629   1.120
10475SOL    HW132324   0.591   5.669   1.174
10475SOL    HW232325   0.476   5.700   1.062
10476SOL     OW32326   5.089   6.575   1.306
10476SOL    HW132327   5.153   6.652   1.313
10476SOL    HW232328   4.995   6.610   1.307
10477SOL     OW32329   6.973   5.679   3.797
10477SOL    HW132330   6.885   5.639   3.772
10477SOL    HW232331   0.029   5.629   3.752
10478SOL     OW32332   6.901   0.581   6.772
10478SOL    HW132333   6.858   0.601   6.683
10478SOL    HW232334   6.868   0.494   6.806
10479SOL     OW32335   0.190   4.039   2.452
10479SOL    HW132336   0.165   4.130   2.421
10479SOL    HW232337   0.229   4.045   2.544
10480SOL     OW32338   2.285   0.820   3.297
10480SOL    HW132339   2.322   0.891   3.356
10480SOL    HW232340   2.321   0.731   3.326
10481SOL     OW32341   6.426   1.146   1.187
10481SOL    HW132342   6.504   1.151   1.125
10481SOL    HW232343   6.375   1.231   1.184
10482SOL     OW32344   5.236   4.041   3.860
10482SOL    HW132345   5.242   4.006   3.953
10482SOL    HW232346   5.270   4.135   3.857
10483SOL     OW32347   5.975   0.919   6.693
10483SOL    HW132348   6.069   0.915   6.659
10483SOL    HW232349   5.915   0.958   6.622
10484SOL     OW32350   5.931   1.016   2.041
10484SOL    HW132351   5.898   1.054   1.955
10484SOL    HW232352   5.936   1.088   2.110
10485SOL     OW32353   5.927   3.189   5.817
10485SOL    HW132354   5.935   3.115   5.883
10485SOL    HW232355   5.998   3.179   5.747
10486SOL     OW32356   5.745   2.687   2.238
10486SOL    HW132357   5.840   2.667   2.261
10486SOL    HW232358   5.723   2.647   2.148
10487SOL     OW32359   4.000   6.653   2.219
10487SOL    HW132360   4.096   6.628   2.235
10487SOL    HW232361   3.963   6.696   2.301
10488SOL     OW32362   4.186   3.946   6.662
10488SOL    HW132363   4.115   3.903   6.717
10488SOL    HW232364   4.275   3.907   6.685
10489SOL     OW32365   1.812   5.040   5.558
10489SOL    HW132366   1.743   5.023   5.629
10489SOL    HW232367   1.819   4.959   5.500
10490SOL     OW32368   6.088   0.080   4.823
10490SOL    HW132369   6.037   0.047   4.743
10490SOL    HW232370   6.185   0.087   4.800
10491SOL     OW32371   6.367   5.749   5.410
10491SOL    HW132372   6.296   5.697   5.362
10491SOL    HW232373   6.452   5.745   5.358
10492SOL     OW32374   5.321   4.411   5.543
10492SOL    HW132375   5.252   4.446   5.606
10492SOL    HW232376   5.321   4.466   5.459
10493SOL     OW32377   3.175   1.647   1.008
10493SOL    HW132378   3.167   1.719   0.940
10493SOL    HW232379   3.154   1.684   1.099
10494SOL     OW32380   5.603   1.348   5.340
10494SOL    HW132381   5.581   1.321   5.434
10494SOL    HW232382   5.669   1.424   5.342
10495SOL     OW32383   1.813   6.904   6.330
10495SOL    HW132384   1.904   6.947   6.329
10495SOL    HW232385   1.786   6.883   6.236
10496SOL     OW32386   6.531   6.938   5.580
10496SOL    HW132387   6.518   6.996   5.500
10496SOL    HW232388   6.593   6.863   5.557
10497SOL     OW32389   1.905   1.669   6.540
10497SOL    HW132390   1.851   1.685   6.622
10497SOL    HW232391   1.909   1.753   6.486
10498SOL     OW32392   3.463   5.328   5.758
10498SOL    HW132393   3.465   5.427   5.742
10498SOL    HW232394   3.371   5.294   5.737
10499SOL     OW32395   3.012   5.675   3.216
10499SOL    HW132396   2.959   5.727   3.149
10499SOL    HW232397   2.998   5.577   3.199
10500SOL     OW32398   2.276   2.156   6.557
10500SOL    HW132399   2.288   2.161   6.458
10500SOL    HW232400   2.304   2.065   6.589
10501SOL     OW32401   2.059   3.827   2.816
10501SOL    HW132402   2.033   3.823   2.719
10501SOL    HW232403   2.030   3.743   2.862
10502SOL     OW32404   3.090   5.776   4.454
10502SOL    HW132405   3.021   5.766   4.382
10502SOL    HW232406   3.181   5.760   4.416
10503SOL     OW32407   2.223   3.261   6.309
10503SOL    HW132408   2.206   3.241   6.212
10503SOL    HW232409   2.160   3.333   6.340
10504SOL     OW32410   2.194   3.442   1.254
10504SOL    HW132411   2.151   3.371   1.198
10504SOL    HW232412   2.200   3.410   1.349
10505SOL     OW32413   1.093   6.289   0.045
10505SOL    HW132414   1.014   6.272   0.105
10505SOL    HW232415   1.112   6.206   7.011
10506SOL     OW32416   6.605   4.863   5.447
10506SOL    HW132417   6.672   4.803   5.403
10506SOL    HW232418   6.520   4.861   5.394
10507SOL     OW32419   2.351   0.235   3.582
10507SOL    HW132420   2.369   0.213   3.486
10507SOL    HW232421   2.260   0.276   3.590
10508SOL     OW32422   5.812   4.013   2.804
10508SOL    HW132423   5.841   3.928   2.848
10508SOL    HW232424   5.753   4.065   2.867
10509SOL     OW32425   2.221   0.806   5.018
10509SOL    HW132426   2.163   0.780   5.095
10509SOL    HW232427   2.167   0.808   4.934
10510SOL     OW32428   5.704   1.012   6.591
10510SOL    HW132429   5.694   0.913   6.595
10510SOL    HW232430   5.641   1.049   6.522
10511SOL     OW32431   6.626   2.767   1.927
10511SOL    HW132432   6.700   2.736   1.867
10511SOL    HW232433   6.664   2.822   2.001
10512SOL     OW32434   2.351   0.513   6.260
10512SOL    HW132435   2.382   0.495   6.353
10512SOL    HW232436   2.404   0.588   6.221
10513SOL     OW32437   0.396   2.183   0.801
10513SOL    HW132438   0.467   2.147   0.740
10513SOL    HW232439   0.371   2.275   0.772
10514SOL     OW32440   0.958   2.855   1.843
10514SOL    HW132441   0.984   2.778   1.784
10514SOL    HW232442   0.998   2.843   1.934
10515SOL     OW32443   0.189   3.112   5.038
10515SOL    HW132444   0.179   3.184   5.107
10515SOL    HW232445   0.228   3.151   4.955
10516SOL     OW32446   2.289   6.822   1.034
10516SOL    HW132447   2.353   6.800   0.960
10516SOL    HW232448   2.259   6.917   1.025
10517SOL     OW32449   0.610   2.752   2.981
10517SOL    HW132450   0.621   2.652   2.980
10517SOL    HW232451   0.558   2.778   3.062
10518SOL     OW32452   0.750   5.918   2.998
10518SOL    HW132453   0.780   5.824   3.008
10518SOL    HW232454   0.707   5.949   3.083
10519SOL     OW32455   4.205   3.040   5.834
10519SOL    HW132456   4.175   3.088   5.917
10519SOL    HW232457   4.305   3.029   5.837
10520SOL     OW32458   3.016   5.061   6.067
10520SOL    HW132459   3.049   4.974   6.030
10520SOL    HW232460   3.074   5.088   6.144
10521SOL     OW32461   6.678   5.558   2.232
10521SOL    HW132462   6.578   5.561   2.230
10521SOL    HW232463   6.714   5.644   2.268
10522SOL     OW32464   6.913   0.090   2.332
10522SOL    HW132465   6.848   0.105   2.257
10522SOL    HW232466   6.974   0.014   2.309
10523SOL     OW32467   6.232   6.602   6.323
10523SOL    HW132468   6.325   6.641   6.324
10523SOL    HW232469   6.186   6.628   6.238
10524SOL     OW32470   4.796   0.991   4.526
10524SOL    HW132471   4.869   0.923   4.524
10524SOL    HW232472   4.709   0.947   4.549
10525SOL     OW32473   2.891   6.819   4.784
10525SOL    HW132474   2.829   6.882   4.739
10525SOL    HW232475   2.903   6.846   4.879
10526SOL     OW32476   4.505   6.479   2.650
10526SOL    HW132477   4.534   6.384   2.660
10526SOL    HW232478   4.578   6.540   2.682
10527SOL     OW32479   1.780   2.735   4.875
10527SOL    HW132480   1.804   2.676   4.952
10527SOL    HW232481   1.851   2.729   4.805
10528SOL     OW32482   6.039   4.961   5.847
10528SOL    HW132483   6.071   4.969   5.752
10528SOL    HW232484   6.108   5.000   5.908
10529SOL     OW32485   0.216   5.966   4.876
10529SOL    HW132486   0.249   5.920   4.794
10529SOL    HW232487   0.145   5.911   4.920
10530SOL     OW32488   1.678   2.327   5.261
10530SOL    HW132489   1.766   2.314   5.215
10530SOL    HW232490   1.686   2.403   5.326
10531SOL     OW32491   1.911   2.302   5.128
10531SOL    HW132492   1.920   2.204   5.108
10531SOL    HW232493   1.994   2.349   5.099
10532SOL     OW32494   3.231   3.586   4.931
10532SOL    HW132495   3.265   3.681   4.936
10532SOL    HW232496   3.298   3.525   4.972
10533SOL     OW32497   3.343   1.091   6.461
10533SOL    HW132498   3.265   1.126   6.410
10533SOL    HW232499   3.320   1.088   6.558
10534SOL     OW32500   5.956   5.073   1.636
10534SOL    HW132501   6.039   5.021   1.617
10534SOL    HW232502   5.940   5.076   1.735
10535SOL     OW32503   0.104   1.011   1.646
10535SOL    HW132504   0.033   0.952   1.685
10535SOL    HW232505   0.082   1.107   1.663
10536SOL     OW32506   5.927   5.758   3.356
10536SOL    HW132507   5.895   5.852   3.362
10536SOL    HW232508   5.943   5.734   3.260
10537SOL     OW32509   6.142   5.627   1.332
10537SOL    HW132510   6.203   5.692   1.287
10537SOL    HW232511   6.062   5.675   1.367
10538SOL     OW32512   4.094   3.409   6.982
10538SOL    HW132513   4.129   3.495   0.001
10538SOL    HW232514   4.171   3.354   6.948
10539SOL     OW32515   0.849   3.110   5.010
10539SOL    HW132516   0.750   3.109   4.994
10539SOL    HW232517   0.881   3.205   5.010
10540SOL     OW32518   3.670   0.640   0.441
10540SOL    HW132519   3.672   0.737   0.464
10540SOL    HW232520   3.718   0.624   0.355
10541SOL     OW32521   3.756   2.779   1.724
10541SOL    HW132522   3.680   2.743   1.778
10541SOL    HW232523   3.763   2.878   1.737
10542SOL     OW32524   1.823   1.984   0.588
10542SOL    HW132525   1.741   1.944   0.548
10542SOL    HW232526   1.904   1.945   0.545
10543SOL     OW32527   2.080   0.251   4.397
10543SOL    HW132528   2.158   0.197   4.429
10543SOL    HW232529   2.034   0.201   4.324
10544SOL     OW32530   6.952   2.335   1.748
10544SOL    HW132531   6.990   2.306   1.836
10544SOL    HW232532   6.868   2.387   1.764
10545SOL     OW32533   4.517   1.556   3.039
10545SOL    HW132534   4.424   1.527   3.020
10545SOL    HW232535   4.533   1.553   3.138
10546SOL     OW32536   4.375   1.151   5.618
10546SOL    HW132537   4.435   1.202   5.557
10546SOL    HW232538   4.319   1.215   5.671
10547SOL     OW32539   4.752   6.173   1.757
10547SOL    HW132540   4.844   6.156   1.794
10547SOL    HW232541   4.684   6.156   1.828
10548SOL     OW32542   4.183   4.015   5.402
10548SOL    HW132543   4.170   3.926   5.358
10548SOL    HW232544   4.119   4.025   5.477
10549SOL     OW32545   1.150   1.702   2.100
10549SOL    HW132546   1.137   1.796   2.131
10549SOL    HW232547   1.113   1.692   2.007
10550SOL     OW32548   5.209   6.980   4.731
10550SOL    HW132549   5.213   7.015   4.637
10550SOL    HW232550   5.275   6.906   4.741
10551SOL     OW32551   1.141   3.046   6.390
10551SOL    HW132552   1.146   3.029   6.291
10551SOL    HW232553   1.077   3.121   6.408
10552SOL     OW32554   3.363   1.618   5.215
10552SOL    HW132555   3.451   1.619   5.262
10552SOL    HW232556   3.295   1.573   5.273
10553SOL     OW32557   2.917   5.311   6.034
10553SOL    HW132558   2.965   5.224   6.039
10553SOL    HW232559   2.861   5.322   6.116
10554SOL     OW32560   6.362   3.864   5.905
10554SOL    HW132561   6.318   3.783   5.944
10554SOL    HW232562   6.293   3.933   5.886
10555SOL     OW32563   3.717   3.078   1.655
10555SOL    HW132564   3.750   3.168   1.626
10555SOL    HW232565   3.617   3.078   1.655
10556SOL     OW32566   1.063   3.749   3.856
10556SOL    HW132567   1.124   3.771   3.932
10556SOL    HW232568   1.052   3.650   3.850
10557SOL     OW32569   5.312   1.417   3.586
10557SOL    HW132570   5.265   1.355   3.522
10557SOL    HW232571   5.376   1.474   3.535
10558SOL     OW32572   5.290   6.139   5.367
10558SOL    HW132573   5.202   6.101   5.338
10558SOL    HW232574   5.362   6.107   5.306
10559SOL     OW32575   4.322   2.582   0.610
10559SOL    HW132576   4.408   2.627   0.634
10559SOL    HW232577   4.324   2.557   0.513
10560SOL     OW32578   6.581   2.201   4.112
10560SOL    HW132579   6.580   2.208   4.212
10560SOL    HW232580   6.544   2.286   4.073
10561SOL     OW32581   2.041   4.072   6.684
10561SOL    HW132582   1.986   4.025   6.752
10561SOL    HW232583   2.012   4.043   6.592
10562SOL     OW32584   3.766   1.639   0.384
10562SOL    HW132585   3.720   1.554   0.410
10562SOL    HW232586   3.805   1.628   0.293
10563SOL     OW32587   1.212   1.920   2.745
10563SOL    HW132588   1.168   1.841   2.702
10563SOL    HW232589   1.217   1.995   2.679
10564SOL     OW32590   6.880   2.146   2.639
10564SOL    HW132591   6.794   2.112   2.677
10564SOL    HW232592   6.861   2.194   2.553
10565SOL     OW32593   5.104   1.626   5.034
10565SOL    HW132594   5.092   1.535   4.995
10565SOL    HW232595   5.198   1.657   5.018
10566SOL     OW32596   4.781   5.008   6.598
10566SOL    HW132597   4.825   5.061   6.525
10566SOL    HW232598   4.791   4.910   6.580
10567SOL     OW32599   2.417   5.419   4.923
10567SOL    HW132600   2.368   5.492   4.876
10567SOL    HW232601   2.390   5.331   4.885
10568SOL     OW32602   3.443   1.302   3.024
10568SOL    HW132603   3.405   1.344   2.941
10568SOL    HW232604   3.394   1.337   3.104
10569SOL     OW32605   6.510   2.414   3.778
10569SOL    HW132606   6.511   2.514   3.785
10569SOL    HW232607   6.467   2.375   3.859
10570SOL     OW32608   1.096   4.181   0.992
10570SOL    HW132609   1.087   4.205   0.895
10570SOL    HW232610   1.154   4.248   1.038
10571SOL     OW32611   6.612   6.899   4.696
10571SOL    HW132612   6.671   6.926   4.620
10571SOL    HW232613   6.661   6.914   4.782
10572SOL     OW32614   6.603   4.001   1.724
10572SOL    HW132615   6.657   3.918   1.730
10572SOL    HW232616   6.586   4.038   1.815
10573SOL     OW32617   6.369   5.288   5.602
10573SOL    HW132618   6.464   5.293   5.632
10573SOL    HW232619   6.364   5.307   5.503
10574SOL     OW32620   0.575   2.489   3.059
10574SOL    HW132621   0.558   2.391   3.066
10574SOL    HW232622   0.633   2.519   3.135
10575SOL     OW32623   1.022   6.501   6.571
10575SOL    HW132624   1.114   6.537   6.583
10575SOL    HW232625   0.992   6.457   6.656
10576SOL     OW32626   1.196   5.727   3.363
10576SOL    HW132627   1.244   5.811   3.337
10576SOL    HW232628   1.234   5.691   3.448
10577SOL     OW32629   0.494   2.143   5.704
10577SOL    HW132630   0.424   2.212   5.685
10577SOL    HW232631   0.476   2.103   5.794
10578SOL     OW32632   5.112   0.922   5.616
10578SOL    HW132633   5.129   0.824   5.614
10578SOL    HW232634   5.121   0.960   5.524
10579SOL     OW32635   5.392   6.955   0.460
10579SOL    HW132636   5.344   6.870   0.436
10579SOL    HW232637   5.446   6.986   0.382
10580SOL     OW32638   0.445   5.515   6.950
10580SOL    HW132639   0.372   5.514   6.882
10580SOL    HW232640   0.475   5.421   6.968
10581SOL     OW32641   4.521   2.499   3.324
10581SOL    HW132642   4.574   2.578   3.294
10581SOL    HW232643   4.466   2.524   3.404
10582SOL     OW32644   3.095   4.592   6.916
10582SOL    HW132645   3.036   4.574   6.838
10582SOL    HW232646   3.049   4.565   7.000
10583SOL     OW32647   4.608   1.244   1.335
10583SOL    HW132648   4.578   1.339   1.324
10583SOL    HW232649   4.543   1.183   1.288
10584SOL     OW32650   6.147   6.681   1.462
10584SOL    HW132651   6.068   6.726   1.504
10584SOL    HW232652   6.127   6.663   1.366
10585SOL     OW32653   3.107   4.317   6.165
10585SOL    HW132654   3.143   4.391   6.108
10585SOL    HW232655   3.010   4.332   6.182
10586SOL     OW32656   4.805   1.930   1.540
10586SOL    HW132657   4.715   1.909   1.503
10586SOL    HW232658   4.875   1.897   1.477
10587SOL     OW32659   6.325   3.362   0.292
10587SOL    HW132660   6.388   3.416   0.237
10587SOL    HW232661   6.235   3.361   0.249
10588SOL     OW32662   1.630   4.814   3.492
10588SOL    HW132663   1.709   4.752   3.488
10588SOL    HW232664   1.596   4.818   3.586
10589SOL     OW32665   6.246   1.248   4.134
10589SOL    HW132666   6.271   1.169   4.077
10589SOL    HW232667   6.234   1.328   4.077
10590SOL     OW32668   1.680   6.975   5.347
10590SOL    HW132669   1.746   7.007   5.278
10590SOL    HW232670   1.595   6.949   5.302
10591SOL     OW32671   1.881   2.176   1.680
10591SOL    HW132672   1.908   2.271   1.698
10591SOL    HW232673   1.795   2.157   1.728
10592SOL     OW32674   5.336   1.406   6.317
10592SOL    HW132675   5.365   1.459   6.238
10592SOL    HW232676   5.318   1.311   6.290
10593SOL     OW32677   1.162   4.028   1.799
10593SOL    HW132678   1.244   4.081   1.819
10593SOL    HW232679   1.085   4.067   1.850
10594SOL     OW32680   1.322   1.449   4.697
10594SOL    HW132681   1.279   1.457   4.607
10594SOL    HW232682   1.257   1.478   4.767
10595SOL     OW32683   1.794   5.957   4.724
10595SOL    HW132684   1.847   6.009   4.657
10595SOL    HW232685   1.719   5.909   4.678
10596SOL     OW32686   2.955   1.219   1.727
10596SOL    HW132687   2.906   1.133   1.710
10596SOL    HW232688   3.052   1.200   1.740
10597SOL     OW32689   1.520   0.572   3.847
10597SOL    HW132690   1.537   0.650   3.787
10597SOL    HW232691   1.467   0.503   3.798
10598SOL     OW32692   2.389   0.766   0.551
10598SOL    HW132693   2.338   0.686   0.584
10598SOL    HW232694   2.448   0.739   0.476
10599SOL     OW32695   4.834   0.299   6.703
10599SOL    HW132696   4.775   0.367   6.659
10599SOL    HW232697   4.844   0.220   6.643
10600SOL     OW32698   1.813   3.345   4.879
10600SOL    HW132699   1.887   3.279   4.861
10600SOL    HW232700   1.745   3.302   4.938
10601SOL     OW32701   3.503   6.532   5.304
10601SOL    HW132702   3.432   6.560   5.238
10601SOL    HW232703   3.560   6.461   5.263
10602SOL     OW32704   4.534   2.094   1.971
10602SOL    HW132705   4.609   2.030   1.988
10602SOL    HW232706   4.557   2.184   2.008
10603SOL     OW32707   0.910   5.184   5.169
10603SOL    HW132708   0.933   5.215   5.076
10603SOL    HW232709   0.901   5.085   5.169
10604SOL     OW32710   0.475   3.721   5.866
10604SOL    HW132711   0.436   3.811   5.851
10604SOL    HW232712   0.425   3.654   5.811
10605SOL     OW32713   1.682   5.212   6.238
10605SOL    HW132714   1.738   5.292   6.217
10605SOL    HW232715   1.676   5.201   6.337
10606SOL     OW32716   0.677   1.518   2.016
10606SOL    HW132717   0.664   1.424   1.985
10606SOL    HW232718   0.769   1.528   2.055
10607SOL     OW32719   5.554   4.008   6.227
10607SOL    HW132720   5.546   3.912   6.198
10607SOL    HW232721   5.642   4.045   6.197
10608SOL     OW32722   5.526   6.791   2.323
10608SOL    HW132723   5.475   6.836   2.249
10608SOL    HW232724   5.581   6.859   2.371
10609SOL     OW32725   4.141   6.832   2.725
10609SOL    HW132726   4.170   6.739   2.704
10609SOL    HW232727   4.041   6.838   2.721
10610SOL     OW32728   2.219   4.359   4.959
10610SOL    HW132729   2.218   4.317   5.050
10610SOL    HW232730   2.185   4.294   4.891
10611SOL     OW32731   4.936   2.096   5.883
10611SOL    HW132732   4.962   2.001   5.864
10611SOL    HW232733   4.854   2.119   5.830
10612SOL     OW32734   1.801   0.291   1.183
10612SOL    HW132735   1.819   0.329   1.273
10612SOL    HW232736   1.874   0.225   1.159
10613SOL     OW32737   0.978   6.363   6.805
10613SOL    HW132738   1.055   6.394   6.861
10613SOL    HW232739   0.897   6.416   6.827
10614SOL     OW32740   0.078   0.664   2.922
10614SOL    HW132741   0.103   0.732   2.852
10614SOL    HW232742   0.160   0.615   2.952
10615SOL     OW32743   6.870   6.876   5.317
10615SOL    HW132744   6.917   6.805   5.265
10615SOL    HW232745   6.788   6.838   5.360
10616SOL     OW32746   3.118   5.921   1.249
10616SOL    HW132747   3.186   5.895   1.181
10616SOL    HW232748   3.159   5.920   1.340
10617SOL     OW32749   0.374   1.245   6.597
10617SOL    HW132750   0.473   1.235   6.592
10617SOL    HW232751   0.337   1.177   6.660
10618SOL     OW32752   6.518   4.330   0.936
10618SOL    HW132753   6.613   4.350   0.912
10618SOL    HW232754   6.467   4.415   0.944
10619SOL     OW32755   0.254   3.103   3.527
10619SOL    HW132756   0.291   3.193   3.550
10619SOL    HW232757   0.232   3.053   3.611
10620SOL     OW32758   1.403   5.455   4.045
10620SOL    HW132759   1.450   5.371   4.017
10620SOL    HW232760   1.389   5.453   4.144
10621SOL     OW32761   3.748   6.378   0.891
10621SOL    HW132762   3.761   6.415   0.983
10621SOL    HW232763   3.812   6.302   0.877
10622SOL     OW32764   3.925   1.960   0.610
10622SOL    HW132765   3.978   2.025   0.556
10622SOL    HW232766   3.931   1.985   0.707
10623SOL     OW32767   6.848   1.308   4.892
10623SOL    HW132768   6.927   1.364   4.869
10623SOL    HW232769   6.764   1.358   4.871
10624SOL     OW32770   2.706   1.171   4.399
10624SOL    HW132771   2.621   1.159   4.347
10624SOL    HW232772   2.744   1.262   4.381
10625SOL     OW32773   0.696   2.782   0.643
10625SOL    HW132774   0.788   2.820   0.649
10625SOL    HW232775   0.672   2.768   0.547
10626SOL     OW32776   7.004   1.841   3.099
10626SOL    HW132777   0.071   1.853   3.047
10626SOL    HW232778   6.926   1.865   3.042
10627SOL     OW32779   5.021   6.000   4.987
10627SOL    HW132780   4.992   6.032   4.897
10627SOL    HW232781   4.942   5.965   5.037
10628SOL     OW32782   6.486   6.088   5.209
10628SOL    HW132783   6.466   6.145   5.129
10628SOL    HW232784   6.410   6.024   5.224
10629SOL     OW32785   2.749   4.228   6.431
10629SOL    HW132786   2.666   4.272   6.466
10629SOL    HW232787   2.824   4.241   6.495
10630SOL     OW32788   5.206   0.951   1.936
10630SOL    HW132789   5.288   0.907   1.899
10630SOL    HW232790   5.220   0.972   2.033
10631SOL     OW32791   1.260   6.977   4.587
10631SOL    HW132792   1.264   7.008   4.682
10631SOL    HW232793   1.270   6.877   4.584
10632SOL     OW32794   6.950   3.127   6.570
10632SOL    HW132795   6.914   3.199   6.629
10632SOL    HW232796   6.959   3.042   6.622
10633SOL     OW32797   1.178   5.066   0.067
10633SOL    HW132798   1.152   5.103   0.157
10633SOL    HW232799   1.181   4.967   0.071
10634SOL     OW32800   3.683   6.693   2.494
10634SOL    HW132801   3.630   6.695   2.409
10634SOL    HW232802   3.622   6.713   2.571
10635SOL     OW32803   1.556   1.389   1.764
10635SOL    HW132804   1.479   1.396   1.827
10635SOL    HW232805   1.534   1.434   1.678
10636SOL     OW32806   5.028   1.743   0.070
10636SOL    HW132807   5.107   1.687   0.044
10636SOL    HW232808   4.943   1.695   0.047
10637SOL     OW32809   3.032   3.705   6.215
10637SOL    HW132810   3.036   3.658   6.126
10637SOL    HW232811   3.028   3.803   6.200
10638SOL     OW32812   6.103   0.630   5.875
10638SOL    HW132813   6.183   0.586   5.917
10638SOL    HW232814   6.115   0.729   5.877
10639SOL     OW32815   3.661   2.045   5.094
10639SOL    HW132816   3.574   2.076   5.055
10639SOL    HW232817   3.732   2.049   5.024
10640SOL     OW32818   4.678   6.142   0.625
10640SOL    HW132819   4.604   6.172   0.686
10640SOL    HW232820   4.750   6.099   0.680
10641SOL     OW32821   3.549   0.021   0.299
10641SOL    HW132822   3.540   6.947   0.263
10641SOL    HW232823   3.595   0.079   0.231
10642SOL     OW32824   0.637   5.153   0.943
10642SOL    HW132825   0.646   5.253   0.941
10642SOL    HW232826   0.578   5.127   1.019
10643SOL     OW32827   3.971   3.075   5.271
10643SOL    HW132828   3.886   3.023   5.269
10643SOL    HW232829   4.030   3.039   5.343
10644SOL     OW32830   3.802   1.054   5.589
10644SOL    HW132831   3.780   0.987   5.659
10644SOL    HW232832   3.871   1.016   5.527
10645SOL     OW32833   2.061   0.031   4.619
10645SOL    HW132834   2.005   6.977   4.579
10645SOL    HW232835   2.030   0.120   4.585
10646SOL     OW32836   6.548   5.425   6.807
10646SOL    HW132837   6.518   5.519   6.824
10646SOL    HW232838   6.515   5.366   6.880
10647SOL     OW32839   0.112   6.081   0.778
10647SOL    HW132840   0.015   6.105   0.779
10647SOL    HW232841   0.140   6.052   0.870
10648SOL     OW32842   5.073   4.298   5.980
10648SOL    HW132843   5.062   4.257   5.889
10648SOL    HW232844   4.983   4.320   6.018
10649SOL     OW32845   0.220   5.117   6.686
10649SOL    HW132846   0.159   5.065   6.745
10649SOL    HW232847   0.315   5.093   6.708
10650SOL     OW32848   2.419   0.140   5.498
10650SOL    HW132849   2.443   0.170   5.406
10650SOL    HW232850   2.332   0.180   5.525
10651SOL     OW32851   1.998   0.558   4.569
10651SOL    HW132852   1.944   0.480   4.598
10651SOL    HW232853   1.966   0.591   4.481
10652SOL     OW32854   4.638   1.021   0.648
10652SOL    HW132855   4.734   1.028   0.674
10652SOL    HW232856   4.601   1.113   0.634
10653SOL     OW32857   6.052   4.090   3.981
10653SOL    HW132858   5.971   4.036   4.004
10653SOL    HW232859   6.036   4.186   4.005
10654SOL     OW32860   4.725   0.619   1.342
10654SOL    HW132861   4.754   0.597   1.436
10654SOL    HW232862   4.640   0.570   1.322
10655SOL     OW32863   2.452   5.800   1.109
10655SOL    HW132864   2.495   5.823   1.196
10655SOL    HW232865   2.479   5.708   1.082
10656SOL     OW32866   6.588   2.765   6.066
10656SOL    HW132867   6.582   2.849   6.120
10656SOL    HW232868   6.516   2.764   5.997
10657SOL     OW32869   6.396   0.683   0.984
10657SOL    HW132870   6.356   0.760   0.933
10657SOL    HW232871   6.362   0.597   0.946
10658SOL     OW32872   0.112   6.263   4.112
10658SOL    HW132873   0.101   6.323   4.032
10658SOL    HW232874   0.040   6.194   4.111
10659SOL     OW32875   5.085   1.184   1.245
10659SOL    HW132876   5.015   1.230   1.300
10659SOL    HW232877   5.040   1.118   1.184
10660SOL     OW32878   5.025   5.320   5.641
10660SOL    HW132879   5.106   5.371   5.611
10660SOL    HW232880   4.988   5.267   5.565
10661SOL     OW32881   0.042   1.273   1.685
10661SOL    HW132882   0.035   1.360   1.734
10661SOL    HW232883   0.105   1.283   1.608
10662SOL     OW32884   0.158   2.059   0.702
10662SOL    HW132885   0.210   2.118   0.763
10662SOL    HW232886   0.210   2.044   0.618
10663SOL     OW32887   0.509   2.263   1.470
10663SOL    HW132888   0.607   2.270   1.455
10663SOL    HW232889   0.468   2.354   1.469
10664SOL     OW32890   2.517   5.277   6.044
10664SOL    HW132891   2.420   5.285   6.069
10664SOL    HW232892   2.570   5.249   6.124
10665SOL     OW32893   5.557   1.751   0.118
10665SOL    HW132894   5.551   1.651   0.123
10665SOL    HW232895   5.469   1.790   0.145
10666SOL     OW32896   0.812   6.585   0.412
10666SOL    HW132897   0.845   6.499   0.452
10666SOL    HW232898   0.889   6.647   0.399
10667SOL     OW32899   3.288   2.268   5.625
10667SOL    HW132900   3.238   2.273   5.539
10667SOL    HW232901   3.349   2.189   5.624
10668SOL     OW32902   1.624   0.583   6.044
10668SOL    HW132903   1.710   0.566   5.997
10668SOL    HW232904   1.641   0.634   6.128
10669SOL     OW32905   2.013   6.006   6.604
10669SOL    HW132906   2.074   6.078   6.638
10669SOL    HW232907   2.066   5.924   6.583
10670SOL     OW32908   5.917   4.282   4.847
10670SOL    HW132909   5.950   4.287   4.941
10670SOL    HW232910   5.991   4.248   4.788
10671SOL     OW32911   2.229   2.558   3.452
10671SOL    HW132912   2.310   2.591   3.404
10671SOL    HW232913   2.147   2.584   3.400
10672SOL     OW32914   6.665   2.227   0.896
10672SOL    HW132915   6.724   2.157   0.936
10672SOL    HW232916   6.710   2.317   0.903
10673SOL     OW32917   3.752   4.077   3.948
10673SOL    HW132918   3.819   4.104   4.017
10673SOL    HW232919   3.712   3.989   3.974
10674SOL     OW32920   4.227   1.690   2.425
10674SOL    HW132921   4.155   1.757   2.444
10674SOL    HW232922   4.290   1.686   2.503
10675SOL     OW32923   1.457   1.335   6.044
10675SOL    HW132924   1.505   1.247   6.051
10675SOL    HW232925   1.360   1.318   6.032
10676SOL     OW32926   6.604   0.769   0.265
10676SOL    HW132927   6.520   0.795   0.218
10676SOL    HW232928   6.654   0.851   0.294
10677SOL     OW32929   5.546   1.465   0.229
10677SOL    HW132930   5.492   1.421   0.157
10677SOL    HW232931   5.484   1.517   0.289
10678SOL     OW32932   1.495   5.375   3.497
10678SOL    HW132933   1.489   5.447   3.566
10678SOL    HW232934   1.412   5.319   3.500
10679SOL     OW32935   5.728   5.093   3.799
10679SOL    HW132936   5.827   5.077   3.799
10679SOL    HW232937   5.683   5.026   3.740
10680SOL     OW32938   0.366   2.212   3.854
10680SOL    HW132939   0.302   2.157   3.800
10680SOL    HW232940   0.401   2.157   3.929
10681SOL     OW32941   0.919   3.309   6.916
10681SOL    HW132942   0.869   3.373   6.858
10681SOL    HW232943   0.872   3.221   6.916
10682SOL     OW32944   6.254   2.095   3.545
10682SOL    HW132945   6.179   2.095   3.611
10682SOL    HW232946   6.340   2.077   3.593
10683SOL     OW32947   1.187   0.559   4.050
10683SOL    HW132948   1.172   0.461   4.062
10683SOL    HW232949   1.144   0.589   3.964
10684SOL     OW32950   5.248   5.941   0.681
10684SOL    HW132951   5.203   5.905   0.599
10684SOL    HW232952   5.250   5.871   0.752
10685SOL     OW32953   6.439   2.934   2.923
10685SOL    HW132954   6.534   2.930   2.892
10685SOL    HW232955   6.430   3.003   2.994
10686SOL     OW32956   4.627   4.539   1.527
10686SOL    HW132957   4.632   4.448   1.568
10686SOL    HW232958   4.532   4.571   1.530
10687SOL     OW32959   0.490   5.631   0.610
10687SOL    HW132960   0.393   5.624   0.633
10687SOL    HW232961   0.533   5.541   0.616
10688SOL     OW32962   1.300   4.411   1.048
10688SOL    HW132963   1.264   4.455   1.131
10688SOL    HW232964   1.399   4.422   1.044
10689SOL     OW32965   0.374   0.303   0.726
10689SOL    HW132966   0.301   0.297   0.795
10689SOL    HW232967   0.462   0.286   0.770
10690SOL     OW32968   3.809   0.583   3.482
10690SOL    HW132969   3.815   0.529   3.398
10690SOL    HW232970   3.801   0.680   3.460
10691SOL     OW32971   5.160   1.541   1.451
10691SOL    HW132972   5.136   1.632   1.486
10691SOL    HW232973   5.100   1.473   1.491
10692SOL     OW32974   5.843   6.260   4.218
10692SOL    HW132975   5.870   6.206   4.139
10692SOL    HW232976   5.744   6.251   4.232
10693SOL     OW32977   5.134   2.643   3.831
10693SOL    HW132978   5.101   2.622   3.739
10693SOL    HW232979   5.075   2.600   3.899
10694SOL     OW32980   2.773   5.823   0.232
10694SOL    HW132981   2.705   5.894   0.212
10694SOL    HW232982   2.852   5.836   0.171
10695SOL     OW32983   5.943   2.939   5.964
10695SOL    HW132984   5.843   2.936   5.962
10695SOL    HW232985   5.974   2.949   6.059
10696SOL     OW32986   6.223   0.124   0.576
10696SOL    HW132987   6.253   0.051   0.638
10696SOL    HW232988   6.219   0.089   0.483
10697SOL     OW32989   2.686   5.690   3.121
10697SOL    HW132990   2.614   5.646   3.069
10697SOL    HW232991   2.745   5.742   3.059
10698SOL     OW32992   3.223   0.348   4.084
10698SOL    HW132993   3.201   0.445   4.091
10698SOL    HW232994   3.150   0.293   4.125
10699SOL     OW32995   0.540   2.802   3.612
10699SOL    HW132996   0.601   2.752   3.550
10699SOL    HW232997   0.446   2.771   3.598
10700SOL     OW32998   1.162   3.032   2.442
10700SOL    HW132999   1.100   3.101   2.480
10700SOL    HW233000   1.178   3.052   2.346
10701SOL     OW33001   2.829   0.037   1.330
10701SOL    HW133002   2.825   7.009   1.242
10701SOL    HW233003   2.742   0.083   1.348
10702SOL     OW33004   4.943   2.021   0.474
10702SOL    HW133005   4.884   1.986   0.547
10702SOL    HW233006   4.952   1.951   0.403
10703SOL     OW33007   3.917   4.025   4.175
10703SOL    HW133008   3.833   3.976   4.200
10703SOL    HW233009   3.975   4.035   4.255
10704SOL     OW33010   5.415   5.877   1.751
10704SOL    HW133011   5.350   5.853   1.822
10704SOL    HW233012   5.366   5.905   1.668
10705SOL     OW33013   1.312   3.062   6.853
10705SOL    HW133014   1.320   3.161   6.859
10705SOL    HW233015   1.287   3.036   6.760
10706SOL     OW33016   3.386   3.551   0.629
10706SOL    HW133017   3.366   3.568   0.725
10706SOL    HW233018   3.462   3.487   0.621
10707SOL     OW33019   5.892   0.537   6.678
10707SOL    HW133020   5.987   0.568   6.688
10707SOL    HW233021   5.837   0.572   6.754
10708SOL     OW33022   4.451   2.107   1.486
10708SOL    HW133023   4.367   2.158   1.468
10708SOL    HW233024   4.450   2.074   1.580
10709SOL     OW33025   0.924   0.894   6.406
10709SOL    HW133026   0.916   0.985   6.448
10709SOL    HW233027   1.018   0.862   6.414
10710SOL     OW33028   0.299   6.689   3.325
10710SOL    HW133029   0.200   6.698   3.328
10710SOL    HW233030   0.327   6.647   3.239
10711SOL     OW33031   2.053   4.045   5.074
10711SOL    HW133032   2.140   4.036   5.027
10711SOL    HW233033   2.011   3.955   5.085
10712SOL     OW33034   3.624   2.003   6.626
10712SOL    HW133035   3.650   2.098   6.613
10712SOL    HW233036   3.530   1.998   6.659
10713SOL     OW33037   2.731   6.922   0.452
10713SOL    HW133038   2.683   6.963   0.375
10713SOL    HW233039   2.780   6.840   0.422
10714SOL     OW33040   5.120   5.548   3.938
10714SOL    HW133041   5.201   5.513   3.889
10714SOL    HW233042   5.140   5.638   3.975
10715SOL     OW33043   5.880   0.182   2.682
10715SOL    HW133044   5.855   0.217   2.591
10715SOL    HW233045   5.978   0.164   2.685
10716SOL     OW33046   6.880   1.818   1.998
10716SOL    HW133047   6.908   1.788   2.090
10716SOL    HW233048   6.948   1.787   1.931
10717SOL     OW33049   0.636   6.735   1.713
10717SOL    HW133050   0.611   6.831   1.724
10717SOL    HW233051   0.735   6.727   1.701
10718SOL     OW33052   6.944   5.098   5.082
10718SOL    HW133053   6.938   5.047   5.168
10718SOL    HW233054   0.021   5.103   5.052
10719SOL     OW33055   3.429   6.589   3.520
10719SOL    HW133056   3.509   6.591   3.461
10719SOL    HW233057   3.401   6.683   3.541
10720SOL     OW33058   0.397   2.909   5.909
10720SOL    HW133059   0.426   2.833   5.966
10720SOL    HW233060   0.405   2.995   5.960
10721SOL     OW33061   5.532   1.107   3.739
10721SOL    HW133062   5.618   1.059   3.760
10721SOL    HW233063   5.511   1.097   3.641
10722SOL     OW33064   0.999   5.422   0.173
10722SOL    HW133065   1.073   5.396   0.235
10722SOL    HW233066   0.920   5.451   0.227
10723SOL     OW33067   6.881   4.026   6.134
10723SOL    HW133068   6.795   3.978   6.117
10723SOL    HW233069   6.944   3.965   6.182
10724SOL     OW33070   3.409   6.372   5.906
10724SOL    HW133071   3.413   6.292   5.967
10724SOL    HW233072   3.423   6.342   5.812
10725SOL     OW33073   6.950   0.450   5.323
10725SOL    HW133074   6.914   0.357   5.339
10725SOL    HW233075   0.015   0.444   5.268
10726SOL     OW33076   6.931   0.196   3.254
10726SOL    HW133077   6.945   0.235   3.162
10726SOL    HW233078   7.009   0.220   3.312
10727SOL     OW33079   5.180   6.059   6.556
10727SOL    HW133080   5.199   5.995   6.482
10727SOL    HW233081   5.247   6.134   6.554
10728SOL     OW33082   5.456   6.218   4.003
10728SOL    HW133083   5.471   6.132   4.051
10728SOL    HW233084   5.358   6.237   3.998
10729SOL     OW33085   6.938   3.083   4.049
10729SOL    HW133086   6.859   3.062   3.991
10729SOL    HW233087   7.000   3.005   4.050
10730SOL     OW33088   1.350   5.880   4.296
10730SOL    HW133089   1.287   5.957   4.298
10730SOL    HW233090   1.444   5.914   4.293
10731SOL     OW33091   4.887   4.278   5.459
10731SOL    HW133092   4.813   4.276   5.393
10731SOL    HW233093   4.975   4.276   5.411
10732SOL     OW33094   5.412   6.069   2.065
10732SOL    HW133095   5.355   6.009   2.009
10732SOL    HW233096   5.429   6.025   2.153
10733SOL     OW33097   0.788   1.589   5.680
10733SOL    HW133098   0.750   1.502   5.647
10733SOL    HW233099   0.887   1.582   5.685
10734SOL     OW33100   0.551   0.352   4.428
10734SOL    HW133101   0.599   0.426   4.381
10734SOL    HW233102   0.586   0.343   4.521
10735SOL     OW33103   6.890   0.877   1.700
10735SOL    HW133104   6.797   0.897   1.728
10735SOL    HW233105   6.896   0.876   1.600
10736SOL     OW33106   5.930   5.663   3.604
10736SOL    HW133107   5.917   5.681   3.506
10736SOL    HW233108   5.843   5.633   3.644
10737SOL     OW33109   6.929   0.721   0.566
10737SOL    HW133110   6.949   0.628   0.536
10737SOL    HW233111   6.857   0.719   0.635
10738SOL     OW33112   1.509   6.553   1.616
10738SOL    HW133113   1.503   6.462   1.657
10738SOL    HW233114   1.580   6.606   1.663
10739SOL     OW33115   5.373   2.510   3.746
10739SOL    HW133116   5.338   2.483   3.657
10739SOL    HW233117   5.314   2.580   3.785
10740SOL     OW33118   2.875   0.686   6.290
10740SOL    HW133119   2.868   0.761   6.225
10740SOL    HW233120   2.948   0.624   6.260
10741SOL     OW33121   1.803   2.555   4.480
10741SOL    HW133122   1.849   2.603   4.556
10741SOL    HW233123   1.853   2.471   4.460
10742SOL     OW33124   0.360   0.408   1.847
10742SOL    HW133125   0.402   0.481   1.794
10742SOL    HW233126   0.335   0.441   1.937
10743SOL     OW33127   3.992   2.664   6.225
10743SOL    HW133128   4.057   2.739   6.217
10743SOL    HW233129   4.036   2.579   6.195
10744SOL     OW33130   1.723   1.820   0.831
10744SOL    HW133131   1.757   1.784   0.744
10744SOL    HW233132   1.647   1.882   0.814
10745SOL     OW33133   3.464   5.546   1.500
10745SOL    HW133134   3.546   5.599   1.521
10745SOL    HW233135   3.420   5.518   1.585
10746SOL     OW33136   2.649   6.051   5.990
10746SOL    HW133137   2.561   6.003   5.992
10746SOL    HW233138   2.637   6.144   6.024
10747SOL     OW33139   6.926   0.022   4.566
10747SOL    HW133140   6.910   6.944   4.545
10747SOL    HW233141   6.986   0.030   4.646
10748SOL     OW33142   2.864   6.268   2.634
10748SOL    HW133143   2.797   6.252   2.707
10748SOL    HW233144   2.885   6.182   2.588
10749SOL     OW33145   4.892   3.168   2.573
10749SOL    HW133146   4.838   3.106   2.516
10749SOL    HW233147   4.986   3.170   2.539
10750SOL     OW33148   3.664   1.550   4.207
10750SOL    HW133149   3.640   1.646   4.191
10750SOL    HW233150   3.659   1.530   4.305
10751SOL     OW33151   6.227   6.120   3.596
10751SOL    HW133152   6.196   6.033   3.558
10751SOL    HW233153   6.258   6.180   3.523
10752SOL     OW33154   0.234   6.107   6.581
10752SOL    HW133155   0.148   6.135   6.624
10752SOL    HW233156   0.225   6.013   6.548
10753SOL     OW33157   5.455   6.787   4.914
10753SOL    HW133158   5.452   6.700   4.864
10753SOL    HW233159   5.375   6.793   4.975
10754SOL     OW33160   0.095   5.690   2.113
10754SOL    HW133161   0.080   5.736   2.025
10754SOL    HW233162   0.166   5.738   2.164
10755SOL     OW33163   0.797   1.742   2.510
10755SOL    HW133164   0.774   1.710   2.417
10755SOL    HW233165   0.717   1.788   2.550
10756SOL     OW33166   1.008   0.259   6.522
10756SOL    HW133167   1.023   0.321   6.445
10756SOL    HW233168   0.971   0.310   6.600
10757SOL     OW33169   6.813   2.632   1.756
10757SOL    HW133170   6.876   2.670   1.823
10757SOL    HW233171   6.858   2.628   1.667
10758SOL     OW33172   0.456   1.793   0.285
10758SOL    HW133173   0.549   1.788   0.249
10758SOL    HW233174   0.397   1.732   0.231
10759SOL     OW33175   3.769   4.789   5.544
10759SOL    HW133176   3.697   4.847   5.581
10759SOL    HW233177   3.732   4.735   5.469
10760SOL     OW33178   0.677   5.047   0.177
10760SOL    HW133179   0.689   5.071   0.081
10760SOL    HW233180   0.665   5.131   0.231
10761SOL     OW33181   1.449   1.517   6.682
10761SOL    HW133182   1.449   1.421   6.654
10761SOL    HW233183   1.472   1.575   6.604
10762SOL     OW33184   1.855   6.146   1.217
10762SOL    HW133185   1.935   6.192   1.177
10762SOL    HW233186   1.868   6.135   1.315
10763SOL     OW33187   4.934   1.069   2.110
10763SOL    HW133188   4.944   1.162   2.076
10763SOL    HW233189   5.003   1.010   2.069
10764SOL     OW33190   5.424   6.272   4.726
10764SOL    HW133191   5.434   6.172   4.727
10764SOL    HW233192   5.489   6.311   4.660
10765SOL     OW33193   6.604   2.734   1.545
10765SOL    HW133194   6.595   2.639   1.575
10765SOL    HW233195   6.677   2.778   1.596
10766SOL     OW33196   3.208   5.054   6.634
10766SOL    HW133197   3.149   5.131   6.609
10766SOL    HW233198   3.182   5.021   6.724
10767SOL     OW33199   1.585   4.955   6.592
10767SOL    HW133200   1.537   4.908   6.517
10767SOL    HW233201   1.617   4.888   6.658
10768SOL     OW33202   5.848   6.328   0.156
10768SOL    HW133203   5.872   6.314   0.252
10768SOL    HW233204   5.911   6.393   0.115
10769SOL     OW33205   3.333   3.831   4.940
10769SOL    HW133206   3.331   3.856   5.037
10769SOL    HW233207   3.406   3.881   4.894
10770SOL     OW33208   4.320   0.008   3.744
10770SOL    HW133209   4.264   6.978   3.811
10770SOL    HW233210   4.379   0.074   3.792
10771SOL     OW33211   4.951   5.851   5.807
10771SOL    HW133212   4.940   5.893   5.717
10771SOL    HW233213   4.900   5.765   5.811
10772SOL     OW33214   4.850   4.025   3.520
10772SOL    HW133215   4.872   3.929   3.540
10772SOL    HW233216   4.934   4.078   3.515
10773SOL     OW33217   0.373   4.127   0.949
10773SOL    HW133218   0.448   4.122   1.016
10773SOL    HW233219   0.357   4.222   0.924
10774SOL     OW33220   6.945   3.129   0.530
10774SOL    HW133221   6.900   3.217   0.544
10774SOL    HW233222   0.024   3.138   0.549
10775SOL     OW33223   2.662   4.731   6.399
10775SOL    HW133224   2.608   4.705   6.320
10775SOL    HW233225   2.720   4.809   6.376
10776SOL     OW33226   0.708   4.019   3.291
10776SOL    HW133227   0.647   4.098   3.291
10776SOL    HW233228   0.791   4.041   3.343
10777SOL     OW33229   1.077   6.472   1.911
10777SOL    HW133230   1.166   6.427   1.923
10777SOL    HW233231   1.041   6.497   2.001
10778SOL     OW33232   5.103   0.308   3.693
10778SOL    HW133233   5.130   0.353   3.608
10778SOL    HW233234   5.109   0.209   3.682
10779SOL     OW33235   5.319   2.885   5.942
10779SOL    HW133236   5.344   2.933   5.858
10779SOL    HW233237   5.336   2.944   6.021
10780SOL     OW33238   0.759   5.297   4.589
10780SOL    HW133239   0.664   5.299   4.621
10780SOL    HW233240   0.787   5.202   4.574
10781SOL     OW33241   6.036   2.292   5.783
10781SOL    HW133242   6.057   2.249   5.872
10781SOL    HW233243   6.075   2.237   5.710
10782SOL     OW33244   1.247   3.315   5.212
10782SOL    HW133245   1.286   3.372   5.284
10782SOL    HW233246   1.260   3.218   5.236
10783SOL     OW33247   1.267   3.753   4.082
10783SOL    HW133248   1.226   3.672   4.124
10783SOL    HW233249   1.239   3.834   4.134
10784SOL     OW33250   4.718   5.316   3.938
10784SOL    HW133251   4.790   5.288   4.001
10784SOL    HW233252   4.647   5.245   3.934
10785SOL     OW33253   2.092   5.230   1.585
10785SOL    HW133254   2.046   5.298   1.528
10785SOL    HW233255   2.181   5.209   1.546
10786SOL     OW33256   4.892   1.516   2.701
10786SOL    HW133257   4.916   1.531   2.605
10786SOL    HW233258   4.862   1.602   2.742
10787SOL     OW33259   2.862   1.622   4.170
10787SOL    HW133260   2.852   1.719   4.193
10787SOL    HW233261   2.902   1.573   4.248
10788SOL     OW33262   1.397   3.090   0.375
10788SOL    HW133263   1.431   3.183   0.366
10788SOL    HW233264   1.371   3.055   0.285
10789SOL     OW33265   6.163   1.848   2.863
10789SOL    HW133266   6.237   1.914   2.878
10789SOL    HW233267   6.145   1.798   2.948
10790SOL     OW33268   6.792   2.589   5.451
10790SOL    HW133269   6.727   2.642   5.397
10790SOL    HW233270   6.883   2.627   5.440
10791SOL     OW33271   1.944   3.363   3.482
10791SOL    HW133272   2.019   3.429   3.478
10791SOL    HW233273   1.977   3.277   3.520
10792SOL     OW33274   3.774   1.315   2.211
10792SOL    HW133275   3.762   1.318   2.310
10792SOL    HW233276   3.711   1.380   2.168
10793SOL     OW33277   3.917   2.155   4.331
10793SOL    HW133278   3.964   2.139   4.244
10793SOL    HW233279   3.975   2.211   4.390
10794SOL     OW33280   4.568   2.838   6.489
10794SOL    HW133281   4.659   2.868   6.519
10794SOL    HW233282   4.555   2.742   6.515
10795SOL     OW33283   6.240   3.164   3.052
10795SOL    HW133284   6.262   3.248   3.002
10795SOL    HW233285   6.153   3.128   3.020
10796SOL     OW33286   6.981   1.626   6.593
10796SOL    HW133287   6.911   1.648   6.661
10796SOL    HW233288   7.000   1.528   6.594
10797SOL     OW33289   5.594   4.591   6.606
10797SOL    HW133290   5.666   4.530   6.572
10797SOL    HW233291   5.636   4.663   6.661
10798SOL     OW33292   2.485   5.813   0.430
10798SOL    HW133293   2.387   5.812   0.415
10798SOL    HW233294   2.529   5.868   0.359
10799SOL     OW33295   2.109   0.618   3.113
10799SOL    HW133296   2.142   0.693   3.171
10799SOL    HW233297   2.182   0.551   3.100
10800SOL     OW33298   1.420   0.436   4.968
10800SOL    HW133299   1.507   0.482   4.987
10800SOL    HW233300   1.347   0.504   4.966
10801SOL     OW33301   2.878   6.123   6.652
10801SOL    HW133302   2.954   6.181   6.683
10801SOL    HW233303   2.797   6.142   6.708
10802SOL     OW33304   0.551   4.725   3.656
10802SOL    HW133305   0.562   4.765   3.565
10802SOL    HW233306   0.492   4.785   3.711
10803SOL     OW33307   6.869   4.388   4.590
10803SOL    HW133308   6.949   4.328   4.597
10803SOL    HW233309   6.864   4.425   4.497
10804SOL     OW33310   4.293   4.933   6.610
10804SOL    HW133311   4.330   4.849   6.650
10804SOL    HW233312   4.345   5.012   6.644
10805SOL     OW33313   4.844   5.762   0.783
10805SOL    HW133314   4.772   5.780   0.716
10805SOL    HW233315   4.812   5.694   0.849
10806SOL     OW33316   5.851   2.746   5.202
10806SOL    HW133317   5.884   2.741   5.107
10806SOL    HW233318   5.918   2.703   5.262
10807SOL     OW33319   4.561   2.909   5.543
10807SOL    HW133320   4.537   2.849   5.620
10807SOL    HW233321   4.617   2.985   5.576
10808SOL     OW33322   0.329   2.667   1.275
10808SOL    HW133323   0.356   2.742   1.336
10808SOL    HW233324   0.410   2.629   1.231
10809SOL     OW33325   0.915   0.956   2.897
10809SOL    HW133326   0.825   0.913   2.907
10809SOL    HW233327   0.979   0.890   2.857
10810SOL     OW33328   1.972   1.691   6.154
10810SOL    HW133329   1.905   1.641   6.210
10810SOL    HW233330   1.943   1.787   6.147
10811SOL     OW33331   4.027   5.966   6.569
10811SOL    HW133332   4.119   5.989   6.601
10811SOL    HW233333   4.033   5.922   6.480
10812SOL     OW33334   6.492   3.220   2.713
10812SOL    HW133335   6.423   3.191   2.647
10812SOL    HW233336   6.448   3.273   2.786
10813SOL     OW33337   3.421   6.137   2.531
10813SOL    HW133338   3.382   6.224   2.563
10813SOL    HW233339   3.486   6.155   2.458
10814SOL     OW33340   1.860   5.786   4.420
10814SOL    HW133341   1.840   5.884   4.426
10814SOL    HW233342   1.786   5.734   4.462
10815SOL     OW33343   5.524   2.286   5.797
10815SOL    HW133344   5.472   2.371   5.802
10815SOL    HW233345   5.517   2.249   5.704
10816SOL     OW33346   2.282   2.468   0.733
10816SOL    HW133347   2.255   2.493   0.826
10816SOL    HW233348   2.293   2.369   0.727
10817SOL     OW33349   3.550   1.877   1.923
10817SOL    HW133350   3.475   1.871   1.857
10817SOL    HW233351   3.624   1.932   1.884
10818SOL     OW33352   4.817   3.284   6.171
10818SOL    HW133353   4.781   3.333   6.092
10818SOL    HW233354   4.843   3.349   6.242
10819SOL     OW33355   2.147   3.023   5.223
10819SOL    HW133356   2.113   3.110   5.188
10819SOL    HW233357   2.246   3.028   5.233
10820SOL     OW33358   1.536   6.388   5.298
10820SOL    HW133359   1.484   6.472   5.310
10820SOL    HW233360   1.621   6.394   5.350
10821SOL     OW33361   0.091   0.372   0.113
10821SOL    HW133362   0.027   0.298   0.092
10821SOL    HW233363   0.040   0.457   0.128
10822SOL     OW33364   0.181   4.973   5.989
10822SOL    HW133365   0.175   5.027   5.905
10822SOL    HW233366   0.138   4.884   5.974
10823SOL     OW33367   2.214   1.924   0.736
10823SOL    HW133368   2.307   1.899   0.710
10823SOL    HW233369   2.173   1.983   0.666
10824SOL     OW33370   5.232   1.362   4.604
10824SOL    HW133371   5.241   1.400   4.512
10824SOL    HW233372   5.260   1.430   4.671
10825SOL     OW33373   3.634   1.159   1.958
10825SOL    HW133374   3.706   1.182   2.024
10825SOL    HW233375   3.648   1.211   1.874
10826SOL     OW33376   0.067   3.593   1.057
10826SOL    HW133377   0.092   3.579   0.961
10826SOL    HW233378   0.002   3.522   1.085
10827SOL     OW33379   0.368   2.532   4.323
10827SOL    HW133380   0.451   2.587   4.313
10827SOL    HW233381   0.332   2.543   4.415
10828SOL     OW33382   2.583   4.794   0.032
10828SOL    HW133383   2.593   4.878   6.997
10828SOL    HW233384   2.544   4.722   6.992
10829SOL     OW33385   2.069   3.693   1.456
10829SOL    HW133386   2.140   3.694   1.526
10829SOL    HW233387   2.077   3.775   1.399
10830SOL     OW33388   6.497   0.021   3.695
10830SOL    HW133389   6.425   0.017   3.764
10830SOL    HW233390   6.561   0.094   3.719
10831SOL     OW33391   5.339   2.953   2.237
10831SOL    HW133392   5.402   2.880   2.263
10831SOL    HW233393   5.391   3.037   2.223
10832SOL     OW33394   1.654   2.561   1.892
10832SOL    HW133395   1.661   2.464   1.873
10832SOL    HW233396   1.685   2.579   1.986
10833SOL     OW33397   3.326   6.979   4.615
10833SOL    HW133398   3.271   7.008   4.537
10833SOL    HW233399   3.310   0.022   4.692
10834SOL     OW33400   6.965   1.988   5.679
10834SOL    HW133401   6.962   2.027   5.771
10834SOL    HW233402   6.905   1.909   5.674
10835SOL     OW33403   0.110   1.481   0.441
10835SOL    HW133404   0.163   1.451   0.361
10835SOL    HW233405   0.133   1.576   0.463
10836SOL     OW33406   0.174   2.120   1.363
10836SOL    HW133407   0.111   2.095   1.289
10836SOL    HW233408   0.252   2.169   1.324
10837SOL     OW33409   1.402   5.163   0.889
10837SOL    HW133410   1.433   5.159   0.794
10837SOL    HW233411   1.426   5.252   0.928
10838SOL     OW33412   6.864   5.832   0.603
10838SOL    HW133413   6.854   5.835   0.504
10838SOL    HW233414   6.910   5.747   0.630
10839SOL     OW33415   2.332   1.902   6.644
10839SOL    HW133416   2.425   1.932   6.666
10839SOL    HW233417   2.319   1.808   6.676
10840SOL     OW33418   1.681   0.732   3.255
10840SOL    HW133419   1.734   0.814   3.276
10840SOL    HW233420   1.737   0.668   3.203
10841SOL     OW33421   4.678   3.893   0.230
10841SOL    HW133422   4.761   3.944   0.253
10841SOL    HW233423   4.663   3.898   0.131
10842SOL     OW33424   5.819   1.756   1.983
10842SOL    HW133425   5.780   1.722   1.897
10842SOL    HW233426   5.804   1.689   2.056
10843SOL     OW33427   1.070   2.241   1.163
10843SOL    HW133428   1.146   2.268   1.104
10843SOL    HW233429   1.091   2.153   1.206
10844SOL     OW33430   4.814   6.753   3.943
10844SOL    HW133431   4.881   6.682   3.920
10844SOL    HW233432   4.860   6.825   3.997
10845SOL     OW33433   2.522   3.621   1.559
10845SOL    HW133434   2.571   3.681   1.622
10845SOL    HW233435   2.436   3.592   1.600
10846SOL     OW33436   3.501   2.828   1.931
10846SOL    HW133437   3.437   2.854   2.003
10846SOL    HW233438   3.592   2.864   1.953
10847SOL     OW33439   5.346   1.668   5.388
10847SOL    HW133440   5.272   1.611   5.353
10847SOL    HW233441   5.369   1.738   5.319
10848SOL     OW33442   1.887   0.757   6.901
10848SOL    HW133443   1.971   0.731   6.852
10848SOL    HW233444   1.888   0.856   6.919
10849SOL     OW33445   0.686   4.403   4.531
10849SOL    HW133446   0.746   4.357   4.466
10849SOL    HW233447   0.665   4.495   4.498
10850SOL     OW33448   6.060   0.273   2.979
10850SOL    HW133449   6.052   0.372   2.972
10850SOL    HW233450   6.137   0.241   2.925
10851SOL     OW33451   4.426   2.729   0.288
10851SOL    HW133452   4.435   2.805   0.224
10851SOL    HW233453   4.440   2.763   0.382
10852SOL     OW33454   6.308   1.597   6.018
10852SOL    HW133455   6.304   1.498   6.008
10852SOL    HW233456   6.381   1.633   5.959
10853SOL     OW33457   2.649   0.419   5.388
10853SOL    HW133458   2.570   0.359   5.371
10853SOL    HW233459   2.727   0.387   5.334
10854SOL     OW33460   5.952   0.293   6.860
10854SOL    HW133461   5.900   0.218   6.901
10854SOL    HW233462   5.920   0.308   6.766
10855SOL     OW33463   1.113   6.067   6.903
10855SOL    HW133464   1.155   5.980   6.928
10855SOL    HW233465   1.024   6.049   6.859
10856SOL     OW33466   4.953   6.907   6.419
10856SOL    HW133467   4.949   6.913   6.319
10856SOL    HW233468   4.985   6.816   6.445
10857SOL     OW33469   6.508   6.677   4.910
10857SOL    HW133470   6.478   6.741   4.840
10857SOL    HW233471   6.535   6.728   4.992
10858SOL     OW33472   2.084   2.776   0.784
10858SOL    HW133473   2.057   2.869   0.810
10858SOL    HW233474   2.115   2.727   0.866
10859SOL     OW33475   2.584   5.878   1.677
10859SOL    HW133476   2.678   5.905   1.700
10859SOL    HW233477   2.586   5.815   1.600
10860SOL     OW33478   5.629   1.504   1.439
10860SOL    HW133479   5.619   1.600   1.466
10860SOL    HW233480   5.699   1.461   1.496
10861SOL     OW33481   2.109   4.698   0.956
10861SOL    HW133482   2.035   4.689   1.023
10861SOL    HW233483   2.152   4.609   0.942
10862SOL     OW33484   3.853   4.556   5.312
10862SOL    HW133485   3.827   4.463   5.288
10862SOL    HW233486   3.771   4.612   5.321
10863SOL     OW33487   0.488   6.770   3.529
10863SOL    HW133488   0.405   6.746   3.479
10863SOL    HW233489   0.524   6.858   3.496
10864SOL     OW33490   2.921   3.731   2.668
10864SOL    HW133491   2.970   3.758   2.584
10864SOL    HW233492   2.944   3.794   2.742
10865SOL     OW33493   3.261   1.996   2.578
10865SOL    HW133494   3.211   1.979   2.493
10865SOL    HW233495   3.358   1.975   2.564
10866SOL     OW33496   0.447   3.502   4.931
10866SOL    HW133497   0.472   3.491   4.834
10866SOL    HW233498   0.530   3.508   4.986
10867SOL     OW33499   4.778   2.823   0.291
10867SOL    HW133500   4.769   2.753   0.220
10867SOL    HW233501   4.858   2.803   0.347
10868SOL     OW33502   0.744   6.796   5.760
10868SOL    HW133503   0.736   6.729   5.686
10868SOL    HW233504   0.731   6.888   5.723
10869NA      NA33505   6.950   0.840   6.823
10870NA      NA33506   4.696   4.724   4.954
10871NA      NA33507   0.941   4.649   2.884
10872NA      NA33508   6.280   3.550   3.467
10873NA      NA33509   4.278   2.286   5.204
10874NA      NA33510   2.329   3.515   6.901
10875NA      NA33511   1.595   5.376   0.301
10876NA      NA33512   4.226   5.037   2.131
10877NA      NA33513   5.270   3.592   1.257
10878NA      NA33514   3.749   1.856   0.487
10879NA      NA33515   5.234   6.430   1.440
10880NA      NA33516   2.796   6.348   4.434
10881NA      NA33517   3.294   5.575   2.911
10882NA      NA33518   4.252   4.900   6.140
   7.01801   7.01801   7.01801
