Generated by trjconv : CNT in water t= 260.00000
33518
    1C        C    1   2.843   2.771   4.746
    1C        C    2   2.895   2.714   4.865
    1C        C    3   2.842   2.770   4.982
    1C        C    4   2.851   2.775   4.260
    1C        C    5   2.908   2.729   4.381
    1C        C    6   2.849   2.774   4.502
    1C        C    7   3.012   2.641   4.624
    1C        C    8   2.897   2.723   4.625
    1C        C    9   3.077   2.604   4.744
    1C        C   10   3.010   2.633   4.865
    1C        C   11   3.176   2.492   4.971
    1C        C   12   3.053   2.558   4.976
    1C        C   13   2.854   2.774   3.770
    1C        C   14   2.904   2.725   3.893
    1C        C   15   2.852   2.774   4.015
    1C        C   16   3.021   2.646   4.135
    1C        C   17   2.908   2.731   4.138
    1C        C   18   3.079   2.610   4.258
    1C        C   19   3.020   2.644   4.381
    1C        C   20   3.207   2.549   4.500
    1C        C   21   3.076   2.602   4.504
    1C        C   22   3.274   2.526   4.622
    1C        C   23   3.206   2.545   4.745
    1C        C   24   3.411   2.476   4.863
    1C        C   25   3.271   2.504   4.865
    1C        C   26   3.487   2.477   4.981
    1C        C   27   2.850   2.766   3.279
    1C        C   28   2.902   2.721   3.402
    1C        C   29   2.858   2.777   3.525
    1C        C   30   3.019   2.641   3.646
    1C        C   31   2.906   2.726   3.648
    1C        C   32   3.077   2.603   3.768
    1C        C   33   3.015   2.637   3.890
    1C        C   34   3.206   2.546   4.014
    1C        C   35   3.077   2.602   4.012
    1C        C   36   3.274   2.522   4.135
    1C        C   37   3.209   2.554   4.256
    1C        C   38   3.413   2.502   4.379
    1C        C   39   3.274   2.524   4.378
    1C        C   40   3.483   2.491   4.501
    1C        C   41   3.413   2.498   4.623
    1C        C   42   3.628   2.477   4.739
    1C        C   43   3.486   2.476   4.742
    1C        C   44   3.701   2.484   4.859
    1C        C   45   3.626   2.475   4.978
    1C        C   46   2.837   2.754   2.793
    1C        C   47   2.896   2.713   2.915
    1C        C   48   2.844   2.763   3.037
    1C        C   49   3.016   2.634   3.159
    1C        C   50   2.900   2.715   3.157
    1C        C   51   3.078   2.601   3.282
    1C        C   52   3.013   2.634   3.402
    1C        C   53   3.209   2.548   3.525
    1C        C   54   3.078   2.600   3.524
    1C        C   55   3.274   2.522   3.647
    1C        C   56   3.206   2.545   3.769
    1C        C   57   3.414   2.504   3.891
    1C        C   58   3.275   2.528   3.891
    1C        C   59   3.486   2.496   4.013
    1C        C   60   3.414   2.501   4.134
    1C        C   61   3.625   2.503   4.257
    1C        C   62   3.484   2.494   4.257
    1C        C   63   3.697   2.506   4.379
    1C        C   64   3.625   2.496   4.500
    1C        C   65   3.836   2.532   4.620
    1C        C   66   3.701   2.493   4.619
    1C        C   67   3.906   2.557   4.741
    1C        C   68   3.837   2.522   4.859
    1C        C   69   4.049   2.583   4.977
    1C        C   70   3.916   2.537   4.974
    1C        C   71   2.826   2.736   2.306
    1C        C   72   2.884   2.693   2.428
    1C        C   73   2.830   2.746   2.548
    1C        C   74   3.003   2.625   2.673
    1C        C   75   2.885   2.702   2.670
    1C        C   76   3.071   2.592   2.793
    1C        C   77   3.010   2.630   2.914
    1C        C   78   3.206   2.547   3.035
    1C        C   79   3.076   2.601   3.035
    1C        C   80   3.274   2.527   3.158
    1C        C   81   3.208   2.546   3.282
    1C        C   82   3.415   2.497   3.399
    1C        C   83   3.276   2.521   3.403
    1C        C   84   3.484   2.491   3.523
    1C        C   85   3.413   2.497   3.645
    1C        C   86   3.624   2.500   3.765
    1C        C   87   3.483   2.497   3.768
    1C        C   88   3.694   2.507   3.888
    1C        C   89   3.627   2.500   4.012
    1C        C   90   3.833   2.542   4.134
    1C        C   91   3.696   2.506   4.135
    1C        C   92   3.898   2.571   4.256
    1C        C   93   3.834   2.540   4.377
    1C        C   94   4.025   2.631   4.498
    1C        C   95   3.903   2.561   4.499
    1C        C   96   4.091   2.668   4.617
    1C        C   97   4.032   2.623   4.738
    1C        C   98   4.188   2.761   4.862
    1C        C   99   4.097   2.650   4.861
    1C        C  100   4.213   2.840   4.974
    1C        C  101   2.822   2.729   2.068
    1C        C  102   2.994   2.595   2.187
    1C        C  103   2.880   2.681   2.186
    1C        C  104   3.063   2.575   2.309
    1C        C  105   3.004   2.619   2.430
    1C        C  106   3.198   2.535   2.551
    1C        C  107   3.070   2.594   2.552
    1C        C  108   3.270   2.517   2.671
    1C        C  109   3.201   2.538   2.792
    1C        C  110   3.410   2.490   2.913
    1C        C  111   3.271   2.519   2.913
    1C        C  112   3.482   2.485   3.034
    1C        C  113   3.412   2.497   3.157
    1C        C  114   3.627   2.492   3.276
    1C        C  115   3.485   2.487   3.277
    1C        C  116   3.695   2.504   3.399
    1C        C  117   3.625   2.492   3.522
    1C        C  118   3.833   2.538   3.644
    1C        C  119   3.695   2.505   3.644
    1C        C  120   3.897   2.564   3.767
    1C        C  121   3.832   2.540   3.890
    1C        C  122   4.022   2.634   4.008
    1C        C  123   3.899   2.564   4.012
    1C        C  124   4.079   2.676   4.130
    1C        C  125   4.021   2.641   4.254
    1C        C  126   4.190   2.767   4.376
    1C        C  127   4.082   2.675   4.377
    1C        C  128   4.240   2.820   4.497
    1C        C  129   4.191   2.767   4.618
    1C        C  130   4.318   2.936   4.740
    1C        C  131   4.237   2.819   4.741
    1C        C  132   4.355   3.001   4.859
    1C        C  133   4.288   2.957   4.974
    1C        C  134   3.173   2.472   2.076
    1C        C  135   3.037   2.504   2.085
    1C        C  136   3.257   2.481   2.187
    1C        C  137   3.194   2.519   2.307
    1C        C  138   3.402   2.479   2.426
    1C        C  139   3.263   2.505   2.429
    1C        C  140   3.479   2.485   2.544
    1C        C  141   3.410   2.497   2.667
    1C        C  142   3.621   2.491   2.787
    1C        C  143   3.480   2.487   2.790
    1C        C  144   3.693   2.497   2.909
    1C        C  145   3.623   2.491   3.031
    1C        C  146   3.831   2.535   3.153
    1C        C  147   3.694   2.502   3.152
    1C        C  148   3.900   2.555   3.274
    1C        C  149   3.832   2.537   3.397
    1C        C  150   4.022   2.627   3.520
    1C        C  151   3.896   2.564   3.520
    1C        C  152   4.080   2.670   3.642
    1C        C  153   4.017   2.639   3.765
    1C        C  154   4.189   2.766   3.888
    1C        C  155   4.078   2.678   3.886
    1C        C  156   4.239   2.814   4.011
    1C        C  157   4.188   2.766   4.134
    1C        C  158   4.337   2.920   4.252
    1C        C  159   4.245   2.813   4.254
    1C        C  160   4.373   2.982   4.373
    1C        C  161   4.329   2.930   4.497
    1C        C  162   4.433   3.115   4.615
    1C        C  163   4.364   2.992   4.619
    1C        C  164   4.466   3.181   4.736
    1C        C  165   4.429   3.121   4.859
    1C        C  166   4.512   3.321   4.970
    1C        C  167   4.476   3.187   4.974
    1C        C  168   3.475   2.434   2.072
    1C        C  169   3.397   2.460   2.186
    1C        C  170   3.615   2.469   2.301
    1C        C  171   3.473   2.463   2.305
    1C        C  172   3.689   2.487   2.420
    1C        C  173   3.620   2.488   2.543
    1C        C  174   3.827   2.535   2.662
    1C        C  175   3.690   2.501   2.665
    1C        C  176   3.894   2.557   2.785
    1C        C  177   3.831   2.532   2.908
    1C        C  178   4.024   2.619   3.027
    1C        C  179   3.898   2.557   3.030
    1C        C  180   4.082   2.659   3.150
    1C        C  181   4.022   2.627   3.274
    1C        C  182   4.191   2.753   3.395
    1C        C  183   4.081   2.664   3.397
    1C        C  184   4.239   2.804   3.518
    1C        C  185   4.189   2.759   3.642
    1C        C  186   4.333   2.917   3.764
    1C        C  187   4.239   2.810   3.764
    1C        C  188   4.373   2.978   3.885
    1C        C  189   4.329   2.923   4.007
    1C        C  190   4.442   3.103   4.125
    1C        C  191   4.374   2.979   4.129
    1C        C  192   4.467   3.170   4.247
    1C        C  193   4.436   3.109   4.371
    1C        C  194   4.507   3.311   4.492
    1C        C  195   4.466   3.175   4.492
    1C        C  196   4.525   3.384   4.611
    1C        C  197   4.513   3.315   4.733
    1C        C  198   4.551   3.534   4.850
    1C        C  199   4.528   3.393   4.851
    1C        C  200   4.580   3.617   4.964
    1C        C  201   3.614   2.417   2.070
    1C        C  202   3.827   2.511   2.179
    1C        C  203   3.691   2.464   2.181
    1C        C  204   3.897   2.538   2.299
    1C        C  205   3.827   2.516   2.420
    1C        C  206   4.019   2.617   2.539
    1C        C  207   3.895   2.548   2.539
    1C        C  208   4.079   2.657   2.660
    1C        C  209   4.019   2.623   2.784
    1C        C  210   4.192   2.749   2.903
    1C        C  211   4.080   2.663   2.905
    1C        C  212   4.244   2.793   3.026
    1C        C  213   4.195   2.743   3.149
    1C        C  214   4.331   2.906   3.271
    1C        C  215   4.244   2.795   3.272
    1C        C  216   4.366   2.970   3.392
    1C        C  217   4.327   2.914   3.516
    1C        C  218   4.438   3.095   3.636
    1C        C  219   4.369   2.971   3.639
    1C        C  220   4.465   3.163   3.757
    1C        C  221   4.440   3.102   3.882
    1C        C  222   4.503   3.306   4.001
    1C        C  223   4.469   3.169   4.003
    1C        C  224   4.517   3.375   4.123
    1C        C  225   4.506   3.305   4.245
    1C        C  226   4.525   3.517   4.363
    1C        C  227   4.517   3.376   4.367
    1C        C  228   4.519   3.594   4.482
    1C        C  229   4.524   3.525   4.606
    1C        C  230   4.497   3.738   4.725
    1C        C  231   4.531   3.600   4.726
    1C        C  232   4.484   3.810   4.846
    1C        C  233   4.541   3.751   4.959
    1C        C  234   4.014   2.609   2.058
    1C        C  235   3.892   2.543   2.059
    1C        C  236   4.078   2.648   2.176
    1C        C  237   4.021   2.608   2.299
    1C        C  238   4.195   2.738   2.417
    1C        C  239   4.086   2.646   2.418
    1C        C  240   4.248   2.785   2.539
    1C        C  241   4.195   2.737   2.660
    1C        C  242   4.338   2.899   2.781
    1C        C  243   4.247   2.792   2.780
    1C        C  244   4.376   2.960   2.903
    1C        C  245   4.331   2.904   3.025
    1C        C  246   4.434   3.088   3.148
    1C        C  247   4.373   2.961   3.148
    1C        C  248   4.459   3.158   3.268
    1C        C  249   4.427   3.097   3.391
    1C        C  250   4.497   3.297   3.513
    1C        C  251   4.460   3.160   3.513
    1C        C  252   4.508   3.369   3.634
    1C        C  253   4.497   3.301   3.758
    1C        C  254   4.528   3.514   3.874
    1C        C  255   4.517   3.373   3.877
    1C        C  256   4.523   3.584   3.996
    1C        C  257   4.525   3.516   4.120
    1C        C  258   4.486   3.726   4.239
    1C        C  259   4.521   3.589   4.241
    1C        C  260   4.467   3.797   4.359
    1C        C  261   4.489   3.732   4.482
    1C        C  262   4.428   3.938   4.601
    1C        C  263   4.468   3.803   4.602
    1C        C  264   4.403   4.009   4.721
    1C        C  265   4.430   3.940   4.841
    1C        C  266   4.310   4.121   4.955
    1C        C  267   4.392   4.009   4.957
    1C        C  268   4.256   2.774   2.059
    1C        C  269   4.195   2.728   2.177
    1C        C  270   4.347   2.886   2.296
    1C        C  271   4.252   2.780   2.295
    1C        C  272   4.382   2.951   2.417
    1C        C  273   4.339   2.893   2.538
    1C        C  274   4.448   3.079   2.656
    1C        C  275   4.380   2.955   2.658
    1C        C  276   4.473   3.148   2.777
    1C        C  277   4.442   3.084   2.900
    1C        C  278   4.503   3.285   3.025
    1C        C  279   4.462   3.150   3.023
    1C        C  280   4.513   3.360   3.144
    1C        C  281   4.497   3.294   3.268
    1C        C  282   4.518   3.505   3.386
    1C        C  283   4.510   3.364   3.390
    1C        C  284   4.517   3.578   3.507
    1C        C  285   4.523   3.509   3.631
    1C        C  286   4.486   3.720   3.749
    1C        C  287   4.521   3.583   3.751
    1C        C  288   4.469   3.788   3.872
    1C        C  289   4.489   3.722   3.995
    1C        C  290   4.420   3.925   4.116
    1C        C  291   4.467   3.792   4.116
    1C        C  292   4.389   3.990   4.237
    1C        C  293   4.421   3.931   4.362
    1C        C  294   4.319   4.123   4.479
    1C        C  295   4.393   4.003   4.480
    1C        C  296   4.279   4.185   4.600
    1C        C  297   4.321   4.125   4.720
    1C        C  298   4.198   4.310   4.836
    1C        C  299   4.279   4.192   4.838
    1C        C  300   4.167   4.399   4.943
    1C        C  301   4.346   2.879   2.059
    1C        C  302   4.472   3.063   2.171
    1C        C  303   4.393   2.943   2.175
    1C        C  304   4.483   3.141   2.290
    1C        C  305   4.449   3.075   2.411
    1C        C  306   4.511   3.278   2.534
    1C        C  307   4.476   3.141   2.533
    1C        C  308   4.516   3.352   2.654
    1C        C  309   4.502   3.286   2.778
    1C        C  310   4.524   3.494   2.895
    1C        C  311   4.518   3.353   2.902
    1C        C  312   4.515   3.567   3.015
    1C        C  313   4.520   3.501   3.140
    1C        C  314   4.484   3.711   3.261
    1C        C  315   4.512   3.573   3.262
    1C        C  316   4.470   3.783   3.382
    1C        C  317   4.491   3.717   3.505
    1C        C  318   4.421   3.920   3.623
    1C        C  319   4.471   3.788   3.626
    1C        C  320   4.385   3.979   3.746
    1C        C  321   4.413   3.917   3.870
    1C        C  322   4.311   4.104   3.992
    1C        C  323   4.386   3.984   3.992
    1C        C  324   4.274   4.165   4.113
    1C        C  325   4.319   4.112   4.236
    1C        C  326   4.179   4.278   4.351
    1C        C  327   4.276   4.175   4.355
    1C        C  328   4.130   4.331   4.472
    1C        C  329   4.186   4.291   4.595
    1C        C  330   4.025   4.436   4.711
    1C        C  331   4.142   4.355   4.713
    1C        C  332   3.972   4.490   4.830
    1C        C  333   4.056   4.485   4.942
    1C        C  334   4.553   3.263   2.058
    1C        C  335   4.532   3.125   2.057
    1C        C  336   4.541   3.346   2.171
    1C        C  337   4.511   3.280   2.292
    1C        C  338   4.524   3.492   2.410
    1C        C  339   4.524   3.351   2.413
    1C        C  340   4.520   3.565   2.530
    1C        C  341   4.518   3.493   2.652
    1C        C  342   4.489   3.705   2.772
    1C        C  343   4.513   3.565   2.773
    1C        C  344   4.474   3.776   2.893
    1C        C  345   4.489   3.706   3.014
    1C        C  346   4.418   3.907   3.133
    1C        C  347   4.469   3.775   3.136
    1C        C  348   4.386   3.976   3.252
    1C        C  349   4.420   3.915   3.375
    1C        C  350   4.318   4.099   3.500
    1C        C  351   4.394   3.980   3.498
    1C        C  352   4.276   4.158   3.622
    1C        C  353   4.312   4.100   3.745
    1C        C  354   4.177   4.263   3.864
    1C        C  355   4.272   4.158   3.867
    1C        C  356   4.123   4.313   3.984
    1C        C  357   4.175   4.266   4.106
    1C        C  358   4.009   4.400   4.228
    1C        C  359   4.126   4.320   4.227
    1C        C  360   3.950   4.444   4.349
    1C        C  361   4.017   4.416   4.470
    1C        C  362   3.828   4.518   4.589
    1C        C  363   3.960   4.467   4.589
    1C        C  364   3.763   4.546   4.711
    1C        C  365   3.840   4.539   4.829
    1C        C  366   3.632   4.589   4.946
    1C        C  367   3.770   4.576   4.945
    1C        C  368   4.508   3.561   2.049
    1C        C  369   4.527   3.486   2.166
    1C        C  370   4.498   3.700   2.282
    1C        C  371   4.517   3.560   2.286
    1C        C  372   4.478   3.770   2.403
    1C        C  373   4.498   3.705   2.526
    1C        C  374   4.421   3.903   2.644
    1C        C  375   4.475   3.772   2.648
    1C        C  376   4.389   3.967   2.765
    1C        C  377   4.422   3.907   2.889
    1C        C  378   4.315   4.092   3.008
    1C        C  379   4.391   3.972   3.010
    1C        C  380   4.272   4.150   3.130
    1C        C  381   4.313   4.097   3.254
    1C        C  382   4.172   4.252   3.375
    1C        C  383   4.269   4.150   3.378
    1C        C  384   4.119   4.300   3.496
    1C        C  385   4.177   4.258   3.618
    1C        C  386   4.007   4.385   3.739
    1C        C  387   4.124   4.306   3.740
    1C        C  388   3.945   4.427   3.859
    1C        C  389   4.008   4.397   3.981
    1C        C  390   3.817   4.483   4.105
    1C        C  391   3.948   4.430   4.104
    1C        C  392   3.752   4.513   4.227
    1C        C  393   3.822   4.504   4.350
    1C        C  394   3.615   4.551   4.472
    1C        C  395   3.755   4.535   4.470
    1C        C  396   3.546   4.557   4.595
    1C        C  397   3.622   4.559   4.714
    1C        C  398   3.409   4.549   4.837
    1C        C  399   3.549   4.571   4.834
    1C        C  400   3.344   4.510   4.954
    1C        C  401   4.501   3.699   2.046
    1C        C  402   4.458   3.913   2.166
    1C        C  403   4.496   3.776   2.163
    1C        C  404   4.408   3.974   2.283
    1C        C  405   4.426   3.901   2.402
    1C        C  406   4.324   4.092   2.523
    1C        C  407   4.395   3.969   2.522
    1C        C  408   4.279   4.149   2.643
    1C        C  409   4.316   4.088   2.765
    1C        C  410   4.173   4.248   2.886
    1C        C  411   4.271   4.146   2.886
    1C        C  412   4.122   4.298   3.008
    1C        C  413   4.177   4.254   3.131
    1C        C  414   4.004   4.380   3.249
    1C        C  415   4.122   4.302   3.252
    1C        C  416   3.944   4.415   3.371
    1C        C  417   4.006   4.385   3.495
    1C        C  418   3.816   4.477   3.617
    1C        C  419   3.945   4.421   3.617
    1C        C  420   3.748   4.505   3.738
    1C        C  421   3.817   4.487   3.861
    1C        C  422   3.614   4.539   3.985
    1C        C  423   3.753   4.514   3.983
    1C        C  424   3.542   4.540   4.106
    1C        C  425   3.612   4.532   4.228
    1C        C  426   3.401   4.546   4.354
    1C        C  427   3.543   4.549   4.350
    1C        C  428   3.331   4.538   4.476
    1C        C  429   3.405   4.551   4.596
    1C        C  430   3.195   4.511   4.718
    1C        C  431   3.334   4.542   4.718
    1C        C  432   3.125   4.497   4.841
    1C        C  433   3.205   4.498   4.956
    1C        C  434   4.386   4.122   2.047
    1C        C  435   4.450   3.998   2.055
    1C        C  436   4.301   4.160   2.156
    1C        C  437   4.333   4.095   2.278
    1C        C  438   4.184   4.248   2.400
    1C        C  439   4.284   4.148   2.400
    1C        C  440   4.124   4.295   2.519
    1C        C  441   4.181   4.251   2.640
    1C        C  442   4.009   4.376   2.763
    1C        C  443   4.125   4.296   2.762
    1C        C  444   3.945   4.416   2.883
    1C        C  445   4.006   4.378   3.004
    1C        C  446   3.813   4.468   3.128
    1C        C  447   3.943   4.413   3.126
    1C        C  448   3.745   4.485   3.251
    1C        C  449   3.812   4.465   3.373
    1C        C  450   3.609   4.524   3.494
    1C        C  451   3.749   4.499   3.495
    1C        C  452   3.541   4.535   3.617
    1C        C  453   3.610   4.533   3.740
    1C        C  454   3.400   4.536   3.863
    1C        C  455   3.541   4.542   3.863
    1C        C  456   3.333   4.530   3.987
    1C        C  457   3.401   4.543   4.110
    1C        C  458   3.192   4.506   4.233
    1C        C  459   3.330   4.535   4.233
    1C        C  460   3.127   4.482   4.356
    1C        C  461   3.194   4.504   4.479
    1C        C  462   2.993   4.430   4.602
    1C        C  463   3.122   4.487   4.599
    1C        C  464   2.927   4.403   4.724
    1C        C  465   2.992   4.445   4.843
    1C        C  466   2.805   4.335   4.958
    1C        C  467   2.909   4.428   4.959
    1C        C  468   4.122   4.281   2.037
    1C        C  469   4.186   4.244   2.157
    1C        C  470   4.008   4.367   2.273
    1C        C  471   4.126   4.289   2.278
    1C        C  472   3.941   4.400   2.393
    1C        C  473   4.004   4.369   2.516
    1C        C  474   3.814   4.457   2.641
    1C        C  475   3.944   4.402   2.640
    1C        C  476   3.745   4.485   2.761
    1C        C  477   3.814   4.469   2.883
    1C        C  478   3.608   4.516   3.009
    1C        C  479   3.748   4.496   3.005
    1C        C  480   3.537   4.522   3.130
    1C        C  481   3.607   4.516   3.253
    1C        C  482   3.395   4.537   3.376
    1C        C  483   3.536   4.534   3.374
    1C        C  484   3.325   4.526   3.499
    1C        C  485   3.399   4.533   3.619
    1C        C  486   3.192   4.496   3.743
    1C        C  487   3.329   4.532   3.742
    1C        C  488   3.127   4.475   3.866
    1C        C  489   3.195   4.499   3.988
    1C        C  490   3.002   4.414   4.112
    1C        C  491   3.129   4.476   4.111
    1C        C  492   2.944   4.377   4.235
    1C        C  493   2.999   4.421   4.358
    1C        C  494   2.828   4.297   4.479
    1C        C  495   2.936   4.388   4.480
    1C        C  496   2.778   4.250   4.603
    1C        C  497   2.823   4.306   4.724
    1C        C  498   2.667   4.161   4.844
    1C        C  499   2.755   4.270   4.843
    1C        C  500   2.598   4.114   4.957
    1C        C  501   4.002   4.352   2.035
    1C        C  502   3.813   4.458   2.152
    1C        C  503   3.941   4.397   2.152
    1C        C  504   3.742   4.472   2.273
    1C        C  505   3.808   4.446   2.396
    1C        C  506   3.605   4.498   2.518
    1C        C  507   3.744   4.470   2.519
    1C        C  508   3.537   4.513   2.641
    1C        C  509   3.606   4.511   2.764
    1C        C  510   3.395   4.518   2.885
    1C        C  511   3.537   4.517   2.887
    1C        C  512   3.324   4.517   3.007
    1C        C  513   3.395   4.522   3.129
    1C        C  514   3.191   4.485   3.252
    1C        C  515   3.328   4.521   3.253
    1C        C  516   3.125   4.463   3.375
    1C        C  517   3.188   4.493   3.498
    1C        C  518   2.997   4.409   3.622
    1C        C  519   3.123   4.473   3.622
    1C        C  520   2.943   4.364   3.745
    1C        C  521   3.005   4.405   3.865
    1C        C  522   2.842   4.275   3.995
    1C        C  523   2.946   4.371   3.989
    1C        C  524   2.791   4.228   4.118
    1C        C  525   2.839   4.284   4.238
    1C        C  526   2.694   4.129   4.363
    1C        C  527   2.777   4.244   4.359
    1C        C  528   2.648   4.074   4.485
    1C        C  529   2.684   4.145   4.601
    1C        C  530   2.586   3.959   4.731
    1C        C  531   2.645   4.088   4.725
    1C        C  532   2.538   3.899   4.850
    1C        C  533   2.528   3.992   4.959
    1C        C  534   3.617   4.554   2.038
    1C        C  535   3.752   4.514   2.039
    1C        C  536   3.534   4.536   2.154
    1C        C  537   3.605   4.511   2.274
    1C        C  538   3.394   4.511   2.399
    1C        C  539   3.535   4.507   2.396
    1C        C  540   3.323   4.508   2.522
    1C        C  541   3.396   4.519   2.642
    1C        C  542   3.186   4.477   2.764
    1C        C  543   3.323   4.511   2.763
    1C        C  544   3.121   4.455   2.887
    1C        C  545   3.188   4.478   3.009
    1C        C  546   2.994   4.397   3.132
    1C        C  547   3.121   4.460   3.132
    1C        C  548   2.943   4.355   3.257
    1C        C  549   3.002   4.393   3.379
    1C        C  550   2.823   4.282   3.504
    1C        C  551   2.937   4.366   3.502
    1C        C  552   2.775   4.231   3.627
    1C        C  553   2.834   4.275   3.748
    1C        C  554   2.704   4.115   3.874
    1C        C  555   2.792   4.225   3.873
    1C        C  556   2.658   4.060   3.996
    1C        C  557   2.697   4.122   4.117
    1C        C  558   2.592   3.943   4.243
    1C        C  559   2.658   4.067   4.241
    1C        C  560   2.564   3.880   4.367
    1C        C  561   2.587   3.946   4.490
    1C        C  562   2.526   3.747   4.611
    1C        C  563   2.560   3.884   4.614
    1C        C  564   2.512   3.681   4.735
    1C        C  565   2.523   3.757   4.855
    1C        C  566   2.515   3.545   4.975
    1C        C  567   2.509   3.684   4.973
    1C        C  568   3.326   4.474   2.040
    1C        C  569   3.394   4.512   2.157
    1C        C  570   3.182   4.473   2.281
    1C        C  571   3.321   4.504   2.279
    1C        C  572   3.115   4.454   2.403
    1C        C  573   3.185   4.478   2.523
    1C        C  574   2.988   4.393   2.646
    1C        C  575   3.114   4.457   2.644
    1C        C  576   2.933   4.351   2.769
    1C        C  577   2.995   4.390   2.889
    1C        C  578   2.823   4.269   3.012
    1C        C  579   2.933   4.357   3.012
    1C        C  580   2.776   4.223   3.138
    1C        C  581   2.833   4.266   3.260
    1C        C  582   2.691   4.114   3.384
    1C        C  583   2.777   4.226   3.383
    1C        C  584   2.655   4.054   3.506
    1C        C  585   2.694   4.115   3.628
    1C        C  586   2.593   3.934   3.754
    1C        C  587   2.661   4.057   3.752
    1C        C  588   2.567   3.871   3.878
    1C        C  589   2.593   3.934   4.001
    1C        C  590   2.527   3.736   4.127
    1C        C  591   2.562   3.872   4.124
    1C        C  592   2.519   3.670   4.251
    1C        C  593   2.527   3.744   4.371
    1C        C  594   2.500   3.534   4.496
    1C        C  595   2.503   3.675   4.492
    1C        C  596   2.520   3.465   4.618
    1C        C  597   2.513   3.539   4.738
    1C        C  598   2.532   3.326   4.859
    1C        C  599   2.522   3.467   4.859
    1C        C  600   2.531   3.251   4.977
    1C        C  601   3.195   4.432   2.042
    1C        C  602   2.981   4.393   2.159
    1C        C  603   3.118   4.433   2.160
    1C        C  604   2.923   4.354   2.283
    1C        C  605   2.987   4.393   2.403
    1C        C  606   2.816   4.268   2.526
    1C        C  607   2.924   4.360   2.524
    1C        C  608   2.764   4.218   2.647
    1C        C  609   2.819   4.267   2.768
    1C        C  610   2.684   4.106   2.896
    1C        C  611   2.773   4.216   2.891
    1C        C  612   2.649   4.049   3.020
    1C        C  613   2.690   4.111   3.141
    1C        C  614   2.595   3.922   3.267
    1C        C  615   2.652   4.051   3.263
    1C        C  616   2.565   3.860   3.390
    1C        C  617   2.592   3.928   3.511
    1C        C  618   2.525   3.728   3.637
    1C        C  619   2.567   3.863   3.634
    1C        C  620   2.518   3.663   3.762
    1C        C  621   2.530   3.735   3.883
    1C        C  622   2.506   3.524   4.008
    1C        C  623   2.515   3.665   4.005
    1C        C  624   2.502   3.455   4.131
    1C        C  625   2.503   3.530   4.251
    1C        C  626   2.529   3.322   4.378
    1C        C  627   2.504   3.461   4.375
    1C        C  628   2.553   3.253   4.499
    1C        C  629   2.532   3.324   4.619
    1C        C  630   2.594   3.118   4.744
    1C        C  631   2.545   3.251   4.740
    1C        C  632   2.620   3.049   4.866
    1C        C  633   2.560   3.113   4.978
    1C        C  634   2.778   4.303   2.055
    1C        C  635   2.890   4.387   2.049
    1C        C  636   2.748   4.225   2.167
    1C        C  637   2.808   4.271   2.287
    1C        C  638   2.670   4.106   2.411
    1C        C  639   2.763   4.213   2.407
    1C        C  640   2.631   4.046   2.533
    1C        C  641   2.678   4.106   2.652
    1C        C  642   2.584   3.918   2.778
    1C        C  643   2.641   4.047   2.775
    1C        C  644   2.562   3.852   2.901
    1C        C  645   2.586   3.923   3.021
    1C        C  646   2.529   3.721   3.146
    1C        C  647   2.566   3.857   3.144
    1C        C  648   2.512   3.652   3.268
    1C        C  649   2.523   3.725   3.389
    1C        C  650   2.507   3.518   3.517
    1C        C  651   2.511   3.660   3.514
    1C        C  652   2.510   3.452   3.641
    1C        C  653   2.504   3.522   3.764
    1C        C  654   2.529   3.313   3.889
    1C        C  655   2.505   3.452   3.886
    1C        C  656   2.553   3.248   4.012
    1C        C  657   2.532   3.317   4.134
    1C        C  658   2.609   3.122   4.256
    1C        C  659   2.553   3.252   4.257
    1C        C  660   2.640   3.060   4.379
    1C        C  661   2.608   3.123   4.501
    1C        C  662   2.710   2.937   4.623
    1C        C  663   2.633   3.056   4.623
    1C        C  664   2.752   2.880   4.745
    1C        C  665   2.701   2.931   4.867
    1C        C  666   2.742   2.867   4.985
    1C        C  667   2.665   4.023   2.050
    1C        C  668   2.682   4.100   2.165
    1C        C  669   2.591   3.911   2.290
    1C        C  670   2.641   4.044   2.288
    1C        C  671   2.555   3.848   2.411
    1C        C  672   2.575   3.916   2.533
    1C        C  673   2.518   3.715   2.660
    1C        C  674   2.558   3.850   2.656
    1C        C  675   2.501   3.646   2.782
    1C        C  676   2.517   3.718   2.903
    1C        C  677   2.503   3.508   3.030
    1C        C  678   2.511   3.649   3.026
    1C        C  679   2.503   3.437   3.152
    1C        C  680   2.498   3.511   3.272
    1C        C  681   2.536   3.306   3.400
    1C        C  682   2.508   3.445   3.396
    1C        C  683   2.549   3.241   3.524
    1C        C  684   2.534   3.312   3.645
    1C        C  685   2.608   3.115   3.770
    1C        C  686   2.551   3.244   3.768
    1C        C  687   2.644   3.055   3.893
    1C        C  688   2.609   3.118   4.015
    1C        C  689   2.712   2.932   4.137
    1C        C  690   2.639   3.053   4.136
    1C        C  691   2.757   2.880   4.260
    1C        C  692   2.718   2.942   4.381
    1C        C  693   2.757   2.881   4.502
    1C        C  694   2.623   3.890   2.056
    1C        C  695   2.521   3.701   2.178
    1C        C  696   2.578   3.830   2.175
    1C        C  697   2.501   3.635   2.300
    1C        C  698   2.516   3.712   2.418
    1C        C  699   2.482   3.502   2.543
    1C        C  700   2.499   3.643   2.540
    1C        C  701   2.489   3.432   2.665
    1C        C  702   2.490   3.505   2.786
    1C        C  703   2.514   3.295   2.910
    1C        C  704   2.496   3.436   2.909
    1C        C  705   2.530   3.225   3.032
    1C        C  706   2.527   3.298   3.153
    1C        C  707   2.599   3.103   3.276
    1C        C  708   2.549   3.235   3.278
    1C        C  709   2.635   3.047   3.401
    1C        C  710   2.603   3.110   3.523
    1C        C  711   2.713   2.933   3.646
    1C        C  712   2.634   3.050   3.647
    1C        C  713   2.764   2.883   3.768
    1C        C  714   2.720   2.936   3.891
    1C        C  715   2.757   2.878   4.014
    1C        C  716   2.445   3.495   2.062
    1C        C  717   2.483   3.630   2.063
    1C        C  718   2.456   3.418   2.182
    1C        C  719   2.481   3.494   2.300
    1C        C  720   2.510   3.288   2.428
    1C        C  721   2.485   3.426   2.424
    1C        C  722   2.532   3.219   2.550
    1C        C  723   2.515   3.293   2.669
    1C        C  724   2.586   3.093   2.790
    1C        C  725   2.530   3.223   2.790
    1C        C  726   2.610   3.030   2.914
    1C        C  727   2.571   3.090   3.036
    1C        C  728   2.708   2.922   3.157
    1C        C  729   2.621   3.033   3.155
    1C        C  730   2.754   2.869   3.279
    1C        C  731   2.715   2.930   3.401
    1C        C  732   2.761   2.879   3.525
    1C        C  733   2.491   3.196   2.071
    1C        C  734   2.485   3.278   2.185
    1C        C  735   2.581   3.086   2.301
    1C        C  736   2.522   3.215   2.307
    1C        C  737   2.611   3.022   2.423
    1C        C  738   2.583   3.088   2.545
    1C        C  739   2.697   2.910   2.668
    1C        C  740   2.620   3.029   2.669
    1C        C  741   2.741   2.858   2.792
    1C        C  742   2.696   2.917   2.912
    1C        C  743   2.748   2.866   3.033
    1C        C  744   2.547   3.069   2.071
    1C        C  745   2.692   2.900   2.182
    1C        C  746   2.610   3.015   2.183
    1C        C  747   2.735   2.845   2.305
    1C        C  748   2.685   2.901   2.424
    1C        C  749   2.737   2.852   2.546
    1C        C  750   2.735   2.838   2.064
    1C        C  751   3.665   2.291   2.012
    1C        O  752   3.661   2.178   2.069
    1C        O  753   3.684   2.278   1.874
    1C        C  754   4.630   3.046   1.979
    1C        O  755   4.633   3.067   1.855
    1C        O  756   4.736   2.971   2.031
    1C        C  757   4.474   4.226   1.989
    1C        O  758   4.547   4.293   2.067
    1C        O  759   4.439   4.275   1.863
    1C        C  760   3.579   4.653   1.935
    1C        O  761   3.623   4.771   1.927
    1C        O  762   3.518   4.602   1.820
    1C        C  763   2.903   4.462   1.922
    1C        O  764   2.903   4.404   1.810
    1C        O  765   2.844   4.588   1.907
    1C        C  766   2.378   3.449   1.937
    1C        O  767   2.434   3.459   1.825
    1C        O  768   2.238   3.441   1.934
    1C        C  769   4.684   3.599   5.067
    1C        O  770   4.659   3.588   5.190
    1C        O  771   4.821   3.593   5.036
    1C        C  772   4.255   4.411   5.062
    1C        O  773   4.234   4.355   5.173
    1C        O  774   4.347   4.516   5.075
    1C        C  775   4.138   2.501   5.062
    1C        O  776   4.225   2.417   5.026
    1C        O  777   4.108   2.464   5.194
    1C        C  778   2.900   4.526   5.070
    1C        O  779   2.854   4.642   5.050
    1C        O  780   2.912   4.476   5.200
    1C        C  781   2.462   3.045   5.066
    1C        O  782   2.345   3.013   5.032
    1C        O  783   2.470   3.048   5.205
    1C        C  784   2.418   3.981   5.057
    1C        O  785   2.313   4.045   5.033
    1C        O  786   2.435   3.959   5.195
    1C        C  787   2.951   2.424   1.994
    1C        O  788   2.957   2.464   1.874
    1C        O  789   2.903   2.295   2.010
    1C        C  790   3.176   2.377   5.064
    1C        O  791   3.139   2.261   5.033
    1C        O  792   3.217   2.397   5.197
    1C        H  793   4.252   3.033   5.040
    1C        H  794   4.130   2.843   5.042
    1C        H  795   4.513   3.125   5.053
    1C        H  796   4.551   3.364   5.060
    1C        H  797   4.582   3.813   5.036
    1C        H  798   4.444   3.998   5.050
    1C        H  799   4.240   4.135   5.035
    1C        H  800   4.067   4.577   4.996
    1C        H  801   3.822   4.620   5.028
    1C        H  802   3.586   4.625   5.036
    1C        H  803   3.394   4.433   5.009
    1C        H  804   3.160   4.499   5.053
    1C        H  805   3.890   2.477   5.058
    1C        H  806   3.675   2.482   5.073
    1C        H  807   3.003   2.568   5.070
    1C        H  808   3.444   2.431   5.067
    1C        H  809   2.892   2.753   5.075
    1C        H  810   2.678   2.868   5.070
    1C        H  811   2.476   3.284   5.063
    1C        H  812   2.536   3.501   5.070
    1C        H  813   2.495   3.735   5.066
    1C        H  814   2.568   4.191   5.025
    1C        H  815   2.755   4.319   5.051
    1C        H  816   2.738   2.900   1.976
    1C        H  817   2.799   2.652   1.998
    1C        H  818   3.214   2.438   1.983
    1C        H  819   3.425   2.418   1.979
    1C        H  820   3.852   2.518   1.963
    1C        H  821   4.063   2.615   1.963
    1C        H  822   4.236   2.725   1.966
    1C        H  823   4.381   2.909   1.963
    1C        H  824   4.551   3.309   1.961
    1C        H  825   4.458   3.514   1.966
    1C        H  826   4.505   3.745   1.949
    1C        H  827   3.821   4.562   1.974
    1C        H  828   3.936   4.339   1.952
    1C        H  829   4.176   4.262   1.947
    1C        H  830   4.503   3.963   1.968
    1C        H  831   2.655   3.827   1.976
    1C        H  832   2.714   4.053   1.959
    1C        H  833   2.710   4.310   1.972
    1C        H  834   3.385   4.416   1.973
    1C        H  835   3.145   4.455   1.951
    1C        H  836   2.505   2.998   2.002
    1C        H  837   2.408   3.201   2.003
    1C        H  838   2.439   3.691   1.988
    2V3OU   H29  839   2.804   3.542   2.538
    2V3OU   C27  840   2.790   3.502   2.641
    2V3OU   H27  841   2.729   3.572   2.704
    2V3OU   H28  842   2.734   3.405   2.642
    2V3OU   O11  843   2.913   3.475   2.709
    2V3OU   C15  844   2.926   3.397   2.822
    2V3OU   C13  845   3.054   3.375   2.876
    2V3OU   C14  846   3.076   3.269   2.965
    2V3OU   C16  847   2.973   3.186   3.009
    2V3OU    H6  848   2.990   3.098   3.073
    2V3OU   C12  849   3.209   3.232   3.020
    2V3OU    O2  850   3.233   3.119   3.066
    2V3OU   C10  851   3.324   3.306   2.966
    2V3OU    C8  852   3.453   3.271   3.002
    2V3OU   O10  853   3.480   3.152   3.061
    2V3OU   H26  854   3.394   3.107   3.058
    2V3OU    C6  855   3.564   3.351   2.962
    2V3OU    C5  856   3.539   3.467   2.890
    2V3OU    C4  857   3.701   3.291   2.962
    2V3OU    H4  858   3.721   3.224   3.051
    2V3OU    H5  859   3.709   3.223   2.872
    2V3OU    C2  860   3.813   3.396   2.960
    2V3OU    O6  861   3.803   3.473   3.080
    2V3OU   H21  862   3.760   3.556   3.055
    2V3OU    C3  863   3.781   3.489   2.843
    2V3OU    H2  864   3.857   3.571   2.843
    2V3OU    H3  865   3.782   3.443   2.741
    2V3OU   C25  866   3.948   3.328   2.936
    2V3OU    O7  867   3.992   3.289   2.828
    2V3OU   C26  868   4.028   3.293   3.061
    2V3OU   H22  869   4.060   3.382   3.120
    2V3OU   H23  870   4.116   3.230   3.034
    2V3OU    O8  871   3.962   3.209   3.153
    2V3OU   H24  872   3.925   3.269   3.220
    2V3OU    C1  873   3.650   3.564   2.859
    2V3OU    H1  874   3.625   3.620   2.765
    2V3OU    O3  875   3.656   3.650   2.973
    2V3OU   C19  876   3.617   3.787   2.961
    2V3OU    H9  877   3.521   3.798   2.903
    2V3OU    O4  878   3.713   3.850   2.879
    2V3OU   C20  879   3.844   3.877   2.929
    2V3OU   H10  880   3.891   3.778   2.955
    2V3OU   C24  881   3.605   3.850   3.100
    2V3OU   H16  882   3.544   3.789   3.171
    2V3OU   H17  883   3.562   3.952   3.082
    2V3OU   C23  884   3.743   3.871   3.163
    2V3OU   H15  885   3.780   3.767   3.192
    2V3OU    N1  886   3.735   3.953   3.282
    2V3OU   H19  887   3.814   3.918   3.332
    2V3OU   H20  888   3.656   3.926   3.338
    2V3OU   C21  889   3.843   3.944   3.067
    2V3OU   H11  890   3.947   3.926   3.106
    2V3OU    O5  891   3.823   4.084   3.071
    2V3OU   H18  892   3.782   4.097   3.158
    2V3OU   C22  893   3.914   3.947   2.813
    2V3OU   H12  894   3.864   4.045   2.793
    2V3OU   H13  895   3.896   3.893   2.716
    2V3OU   H14  896   4.024   3.949   2.834
    2V3OU   C11  897   3.161   3.470   2.847
    2V3OU    O1  898   3.139   3.588   2.812
    2V3OU    C9  899   3.295   3.422   2.889
    2V3OU    C7  900   3.405   3.496   2.847
    2V3OU    O9  901   3.390   3.617   2.782
    2V3OU   H25  902   3.295   3.630   2.767
    2V3OU   C17  903   2.822   3.311   2.864
    2V3OU    H7  904   2.725   3.340   2.826
    2V3OU   C18  905   2.846   3.214   2.961
    2V3OU    H8  906   2.778   3.171   3.036
    3SOL     OW  907   2.245   5.503   0.258
    3SOL    HW1  908   2.339   5.512   0.293
    3SOL    HW2  909   2.232   5.564   0.180
    4SOL     OW  910   6.561   0.520   2.266
    4SOL    HW1  911   6.531   0.476   2.182
    4SOL    HW2  912   6.525   0.470   2.345
    5SOL     OW  913   4.216   1.683   2.540
    5SOL    HW1  914   4.194   1.678   2.443
    5SOL    HW2  915   4.234   1.779   2.565
    6SOL     OW  916   4.072   0.904   1.830
    6SOL    HW1  917   3.986   0.879   1.786
    6SOL    HW2  918   4.129   0.823   1.843
    7SOL     OW  919   0.146   4.155   3.079
    7SOL    HW1  920   0.080   4.118   3.014
    7SOL    HW2  921   0.177   4.082   3.141
    8SOL     OW  922   3.303   1.080   6.037
    8SOL    HW1  923   3.240   1.026   6.094
    8SOL    HW2  924   3.264   1.171   6.023
    9SOL     OW  925   4.601   0.842   5.642
    9SOL    HW1  926   4.682   0.828   5.700
    9SOL    HW2  927   4.613   0.791   5.556
   10SOL     OW  928   1.978   4.841   5.383
   10SOL    HW1  929   2.073   4.833   5.353
   10SOL    HW2  930   1.972   4.907   5.457
   11SOL     OW  931   2.952   0.701   5.795
   11SOL    HW1  932   2.906   0.613   5.784
   11SOL    HW2  933   2.973   0.738   5.704
   12SOL     OW  934   3.211   5.773   3.560
   12SOL    HW1  935   3.199   5.772   3.461
   12SOL    HW2  936   3.211   5.679   3.594
   13SOL     OW  937   4.030   6.167   3.532
   13SOL    HW1  938   4.059   6.181   3.438
   13SOL    HW2  939   3.931   6.174   3.539
   14SOL     OW  940   3.822   5.369   6.348
   14SOL    HW1  941   3.903   5.390   6.292
   14SOL    HW2  942   3.820   5.429   6.428
   15SOL     OW  943   0.966   6.562   1.938
   15SOL    HW1  944   1.025   6.508   1.878
   15SOL    HW2  945   0.874   6.522   1.939
   16SOL     OW  946   5.653   2.439   6.177
   16SOL    HW1  947   5.712   2.402   6.249
   16SOL    HW2  948   5.707   2.498   6.117
   17SOL     OW  949   5.608   6.327   6.660
   17SOL    HW1  950   5.651   6.417   6.646
   17SOL    HW2  951   5.676   6.256   6.643
   18SOL     OW  952   3.104   1.172   5.456
   18SOL    HW1  953   3.075   1.265   5.434
   18SOL    HW2  954   3.204   1.169   5.466
   19SOL     OW  955   0.059   1.247   2.974
   19SOL    HW1  956   0.128   1.223   3.043
   19SOL    HW2  957   0.067   1.185   2.896
   20SOL     OW  958   5.056   1.763   4.311
   20SOL    HW1  959   5.065   1.847   4.365
   20SOL    HW2  960   5.146   1.736   4.277
   21SOL     OW  961   3.077   1.105   2.252
   21SOL    HW1  962   3.089   1.183   2.191
   21SOL    HW2  963   3.016   1.130   2.328
   22SOL     OW  964   1.273   6.467   6.952
   22SOL    HW1  965   1.270   6.541   7.019
   22SOL    HW2  966   1.201   6.481   6.884
   23SOL     OW  967   5.692   5.490   2.536
   23SOL    HW1  968   5.613   5.429   2.543
   23SOL    HW2  969   5.718   5.501   2.440
   24SOL     OW  970   3.641   0.488   3.367
   24SOL    HW1  971   3.617   0.390   3.371
   24SOL    HW2  972   3.557   0.542   3.377
   25SOL     OW  973   3.787   0.579   4.295
   25SOL    HW1  974   3.880   0.606   4.270
   25SOL    HW2  975   3.785   0.481   4.313
   26SOL     OW  976   6.578   0.578   0.426
   26SOL    HW1  977   6.572   0.497   0.484
   26SOL    HW2  978   6.487   0.599   0.390
   27SOL     OW  979   1.901   1.771   2.855
   27SOL    HW1  980   1.960   1.809   2.926
   27SOL    HW2  981   1.932   1.803   2.766
   28SOL     OW  982   2.700   1.071   5.887
   28SOL    HW1  983   2.695   1.019   5.973
   28SOL    HW2  984   2.659   1.017   5.814
   29SOL     OW  985   6.156   2.011   2.107
   29SOL    HW1  986   6.126   2.044   2.017
   29SOL    HW2  987   6.099   2.053   2.177
   30SOL     OW  988   3.771   1.241   3.548
   30SOL    HW1  989   3.705   1.235   3.623
   30SOL    HW2  990   3.722   1.240   3.461
   31SOL     OW  991   0.694   2.397   6.408
   31SOL    HW1  992   0.712   2.492   6.435
   31SOL    HW2  993   0.618   2.361   6.462
   32SOL     OW  994   0.027   1.869   3.013
   32SOL    HW1  995   6.995   1.815   3.080
   32SOL    HW2  996   7.006   1.855   2.922
   33SOL     OW  997   1.106   4.850   5.357
   33SOL    HW1  998   1.071   4.873   5.266
   33SOL    HW2  999   1.175   4.778   5.349
   34SOL     OW 1000   2.674   6.931   4.868
   34SOL    HW1 1001   2.763   6.900   4.904
   34SOL    HW2 1002   2.637   6.860   4.808
   35SOL     OW 1003   4.383   3.182   6.697
   35SOL    HW1 1004   4.374   3.204   6.600
   35SOL    HW2 1005   4.344   3.256   6.752
   36SOL     OW 1006   5.202   1.088   4.774
   36SOL    HW1 1007   5.144   1.161   4.811
   36SOL    HW2 1008   5.286   1.127   4.737
   37SOL     OW 1009   1.181   2.146   6.422
   37SOL    HW1 1010   1.128   2.221   6.460
   37SOL    HW2 1011   1.169   2.064   6.478
   38SOL     OW 1012   0.819   5.518   2.540
   38SOL    HW1 1013   0.764   5.468   2.473
   38SOL    HW2 1014   0.807   5.616   2.526
   39SOL     OW 1015   6.756   4.283   6.410
   39SOL    HW1 1016   6.661   4.285   6.441
   39SOL    HW2 1017   6.795   4.193   6.429
   40SOL     OW 1018   4.404   1.499   0.583
   40SOL    HW1 1019   4.342   1.533   0.512
   40SOL    HW2 1020   4.456   1.575   0.621
   41SOL     OW 1021   6.821   4.655   3.511
   41SOL    HW1 1022   6.812   4.710   3.594
   41SOL    HW2 1023   6.778   4.703   3.434
   42SOL     OW 1024   3.140   4.930   4.209
   42SOL    HW1 1025   3.048   4.906   4.178
   42SOL    HW2 1026   3.155   4.895   4.301
   43SOL     OW 1027   4.628   6.987   5.673
   43SOL    HW1 1028   4.555   6.946   5.618
   43SOL    HW2 1029   4.619   0.067   5.672
   44SOL     OW 1030   4.647   2.161   5.921
   44SOL    HW1 1031   4.630   2.254   5.888
   44SOL    HW2 1032   4.582   2.098   5.878
   45SOL     OW 1033   4.807   6.040   1.474
   45SOL    HW1 1034   4.836   5.955   1.519
   45SOL    HW2 1035   4.713   6.062   1.502
   46SOL     OW 1036   0.929   3.296   3.262
   46SOL    HW1 1037   0.933   3.396   3.262
   46SOL    HW2 1038   0.905   3.263   3.353
   47SOL     OW 1039   4.458   4.337   0.942
   47SOL    HW1 1040   4.426   4.328   1.036
   47SOL    HW2 1041   4.424   4.261   0.887
   48SOL     OW 1042   6.479   2.858   6.426
   48SOL    HW1 1043   6.460   2.923   6.500
   48SOL    HW2 1044   6.504   2.770   6.465
   49SOL     OW 1045   5.779   3.254   1.587
   49SOL    HW1 1046   5.871   3.293   1.584
   49SOL    HW2 1047   5.726   3.286   1.508
   50SOL     OW 1048   5.799   1.368   4.827
   50SOL    HW1 1049   5.774   1.455   4.870
   50SOL    HW2 1050   5.750   1.294   4.872
   51SOL     OW 1051   2.165   6.487   3.472
   51SOL    HW1 1052   2.237   6.464   3.407
   51SOL    HW2 1053   2.076   6.485   3.426
   52SOL     OW 1054   6.146   3.341   2.428
   52SOL    HW1 1055   6.054   3.365   2.458
   52SOL    HW2 1056   6.157   3.242   2.431
   53SOL     OW 1057   4.683   6.554   3.790
   53SOL    HW1 1058   4.662   6.631   3.849
   53SOL    HW2 1059   4.614   6.546   3.718
   54SOL     OW 1060   4.357   5.224   1.146
   54SOL    HW1 1061   4.439   5.207   1.092
   54SOL    HW2 1062   4.366   5.311   1.194
   55SOL     OW 1063   1.784   2.863   6.245
   55SOL    HW1 1064   1.746   2.931   6.181
   55SOL    HW2 1065   1.731   2.778   6.237
   56SOL     OW 1066   0.297   0.847   0.993
   56SOL    HW1 1067   0.294   0.755   0.954
   56SOL    HW2 1068   0.296   0.842   1.093
   57SOL     OW 1069   4.534   0.754   1.447
   57SOL    HW1 1070   4.471   0.755   1.525
   57SOL    HW2 1071   4.493   0.804   1.371
   58SOL     OW 1072   0.566   6.994   5.345
   58SOL    HW1 1073   0.518   0.006   5.262
   58SOL    HW2 1074   0.651   6.950   5.319
   59SOL     OW 1075   0.800   2.681   6.044
   59SOL    HW1 1076   0.896   2.679   6.016
   59SOL    HW2 1077   0.757   2.764   6.008
   60SOL     OW 1078   5.303   2.714   4.343
   60SOL    HW1 1079   5.381   2.754   4.390
   60SOL    HW2 1080   5.228   2.779   4.341
   61SOL     OW 1081   6.716   2.214   3.949
   61SOL    HW1 1082   6.795   2.157   3.926
   61SOL    HW2 1083   6.746   2.288   4.010
   62SOL     OW 1084   1.147   0.614   1.480
   62SOL    HW1 1085   1.131   0.526   1.524
   62SOL    HW2 1086   1.196   0.599   1.394
   63SOL     OW 1087   5.384   1.353   4.041
   63SOL    HW1 1088   5.319   1.412   3.993
   63SOL    HW2 1089   5.355   1.258   4.035
   64SOL     OW 1090   0.469   2.844   6.060
   64SOL    HW1 1091   0.483   2.941   6.041
   64SOL    HW2 1092   0.530   2.816   6.134
   65SOL     OW 1093   0.800   4.397   5.965
   65SOL    HW1 1094   0.720   4.424   6.018
   65SOL    HW2 1095   0.843   4.478   5.925
   66SOL     OW 1096   4.120   1.050   4.818
   66SOL    HW1 1097   4.182   1.029   4.894
   66SOL    HW2 1098   4.030   1.009   4.836
   67SOL     OW 1099   0.172   2.810   5.668
   67SOL    HW1 1100   0.116   2.893   5.668
   67SOL    HW2 1101   0.263   2.830   5.704
   68SOL     OW 1102   6.593   1.350   0.167
   68SOL    HW1 1103   6.508   1.320   0.123
   68SOL    HW2 1104   6.655   1.387   0.098
   69SOL     OW 1105   0.932   3.405   6.313
   69SOL    HW1 1106   0.857   3.466   6.337
   69SOL    HW2 1107   0.955   3.417   6.216
   70SOL     OW 1108   5.499   4.208   5.253
   70SOL    HW1 1109   5.465   4.273   5.185
   70SOL    HW2 1110   5.510   4.253   5.341
   71SOL     OW 1111   3.935   1.676   3.464
   71SOL    HW1 1112   3.841   1.710   3.458
   71SOL    HW2 1113   3.961   1.635   3.377
   72SOL     OW 1114   1.736   0.518   3.856
   72SOL    HW1 1115   1.749   0.459   3.935
   72SOL    HW2 1116   1.821   0.523   3.804
   73SOL     OW 1117   3.896   0.563   1.262
   73SOL    HW1 1118   3.903   0.536   1.358
   73SOL    HW2 1119   3.984   0.598   1.231
   74SOL     OW 1120   4.309   0.333   0.307
   74SOL    HW1 1121   4.211   0.350   0.293
   74SOL    HW2 1122   4.362   0.408   0.267
   75SOL     OW 1123   4.278   0.714   0.986
   75SOL    HW1 1124   4.291   0.801   0.939
   75SOL    HW2 1125   4.367   0.679   1.017
   76SOL     OW 1126   2.783   3.403   1.104
   76SOL    HW1 1127   2.850   3.440   1.169
   76SOL    HW2 1128   2.818   3.318   1.065
   77SOL     OW 1129   0.734   0.342   3.727
   77SOL    HW1 1130   0.697   0.338   3.820
   77SOL    HW2 1131   0.822   0.390   3.728
   78SOL     OW 1132   5.453   1.449   0.337
   78SOL    HW1 1133   5.519   1.486   0.273
   78SOL    HW2 1134   5.369   1.424   0.289
   79SOL     OW 1135   3.285   5.811   1.378
   79SOL    HW1 1136   3.336   5.895   1.361
   79SOL    HW2 1137   3.198   5.815   1.329
   80SOL     OW 1138   4.336   1.301   3.963
   80SOL    HW1 1139   4.348   1.268   3.870
   80SOL    HW2 1140   4.361   1.397   3.968
   81SOL     OW 1141   2.489   0.189   2.281
   81SOL    HW1 1142   2.468   0.257   2.210
   81SOL    HW2 1143   2.430   0.203   2.360
   82SOL     OW 1144   5.956   4.784   0.748
   82SOL    HW1 1145   5.918   4.729   0.822
   82SOL    HW2 1146   6.046   4.749   0.722
   83SOL     OW 1147   6.956   0.282   0.608
   83SOL    HW1 1148   6.980   0.323   0.520
   83SOL    HW2 1149   6.997   0.191   0.615
   84SOL     OW 1150   5.813   3.159   2.743
   84SOL    HW1 1151   5.868   3.133   2.823
   84SOL    HW2 1152   5.843   3.106   2.664
   85SOL     OW 1153   1.544   1.248   4.021
   85SOL    HW1 1154   1.630   1.208   4.050
   85SOL    HW2 1155   1.472   1.225   4.086
   86SOL     OW 1156   0.611   1.460   6.653
   86SOL    HW1 1157   0.535   1.442   6.591
   86SOL    HW2 1158   0.642   1.554   6.641
   87SOL     OW 1159   5.033   4.416   0.862
   87SOL    HW1 1160   5.041   4.355   0.941
   87SOL    HW2 1161   5.108   4.482   0.863
   88SOL     OW 1162   3.235   1.458   6.483
   88SOL    HW1 1163   3.164   1.474   6.552
   88SOL    HW2 1164   3.192   1.445   6.394
   89SOL     OW 1165   2.480   2.175   6.899
   89SOL    HW1 1166   2.551   2.106   6.909
   89SOL    HW2 1167   2.445   2.174   6.805
   90SOL     OW 1168   4.099   5.242   1.728
   90SOL    HW1 1169   4.088   5.161   1.670
   90SOL    HW2 1170   4.071   5.220   1.822
   91SOL     OW 1171   5.855   3.907   6.382
   91SOL    HW1 1172   5.857   3.816   6.424
   91SOL    HW2 1173   5.935   3.918   6.323
   92SOL     OW 1174   4.479   4.511   1.206
   92SOL    HW1 1175   4.441   4.565   1.131
   92SOL    HW2 1176   4.548   4.449   1.170
   93SOL     OW 1177   3.778   3.470   0.913
   93SOL    HW1 1178   3.711   3.515   0.854
   93SOL    HW2 1179   3.811   3.534   0.982
   94SOL     OW 1180   2.385   5.668   6.232
   94SOL    HW1 1181   2.402   5.583   6.183
   94SOL    HW2 1182   2.421   5.661   6.325
   95SOL     OW 1183   1.276   0.234   2.824
   95SOL    HW1 1184   1.194   0.261   2.773
   95SOL    HW2 1185   1.260   0.147   2.869
   96SOL     OW 1186   3.607   0.053   4.899
   96SOL    HW1 1187   3.628   0.101   4.814
   96SOL    HW2 1188   3.623   0.114   4.977
   97SOL     OW 1189   2.486   3.294   6.118
   97SOL    HW1 1190   2.490   3.394   6.111
   97SOL    HW2 1191   2.411   3.259   6.062
   98SOL     OW 1192   1.430   3.004   0.701
   98SOL    HW1 1193   1.432   2.926   0.764
   98SOL    HW2 1194   1.461   3.086   0.748
   99SOL     OW 1195   3.887   2.730   1.518
   99SOL    HW1 1196   3.976   2.687   1.505
   99SOL    HW2 1197   3.883   2.772   1.608
  100SOL     OW 1198   0.935   6.307   3.919
  100SOL    HW1 1199   0.882   6.251   3.983
  100SOL    HW2 1200   0.874   6.342   3.848
  101SOL     OW 1201   1.920   4.710   2.240
  101SOL    HW1 1202   1.935   4.627   2.293
  101SOL    HW2 1203   2.007   4.755   2.221
  102SOL     OW 1204   3.295   5.325   1.472
  102SOL    HW1 1205   3.318   5.415   1.507
  102SOL    HW2 1206   3.203   5.299   1.504
  103SOL     OW 1207   2.535   1.927   1.666
  103SOL    HW1 1208   2.455   1.873   1.640
  103SOL    HW2 1209   2.618   1.872   1.653
  104SOL     OW 1210   1.478   5.722   3.193
  104SOL    HW1 1211   1.385   5.746   3.221
  104SOL    HW2 1212   1.502   5.632   3.229
  105SOL     OW 1213   6.403   1.196   6.447
  105SOL    HW1 1214   6.489   1.152   6.422
  105SOL    HW2 1215   6.336   1.125   6.470
  106SOL     OW 1216   3.600   6.172   4.296
  106SOL    HW1 1217   3.631   6.080   4.272
  106SOL    HW2 1218   3.546   6.168   4.380
  107SOL     OW 1219   0.890   1.196   0.294
  107SOL    HW1 1220   0.886   1.097   0.308
  107SOL    HW2 1221   0.838   1.242   0.366
  108SOL     OW 1222   3.394   0.231   5.701
  108SOL    HW1 1223   3.386   0.283   5.786
  108SOL    HW2 1224   3.392   0.133   5.722
  109SOL     OW 1225   1.605   1.264   2.271
  109SOL    HW1 1226   1.577   1.186   2.328
  109SOL    HW2 1227   1.528   1.326   2.258
  110SOL     OW 1228   2.736   5.492   4.116
  110SOL    HW1 1229   2.769   5.580   4.081
  110SOL    HW2 1230   2.642   5.477   4.084
  111SOL     OW 1231   1.962   1.123   4.049
  111SOL    HW1 1232   2.022   1.066   3.993
  111SOL    HW2 1233   1.987   1.219   4.039
  112SOL     OW 1234   3.172   5.528   6.804
  112SOL    HW1 1235   3.187   5.430   6.793
  112SOL    HW2 1236   3.116   5.562   6.728
  113SOL     OW 1237   1.402   5.789   2.460
  113SOL    HW1 1238   1.386   5.740   2.375
  113SOL    HW2 1239   1.342   5.752   2.532
  114SOL     OW 1240   0.695   6.481   1.842
  114SOL    HW1 1241   0.616   6.504   1.898
  114SOL    HW2 1242   0.709   6.382   1.843
  115SOL     OW 1243   4.678   1.485   3.178
  115SOL    HW1 1244   4.581   1.493   3.153
  115SOL    HW2 1245   4.717   1.404   3.134
  116SOL     OW 1246   6.496   6.165   1.235
  116SOL    HW1 1247   6.443   6.249   1.246
  116SOL    HW2 1248   6.548   6.147   1.319
  117SOL     OW 1249   0.931   1.663   1.296
  117SOL    HW1 1250   1.030   1.659   1.303
  117SOL    HW2 1251   0.890   1.599   1.362
  118SOL     OW 1252   1.207   1.059   2.190
  118SOL    HW1 1253   1.164   0.968   2.196
  118SOL    HW2 1254   1.215   1.097   2.282
  119SOL     OW 1255   0.313   0.426   0.381
  119SOL    HW1 1256   0.300   0.450   0.477
  119SOL    HW2 1257   0.410   0.430   0.358
  120SOL     OW 1258   5.158   1.190   5.704
  120SOL    HW1 1259   5.066   1.230   5.713
  120SOL    HW2 1260   5.188   1.154   5.792
  121SOL     OW 1261   1.871   2.624   0.229
  121SOL    HW1 1262   1.925   2.557   0.281
  121SOL    HW2 1263   1.932   2.675   0.168
  122SOL     OW 1264   1.237   3.720   6.748
  122SOL    HW1 1265   1.303   3.674   6.808
  122SOL    HW2 1266   1.180   3.652   6.702
  123SOL     OW 1267   0.706   1.420   2.764
  123SOL    HW1 1268   0.621   1.370   2.779
  123SOL    HW2 1269   0.758   1.423   2.849
  124SOL     OW 1270   3.940   2.416   1.030
  124SOL    HW1 1271   3.944   2.501   0.977
  124SOL    HW2 1272   3.983   2.343   0.978
  125SOL     OW 1273   4.132   2.278   0.317
  125SOL    HW1 1274   4.075   2.316   0.390
  125SOL    HW2 1275   4.224   2.317   0.322
  126SOL     OW 1276   3.047   3.953   1.518
  126SOL    HW1 1277   3.120   3.990   1.461
  126SOL    HW2 1278   3.057   3.987   1.611
  127SOL     OW 1279   0.799   5.116   6.539
  127SOL    HW1 1280   0.774   5.019   6.532
  127SOL    HW2 1281   0.896   5.126   6.515
  128SOL     OW 1282   4.876   2.730   1.253
  128SOL    HW1 1283   4.912   2.703   1.342
  128SOL    HW2 1284   4.809   2.804   1.265
  129SOL     OW 1285   3.288   3.470   6.273
  129SOL    HW1 1286   3.242   3.558   6.277
  129SOL    HW2 1287   3.283   3.425   6.362
  130SOL     OW 1288   1.222   1.786   4.168
  130SOL    HW1 1289   1.219   1.686   4.170
  130SOL    HW2 1290   1.295   1.816   4.106
  131SOL     OW 1291   4.326   0.717   3.170
  131SOL    HW1 1292   4.397   0.754   3.229
  131SOL    HW2 1293   4.314   0.620   3.189
  132SOL     OW 1294   2.997   2.660   1.691
  132SOL    HW1 1295   3.075   2.722   1.704
  132SOL    HW2 1296   2.990   2.599   1.769
  133SOL     OW 1297   5.222   0.969   4.410
  133SOL    HW1 1298   5.268   0.894   4.363
  133SOL    HW2 1299   5.137   0.992   4.362
  134SOL     OW 1300   6.977   1.077   2.509
  134SOL    HW1 1301   6.922   1.050   2.430
  134SOL    HW2 1302   7.006   1.173   2.498
  135SOL     OW 1303   5.180   3.807   3.852
  135SOL    HW1 1304   5.227   3.841   3.771
  135SOL    HW2 1305   5.180   3.878   3.923
  136SOL     OW 1306   1.605   5.302   4.915
  136SOL    HW1 1307   1.636   5.340   5.002
  136SOL    HW2 1308   1.585   5.205   4.926
  137SOL     OW 1309   5.077   2.144   2.832
  137SOL    HW1 1310   5.111   2.094   2.912
  137SOL    HW2 1311   4.978   2.132   2.824
  138SOL     OW 1312   1.251   3.906   3.074
  138SOL    HW1 1313   1.253   3.984   3.012
  138SOL    HW2 1314   1.255   3.939   3.169
  139SOL     OW 1315   1.529   6.819   5.337
  139SOL    HW1 1316   1.447   6.864   5.300
  139SOL    HW2 1317   1.533   6.725   5.304
  140SOL     OW 1318   1.724   6.906   4.062
  140SOL    HW1 1319   1.642   6.936   4.111
  140SOL    HW2 1320   1.699   6.872   3.972
  141SOL     OW 1321   0.220   2.764   4.778
  141SOL    HW1 1322   0.243   2.856   4.747
  141SOL    HW2 1323   0.288   2.699   4.744
  142SOL     OW 1324   1.653   4.564   1.724
  142SOL    HW1 1325   1.737   4.533   1.767
  142SOL    HW2 1326   1.641   4.517   1.636
  143SOL     OW 1327   6.304   4.618   0.010
  143SOL    HW1 1328   6.308   4.551   6.955
  143SOL    HW2 1329   6.242   4.692   7.004
  144SOL     OW 1330   1.849   4.472   5.719
  144SOL    HW1 1331   1.864   4.530   5.639
  144SOL    HW2 1332   1.880   4.379   5.700
  145SOL     OW 1333   1.887   4.712   1.752
  145SOL    HW1 1334   1.845   4.724   1.842
  145SOL    HW2 1335   1.860   4.787   1.692
  146SOL     OW 1336   5.148   6.935   5.749
  146SOL    HW1 1337   5.232   6.986   5.730
  146SOL    HW2 1338   5.166   6.837   5.740
  147SOL     OW 1339   5.349   2.467   6.169
  147SOL    HW1 1340   5.429   2.407   6.169
  147SOL    HW2 1341   5.276   2.425   6.223
  148SOL     OW 1342   6.922   5.108   0.927
  148SOL    HW1 1343   6.943   5.011   0.913
  148SOL    HW2 1344   6.919   5.128   1.024
  149SOL     OW 1345   3.389   2.070   3.947
  149SOL    HW1 1346   3.417   2.044   3.855
  149SOL    HW2 1347   3.430   2.007   4.013
  150SOL     OW 1348   5.274   6.812   0.183
  150SOL    HW1 1349   5.269   6.908   0.156
  150SOL    HW2 1350   5.370   6.784   0.188
  151SOL     OW 1351   3.089   1.093   1.848
  151SOL    HW1 1352   3.053   1.134   1.764
  151SOL    HW2 1353   3.144   1.160   1.898
  152SOL     OW 1354   0.020   1.217   1.560
  152SOL    HW1 1355   6.940   1.202   1.550
  152SOL    HW2 1356   0.070   1.144   1.513
  153SOL     OW 1357   2.814   0.186   3.667
  153SOL    HW1 1358   2.755   0.214   3.743
  153SOL    HW2 1359   2.864   0.104   3.693
  154SOL     OW 1360   0.930   3.227   1.307
  154SOL    HW1 1361   0.926   3.311   1.361
  154SOL    HW2 1362   1.025   3.208   1.281
  155SOL     OW 1363   0.794   1.489   5.254
  155SOL    HW1 1364   0.866   1.528   5.195
  155SOL    HW2 1365   0.773   1.396   5.222
  156SOL     OW 1366   6.857   0.574   1.094
  156SOL    HW1 1367   6.861   0.660   1.146
  156SOL    HW2 1368   6.774   0.524   1.120
  157SOL     OW 1369   6.047   3.319   1.498
  157SOL    HW1 1370   6.118   3.257   1.532
  157SOL    HW2 1371   6.073   3.413   1.517
  158SOL     OW 1372   1.211   3.129   1.998
  158SOL    HW1 1373   1.284   3.161   2.058
  158SOL    HW2 1374   1.235   3.150   1.903
  159SOL     OW 1375   4.394   5.187   1.926
  159SOL    HW1 1376   4.385   5.137   1.840
  159SOL    HW2 1377   4.313   5.244   1.940
  160SOL     OW 1378   5.571   6.546   1.045
  160SOL    HW1 1379   5.515   6.534   0.963
  160SOL    HW2 1380   5.514   6.532   1.126
  161SOL     OW 1381   1.068   6.609   3.672
  161SOL    HW1 1382   1.008   6.552   3.616
  161SOL    HW2 1383   1.063   6.704   3.641
  162SOL     OW 1384   4.079   6.300   0.146
  162SOL    HW1 1385   4.024   6.289   0.229
  162SOL    HW2 1386   4.137   6.219   0.133
  163SOL     OW 1387   6.583   5.774   2.163
  163SOL    HW1 1388   6.625   5.864   2.149
  163SOL    HW2 1389   6.627   5.729   2.241
  164SOL     OW 1390   0.575   4.293   2.976
  164SOL    HW1 1391   0.594   4.210   2.924
  164SOL    HW2 1392   0.484   4.327   2.952
  165SOL     OW 1393   4.718   4.146   1.053
  165SOL    HW1 1394   4.703   4.235   1.013
  165SOL    HW2 1395   4.692   4.074   0.988
  166SOL     OW 1396   1.409   3.226   2.159
  166SOL    HW1 1397   1.474   3.188   2.224
  166SOL    HW2 1398   1.342   3.282   2.207
  167SOL     OW 1399   5.528   2.521   6.840
  167SOL    HW1 1400   5.605   2.501   6.901
  167SOL    HW2 1401   5.561   2.523   6.746
  168SOL     OW 1402   3.618   2.620   0.631
  168SOL    HW1 1403   3.660   2.544   0.681
  168SOL    HW2 1404   3.525   2.636   0.664
  169SOL     OW 1405   6.591   1.986   1.329
  169SOL    HW1 1406   6.576   1.889   1.311
  169SOL    HW2 1407   6.513   2.039   1.295
  170SOL     OW 1408   6.971   0.041   2.318
  170SOL    HW1 1409   6.954   0.139   2.333
  170SOL    HW2 1410   6.977   7.014   2.407
  171SOL     OW 1411   2.525   4.127   6.584
  171SOL    HW1 1412   2.551   4.207   6.529
  171SOL    HW2 1413   2.554   4.044   6.536
  172SOL     OW 1414   6.055   1.295   2.711
  172SOL    HW1 1415   5.997   1.345   2.775
  172SOL    HW2 1416   6.075   1.353   2.632
  173SOL     OW 1417   6.357   1.235   3.757
  173SOL    HW1 1418   6.427   1.258   3.689
  173SOL    HW2 1419   6.268   1.224   3.711
  174SOL     OW 1420   3.953   5.433   3.830
  174SOL    HW1 1421   3.874   5.384   3.868
  174SOL    HW2 1422   4.026   5.368   3.810
  175SOL     OW 1423   2.997   0.252   1.715
  175SOL    HW1 1424   2.919   0.315   1.716
  175SOL    HW2 1425   3.057   0.272   1.792
  176SOL     OW 1426   0.039   4.648   1.087
  176SOL    HW1 1427   0.131   4.613   1.071
  176SOL    HW2 1428   0.017   4.641   1.184
  177SOL     OW 1429   5.622   3.412   4.183
  177SOL    HW1 1430   5.534   3.368   4.202
  177SOL    HW2 1431   5.695   3.363   4.229
  178SOL     OW 1432   3.570   4.344   5.622
  178SOL    HW1 1433   3.548   4.441   5.616
  178SOL    HW2 1434   3.651   4.325   5.567
  179SOL     OW 1435   4.356   1.290   5.603
  179SOL    HW1 1436   4.386   1.370   5.550
  179SOL    HW2 1437   4.358   1.209   5.544
  180SOL     OW 1438   2.062   6.665   0.781
  180SOL    HW1 1439   2.043   6.701   0.690
  180SOL    HW2 1440   2.151   6.621   0.782
  181SOL     OW 1441   3.739   3.492   6.009
  181SOL    HW1 1442   3.644   3.467   6.023
  181SOL    HW2 1443   3.781   3.516   6.097
  182SOL     OW 1444   4.026   1.841   5.825
  182SOL    HW1 1445   3.979   1.886   5.901
  182SOL    HW2 1446   4.013   1.894   5.741
  183SOL     OW 1447   3.134   1.831   3.748
  183SOL    HW1 1448   3.223   1.786   3.738
  183SOL    HW2 1449   3.144   1.929   3.731
  184SOL     OW 1450   0.616   6.360   4.147
  184SOL    HW1 1451   0.634   6.457   4.133
  184SOL    HW2 1452   0.529   6.336   4.105
  185SOL     OW 1453   0.907   0.776   5.344
  185SOL    HW1 1454   0.933   0.855   5.289
  185SOL    HW2 1455   0.836   0.802   5.409
  186SOL     OW 1456   6.389   1.306   4.020
  186SOL    HW1 1457   6.402   1.286   3.923
  186SOL    HW2 1458   6.317   1.247   4.056
  187SOL     OW 1459   4.919   6.546   2.439
  187SOL    HW1 1460   4.856   6.472   2.414
  187SOL    HW2 1461   4.918   6.615   2.366
  188SOL     OW 1462   1.797   3.243   3.254
  188SOL    HW1 1463   1.757   3.278   3.169
  188SOL    HW2 1464   1.767   3.148   3.267
  189SOL     OW 1465   2.236   5.710   0.695
  189SOL    HW1 1466   2.285   5.740   0.613
  189SOL    HW2 1467   2.290   5.641   0.743
  190SOL     OW 1468   5.975   3.404   5.567
  190SOL    HW1 1469   5.936   3.460   5.495
  190SOL    HW2 1470   5.926   3.317   5.574
  191SOL     OW 1471   5.661   0.613   6.518
  191SOL    HW1 1472   5.573   0.657   6.531
  191SOL    HW2 1473   5.711   0.659   6.444
  192SOL     OW 1474   0.593   5.070   2.485
  192SOL    HW1 1475   0.628   4.987   2.442
  192SOL    HW2 1476   0.532   5.117   2.421
  193SOL     OW 1477   4.472   3.457   5.345
  193SOL    HW1 1478   4.513   3.435   5.433
  193SOL    HW2 1479   4.530   3.522   5.297
  194SOL     OW 1480   4.111   6.853   2.857
  194SOL    HW1 1481   4.066   6.799   2.785
  194SOL    HW2 1482   4.124   6.795   2.938
  195SOL     OW 1483   1.563   0.528   4.156
  195SOL    HW1 1484   1.466   0.505   4.148
  195SOL    HW2 1485   1.587   0.542   4.253
  196SOL     OW 1486   2.538   0.226   0.141
  196SOL    HW1 1487   2.593   0.174   0.076
  196SOL    HW2 1488   2.546   0.324   0.121
  197SOL     OW 1489   2.604   0.088   1.621
  197SOL    HW1 1490   2.583   7.012   1.596
  197SOL    HW2 1491   2.694   0.113   1.585
  198SOL     OW 1492   4.903   6.984   2.005
  198SOL    HW1 1493   4.871   6.923   1.933
  198SOL    HW2 1494   4.887   0.060   1.979
  199SOL     OW 1495   6.696   1.189   3.637
  199SOL    HW1 1496   6.642   1.274   3.639
  199SOL    HW2 1497   6.718   1.161   3.730
  200SOL     OW 1498   1.292   4.427   1.639
  200SOL    HW1 1499   1.306   4.506   1.698
  200SOL    HW2 1500   1.340   4.348   1.677
  201SOL     OW 1501   6.688   6.899   6.129
  201SOL    HW1 1502   6.595   6.933   6.118
  201SOL    HW2 1503   6.733   6.892   6.040
  202SOL     OW 1504   4.957   0.529   5.709
  202SOL    HW1 1505   4.981   0.439   5.673
  202SOL    HW2 1506   4.905   0.518   5.793
  203SOL     OW 1507   4.241   2.285   4.178
  203SOL    HW1 1508   4.148   2.248   4.170
  203SOL    HW2 1509   4.258   2.313   4.272
  204SOL     OW 1510   0.532   0.874   6.345
  204SOL    HW1 1511   0.590   0.936   6.397
  204SOL    HW2 1512   0.492   0.806   6.407
  205SOL     OW 1513   0.639   0.846   3.424
  205SOL    HW1 1514   0.728   0.825   3.465
  205SOL    HW2 1515   0.648   0.928   3.367
  206SOL     OW 1516   0.460   4.963   2.094
  206SOL    HW1 1517   0.462   5.017   2.010
  206SOL    HW2 1518   0.397   4.886   2.082
  207SOL     OW 1519   5.123   0.923   3.796
  207SOL    HW1 1520   5.062   0.847   3.774
  207SOL    HW2 1521   5.069   1.005   3.815
  208SOL     OW 1522   5.568   3.239   5.536
  208SOL    HW1 1523   5.598   3.320   5.487
  208SOL    HW2 1524   5.567   3.161   5.474
  209SOL     OW 1525   0.690   4.742   4.807
  209SOL    HW1 1526   0.592   4.746   4.829
  209SOL    HW2 1527   0.740   4.707   4.887
  210SOL     OW 1528   4.557   2.169   1.136
  210SOL    HW1 1529   4.532   2.239   1.203
  210SOL    HW2 1530   4.621   2.104   1.177
  211SOL     OW 1531   2.519   6.340   3.432
  211SOL    HW1 1532   2.589   6.311   3.367
  211SOL    HW2 1533   2.454   6.400   3.385
  212SOL     OW 1534   2.074   4.403   1.203
  212SOL    HW1 1535   2.011   4.392   1.280
  212SOL    HW2 1536   2.027   4.381   1.117
  213SOL     OW 1537   3.248   0.659   6.175
  213SOL    HW1 1538   3.247   0.644   6.076
  213SOL    HW2 1539   3.203   0.583   6.221
  214SOL     OW 1540   4.559   5.504   1.819
  214SOL    HW1 1541   4.623   5.564   1.867
  214SOL    HW2 1542   4.511   5.447   1.885
  215SOL     OW 1543   2.373   3.337   0.960
  215SOL    HW1 1544   2.308   3.411   0.941
  215SOL    HW2 1545   2.444   3.371   1.021
  216SOL     OW 1546   2.171   5.865   4.402
  216SOL    HW1 1547   2.130   5.895   4.488
  216SOL    HW2 1548   2.250   5.806   4.421
  217SOL     OW 1549   1.936   2.600   3.775
  217SOL    HW1 1550   1.866   2.563   3.714
  217SOL    HW2 1551   2.001   2.527   3.799
  218SOL     OW 1552   1.400   3.028   4.709
  218SOL    HW1 1553   1.375   2.989   4.620
  218SOL    HW2 1554   1.337   2.992   4.779
  219SOL     OW 1555   3.904   6.515   5.895
  219SOL    HW1 1556   3.862   6.507   5.986
  219SOL    HW2 1557   3.840   6.481   5.826
  220SOL     OW 1558   3.640   6.698   0.778
  220SOL    HW1 1559   3.565   6.651   0.732
  220SOL    HW2 1560   3.640   6.794   0.752
  221SOL     OW 1561   6.505   3.217   2.401
  221SOL    HW1 1562   6.477   3.153   2.472
  221SOL    HW2 1563   6.525   3.306   2.442
  222SOL     OW 1564   2.879   5.079   5.827
  222SOL    HW1 1565   2.780   5.067   5.840
  222SOL    HW2 1566   2.902   5.061   5.731
  223SOL     OW 1567   5.897   3.016   0.914
  223SOL    HW1 1568   5.980   3.019   0.859
  223SOL    HW2 1569   5.901   3.087   0.985
  224SOL     OW 1570   2.125   2.209   4.442
  224SOL    HW1 1571   2.151   2.228   4.347
  224SOL    HW2 1572   2.099   2.113   4.451
  225SOL     OW 1573   5.050   2.757   5.948
  225SOL    HW1 1574   5.011   2.845   5.918
  225SOL    HW2 1575   5.139   2.772   5.989
  226SOL     OW 1576   1.796   0.597   6.288
  226SOL    HW1 1577   1.812   0.694   6.306
  226SOL    HW2 1578   1.738   0.559   6.360
  227SOL     OW 1579   1.705   3.476   3.123
  227SOL    HW1 1580   1.628   3.463   3.185
  227SOL    HW2 1581   1.680   3.543   3.053
  228SOL     OW 1582   3.345   6.344   3.417
  228SOL    HW1 1583   3.359   6.252   3.379
  228SOL    HW2 1584   3.289   6.398   3.354
  229SOL     OW 1585   5.001   5.975   6.900
  229SOL    HW1 1586   5.037   5.990   6.808
  229SOL    HW2 1587   5.075   5.943   6.960
  230SOL     OW 1588   3.053   5.097   2.991
  230SOL    HW1 1589   3.122   5.027   3.010
  230SOL    HW2 1590   3.031   5.096   2.893
  231SOL     OW 1591   5.789   1.729   6.872
  231SOL    HW1 1592   5.691   1.737   6.852
  231SOL    HW2 1593   5.806   1.759   6.966
  232SOL     OW 1594   1.563   3.988   6.099
  232SOL    HW1 1595   1.658   4.007   6.075
  232SOL    HW2 1596   1.558   3.947   6.189
  233SOL     OW 1597   2.288   2.215   4.218
  233SOL    HW1 1598   2.255   2.130   4.178
  233SOL    HW2 1599   2.312   2.279   4.144
  234SOL     OW 1600   4.551   6.545   5.077
  234SOL    HW1 1601   4.617   6.617   5.100
  234SOL    HW2 1602   4.502   6.570   4.994
  235SOL     OW 1603   3.606   2.966   1.638
  235SOL    HW1 1604   3.696   2.957   1.681
  235SOL    HW2 1605   3.573   2.876   1.610
  236SOL     OW 1606   5.231   2.692   6.576
  236SOL    HW1 1607   5.304   2.759   6.591
  236SOL    HW2 1608   5.261   2.602   6.609
  237SOL     OW 1609   6.269   5.465   2.111
  237SOL    HW1 1610   6.301   5.558   2.093
  237SOL    HW2 1611   6.223   5.430   2.029
  238SOL     OW 1612   5.255   2.129   0.143
  238SOL    HW1 1613   5.308   2.211   0.164
  238SOL    HW2 1614   5.280   2.055   0.206
  239SOL     OW 1615   0.088   5.422   5.773
  239SOL    HW1 1616   0.141   5.354   5.724
  239SOL    HW2 1617   0.012   5.377   5.821
  240SOL     OW 1618   0.634   2.814   4.586
  240SOL    HW1 1619   0.560   2.750   4.609
  240SOL    HW2 1620   0.720   2.764   4.578
  241SOL     OW 1621   1.838   0.078   4.864
  241SOL    HW1 1622   1.930   0.095   4.829
  241SOL    HW2 1623   1.838   7.015   4.921
  242SOL     OW 1624   2.524   3.043   5.643
  242SOL    HW1 1625   2.426   3.048   5.663
  242SOL    HW2 1626   2.559   2.953   5.667
  243SOL     OW 1627   4.780   0.317   5.887
  243SOL    HW1 1628   4.799   0.223   5.858
  243SOL    HW2 1629   4.696   0.349   5.842
  244SOL     OW 1630   5.421   2.611   4.999
  244SOL    HW1 1631   5.455   2.669   4.925
  244SOL    HW2 1632   5.497   2.565   5.044
  245SOL     OW 1633   6.783   3.285   5.017
  245SOL    HW1 1634   6.803   3.234   4.933
  245SOL    HW2 1635   6.846   3.256   5.089
  246SOL     OW 1636   5.046   2.608   3.532
  246SOL    HW1 1637   4.983   2.638   3.460
  246SOL    HW2 1638   4.995   2.588   3.616
  247SOL     OW 1639   2.664   1.041   1.741
  247SOL    HW1 1640   2.742   0.996   1.785
  247SOL    HW2 1641   2.615   1.097   1.808
  248SOL     OW 1642   3.944   2.144   3.100
  248SOL    HW1 1643   3.860   2.149   3.156
  248SOL    HW2 1644   3.948   2.054   3.056
  249SOL     OW 1645   4.392   6.885   6.092
  249SOL    HW1 1646   4.409   6.888   6.191
  249SOL    HW2 1647   4.412   6.975   6.052
  250SOL     OW 1648   5.903   2.682   0.963
  250SOL    HW1 1649   5.863   2.627   0.890
  250SOL    HW2 1650   5.836   2.749   0.996
  251SOL     OW 1651   4.826   3.833   5.752
  251SOL    HW1 1652   4.908   3.784   5.783
  251SOL    HW2 1653   4.841   3.868   5.659
  252SOL     OW 1654   6.413   0.177   6.289
  252SOL    HW1 1655   6.358   0.107   6.244
  252SOL    HW2 1656   6.354   0.238   6.341
  253SOL     OW 1657   2.187   4.290   6.660
  253SOL    HW1 1658   2.110   4.304   6.722
  253SOL    HW2 1659   2.195   4.193   6.638
  254SOL     OW 1660   5.206   3.098   3.191
  254SOL    HW1 1661   5.174   3.174   3.133
  254SOL    HW2 1662   5.158   3.014   3.165
  255SOL     OW 1663   2.205   3.158   4.522
  255SOL    HW1 1664   2.203   3.254   4.546
  255SOL    HW2 1665   2.197   3.102   4.605
  256SOL     OW 1666   5.917   4.494   6.289
  256SOL    HW1 1667   5.985   4.563   6.316
  256SOL    HW2 1668   5.840   4.538   6.245
  257SOL     OW 1669   4.632   6.808   3.897
  257SOL    HW1 1670   4.557   6.815   3.962
  257SOL    HW2 1671   4.614   6.867   3.818
  258SOL     OW 1672   6.992   4.544   5.133
  258SOL    HW1 1673   6.962   4.592   5.216
  258SOL    HW2 1674   6.975   4.602   5.053
  259SOL     OW 1675   1.803   2.121   2.366
  259SOL    HW1 1676   1.779   2.193   2.301
  259SOL    HW2 1677   1.786   2.153   2.459
  260SOL     OW 1678   4.276   0.951   0.824
  260SOL    HW1 1679   4.179   0.975   0.815
  260SOL    HW2 1680   4.314   0.934   0.733
  261SOL     OW 1681   6.887   3.704   0.675
  261SOL    HW1 1682   6.891   3.692   0.575
  261SOL    HW2 1683   6.792   3.716   0.703
  262SOL     OW 1684   0.335   4.308   0.617
  262SOL    HW1 1685   0.309   4.314   0.713
  262SOL    HW2 1686   0.346   4.400   0.579
  263SOL     OW 1687   0.552   0.889   4.209
  263SOL    HW1 1688   0.464   0.883   4.163
  263SOL    HW2 1689   0.624   0.856   4.148
  264SOL     OW 1690   4.673   3.186   6.027
  264SOL    HW1 1691   4.671   3.105   5.968
  264SOL    HW2 1692   4.744   3.175   6.096
  265SOL     OW 1693   4.947   4.585   3.106
  265SOL    HW1 1694   4.875   4.536   3.057
  265SOL    HW2 1695   5.027   4.594   3.047
  266SOL     OW 1696   3.876   3.331   5.834
  266SOL    HW1 1697   3.963   3.304   5.876
  266SOL    HW2 1698   3.818   3.375   5.903
  267SOL     OW 1699   5.877   2.153   6.082
  267SOL    HW1 1700   5.957   2.103   6.051
  267SOL    HW2 1701   5.888   2.178   6.179
  268SOL     OW 1702   4.316   0.213   4.863
  268SOL    HW1 1703   4.343   0.129   4.816
  268SOL    HW2 1704   4.230   0.246   4.825
  269SOL     OW 1705   1.750   3.301   1.329
  269SOL    HW1 1706   1.664   3.348   1.309
  269SOL    HW2 1707   1.816   3.366   1.367
  270SOL     OW 1708   6.892   0.238   1.044
  270SOL    HW1 1709   6.804   0.276   1.076
  270SOL    HW2 1710   6.878   0.144   1.012
  271SOL     OW 1711   3.048   1.326   0.570
  271SOL    HW1 1712   2.968   1.361   0.618
  271SOL    HW2 1713   3.020   1.255   0.505
  272SOL     OW 1714   3.075   5.180   4.098
  272SOL    HW1 1715   3.062   5.160   4.000
  272SOL    HW2 1716   3.113   5.098   4.143
  273SOL     OW 1717   2.424   5.140   4.705
  273SOL    HW1 1718   2.398   5.132   4.801
  273SOL    HW2 1719   2.343   5.158   4.649
  274SOL     OW 1720   4.876   2.495   3.730
  274SOL    HW1 1721   4.829   2.412   3.701
  274SOL    HW2 1722   4.914   2.481   3.822
  275SOL     OW 1723   5.945   5.380   5.787
  275SOL    HW1 1724   6.040   5.410   5.788
  275SOL    HW2 1725   5.910   5.376   5.881
  276SOL     OW 1726   0.210   5.314   2.901
  276SOL    HW1 1727   0.266   5.241   2.861
  276SOL    HW2 1728   0.130   5.275   2.946
  277SOL     OW 1729   2.503   3.358   0.449
  277SOL    HW1 1730   2.528   3.423   0.521
  277SOL    HW2 1731   2.477   3.271   0.490
  278SOL     OW 1732   0.205   5.508   1.868
  278SOL    HW1 1733   0.297   5.495   1.905
  278SOL    HW2 1734   0.139   5.456   1.923
  279SOL     OW 1735   0.246   3.344   3.927
  279SOL    HW1 1736   0.214   3.438   3.916
  279SOL    HW2 1737   0.260   3.303   3.837
  280SOL     OW 1738   1.834   6.975   3.178
  280SOL    HW1 1739   1.835   0.031   3.112
  280SOL    HW2 1740   1.917   6.921   3.168
  281SOL     OW 1741   3.443   4.910   2.122
  281SOL    HW1 1742   3.479   4.970   2.050
  281SOL    HW2 1743   3.454   4.814   2.094
  282SOL     OW 1744   3.908   1.749   5.297
  282SOL    HW1 1745   3.929   1.808   5.374
  282SOL    HW2 1746   3.810   1.752   5.278
  283SOL     OW 1747   6.607   1.392   6.036
  283SOL    HW1 1748   6.612   1.432   6.127
  283SOL    HW2 1749   6.633   1.295   6.040
  284SOL     OW 1750   0.606   4.297   4.653
  284SOL    HW1 1751   0.536   4.362   4.683
  284SOL    HW2 1752   0.570   4.243   4.576
  285SOL     OW 1753   5.559   5.206   6.104
  285SOL    HW1 1754   5.592   5.138   6.039
  285SOL    HW2 1755   5.461   5.193   6.118
  286SOL     OW 1756   3.328   5.025   5.362
  286SOL    HW1 1757   3.274   4.954   5.406
  286SOL    HW2 1758   3.274   5.109   5.356
  287SOL     OW 1759   0.627   4.494   6.915
  287SOL    HW1 1760   0.562   4.519   6.986
  287SOL    HW2 1761   0.674   4.576   6.883
  288SOL     OW 1762   4.558   2.441   0.192
  288SOL    HW1 1763   4.462   2.435   0.166
  288SOL    HW2 1764   4.590   2.350   0.220
  289SOL     OW 1765   0.127   5.426   5.216
  289SOL    HW1 1766   0.193   5.469   5.156
  289SOL    HW2 1767   0.172   5.399   5.302
  290SOL     OW 1768   4.808   1.491   3.767
  290SOL    HW1 1769   4.808   1.407   3.713
  290SOL    HW2 1770   4.839   1.471   3.860
  291SOL     OW 1771   2.838   1.737   5.200
  291SOL    HW1 1772   2.900   1.773   5.130
  291SOL    HW2 1773   2.798   1.652   5.168
  292SOL     OW 1774   2.740   1.899   2.506
  292SOL    HW1 1775   2.816   1.849   2.463
  292SOL    HW2 1776   2.660   1.895   2.445
  293SOL     OW 1777   5.190   5.011   1.784
  293SOL    HW1 1778   5.116   4.976   1.726
  293SOL    HW2 1779   5.213   5.104   1.756
  294SOL     OW 1780   6.392   5.466   6.208
  294SOL    HW1 1781   6.432   5.393   6.264
  294SOL    HW2 1782   6.322   5.514   6.260
  295SOL     OW 1783   3.454   1.645   4.654
  295SOL    HW1 1784   3.477   1.557   4.695
  295SOL    HW2 1785   3.371   1.682   4.696
  296SOL     OW 1786   5.977   2.067   2.335
  296SOL    HW1 1787   5.934   2.150   2.370
  296SOL    HW2 1788   6.031   2.025   2.408
  297SOL     OW 1789   2.811   5.037   2.814
  297SOL    HW1 1790   2.852   4.971   2.751
  297SOL    HW2 1791   2.810   5.128   2.772
  298SOL     OW 1792   3.125   5.978   0.466
  298SOL    HW1 1793   3.169   5.980   0.556
  298SOL    HW2 1794   3.033   6.015   0.472
  299SOL     OW 1795   4.014   2.916   6.526
  299SOL    HW1 1796   4.055   2.980   6.462
  299SOL    HW2 1797   3.928   2.880   6.488
  300SOL     OW 1798   5.129   0.657   1.906
  300SOL    HW1 1799   5.197   0.689   1.972
  300SOL    HW2 1800   5.046   0.713   1.914
  301SOL     OW 1801   5.796   2.900   0.693
  301SOL    HW1 1802   5.826   2.943   0.778
  301SOL    HW2 1803   5.721   2.954   0.653
  302SOL     OW 1804   0.073   0.695   3.684
  302SOL    HW1 1805   0.098   0.721   3.777
  302SOL    HW2 1806   0.143   0.634   3.647
  303SOL     OW 1807   6.688   6.759   2.151
  303SOL    HW1 1808   6.765   6.817   2.126
  303SOL    HW2 1809   6.693   6.739   2.249
  304SOL     OW 1810   1.497   6.538   5.626
  304SOL    HW1 1811   1.582   6.523   5.576
  304SOL    HW2 1812   1.421   6.497   5.576
  305SOL     OW 1813   1.359   3.286   6.821
  305SOL    HW1 1814   1.262   3.288   6.795
  305SOL    HW2 1815   1.386   3.191   6.838
  306SOL     OW 1816   1.784   0.248   3.637
  306SOL    HW1 1817   1.726   0.186   3.585
  306SOL    HW2 1818   1.789   0.337   3.590
  307SOL     OW 1819   4.987   5.738   0.721
  307SOL    HW1 1820   5.033   5.786   0.646
  307SOL    HW2 1821   4.927   5.801   0.770
  308SOL     OW 1822   5.532   3.616   4.583
  308SOL    HW1 1823   5.445   3.617   4.632
  308SOL    HW2 1824   5.586   3.537   4.613
  309SOL     OW 1825   2.110   5.863   0.057
  309SOL    HW1 1826   2.151   5.818   6.997
  309SOL    HW2 1827   2.153   5.952   0.072
  310SOL     OW 1828   5.417   6.776   5.354
  310SOL    HW1 1829   5.394   6.828   5.436
  310SOL    HW2 1830   5.334   6.743   5.310
  311SOL     OW 1831   4.308   5.015   2.613
  311SOL    HW1 1832   4.224   5.046   2.657
  311SOL    HW2 1833   4.287   4.940   2.549
  312SOL     OW 1834   4.077   1.218   4.631
  312SOL    HW1 1835   3.999   1.181   4.581
  312SOL    HW2 1836   4.091   1.166   4.715
  313SOL     OW 1837   2.952   3.696   2.395
  313SOL    HW1 1838   3.008   3.617   2.370
  313SOL    HW2 1839   2.901   3.728   2.314
  314SOL     OW 1840   2.652   4.887   6.714
  314SOL    HW1 1841   2.643   4.854   6.808
  314SOL    HW2 1842   2.735   4.942   6.706
  315SOL     OW 1843   1.092   2.968   3.812
  315SOL    HW1 1844   1.130   3.049   3.858
  315SOL    HW2 1845   1.165   2.902   3.797
  316SOL     OW 1846   2.875   1.148   4.259
  316SOL    HW1 1847   2.810   1.080   4.225
  316SOL    HW2 1848   2.952   1.155   4.196
  317SOL     OW 1849   6.862   1.542   0.769
  317SOL    HW1 1850   6.809   1.625   0.785
  317SOL    HW2 1851   6.810   1.481   0.709
  318SOL     OW 1852   0.596   5.436   6.668
  318SOL    HW1 1853   0.504   5.398   6.656
  318SOL    HW2 1854   0.590   5.535   6.677
  319SOL     OW 1855   6.509   1.391   3.577
  319SOL    HW1 1856   6.477   1.484   3.591
  319SOL    HW2 1857   6.481   1.360   3.486
  320SOL     OW 1858   6.768   2.113   1.189
  320SOL    HW1 1859   6.693   2.070   1.238
  320SOL    HW2 1860   6.749   2.211   1.177
  321SOL     OW 1861   3.732   1.780   0.027
  321SOL    HW1 1862   3.757   1.692   0.068
  321SOL    HW2 1863   3.813   1.838   0.022
  322SOL     OW 1864   3.377   2.933   4.185
  322SOL    HW1 1865   3.338   2.986   4.110
  322SOL    HW2 1866   3.307   2.917   4.255
  323SOL     OW 1867   0.881   3.040   6.641
  323SOL    HW1 1868   0.881   2.942   6.619
  323SOL    HW2 1869   0.820   3.056   6.718
  324SOL     OW 1870   2.753   1.210   4.744
  324SOL    HW1 1871   2.804   1.270   4.682
  324SOL    HW2 1872   2.701   1.266   4.808
  325SOL     OW 1873   0.552   2.859   1.734
  325SOL    HW1 1874   0.562   2.934   1.669
  325SOL    HW2 1875   0.455   2.835   1.743
  326SOL     OW 1876   1.069   5.093   6.503
  326SOL    HW1 1877   1.084   5.025   6.431
  326SOL    HW2 1878   1.115   5.063   6.587
  327SOL     OW 1879   1.254   4.451   3.377
  327SOL    HW1 1880   1.267   4.448   3.278
  327SOL    HW2 1881   1.339   4.428   3.423
  328SOL     OW 1882   1.280   5.869   1.610
  328SOL    HW1 1883   1.379   5.879   1.600
  328SOL    HW2 1884   1.255   5.772   1.600
  329SOL     OW 1885   4.002   3.462   4.778
  329SOL    HW1 1886   3.939   3.456   4.855
  329SOL    HW2 1887   4.090   3.499   4.809
  330SOL     OW 1888   3.763   6.801   1.335
  330SOL    HW1 1889   3.736   6.715   1.378
  330SOL    HW2 1890   3.687   6.865   1.338
  331SOL     OW 1891   3.460   5.533   0.472
  331SOL    HW1 1892   3.383   5.495   0.523
  331SOL    HW2 1893   3.426   5.603   0.409
  332SOL     OW 1894   4.741   1.842   5.000
  332SOL    HW1 1895   4.706   1.751   5.019
  332SOL    HW2 1896   4.683   1.887   4.932
  333SOL     OW 1897   2.967   0.505   6.048
  333SOL    HW1 1898   3.019   0.570   5.992
  333SOL    HW2 1899   2.880   0.546   6.076
  334SOL     OW 1900   3.491   0.323   1.728
  334SOL    HW1 1901   3.441   0.389   1.672
  334SOL    HW2 1902   3.503   0.360   1.821
  335SOL     OW 1903   4.064   6.951   5.414
  335SOL    HW1 1904   4.006   0.013   5.404
  335SOL    HW2 1905   4.160   6.979   5.419
  336SOL     OW 1906   1.843   0.747   3.457
  336SOL    HW1 1907   1.807   0.817   3.519
  336SOL    HW2 1908   1.856   0.662   3.507
  337SOL     OW 1909   0.409   2.741   0.179
  337SOL    HW1 1910   0.344   2.703   0.113
  337SOL    HW2 1911   0.449   2.666   0.232
  338SOL     OW 1912   2.832   2.354   1.402
  338SOL    HW1 1913   2.778   2.272   1.387
  338SOL    HW2 1914   2.887   2.343   1.485
  339SOL     OW 1915   3.462   6.167   4.052
  339SOL    HW1 1916   3.482   6.130   4.143
  339SOL    HW2 1917   3.392   6.111   4.008
  340SOL     OW 1918   4.916   4.188   5.261
  340SOL    HW1 1919   4.915   4.088   5.263
  340SOL    HW2 1920   4.829   4.221   5.223
  341SOL     OW 1921   6.441   0.541   4.884
  341SOL    HW1 1922   6.376   0.529   4.809
  341SOL    HW2 1923   6.419   0.476   4.957
  342SOL     OW 1924   6.292   3.846   0.050
  342SOL    HW1 1925   6.240   3.767   0.017
  342SOL    HW2 1926   6.242   3.930   0.031
  343SOL     OW 1927   1.587   5.434   0.511
  343SOL    HW1 1928   1.685   5.449   0.497
  343SOL    HW2 1929   1.569   5.423   0.608
  344SOL     OW 1930   1.333   3.919   2.023
  344SOL    HW1 1931   1.269   3.969   1.965
  344SOL    HW2 1932   1.423   3.915   1.979
  345SOL     OW 1933   4.201   1.687   3.224
  345SOL    HW1 1934   4.257   1.768   3.204
  345SOL    HW2 1935   4.110   1.699   3.184
  346SOL     OW 1936   2.132   0.708   2.851
  346SOL    HW1 1937   2.077   0.777   2.803
  346SOL    HW2 1938   2.178   0.650   2.784
  347SOL     OW 1939   3.023   5.758   6.316
  347SOL    HW1 1940   3.121   5.763   6.340
  347SOL    HW2 1941   3.011   5.700   6.235
  348SOL     OW 1942   5.250   4.171   2.257
  348SOL    HW1 1943   5.303   4.123   2.187
  348SOL    HW2 1944   5.256   4.270   2.243
  349SOL     OW 1945   6.784   5.389   1.016
  349SOL    HW1 1946   6.858   5.356   1.075
  349SOL    HW2 1947   6.696   5.359   1.054
  350SOL     OW 1948   3.374   3.582   0.976
  350SOL    HW1 1949   3.447   3.539   0.921
  350SOL    HW2 1950   3.352   3.523   1.054
  351SOL     OW 1951   1.717   2.886   1.138
  351SOL    HW1 1952   1.658   2.839   1.204
  351SOL    HW2 1953   1.790   2.935   1.186
  352SOL     OW 1954   2.945   0.737   4.919
  352SOL    HW1 1955   2.980   0.814   4.866
  352SOL    HW2 1956   3.017   0.702   4.979
  353SOL     OW 1957   2.112   0.023   0.996
  353SOL    HW1 1958   2.018   7.015   1.016
  353SOL    HW2 1959   2.140   7.001   0.909
  354SOL     OW 1960   3.632   2.736   0.914
  354SOL    HW1 1961   3.625   2.642   0.946
  354SOL    HW2 1962   3.542   2.780   0.923
  355SOL     OW 1963   1.098   3.433   2.553
  355SOL    HW1 1964   1.087   3.390   2.643
  355SOL    HW2 1965   1.019   3.408   2.496
  356SOL     OW 1966   2.927   0.240   5.935
  356SOL    HW1 1967   2.949   0.322   5.988
  356SOL    HW2 1968   3.004   0.177   5.938
  357SOL     OW 1969   6.625   6.313   5.886
  357SOL    HW1 1970   6.650   6.244   5.819
  357SOL    HW2 1971   6.541   6.359   5.856
  358SOL     OW 1972   4.058   6.666   0.584
  358SOL    HW1 1973   3.999   6.648   0.663
  358SOL    HW2 1974   4.060   6.764   0.565
  359SOL     OW 1975   1.763   2.551   2.151
  359SOL    HW1 1976   1.745   2.559   2.250
  359SOL    HW2 1977   1.828   2.621   2.123
  360SOL     OW 1978   0.743   5.419   6.309
  360SOL    HW1 1979   0.665   5.358   6.322
  360SOL    HW2 1980   0.773   5.455   6.398
  361SOL     OW 1981   6.192   5.716   3.233
  361SOL    HW1 1982   6.202   5.699   3.135
  361SOL    HW2 1983   6.274   5.761   3.268
  362SOL     OW 1984   3.973   3.836   1.426
  362SOL    HW1 1985   4.018   3.780   1.357
  362SOL    HW2 1986   3.940   3.778   1.501
  363SOL     OW 1987   5.425   4.206   3.240
  363SOL    HW1 1988   5.512   4.224   3.286
  363SOL    HW2 1989   5.417   4.264   3.159
  364SOL     OW 1990   6.788   5.439   6.549
  364SOL    HW1 1991   6.740   5.527   6.539
  364SOL    HW2 1992   6.741   5.382   6.615
  365SOL     OW 1993   6.275   6.354   2.433
  365SOL    HW1 1994   6.284   6.262   2.395
  365SOL    HW2 1995   6.323   6.359   2.520
  366SOL     OW 1996   6.089   0.862   6.107
  366SOL    HW1 1997   5.998   0.896   6.130
  366SOL    HW2 1998   6.082   0.771   6.067
  367SOL     OW 1999   5.405   3.030   0.841
  367SOL    HW1 2000   5.362   2.940   0.851
  367SOL    HW2 2001   5.352   3.097   0.892
  368SOL     OW 2002   0.296   3.859   4.765
  368SOL    HW1 2003   0.335   3.951   4.758
  368SOL    HW2 2004   0.361   3.799   4.812
  369SOL     OW 2005   6.515   5.389   2.246
  369SOL    HW1 2006   6.423   5.410   2.214
  369SOL    HW2 2007   6.554   5.316   2.189
  370SOL     OW 2008   2.880   1.471   5.759
  370SOL    HW1 2009   2.845   1.436   5.672
  370SOL    HW2 2010   2.804   1.499   5.817
  371SOL     OW 2011   2.356   3.755   6.118
  371SOL    HW1 2012   2.282   3.718   6.174
  371SOL    HW2 2013   2.333   3.745   6.022
  372SOL     OW 2014   0.864   6.468   6.015
  372SOL    HW1 2015   0.806   6.526   6.073
  372SOL    HW2 2016   0.876   6.513   5.926
  373SOL     OW 2017   6.600   6.662   4.519
  373SOL    HW1 2018   6.530   6.733   4.513
  373SOL    HW2 2019   6.690   6.702   4.499
  374SOL     OW 2020   2.690   1.675   3.469
  374SOL    HW1 2021   2.700   1.767   3.432
  374SOL    HW2 2022   2.780   1.638   3.491
  375SOL     OW 2023   1.151   4.144   3.938
  375SOL    HW1 2024   1.147   4.202   4.020
  375SOL    HW2 2025   1.069   4.157   3.883
  376SOL     OW 2026   2.589   1.803   5.072
  376SOL    HW1 2027   2.531   1.882   5.055
  376SOL    HW2 2028   2.646   1.820   5.153
  377SOL     OW 2029   1.200   1.761   1.307
  377SOL    HW1 2030   1.275   1.694   1.307
  377SOL    HW2 2031   1.219   1.832   1.240
  378SOL     OW 2032   3.726   2.056   5.868
  378SOL    HW1 2033   3.682   1.992   5.805
  378SOL    HW2 2034   3.687   2.147   5.855
  379SOL     OW 2035   5.922   4.172   0.917
  379SOL    HW1 2036   5.931   4.271   0.907
  379SOL    HW2 2037   5.855   4.137   0.852
  380SOL     OW 2038   2.661   1.427   1.404
  380SOL    HW1 2039   2.606   1.474   1.335
  380SOL    HW2 2040   2.658   1.329   1.388
  381SOL     OW 2041   1.464   3.637   2.560
  381SOL    HW1 2042   1.555   3.654   2.521
  381SOL    HW2 2043   1.473   3.589   2.647
  382SOL     OW 2044   5.812   6.794   6.133
  382SOL    HW1 2045   5.898   6.773   6.179
  382SOL    HW2 2046   5.824   6.874   6.074
  383SOL     OW 2047   4.578   3.625   5.820
  383SOL    HW1 2048   4.626   3.540   5.844
  383SOL    HW2 2049   4.644   3.699   5.811
  384SOL     OW 2050   0.052   5.799   4.591
  384SOL    HW1 2051   0.074   5.763   4.500
  384SOL    HW2 2052   6.975   5.827   4.593
  385SOL     OW 2053   3.874   5.667   4.969
  385SOL    HW1 2054   3.832   5.739   5.024
  385SOL    HW2 2055   3.961   5.700   4.932
  386SOL     OW 2056   2.215   6.323   5.348
  386SOL    HW1 2057   2.273   6.294   5.273
  386SOL    HW2 2058   2.271   6.355   5.424
  387SOL     OW 2059   0.992   6.908   3.623
  387SOL    HW1 2060   0.958   6.947   3.537
  387SOL    HW2 2061   0.917   6.900   3.688
  388SOL     OW 2062   1.459   1.486   4.287
  388SOL    HW1 2063   1.554   1.508   4.310
  388SOL    HW2 2064   1.452   1.389   4.263
  389SOL     OW 2065   3.630   4.593   0.801
  389SOL    HW1 2066   3.688   4.558   0.727
  389SOL    HW2 2067   3.687   4.633   0.872
  390SOL     OW 2068   3.513   1.592   0.275
  390SOL    HW1 2069   3.516   1.518   0.343
  390SOL    HW2 2070   3.568   1.567   0.196
  391SOL     OW 2071   2.458   3.828   5.573
  391SOL    HW1 2072   2.373   3.780   5.554
  391SOL    HW2 2073   2.527   3.764   5.605
  392SOL     OW 2074   2.121   4.455   0.714
  392SOL    HW1 2075   2.109   4.548   0.749
  392SOL    HW2 2076   2.150   4.395   0.789
  393SOL     OW 2077   1.245   4.504   6.557
  393SOL    HW1 2078   1.213   4.455   6.475
  393SOL    HW2 2079   1.340   4.480   6.576
  394SOL     OW 2080   6.945   2.368   0.536
  394SOL    HW1 2081   6.922   2.332   0.627
  394SOL    HW2 2082   6.980   2.461   0.545
  395SOL     OW 2083   4.795   4.927   3.252
  395SOL    HW1 2084   4.787   4.836   3.292
  395SOL    HW2 2085   4.729   4.989   3.295
  396SOL     OW 2086   2.900   3.187   2.030
  396SOL    HW1 2087   2.804   3.201   2.005
  396SOL    HW2 2088   2.927   3.094   2.006
  397SOL     OW 2089   5.699   1.587   6.006
  397SOL    HW1 2090   5.726   1.631   5.920
  397SOL    HW2 2091   5.600   1.589   6.014
  398SOL     OW 2092   1.124   0.029   3.814
  398SOL    HW1 2093   1.109   6.992   3.732
  398SOL    HW2 2094   1.046   0.018   3.876
  399SOL     OW 2095   5.230   6.322   3.880
  399SOL    HW1 2096   5.235   6.261   3.959
  399SOL    HW2 2097   5.153   6.295   3.822
  400SOL     OW 2098   6.167   6.449   5.394
  400SOL    HW1 2099   6.080   6.417   5.430
  400SOL    HW2 2100   6.198   6.388   5.321
  401SOL     OW 2101   5.116   0.156   6.474
  401SOL    HW1 2102   5.092   0.071   6.427
  401SOL    HW2 2103   5.131   0.137   6.571
  402SOL     OW 2104   6.338   0.525   3.616
  402SOL    HW1 2105   6.361   0.613   3.658
  402SOL    HW2 2106   6.413   0.495   3.557
  403SOL     OW 2107   3.720   1.119   4.958
  403SOL    HW1 2108   3.743   1.142   5.053
  403SOL    HW2 2109   3.744   1.195   4.898
  404SOL     OW 2110   1.658   4.448   3.749
  404SOL    HW1 2111   1.685   4.358   3.717
  404SOL    HW2 2112   1.647   4.447   3.849
  405SOL     OW 2113   2.179   3.187   3.185
  405SOL    HW1 2114   2.175   3.132   3.268
  405SOL    HW2 2115   2.227   3.137   3.114
  406SOL     OW 2116   0.371   4.416   4.769
  406SOL    HW1 2117   0.345   4.350   4.839
  406SOL    HW2 2118   0.290   4.465   4.738
  407SOL     OW 2119   1.032   1.653   5.212
  407SOL    HW1 2120   1.114   1.615   5.170
  407SOL    HW2 2121   1.014   1.744   5.174
  408SOL     OW 2122   2.918   2.169   3.129
  408SOL    HW1 2123   2.856   2.090   3.131
  408SOL    HW2 2124   2.864   2.252   3.117
  409SOL     OW 2125   6.120   3.636   2.054
  409SOL    HW1 2126   6.030   3.597   2.035
  409SOL    HW2 2127   6.174   3.571   2.109
  410SOL     OW 2128   0.958   1.666   1.011
  410SOL    HW1 2129   0.952   1.653   1.110
  410SOL    HW2 2130   0.898   1.741   0.984
  411SOL     OW 2131   6.804   0.841   1.222
  411SOL    HW1 2132   6.713   0.862   1.257
  411SOL    HW2 2133   6.872   0.861   1.293
  412SOL     OW 2134   3.677   5.429   3.069
  412SOL    HW1 2135   3.727   5.362   3.124
  412SOL    HW2 2136   3.579   5.411   3.074
  413SOL     OW 2137   6.002   4.123   1.977
  413SOL    HW1 2138   6.004   4.054   2.049
  413SOL    HW2 2139   5.944   4.092   1.901
  414SOL     OW 2140   3.880   5.864   3.228
  414SOL    HW1 2141   3.838   5.797   3.167
  414SOL    HW2 2142   3.809   5.920   3.271
  415SOL     OW 2143   7.018   0.269   6.949
  415SOL    HW1 2144   6.992   0.357   6.989
  415SOL    HW2 2145   6.999   0.196   7.014
  416SOL     OW 2146   4.945   5.958   5.011
  416SOL    HW1 2147   4.913   5.864   5.007
  416SOL    HW2 2148   4.897   6.013   4.943
  417SOL     OW 2149   2.233   6.701   5.615
  417SOL    HW1 2150   2.186   6.619   5.584
  417SOL    HW2 2151   2.302   6.677   5.683
  418SOL     OW 2152   3.272   6.472   6.590
  418SOL    HW1 2153   3.250   6.471   6.493
  418SOL    HW2 2154   3.363   6.432   6.604
  419SOL     OW 2155   1.625   6.650   2.977
  419SOL    HW1 2156   1.721   6.630   2.962
  419SOL    HW2 2157   1.573   6.564   2.983
  420SOL     OW 2158   6.031   1.563   6.941
  420SOL    HW1 2159   6.118   1.534   6.901
  420SOL    HW2 2160   5.966   1.586   6.868
  421SOL     OW 2161   6.014   4.043   5.009
  421SOL    HW1 2162   5.955   4.087   5.077
  421SOL    HW2 2163   6.109   4.069   5.025
  422SOL     OW 2164   5.369   3.710   1.379
  422SOL    HW1 2165   5.441   3.694   1.311
  422SOL    HW2 2166   5.281   3.681   1.342
  423SOL     OW 2167   1.028   2.379   6.521
  423SOL    HW1 2168   0.951   2.437   6.548
  423SOL    HW2 2169   1.096   2.433   6.473
  424SOL     OW 2170   1.781   5.267   1.977
  424SOL    HW1 2171   1.819   5.309   2.060
  424SOL    HW2 2172   1.774   5.168   1.990
  425SOL     OW 2173   4.785   1.867   3.945
  425SOL    HW1 2174   4.858   1.838   4.006
  425SOL    HW2 2175   4.820   1.874   3.852
  426SOL     OW 2176   2.813   2.063   4.557
  426SOL    HW1 2177   2.802   2.103   4.648
  426SOL    HW2 2178   2.874   2.120   4.502
  427SOL     OW 2179   6.349   6.731   4.015
  427SOL    HW1 2180   6.393   6.820   4.007
  427SOL    HW2 2181   6.419   6.659   4.017
  428SOL     OW 2182   3.597   0.212   3.442
  428SOL    HW1 2183   3.588   0.187   3.539
  428SOL    HW2 2184   3.667   0.155   3.399
  429SOL     OW 2185   0.733   4.760   3.282
  429SOL    HW1 2186   0.767   4.854   3.287
  429SOL    HW2 2187   0.634   4.760   3.302
  430SOL     OW 2188   1.225   6.308   4.397
  430SOL    HW1 2189   1.218   6.267   4.306
  430SOL    HW2 2190   1.316   6.345   4.411
  431SOL     OW 2191   2.980   0.516   1.510
  431SOL    HW1 2192   3.013   0.422   1.504
  431SOL    HW2 2193   2.996   0.550   1.603
  432SOL     OW 2194   6.709   2.040   0.921
  432SOL    HW1 2195   6.610   2.028   0.921
  432SOL    HW2 2196   6.738   2.070   1.012
  433SOL     OW 2197   2.200   6.418   5.830
  433SOL    HW1 2198   2.132   6.483   5.866
  433SOL    HW2 2199   2.236   6.452   5.743
  434SOL     OW 2200   4.206   5.690   3.442
  434SOL    HW1 2201   4.198   5.708   3.344
  434SOL    HW2 2202   4.119   5.655   3.476
  435SOL     OW 2203   4.011   1.931   6.167
  435SOL    HW1 2204   4.108   1.911   6.175
  435SOL    HW2 2205   3.968   1.924   6.257
  436SOL     OW 2206   2.938   5.425   1.885
  436SOL    HW1 2207   2.909   5.344   1.834
  436SOL    HW2 2208   3.033   5.447   1.861
  437SOL     OW 2209   0.829   0.940   6.676
  437SOL    HW1 2210   0.753   0.877   6.690
  437SOL    HW2 2211   0.887   0.940   6.758
  438SOL     OW 2212   1.597   3.684   4.065
  438SOL    HW1 2213   1.671   3.718   4.006
  438SOL    HW2 2214   1.512   3.732   4.044
  439SOL     OW 2215   5.894   6.247   2.571
  439SOL    HW1 2216   5.875   6.310   2.646
  439SOL    HW2 2217   5.986   6.266   2.534
  440SOL     OW 2218   3.049   2.129   5.808
  440SOL    HW1 2219   2.991   2.192   5.860
  440SOL    HW2 2220   2.994   2.082   5.739
  441SOL     OW 2221   0.034   3.671   3.030
  441SOL    HW1 2222   0.085   3.587   3.015
  441SOL    HW2 2223   0.008   3.711   2.942
  442SOL     OW 2224   4.360   5.841   5.484
  442SOL    HW1 2225   4.437   5.896   5.515
  442SOL    HW2 2226   4.389   5.782   5.409
  443SOL     OW 2227   5.409   4.229   4.653
  443SOL    HW1 2228   5.423   4.236   4.752
  443SOL    HW2 2229   5.493   4.198   4.609
  444SOL     OW 2230   5.174   6.942   6.095
  444SOL    HW1 2231   5.193   7.003   6.019
  444SOL    HW2 2232   5.160   6.849   6.060
  445SOL     OW 2233   1.880   6.016   3.351
  445SOL    HW1 2234   1.789   6.025   3.311
  445SOL    HW2 2235   1.947   6.062   3.292
  446SOL     OW 2236   4.177   5.401   2.611
  446SOL    HW1 2237   4.255   5.417   2.671
  446SOL    HW2 2238   4.095   5.445   2.651
  447SOL     OW 2239   6.355   3.964   5.283
  447SOL    HW1 2240   6.350   3.889   5.349
  447SOL    HW2 2241   6.300   4.041   5.316
  448SOL     OW 2242   2.579   0.741   2.850
  448SOL    HW1 2243   2.578   0.841   2.842
  448SOL    HW2 2244   2.652   0.703   2.793
  449SOL     OW 2245   2.978   1.103   3.997
  449SOL    HW1 2246   2.923   1.021   3.980
  449SOL    HW2 2247   3.075   1.080   3.990
  450SOL     OW 2248   1.824   4.486   3.300
  450SOL    HW1 2249   1.885   4.410   3.322
  450SOL    HW2 2250   1.878   4.567   3.276
  451SOL     OW 2251   1.764   1.990   4.424
  451SOL    HW1 2252   1.670   2.006   4.455
  451SOL    HW2 2253   1.809   1.925   4.485
  452SOL     OW 2254   4.388   6.663   1.302
  452SOL    HW1 2255   4.407   6.751   1.260
  452SOL    HW2 2256   4.460   6.598   1.279
  453SOL     OW 2257   3.597   6.965   6.586
  453SOL    HW1 2258   3.569   6.927   6.674
  453SOL    HW2 2259   3.692   6.996   6.591
  454SOL     OW 2260   6.893   3.498   6.442
  454SOL    HW1 2261   6.817   3.466   6.498
  454SOL    HW2 2262   6.979   3.462   6.479
  455SOL     OW 2263   5.190   2.389   4.621
  455SOL    HW1 2264   5.097   2.420   4.606
  455SOL    HW2 2265   5.199   2.353   4.714
  456SOL     OW 2266   0.908   0.357   4.750
  456SOL    HW1 2267   0.841   0.289   4.778
  456SOL    HW2 2268   0.994   0.342   4.798
  457SOL     OW 2269   1.923   4.153   4.369
  457SOL    HW1 2270   1.866   4.210   4.429
  457SOL    HW2 2271   2.019   4.175   4.385
  458SOL     OW 2272   2.789   6.717   2.871
  458SOL    HW1 2273   2.811   6.814   2.864
  458SOL    HW2 2274   2.791   6.676   2.780
  459SOL     OW 2275   1.568   0.035   5.843
  459SOL    HW1 2276   1.632   6.986   5.806
  459SOL    HW2 2277   1.607   0.127   5.831
  460SOL     OW 2278   1.562   0.056   4.816
  460SOL    HW1 2279   1.657   0.087   4.817
  460SOL    HW2 2280   1.502   0.131   4.846
  461SOL     OW 2281   6.645   5.003   5.793
  461SOL    HW1 2282   6.656   4.986   5.695
  461SOL    HW2 2283   6.616   4.918   5.838
  462SOL     OW 2284   4.036   3.313   6.157
  462SOL    HW1 2285   3.943   3.306   6.194
  462SOL    HW2 2286   4.059   3.410   6.143
  463SOL     OW 2287   6.987   0.158   3.745
  463SOL    HW1 2288   7.014   0.244   3.788
  463SOL    HW2 2289   6.926   0.108   3.807
  464SOL     OW 2290   2.504   0.634   5.889
  464SOL    HW1 2291   2.487   0.535   5.882
  464SOL    HW2 2292   2.508   0.660   5.986
  465SOL     OW 2293   0.462   2.408   6.978
  465SOL    HW1 2294   0.377   2.410   6.925
  465SOL    HW2 2295   0.459   2.332   0.024
  466SOL     OW 2296   2.790   6.528   4.164
  466SOL    HW1 2297   2.887   6.519   4.185
  466SOL    HW2 2298   2.772   6.487   4.074
  467SOL     OW 2299   1.367   1.411   2.265
  467SOL    HW1 2300   1.327   1.498   2.293
  467SOL    HW2 2301   1.315   1.336   2.306
  468SOL     OW 2302   3.396   5.271   5.006
  468SOL    HW1 2303   3.321   5.242   5.065
  468SOL    HW2 2304   3.481   5.227   5.034
  469SOL     OW 2305   3.033   3.612   6.057
  469SOL    HW1 2306   3.076   3.606   5.966
  469SOL    HW2 2307   2.969   3.536   6.068
  470SOL     OW 2308   4.185   6.013   1.276
  470SOL    HW1 2309   4.238   5.948   1.330
  470SOL    HW2 2310   4.245   6.082   1.236
  471SOL     OW 2311   2.348   2.801   3.923
  471SOL    HW1 2312   2.375   2.723   3.979
  471SOL    HW2 2313   2.272   2.849   3.966
  472SOL     OW 2314   5.880   4.653   6.879
  472SOL    HW1 2315   5.918   4.618   6.794
  472SOL    HW2 2316   5.947   4.710   6.925
  473SOL     OW 2317   1.281   1.728   2.293
  473SOL    HW1 2318   1.341   1.693   2.221
  473SOL    HW2 2319   1.219   1.797   2.254
  474SOL     OW 2320   5.268   5.422   4.784
  474SOL    HW1 2321   5.189   5.443   4.841
  474SOL    HW2 2322   5.352   5.435   4.836
  475SOL     OW 2323   6.250   2.713   0.357
  475SOL    HW1 2324   6.207   2.715   0.447
  475SOL    HW2 2325   6.248   2.620   0.321
  476SOL     OW 2326   6.906   4.048   1.769
  476SOL    HW1 2327   6.980   4.114   1.756
  476SOL    HW2 2328   6.942   3.966   1.813
  477SOL     OW 2329   2.803   5.800   3.285
  477SOL    HW1 2330   2.709   5.817   3.316
  477SOL    HW2 2331   2.803   5.788   3.185
  478SOL     OW 2332   4.115   5.664   2.934
  478SOL    HW1 2333   4.133   5.733   2.864
  478SOL    HW2 2334   4.119   5.573   2.893
  479SOL     OW 2335   3.958   3.099   5.076
  479SOL    HW1 2336   3.952   3.104   4.976
  479SOL    HW2 2337   4.013   3.176   5.109
  480SOL     OW 2338   3.038   0.635   1.059
  480SOL    HW1 2339   2.949   0.667   1.025
  480SOL    HW2 2340   3.087   0.588   0.986
  481SOL     OW 2341   0.741   6.936   1.654
  481SOL    HW1 2342   0.708   6.842   1.648
  481SOL    HW2 2343   0.739   6.967   1.749
  482SOL     OW 2344   4.879   4.960   2.037
  482SOL    HW1 2345   4.826   4.975   2.121
  482SOL    HW2 2346   4.824   4.908   1.972
  483SOL     OW 2347   6.799   2.401   2.735
  483SOL    HW1 2348   6.804   2.497   2.709
  483SOL    HW2 2349   6.759   2.393   2.826
  484SOL     OW 2350   1.416   4.086   4.550
  484SOL    HW1 2351   1.464   4.025   4.614
  484SOL    HW2 2352   1.402   4.040   4.463
  485SOL     OW 2353   4.891   4.625   2.490
  485SOL    HW1 2354   4.868   4.660   2.400
  485SOL    HW2 2355   4.848   4.682   2.560
  486SOL     OW 2356   5.852   1.845   0.111
  486SOL    HW1 2357   5.777   1.795   0.153
  486SOL    HW2 2358   5.836   1.943   0.119
  487SOL     OW 2359   0.443   0.719   3.240
  487SOL    HW1 2360   0.514   0.764   3.295
  487SOL    HW2 2361   0.429   0.626   3.273
  488SOL     OW 2362   0.789   0.055   2.254
  488SOL    HW1 2363   0.864   0.089   2.197
  488SOL    HW2 2364   0.732   7.012   2.201
  489SOL     OW 2365   5.662   6.231   5.757
  489SOL    HW1 2366   5.607   6.189   5.829
  489SOL    HW2 2367   5.758   6.227   5.781
  490SOL     OW 2368   2.238   6.098   4.036
  490SOL    HW1 2369   2.289   6.073   4.118
  490SOL    HW2 2370   2.157   6.151   4.061
  491SOL     OW 2371   1.490   3.304   0.958
  491SOL    HW1 2372   1.435   3.254   1.024
  491SOL    HW2 2373   1.569   3.249   0.932
  492SOL     OW 2374   1.285   1.119   5.575
  492SOL    HW1 2375   1.196   1.129   5.619
  492SOL    HW2 2376   1.356   1.108   5.644
  493SOL     OW 2377   3.080   6.723   5.616
  493SOL    HW1 2378   3.091   6.716   5.516
  493SOL    HW2 2379   3.012   6.792   5.638
  494SOL     OW 2380   1.218   6.974   6.663
  494SOL    HW1 2381   1.300   0.009   6.642
  494SOL    HW2 2382   1.193   6.919   6.583
  495SOL     OW 2383   3.540   5.825   3.884
  495SOL    HW1 2384   3.626   5.859   3.922
  495SOL    HW2 2385   3.548   5.726   3.868
  496SOL     OW 2386   6.367   2.779   1.981
  496SOL    HW1 2387   6.327   2.850   2.039
  496SOL    HW2 2388   6.430   2.822   1.915
  497SOL     OW 2389   3.203   1.442   4.739
  497SOL    HW1 2390   3.231   1.366   4.681
  497SOL    HW2 2391   3.171   1.518   4.682
  498SOL     OW 2392   0.748   4.643   2.631
  498SOL    HW1 2393   0.652   4.671   2.620
  498SOL    HW2 2394   0.765   4.561   2.576
  499SOL     OW 2395   1.572   5.423   4.389
  499SOL    HW1 2396   1.636   5.493   4.420
  499SOL    HW2 2397   1.478   5.457   4.398
  500SOL     OW 2398   5.743   2.476   0.008
  500SOL    HW1 2399   5.736   2.491   0.107
  500SOL    HW2 2400   5.839   2.485   7.000
  501SOL     OW 2401   3.914   6.628   0.798
  501SOL    HW1 2402   3.818   6.654   0.786
  501SOL    HW2 2403   3.951   6.672   0.880
  502SOL     OW 2404   0.791   4.718   5.972
  502SOL    HW1 2405   0.744   4.731   5.885
  502SOL    HW2 2406   0.890   4.719   5.957
  503SOL     OW 2407   1.381   4.774   6.044
  503SOL    HW1 2408   1.466   4.775   6.097
  503SOL    HW2 2409   1.305   4.803   6.102
  504SOL     OW 2410   1.400   5.638   2.237
  504SOL    HW1 2411   1.462   5.567   2.270
  504SOL    HW2 2412   1.436   5.677   2.152
  505SOL     OW 2413   4.118   6.539   4.709
  505SOL    HW1 2414   4.106   6.440   4.705
  505SOL    HW2 2415   4.029   6.584   4.698
  506SOL     OW 2416   3.158   6.079   2.465
  506SOL    HW1 2417   3.154   6.123   2.375
  506SOL    HW2 2418   3.159   6.148   2.537
  507SOL     OW 2419   3.037   6.209   3.119
  507SOL    HW1 2420   2.982   6.282   3.080
  507SOL    HW2 2421   2.983   6.160   3.187
  508SOL     OW 2422   0.064   3.213   1.783
  508SOL    HW1 2423   0.038   3.273   1.858
  508SOL    HW2 2424   0.103   3.129   1.820
  509SOL     OW 2425   3.492   1.243   1.320
  509SOL    HW1 2426   3.569   1.254   1.257
  509SOL    HW2 2427   3.463   1.148   1.321
  510SOL     OW 2428   6.771   4.435   6.179
  510SOL    HW1 2429   6.772   4.386   6.266
  510SOL    HW2 2430   6.865   4.447   6.147
  511SOL     OW 2431   0.908   2.078   6.578
  511SOL    HW1 2432   0.825   2.066   6.633
  511SOL    HW2 2433   0.907   2.169   6.536
  512SOL     OW 2434   6.540   2.569   6.793
  512SOL    HW1 2435   6.561   2.587   6.697
  512SOL    HW2 2436   6.452   2.523   6.800
  513SOL     OW 2437   5.180   6.986   3.266
  513SOL    HW1 2438   5.160   6.972   3.363
  513SOL    HW2 2439   5.250   0.038   3.257
  514SOL     OW 2440   6.886   0.673   4.404
  514SOL    HW1 2441   6.900   0.574   4.411
  514SOL    HW2 2442   6.829   0.704   4.480
  515SOL     OW 2443   1.902   0.927   0.340
  515SOL    HW1 2444   1.815   0.957   0.301
  515SOL    HW2 2445   1.970   0.919   0.267
  516SOL     OW 2446   2.808   4.839   1.918
  516SOL    HW1 2447   2.813   4.741   1.934
  516SOL    HW2 2448   2.735   4.859   1.853
  517SOL     OW 2449   3.269   4.712   1.787
  517SOL    HW1 2450   3.365   4.685   1.793
  517SOL    HW2 2451   3.259   4.781   1.716
  518SOL     OW 2452   2.613   2.175   3.354
  518SOL    HW1 2453   2.558   2.162   3.437
  518SOL    HW2 2454   2.613   2.271   3.329
  519SOL     OW 2455   0.267   6.589   3.225
  519SOL    HW1 2456   0.248   6.638   3.141
  519SOL    HW2 2457   0.321   6.507   3.204
  520SOL     OW 2458   6.241   3.861   6.506
  520SOL    HW1 2459   6.154   3.815   6.523
  520SOL    HW2 2460   6.317   3.801   6.531
  521SOL     OW 2461   5.939   5.780   5.516
  521SOL    HW1 2462   6.012   5.830   5.562
  521SOL    HW2 2463   5.979   5.715   5.451
  522SOL     OW 2464   4.062   3.599   3.312
  522SOL    HW1 2465   4.013   3.544   3.380
  522SOL    HW2 2466   4.069   3.694   3.345
  523SOL     OW 2467   0.309   5.955   1.449
  523SOL    HW1 2468   0.255   5.875   1.476
  523SOL    HW2 2469   0.253   6.016   1.393
  524SOL     OW 2470   1.531   2.538   2.833
  524SOL    HW1 2471   1.486   2.603   2.895
  524SOL    HW2 2472   1.505   2.445   2.857
  525SOL     OW 2473   2.167   4.488   5.847
  525SOL    HW1 2474   2.162   4.390   5.863
  525SOL    HW2 2475   2.124   4.510   5.759
  526SOL     OW 2476   3.539   6.843   4.021
  526SOL    HW1 2477   3.537   6.765   3.957
  526SOL    HW2 2478   3.530   6.809   4.115
  527SOL     OW 2479   6.811   2.699   0.787
  527SOL    HW1 2480   6.883   2.664   0.728
  527SOL    HW2 2481   6.821   2.798   0.796
  528SOL     OW 2482   1.818   2.476   3.529
  528SOL    HW1 2483   1.772   2.430   3.454
  528SOL    HW2 2484   1.786   2.571   3.534
  529SOL     OW 2485   1.666   6.660   4.939
  529SOL    HW1 2486   1.647   6.689   5.033
  529SOL    HW2 2487   1.737   6.717   4.899
  530SOL     OW 2488   4.120   3.621   3.017
  530SOL    HW1 2489   4.192   3.681   3.050
  530SOL    HW2 2490   4.075   3.576   3.095
  531SOL     OW 2491   0.937   1.320   2.985
  531SOL    HW1 2492   0.887   1.406   3.000
  531SOL    HW2 2493   1.035   1.340   2.983
  532SOL     OW 2494   1.120   2.894   0.470
  532SOL    HW1 2495   1.098   2.961   0.541
  532SOL    HW2 2496   1.035   2.856   0.433
  533SOL     OW 2497   4.089   6.860   3.463
  533SOL    HW1 2498   4.021   6.854   3.390
  533SOL    HW2 2499   4.044   6.885   3.549
  534SOL     OW 2500   5.876   5.912   3.017
  534SOL    HW1 2501   5.902   5.847   2.946
  534SOL    HW2 2502   5.874   5.866   3.106
  535SOL     OW 2503   6.716   4.163   3.484
  535SOL    HW1 2504   6.799   4.173   3.430
  535SOL    HW2 2505   6.675   4.253   3.498
  536SOL     OW 2506   6.494   4.933   2.755
  536SOL    HW1 2507   6.421   4.865   2.749
  536SOL    HW2 2508   6.464   5.018   2.712
  537SOL     OW 2509   3.077   6.819   4.695
  537SOL    HW1 2510   3.021   6.814   4.778
  537SOL    HW2 2511   3.073   6.911   4.657
  538SOL     OW 2512   0.547   4.754   3.962
  538SOL    HW1 2513   0.565   4.693   4.039
  538SOL    HW2 2514   0.623   4.818   3.952
  539SOL     OW 2515   2.245   4.695   1.965
  539SOL    HW1 2516   2.265   4.610   2.015
  539SOL    HW2 2517   2.256   4.679   1.867
  540SOL     OW 2518   1.196   1.422   2.917
  540SOL    HW1 2519   1.292   1.392   2.915
  540SOL    HW2 2520   1.176   1.460   3.007
  541SOL     OW 2521   5.553   5.478   4.235
  541SOL    HW1 2522   5.455   5.498   4.223
  541SOL    HW2 2523   5.565   5.421   4.317
  542SOL     OW 2524   4.596   6.056   6.854
  542SOL    HW1 2525   4.651   6.027   6.933
  542SOL    HW2 2526   4.595   5.984   6.785
  543SOL     OW 2527   6.052   3.722   4.013
  543SOL    HW1 2528   6.086   3.663   4.086
  543SOL    HW2 2529   6.023   3.809   4.052
  544SOL     OW 2530   0.970   4.785   6.696
  544SOL    HW1 2531   0.963   4.794   6.795
  544SOL    HW2 2532   1.038   4.850   6.661
  545SOL     OW 2533   3.701   0.757   1.185
  545SOL    HW1 2534   3.782   0.708   1.219
  545SOL    HW2 2535   3.620   0.701   1.200
  546SOL     OW 2536   1.349   3.935   0.931
  546SOL    HW1 2537   1.367   3.841   0.961
  546SOL    HW2 2538   1.410   3.958   0.855
  547SOL     OW 2539   3.686   2.186   0.631
  547SOL    HW1 2540   3.675   2.188   0.532
  547SOL    HW2 2541   3.666   2.094   0.666
  548SOL     OW 2542   3.371   3.391   1.861
  548SOL    HW1 2543   3.412   3.299   1.858
  548SOL    HW2 2544   3.272   3.383   1.874
  549SOL     OW 2545   5.351   2.554   1.942
  549SOL    HW1 2546   5.331   2.466   1.985
  549SOL    HW2 2547   5.326   2.550   1.846
  550SOL     OW 2548   1.390   5.496   3.611
  550SOL    HW1 2549   1.433   5.582   3.640
  550SOL    HW2 2550   1.291   5.506   3.612
  551SOL     OW 2551   0.288   0.029   1.846
  551SOL    HW1 2552   0.212   0.015   1.910
  551SOL    HW2 2553   0.365   0.071   1.893
  552SOL     OW 2554   5.967   4.229   6.749
  552SOL    HW1 2555   5.893   4.211   6.814
  552SOL    HW2 2556   5.931   4.236   6.657
  553SOL     OW 2557   2.679   6.731   4.323
  553SOL    HW1 2558   2.690   6.653   4.262
  553SOL    HW2 2559   2.761   6.789   4.318
  554SOL     OW 2560   5.735   0.186   6.932
  554SOL    HW1 2561   5.754   0.096   6.971
  554SOL    HW2 2562   5.647   0.219   6.965
  555SOL     OW 2563   3.399   5.061   4.704
  555SOL    HW1 2564   3.485   5.038   4.658
  555SOL    HW2 2565   3.338   5.106   4.640
  556SOL     OW 2566   5.107   1.931   3.900
  556SOL    HW1 2567   5.102   1.833   3.920
  556SOL    HW2 2568   5.122   1.944   3.802
  557SOL     OW 2569   6.592   5.487   0.674
  557SOL    HW1 2570   6.692   5.484   0.673
  557SOL    HW2 2571   6.561   5.573   0.633
  558SOL     OW 2572   3.342   3.281   3.394
  558SOL    HW1 2573   3.372   3.327   3.477
  558SOL    HW2 2574   3.345   3.182   3.407
  559SOL     OW 2575   6.953   5.585   6.046
  559SOL    HW1 2576   6.978   5.517   5.978
  559SOL    HW2 2577   6.967   5.547   6.138
  560SOL     OW 2578   6.625   3.668   3.805
  560SOL    HW1 2579   6.680   3.719   3.872
  560SOL    HW2 2580   6.533   3.654   3.842
  561SOL     OW 2581   0.434   2.274   1.220
  561SOL    HW1 2582   0.494   2.309   1.292
  561SOL    HW2 2583   0.474   2.295   1.130
  562SOL     OW 2584   4.176   6.910   6.317
  562SOL    HW1 2585   4.078   6.893   6.328
  562SOL    HW2 2586   4.200   6.905   6.220
  563SOL     OW 2587   3.053   0.374   3.839
  563SOL    HW1 2588   2.999   0.291   3.855
  563SOL    HW2 2589   3.105   0.395   3.921
  564SOL     OW 2590   0.914   2.708   0.103
  564SOL    HW1 2591   0.944   2.768   0.029
  564SOL    HW2 2592   0.907   2.760   0.188
  565SOL     OW 2593   3.421   3.882   4.659
  565SOL    HW1 2594   3.356   3.810   4.633
  565SOL    HW2 2595   3.374   3.950   4.716
  566SOL     OW 2596   0.387   4.235   3.358
  566SOL    HW1 2597   0.391   4.323   3.310
  566SOL    HW2 2598   0.292   4.212   3.378
  567SOL     OW 2599   2.769   2.874   1.700
  567SOL    HW1 2600   2.827   2.822   1.763
  567SOL    HW2 2601   2.746   2.962   1.742
  568SOL     OW 2602   4.878   0.029   6.785
  568SOL    HW1 2603   4.852   6.956   6.811
  568SOL    HW2 2604   4.971   0.029   6.748
  569SOL     OW 2605   1.310   3.047   6.952
  569SOL    HW1 2606   1.260   3.013   0.013
  569SOL    HW2 2607   1.251   3.040   6.871
  570SOL     OW 2608   3.639   6.866   6.279
  570SOL    HW1 2609   3.651   6.909   6.368
  570SOL    HW2 2610   3.561   6.907   6.232
  571SOL     OW 2611   2.960   4.844   2.648
  571SOL    HW1 2612   2.963   4.805   2.556
  571SOL    HW2 2613   3.050   4.833   2.692
  572SOL     OW 2614   2.843   4.855   5.610
  572SOL    HW1 2615   2.830   4.926   5.542
  572SOL    HW2 2616   2.812   4.767   5.573
  573SOL     OW 2617   5.328   0.796   6.036
  573SOL    HW1 2618   5.331   0.770   5.939
  573SOL    HW2 2619   5.377   0.882   6.049
  574SOL     OW 2620   3.520   1.469   4.856
  574SOL    HW1 2621   3.474   1.385   4.884
  574SOL    HW2 2622   3.618   1.451   4.846
  575SOL     OW 2623   5.321   3.886   1.619
  575SOL    HW1 2624   5.248   3.954   1.614
  575SOL    HW2 2625   5.334   3.845   1.529
  576SOL     OW 2626   1.442   2.286   2.892
  576SOL    HW1 2627   1.373   2.215   2.903
  576SOL    HW2 2628   1.532   2.245   2.889
  577SOL     OW 2629   1.091   1.198   2.700
  577SOL    HW1 2630   1.171   1.138   2.700
  577SOL    HW2 2631   1.057   1.208   2.794
  578SOL     OW 2632   6.517   5.383   4.668
  578SOL    HW1 2633   6.443   5.340   4.617
  578SOL    HW2 2634   6.589   5.413   4.605
  579SOL     OW 2635   1.912   3.618   4.131
  579SOL    HW1 2636   1.980   3.550   4.102
  579SOL    HW2 2637   1.876   3.665   4.051
  580SOL     OW 2638   4.622   4.984   5.450
  580SOL    HW1 2639   4.561   5.031   5.514
  580SOL    HW2 2640   4.582   4.896   5.424
  581SOL     OW 2641   1.546   2.219   1.731
  581SOL    HW1 2642   1.573   2.216   1.635
  581SOL    HW2 2643   1.523   2.127   1.762
  582SOL     OW 2644   4.618   5.804   2.436
  582SOL    HW1 2645   4.616   5.725   2.374
  582SOL    HW2 2646   4.534   5.857   2.426
  583SOL     OW 2647   2.817   6.007   5.139
  583SOL    HW1 2648   2.763   6.074   5.087
  583SOL    HW2 2649   2.913   6.015   5.114
  584SOL     OW 2650   2.577   5.512   6.652
  584SOL    HW1 2651   2.557   5.581   6.582
  584SOL    HW2 2652   2.496   5.496   6.707
  585SOL     OW 2653   4.541   1.560   6.475
  585SOL    HW1 2654   4.637   1.584   6.489
  585SOL    HW2 2655   4.531   1.461   6.479
  586SOL     OW 2656   3.251   0.189   6.210
  586SOL    HW1 2657   3.335   0.242   6.220
  586SOL    HW2 2658   3.173   0.246   6.236
  587SOL     OW 2659   4.528   2.211   3.925
  587SOL    HW1 2660   4.448   2.171   3.880
  587SOL    HW2 2661   4.572   2.141   3.982
  588SOL     OW 2662   2.563   5.498   1.176
  588SOL    HW1 2663   2.561   5.400   1.193
  588SOL    HW2 2664   2.562   5.515   1.077
  589SOL     OW 2665   3.392   4.519   1.577
  589SOL    HW1 2666   3.295   4.546   1.577
  589SOL    HW2 2667   3.438   4.561   1.655
  590SOL     OW 2668   5.292   2.799   2.057
  590SOL    HW1 2669   5.193   2.788   2.063
  590SOL    HW2 2670   5.333   2.715   2.020
  591SOL     OW 2671   3.436   5.898   3.635
  591SOL    HW1 2672   3.349   5.856   3.609
  591SOL    HW2 2673   3.459   5.874   3.729
  592SOL     OW 2674   3.878   1.089   1.314
  592SOL    HW1 2675   3.888   1.035   1.231
  592SOL    HW2 2676   3.861   1.185   1.290
  593SOL     OW 2677   3.984   2.078   4.457
  593SOL    HW1 2678   4.075   2.084   4.497
  593SOL    HW2 2679   3.918   2.055   4.528
  594SOL     OW 2680   6.522   1.415   0.414
  594SOL    HW1 2681   6.524   1.364   0.329
  594SOL    HW2 2682   6.499   1.511   0.395
  595SOL     OW 2683   5.270   1.037   3.624
  595SOL    HW1 2684   5.342   1.077   3.682
  595SOL    HW2 2685   5.201   0.995   3.682
  596SOL     OW 2686   0.689   5.408   3.621
  596SOL    HW1 2687   0.701   5.487   3.681
  596SOL    HW2 2688   0.591   5.391   3.608
  597SOL     OW 2689   1.989   0.175   0.489
  597SOL    HW1 2690   1.925   0.229   0.544
  597SOL    HW2 2691   2.074   0.226   0.476
  598SOL     OW 2692   3.714   3.716   5.318
  598SOL    HW1 2693   3.795   3.767   5.349
  598SOL    HW2 2694   3.715   3.624   5.358
  599SOL     OW 2695   2.744   6.458   2.179
  599SOL    HW1 2696   2.843   6.465   2.162
  599SOL    HW2 2697   2.697   6.445   2.092
  600SOL     OW 2698   6.296   1.371   6.655
  600SOL    HW1 2699   6.214   1.410   6.613
  600SOL    HW2 2700   6.334   1.301   6.594
  601SOL     OW 2701   1.148   0.462   4.610
  601SOL    HW1 2702   1.106   0.514   4.685
  601SOL    HW2 2703   1.247   0.458   4.624
  602SOL     OW 2704   1.348   0.980   6.202
  602SOL    HW1 2705   1.268   1.028   6.239
  602SOL    HW2 2706   1.411   0.957   6.276
  603SOL     OW 2707   2.888   2.666   5.333
  603SOL    HW1 2708   2.981   2.656   5.367
  603SOL    HW2 2709   2.834   2.721   5.397
  604SOL     OW 2710   1.063   2.053   1.331
  604SOL    HW1 2711   1.058   1.993   1.250
  604SOL    HW2 2712   1.027   2.004   1.410
  605SOL     OW 2713   6.792   5.413   0.236
  605SOL    HW1 2714   6.864   5.418   0.167
  605SOL    HW2 2715   6.815   5.473   0.312
  606SOL     OW 2716   5.049   6.350   6.662
  606SOL    HW1 2717   5.020   6.427   6.604
  606SOL    HW2 2718   4.988   6.345   6.741
  607SOL     OW 2719   5.994   5.357   4.762
  607SOL    HW1 2720   6.005   5.267   4.718
  607SOL    HW2 2721   6.048   5.359   4.846
  608SOL     OW 2722   3.783   6.336   6.740
  608SOL    HW1 2723   3.692   6.377   6.745
  608SOL    HW2 2724   3.822   6.330   6.832
  609SOL     OW 2725   3.758   2.975   2.423
  609SOL    HW1 2726   3.856   2.955   2.414
  609SOL    HW2 2727   3.729   2.955   2.517
  610SOL     OW 2728   5.807   3.954   2.197
  610SOL    HW1 2729   5.900   3.917   2.197
  610SOL    HW2 2730   5.796   4.014   2.276
  611SOL     OW 2731   4.151   6.738   2.137
  611SOL    HW1 2732   4.122   6.806   2.204
  611SOL    HW2 2733   4.183   6.784   2.054
  612SOL     OW 2734   4.072   6.247   4.717
  612SOL    HW1 2735   4.101   6.151   4.720
  612SOL    HW2 2736   3.992   6.255   4.658
  613SOL     OW 2737   4.626   6.196   5.330
  613SOL    HW1 2738   4.635   6.285   5.285
  613SOL    HW2 2739   4.682   6.194   5.413
  614SOL     OW 2740   5.191   5.651   0.045
  614SOL    HW1 2741   5.242   5.572   0.081
  614SOL    HW2 2742   5.133   5.689   0.116
  615SOL     OW 2743   6.974   2.188   2.223
  615SOL    HW1 2744   7.008   2.282   2.234
  615SOL    HW2 2745   6.947   2.152   2.312
  616SOL     OW 2746   0.861   3.153   3.480
  616SOL    HW1 2747   0.835   3.097   3.558
  616SOL    HW2 2748   0.884   3.093   3.403
  617SOL     OW 2749   0.443   4.628   6.126
  617SOL    HW1 2750   0.433   4.697   6.054
  617SOL    HW2 2751   0.469   4.673   6.211
  618SOL     OW 2752   6.602   2.488   0.510
  618SOL    HW1 2753   6.566   2.404   0.551
  618SOL    HW2 2754   6.550   2.566   0.543
  619SOL     OW 2755   4.102   0.909   0.256
  619SOL    HW1 2756   4.150   0.938   0.339
  619SOL    HW2 2757   4.091   0.988   0.195
  620SOL     OW 2758   4.018   2.459   1.440
  620SOL    HW1 2759   3.971   2.532   1.390
  620SOL    HW2 2760   3.989   2.370   1.405
  621SOL     OW 2761   2.158   6.628   0.140
  621SOL    HW1 2762   2.146   6.582   0.228
  621SOL    HW2 2763   2.255   6.628   0.116
  622SOL     OW 2764   1.315   0.336   6.530
  622SOL    HW1 2765   1.355   0.395   6.600
  622SOL    HW2 2766   1.379   0.263   6.506
  623SOL     OW 2767   0.582   5.767   5.341
  623SOL    HW1 2768   0.579   5.731   5.435
  623SOL    HW2 2769   0.661   5.828   5.331
  624SOL     OW 2770   0.142   2.537   0.843
  624SOL    HW1 2771   0.125   2.461   0.906
  624SOL    HW2 2772   0.174   2.617   0.894
  625SOL     OW 2773   1.795   1.877   1.424
  625SOL    HW1 2774   1.864   1.844   1.360
  625SOL    HW2 2775   1.786   1.812   1.500
  626SOL     OW 2776   2.025   6.124   3.578
  626SOL    HW1 2777   1.950   6.130   3.513
  626SOL    HW2 2778   2.112   6.141   3.531
  627SOL     OW 2779   5.292   6.452   7.011
  627SOL    HW1 2780   5.380   6.500   7.017
  627SOL    HW2 2781   5.291   6.395   6.928
  628SOL     OW 2782   6.154   5.909   6.341
  628SOL    HW1 2783   6.132   5.958   6.426
  628SOL    HW2 2784   6.154   5.974   6.265
  629SOL     OW 2785   6.731   6.280   0.206
  629SOL    HW1 2786   6.800   6.349   0.185
  629SOL    HW2 2787   6.775   6.192   0.222
  630SOL     OW 2788   6.768   1.902   2.339
  630SOL    HW1 2789   6.855   1.901   2.290
  630SOL    HW2 2790   6.728   1.993   2.334
  631SOL     OW 2791   3.158   6.701   5.368
  631SOL    HW1 2792   3.137   6.682   5.272
  631SOL    HW2 2793   3.257   6.699   5.381
  632SOL     OW 2794   2.628   1.235   0.618
  632SOL    HW1 2795   2.562   1.304   0.585
  632SOL    HW2 2796   2.634   1.161   0.552
  633SOL     OW 2797   4.682   4.254   0.340
  633SOL    HW1 2798   4.603   4.271   0.399
  633SOL    HW2 2799   4.745   4.331   0.344
  634SOL     OW 2800   4.687   4.907   1.215
  634SOL    HW1 2801   4.716   4.992   1.258
  634SOL    HW2 2802   4.587   4.902   1.213
  635SOL     OW 2803   4.869   5.032   0.840
  635SOL    HW1 2804   4.954   4.980   0.849
  635SOL    HW2 2805   4.800   4.976   0.796
  636SOL     OW 2806   4.333   5.410   6.596
  636SOL    HW1 2807   4.301   5.317   6.575
  636SOL    HW2 2808   4.277   5.449   6.669
  637SOL     OW 2809   6.694   4.182   2.992
  637SOL    HW1 2810   6.649   4.123   2.925
  637SOL    HW2 2811   6.642   4.182   3.077
  638SOL     OW 2812   5.250   2.150   3.273
  638SOL    HW1 2813   5.186   2.210   3.322
  638SOL    HW2 2814   5.307   2.205   3.212
  639SOL     OW 2815   4.930   3.616   2.861
  639SOL    HW1 2816   4.996   3.660   2.800
  639SOL    HW2 2817   4.959   3.523   2.880
  640SOL     OW 2818   0.358   4.920   4.356
  640SOL    HW1 2819   0.295   4.993   4.384
  640SOL    HW2 2820   0.410   4.950   4.276
  641SOL     OW 2821   6.818   5.900   4.654
  641SOL    HW1 2822   6.738   5.954   4.626
  641SOL    HW2 2823   6.832   5.911   4.752
  642SOL     OW 2824   0.581   3.272   4.621
  642SOL    HW1 2825   0.536   3.186   4.596
  642SOL    HW2 2826   0.527   3.348   4.586
  643SOL     OW 2827   4.845   5.392   4.955
  643SOL    HW1 2828   4.781   5.434   4.890
  643SOL    HW2 2829   4.828   5.294   4.960
  644SOL     OW 2830   1.206   5.578   4.143
  644SOL    HW1 2831   1.122   5.534   4.110
  644SOL    HW2 2832   1.285   5.520   4.122
  645SOL     OW 2833   4.810   1.632   4.403
  645SOL    HW1 2834   4.820   1.533   4.412
  645SOL    HW2 2835   4.900   1.674   4.388
  646SOL     OW 2836   3.031   1.618   4.571
  646SOL    HW1 2837   2.947   1.578   4.608
  646SOL    HW2 2838   3.012   1.711   4.538
  647SOL     OW 2839   5.728   2.188   5.051
  647SOL    HW1 2840   5.636   2.226   5.041
  647SOL    HW2 2841   5.736   2.144   5.140
  648SOL     OW 2842   0.172   3.646   3.904
  648SOL    HW1 2843   0.110   3.697   3.845
  648SOL    HW2 2844   0.263   3.645   3.864
  649SOL     OW 2845   3.230   3.795   0.860
  649SOL    HW1 2846   3.293   3.723   0.890
  649SOL    HW2 2847   3.151   3.753   0.816
  650SOL     OW 2848   6.386   4.698   0.861
  650SOL    HW1 2849   6.309   4.698   0.924
  650SOL    HW2 2850   6.360   4.654   0.775
  651SOL     OW 2851   6.693   6.597   5.933
  651SOL    HW1 2852   6.639   6.653   5.869
  651SOL    HW2 2853   6.724   6.515   5.886
  652SOL     OW 2854   5.391   6.098   3.600
  652SOL    HW1 2855   5.457   6.039   3.553
  652SOL    HW2 2856   5.317   6.123   3.536
  653SOL     OW 2857   2.994   6.156   4.965
  653SOL    HW1 2858   3.015   6.235   4.907
  653SOL    HW2 2859   2.949   6.085   4.911
  654SOL     OW 2860   0.236   4.159   6.076
  654SOL    HW1 2861   0.166   4.213   6.122
  654SOL    HW2 2862   0.206   4.063   6.070
  655SOL     OW 2863   0.869   6.271   2.003
  655SOL    HW1 2864   0.926   6.241   1.927
  655SOL    HW2 2865   0.840   6.192   2.057
  656SOL     OW 2866   1.975   5.540   1.926
  656SOL    HW1 2867   2.012   5.628   1.899
  656SOL    HW2 2868   1.966   5.481   1.846
  657SOL     OW 2869   1.600   2.192   1.445
  657SOL    HW1 2870   1.523   2.139   1.410
  657SOL    HW2 2871   1.591   2.287   1.418
  658SOL     OW 2872   3.007   3.619   6.391
  658SOL    HW1 2873   2.945   3.618   6.313
  658SOL    HW2 2874   2.988   3.700   6.447
  659SOL     OW 2875   2.508   6.025   5.827
  659SOL    HW1 2876   2.533   5.946   5.883
  659SOL    HW2 2877   2.461   6.093   5.883
  660SOL     OW 2878   5.534   4.332   2.496
  660SOL    HW1 2879   5.501   4.250   2.450
  660SOL    HW2 2880   5.498   4.413   2.450
  661SOL     OW 2881   4.050   5.377   3.139
  661SOL    HW1 2882   4.026   5.300   3.198
  661SOL    HW2 2883   4.055   5.460   3.194
  662SOL     OW 2884   3.948   0.420   5.649
  662SOL    HW1 2885   3.986   0.462   5.731
  662SOL    HW2 2886   3.985   0.465   5.568
  663SOL     OW 2887   2.446   3.981   6.226
  663SOL    HW1 2888   2.399   3.898   6.196
  663SOL    HW2 2889   2.419   4.057   6.166
  664SOL     OW 2890   6.866   5.096   6.124
  664SOL    HW1 2891   6.948   5.083   6.068
  664SOL    HW2 2892   6.833   5.007   6.155
  665SOL     OW 2893   5.428   5.251   1.898
  665SOL    HW1 2894   5.375   5.248   1.813
  665SOL    HW2 2895   5.406   5.335   1.948
  666SOL     OW 2896   5.161   1.660   2.459
  666SOL    HW1 2897   5.124   1.654   2.552
  666SOL    HW2 2898   5.134   1.747   2.418
  667SOL     OW 2899   1.224   4.799   3.314
  667SOL    HW1 2900   1.158   4.756   3.376
  667SOL    HW2 2901   1.247   4.735   3.241
  668SOL     OW 2902   5.374   6.706   6.015
  668SOL    HW1 2903   5.392   6.637   6.085
  668SOL    HW2 2904   5.335   6.662   5.934
  669SOL     OW 2905   4.214   0.446   2.775
  669SOL    HW1 2906   4.279   0.396   2.832
  669SOL    HW2 2907   4.253   0.534   2.749
  670SOL     OW 2908   3.245   2.480   1.288
  670SOL    HW1 2909   3.276   2.539   1.363
  670SOL    HW2 2910   3.234   2.535   1.206
  671SOL     OW 2911   1.431   6.376   0.401
  671SOL    HW1 2912   1.420   6.347   0.496
  671SOL    HW2 2913   1.435   6.295   0.342
  672SOL     OW 2914   0.788   5.573   2.260
  672SOL    HW1 2915   0.727   5.501   2.293
  672SOL    HW2 2916   0.775   5.655   2.316
  673SOL     OW 2917   6.809   6.569   1.467
  673SOL    HW1 2918   6.897   6.562   1.515
  673SOL    HW2 2919   6.770   6.660   1.484
  674SOL     OW 2920   1.098   1.354   5.012
  674SOL    HW1 2921   1.017   1.395   4.970
  674SOL    HW2 2922   1.164   1.425   5.035
  675SOL     OW 2923   0.703   0.836   2.959
  675SOL    HW1 2924   0.776   0.771   2.939
  675SOL    HW2 2925   0.739   0.913   3.012
  676SOL     OW 2926   3.221   6.224   2.207
  676SOL    HW1 2927   3.216   6.238   2.108
  676SOL    HW2 2928   3.271   6.299   2.250
  677SOL     OW 2929   5.802   1.938   0.783
  677SOL    HW1 2930   5.724   1.882   0.812
  677SOL    HW2 2931   5.827   1.914   0.689
  678SOL     OW 2932   2.132   0.310   5.457
  678SOL    HW1 2933   2.057   0.340   5.398
  678SOL    HW2 2934   2.095   0.262   5.536
  679SOL     OW 2935   4.603   1.900   3.315
  679SOL    HW1 2936   4.586   1.995   3.289
  679SOL    HW2 2937   4.535   1.870   3.381
  680SOL     OW 2938   5.295   5.858   5.941
  680SOL    HW1 2939   5.249   5.940   5.974
  680SOL    HW2 2940   5.354   5.821   6.013
  681SOL     OW 2941   5.547   4.597   1.881
  681SOL    HW1 2942   5.544   4.691   1.913
  681SOL    HW2 2943   5.561   4.596   1.782
  682SOL     OW 2944   6.818   1.325   0.961
  682SOL    HW1 2945   6.751   1.285   0.899
  682SOL    HW2 2946   6.821   1.424   0.947
  683SOL     OW 2947   5.142   3.267   0.545
  683SOL    HW1 2948   5.066   3.322   0.512
  683SOL    HW2 2949   5.172   3.205   0.473
  684SOL     OW 2950   6.861   1.271   0.316
  684SOL    HW1 2951   6.772   1.290   0.274
  684SOL    HW2 2952   6.855   1.189   0.371
  685SOL     OW 2953   3.547   1.339   3.399
  685SOL    HW1 2954   3.544   1.415   3.334
  685SOL    HW2 2955   3.502   1.367   3.484
  686SOL     OW 2956   4.922   3.182   3.820
  686SOL    HW1 2957   5.013   3.140   3.812
  686SOL    HW2 2958   4.852   3.110   3.816
  687SOL     OW 2959   0.101   2.354   4.491
  687SOL    HW1 2960   0.176   2.301   4.530
  687SOL    HW2 2961   0.017   2.333   4.540
  688SOL     OW 2962   0.348   1.501   0.072
  688SOL    HW1 2963   0.423   1.542   0.021
  688SOL    HW2 2964   0.383   1.428   0.131
  689SOL     OW 2965   0.210   5.013   6.614
  689SOL    HW1 2966   0.222   4.919   6.643
  689SOL    HW2 2967   0.200   5.016   6.514
  690SOL     OW 2968   0.661   4.017   2.444
  690SOL    HW1 2969   0.705   3.987   2.529
  690SOL    HW2 2970   0.579   4.070   2.466
  691SOL     OW 2971   2.444   0.118   0.538
  691SOL    HW1 2972   2.543   0.125   0.545
  691SOL    HW2 2973   2.413   0.162   0.454
  692SOL     OW 2974   3.360   0.182   4.077
  692SOL    HW1 2975   3.288   0.237   4.119
  692SOL    HW2 2976   3.350   0.185   3.977
  693SOL     OW 2977   5.452   0.599   3.674
  693SOL    HW1 2978   5.448   0.688   3.720
  693SOL    HW2 2979   5.522   0.543   3.717
  694SOL     OW 2980   4.321   6.300   3.008
  694SOL    HW1 2981   4.346   6.209   2.974
  694SOL    HW2 2982   4.307   6.296   3.106
  695SOL     OW 2983   4.229   6.901   3.915
  695SOL    HW1 2984   4.264   6.821   3.866
  695SOL    HW2 2985   4.216   6.877   4.012
  696SOL     OW 2986   4.775   4.820   2.652
  696SOL    HW1 2987   4.775   4.846   2.749
  696SOL    HW2 2988   4.701   4.867   2.605
  697SOL     OW 2989   1.895   3.788   3.651
  697SOL    HW1 2990   1.988   3.820   3.667
  697SOL    HW2 2991   1.884   3.766   3.554
  698SOL     OW 2992   4.727   6.819   1.079
  698SOL    HW1 2993   4.811   6.873   1.087
  698SOL    HW2 2994   4.675   6.850   1.000
  699SOL     OW 2995   2.179   3.578   6.182
  699SOL    HW1 2996   2.133   3.546   6.099
  699SOL    HW2 2997   2.193   3.501   6.245
  700SOL     OW 2998   2.715   0.424   2.484
  700SOL    HW1 2999   2.619   0.452   2.492
  700SOL    HW2 3000   2.730   0.386   2.393
  701SOL     OW 3001   6.381   3.992   6.196
  701SOL    HW1 3002   6.459   4.053   6.212
  701SOL    HW2 3003   6.338   4.015   6.109
  702SOL     OW 3004   1.451   6.030   4.774
  702SOL    HW1 3005   1.399   6.057   4.693
  702SOL    HW2 3006   1.464   5.931   4.775
  703SOL     OW 3007   3.545   3.663   6.706
  703SOL    HW1 3008   3.516   3.721   6.630
  703SOL    HW2 3009   3.620   3.603   6.677
  704SOL     OW 3010   1.558   2.674   0.463
  704SOL    HW1 3011   1.493   2.745   0.436
  704SOL    HW2 3012   1.590   2.692   0.556
  705SOL     OW 3013   5.922   5.407   2.665
  705SOL    HW1 3014   5.997   5.400   2.599
  705SOL    HW2 3015   5.837   5.429   2.616
  706SOL     OW 3016   4.588   1.937   4.793
  706SOL    HW1 3017   4.648   1.906   4.719
  706SOL    HW2 3018   4.563   2.033   4.777
  707SOL     OW 3019   4.483   5.364   2.128
  707SOL    HW1 3020   4.386   5.389   2.120
  707SOL    HW2 3021   4.496   5.271   2.094
  708SOL     OW 3022   3.836   0.182   2.189
  708SOL    HW1 3023   3.872   0.180   2.282
  708SOL    HW2 3024   3.792   0.094   2.168
  709SOL     OW 3025   0.330   6.129   1.057
  709SOL    HW1 3026   0.319   6.039   1.097
  709SOL    HW2 3027   0.427   6.144   1.035
  710SOL     OW 3028   3.862   2.578   1.258
  710SOL    HW1 3029   3.892   2.518   1.185
  710SOL    HW2 3030   3.775   2.621   1.233
  711SOL     OW 3031   6.944   3.093   5.776
  711SOL    HW1 3032   0.025   3.093   5.781
  711SOL    HW2 3033   6.916   3.056   5.688
  712SOL     OW 3034   4.286   2.556   1.370
  712SOL    HW1 3035   4.210   2.499   1.401
  712SOL    HW2 3036   4.262   2.601   1.285
  713SOL     OW 3037   4.186   2.527   5.706
  713SOL    HW1 3038   4.210   2.604   5.764
  713SOL    HW2 3039   4.225   2.443   5.743
  714SOL     OW 3040   0.067   4.625   3.511
  714SOL    HW1 3041   6.988   4.621   3.494
  714SOL    HW2 3042   0.116   4.611   3.425
  715SOL     OW 3043   5.129   5.837   6.597
  715SOL    HW1 3044   5.141   5.935   6.579
  715SOL    HW2 3045   5.202   5.805   6.658
  716SOL     OW 3046   0.856   0.723   1.863
  716SOL    HW1 3047   0.809   0.676   1.788
  716SOL    HW2 3048   0.857   0.821   1.845
  717SOL     OW 3049   6.665   4.179   4.282
  717SOL    HW1 3050   6.635   4.097   4.330
  717SOL    HW2 3051   6.679   4.157   4.185
  718SOL     OW 3052   4.314   2.978   6.131
  718SOL    HW1 3053   4.222   2.970   6.169
  718SOL    HW2 3054   4.326   2.910   6.059
  719SOL     OW 3055   6.442   0.938   2.808
  719SOL    HW1 3056   6.532   0.980   2.799
  719SOL    HW2 3057   6.389   0.954   2.725
  720SOL     OW 3058   2.228   0.459   6.056
  720SOL    HW1 3059   2.182   0.539   6.094
  720SOL    HW2 3060   2.162   0.384   6.046
  721SOL     OW 3061   2.494   1.824   2.960
  721SOL    HW1 3062   2.461   1.766   2.886
  721SOL    HW2 3063   2.502   1.770   3.044
  722SOL     OW 3064   2.830   0.361   5.438
  722SOL    HW1 3065   2.776   0.284   5.404
  722SOL    HW2 3066   2.784   0.447   5.416
  723SOL     OW 3067   1.464   4.368   3.569
  723SOL    HW1 3068   1.436   4.306   3.642
  723SOL    HW2 3069   1.537   4.428   3.602
  724SOL     OW 3070   1.414   2.470   3.993
  724SOL    HW1 3071   1.433   2.481   4.091
  724SOL    HW2 3072   1.317   2.449   3.980
  725SOL     OW 3073   2.341   5.705   1.591
  725SOL    HW1 3074   2.356   5.793   1.546
  725SOL    HW2 3075   2.250   5.670   1.568
  726SOL     OW 3076   3.342   4.952   1.196
  726SOL    HW1 3077   3.406   4.874   1.194
  726SOL    HW2 3078   3.370   5.015   1.268
  727SOL     OW 3079   6.284   4.744   5.827
  727SOL    HW1 3080   6.296   4.674   5.757
  727SOL    HW2 3081   6.246   4.704   5.910
  728SOL     OW 3082   6.623   3.205   4.031
  728SOL    HW1 3083   6.651   3.245   3.944
  728SOL    HW2 3084   6.529   3.232   4.052
  729SOL     OW 3085   0.336   1.892   1.890
  729SOL    HW1 3086   0.306   1.979   1.930
  729SOL    HW2 3087   0.416   1.909   1.832
  730SOL     OW 3088   5.660   0.221   4.552
  730SOL    HW1 3089   5.718   0.251   4.477
  730SOL    HW2 3090   5.574   0.185   4.516
  731SOL     OW 3091   4.824   4.633   6.356
  731SOL    HW1 3092   4.780   4.668   6.439
  731SOL    HW2 3093   4.922   4.622   6.373
  732SOL     OW 3094   5.536   3.022   1.523
  732SOL    HW1 3095   5.602   2.984   1.587
  732SOL    HW2 3096   5.540   2.972   1.436
  733SOL     OW 3097   5.248   6.941   4.708
  733SOL    HW1 3098   5.300   6.923   4.791
  733SOL    HW2 3099   5.311   6.964   4.633
  734SOL     OW 3100   6.405   5.103   2.993
  734SOL    HW1 3101   6.360   5.016   3.011
  734SOL    HW2 3102   6.394   5.127   2.896
  735SOL     OW 3103   4.536   1.458   0.154
  735SOL    HW1 3104   4.525   1.426   0.248
  735SOL    HW2 3105   4.458   1.515   0.130
  736SOL     OW 3106   6.972   1.772   3.655
  736SOL    HW1 3107   6.918   1.688   3.654
  736SOL    HW2 3108   0.041   1.755   3.611
  737SOL     OW 3109   5.265   1.704   4.876
  737SOL    HW1 3110   5.340   1.770   4.880
  737SOL    HW2 3111   5.221   1.709   4.786
  738SOL     OW 3112   2.392   3.729   0.998
  738SOL    HW1 3113   2.325   3.667   0.959
  738SOL    HW2 3114   2.381   3.730   1.098
  739SOL     OW 3115   4.632   1.160   3.855
  739SOL    HW1 3116   4.570   1.175   3.933
  739SOL    HW2 3117   4.680   1.245   3.834
  740SOL     OW 3118   6.570   1.420   1.421
  740SOL    HW1 3119   6.657   1.426   1.470
  740SOL    HW2 3120   6.498   1.460   1.478
  741SOL     OW 3121   1.570   0.599   3.635
  741SOL    HW1 3122   1.635   0.575   3.707
  741SOL    HW2 3123   1.610   0.580   3.546
  742SOL     OW 3124   2.695   6.428   1.647
  742SOL    HW1 3125   2.658   6.345   1.606
  742SOL    HW2 3126   2.645   6.508   1.610
  743SOL     OW 3127   1.027   4.888   3.629
  743SOL    HW1 3128   1.082   4.812   3.596
  743SOL    HW2 3129   1.070   4.927   3.711
  744SOL     OW 3130   5.608   0.407   1.099
  744SOL    HW1 3131   5.537   0.343   1.068
  744SOL    HW2 3132   5.635   0.385   1.192
  745SOL     OW 3133   1.561   5.137   4.331
  745SOL    HW1 3134   1.479   5.159   4.278
  745SOL    HW2 3135   1.602   5.221   4.365
  746SOL     OW 3136   6.604   4.016   6.877
  746SOL    HW1 3137   6.670   4.090   6.865
  746SOL    HW2 3138   6.645   3.930   6.848
  747SOL     OW 3139   3.704   6.423   4.331
  747SOL    HW1 3140   3.804   6.422   4.336
  747SOL    HW2 3141   3.669   6.332   4.348
  748SOL     OW 3142   4.113   4.788   1.992
  748SOL    HW1 3143   4.136   4.789   1.894
  748SOL    HW2 3144   4.038   4.851   2.008
  749SOL     OW 3145   5.724   3.876   4.757
  749SOL    HW1 3146   5.696   3.781   4.741
  749SOL    HW2 3147   5.821   3.885   4.733
  750SOL     OW 3148   2.453   1.887   1.321
  750SOL    HW1 3149   2.419   1.816   1.382
  750SOL    HW2 3150   2.425   1.977   1.356
  751SOL     OW 3151   3.966   1.556   6.994
  751SOL    HW1 3152   3.912   1.511   6.923
  751SOL    HW2 3153   4.051   1.507   7.008
  752SOL     OW 3154   3.665   0.968   1.953
  752SOL    HW1 3155   3.658   0.884   1.899
  752SOL    HW2 3156   3.577   1.015   1.952
  753SOL     OW 3157   1.472   3.430   5.739
  753SOL    HW1 3158   1.460   3.529   5.752
  753SOL    HW2 3159   1.413   3.399   5.665
  754SOL     OW 3160   4.679   2.052   5.287
  754SOL    HW1 3161   4.731   1.977   5.329
  754SOL    HW2 3162   4.581   2.032   5.292
  755SOL     OW 3163   1.899   4.848   5.119
  755SOL    HW1 3164   1.935   4.763   5.079
  755SOL    HW2 3165   1.904   4.842   5.219
  756SOL     OW 3166   3.099   6.197   6.849
  756SOL    HW1 3167   3.087   6.104   6.884
  756SOL    HW2 3168   3.027   6.256   6.885
  757SOL     OW 3169   0.667   0.343   4.026
  757SOL    HW1 3170   0.731   0.281   4.072
  757SOL    HW2 3171   0.666   0.431   4.074
  758SOL     OW 3172   3.033   0.478   3.104
  758SOL    HW1 3173   2.961   0.418   3.067
  758SOL    HW2 3174   2.993   0.566   3.129
  759SOL     OW 3175   0.315   2.527   1.791
  759SOL    HW1 3176   0.361   2.463   1.729
  759SOL    HW2 3177   0.279   2.476   1.869
  760SOL     OW 3178   6.202   6.808   4.225
  760SOL    HW1 3179   6.254   6.768   4.149
  760SOL    HW2 3180   6.167   6.898   4.197
  761SOL     OW 3181   5.591   3.950   6.269
  761SOL    HW1 3182   5.683   3.918   6.292
  761SOL    HW2 3183   5.560   3.905   6.185
  762SOL     OW 3184   2.365   6.740   4.787
  762SOL    HW1 3185   2.400   6.718   4.879
  762SOL    HW2 3186   2.442   6.759   4.726
  763SOL     OW 3187   4.285   5.289   6.277
  763SOL    HW1 3188   4.211   5.296   6.211
  763SOL    HW2 3189   4.252   5.243   6.360
  764SOL     OW 3190   5.675   0.881   5.094
  764SOL    HW1 3191   5.754   0.820   5.080
  764SOL    HW2 3192   5.598   0.828   5.129
  765SOL     OW 3193   1.273   5.612   1.277
  765SOL    HW1 3194   1.186   5.662   1.278
  765SOL    HW2 3195   1.344   5.669   1.236
  766SOL     OW 3196   2.567   2.349   6.384
  766SOL    HW1 3197   2.638   2.352   6.314
  766SOL    HW2 3198   2.492   2.409   6.357
  767SOL     OW 3199   6.646   6.163   2.750
  767SOL    HW1 3200   6.674   6.067   2.741
  767SOL    HW2 3201   6.671   6.197   2.840
  768SOL     OW 3202   2.699   6.115   2.484
  768SOL    HW1 3203   2.609   6.076   2.507
  768SOL    HW2 3204   2.747   6.054   2.422
  769SOL     OW 3205   2.410   1.303   5.435
  769SOL    HW1 3206   2.483   1.340   5.377
  769SOL    HW2 3207   2.399   1.205   5.417
  770SOL     OW 3208   1.598   4.578   3.152
  770SOL    HW1 3209   1.565   4.510   3.087
  770SOL    HW2 3210   1.687   4.550   3.188
  771SOL     OW 3211   1.027   4.750   2.655
  771SOL    HW1 3212   1.023   4.849   2.640
  771SOL    HW2 3213   0.938   4.709   2.636
  772SOL     OW 3214   5.658   4.713   6.519
  772SOL    HW1 3215   5.757   4.708   6.529
  772SOL    HW2 3216   5.624   4.630   6.474
  773SOL     OW 3217   0.226   4.665   4.001
  773SOL    HW1 3218   0.318   4.705   3.996
  773SOL    HW2 3219   0.231   4.574   4.041
  774SOL     OW 3220   1.752   1.454   1.131
  774SOL    HW1 3221   1.746   1.450   1.231
  774SOL    HW2 3222   1.687   1.521   1.096
  775SOL     OW 3223   1.962   2.268   3.652
  775SOL    HW1 3224   2.015   2.304   3.729
  775SOL    HW2 3225   1.901   2.339   3.617
  776SOL     OW 3226   0.969   0.408   5.469
  776SOL    HW1 3227   0.989   0.450   5.380
  776SOL    HW2 3228   1.052   0.408   5.525
  777SOL     OW 3229   1.763   4.302   1.858
  777SOL    HW1 3230   1.848   4.352   1.875
  777SOL    HW2 3231   1.784   4.220   1.804
  778SOL     OW 3232   2.136   1.458   2.152
  778SOL    HW1 3233   2.161   1.361   2.144
  778SOL    HW2 3234   2.088   1.473   2.238
  779SOL     OW 3235   6.861   2.653   2.668
  779SOL    HW1 3236   6.839   2.741   2.625
  779SOL    HW2 3237   6.959   2.635   2.658
  780SOL     OW 3238   0.705   3.022   3.896
  780SOL    HW1 3239   0.649   3.098   3.930
  780SOL    HW2 3240   0.743   2.972   3.973
  781SOL     OW 3241   5.753   6.828   0.289
  781SOL    HW1 3242   5.775   6.774   0.370
  781SOL    HW2 3243   5.695   6.905   0.316
  782SOL     OW 3244   1.623   3.876   6.349
  782SOL    HW1 3245   1.716   3.911   6.357
  782SOL    HW2 3246   1.625   3.785   6.306
  783SOL     OW 3247   5.215   4.752   1.953
  783SOL    HW1 3248   5.166   4.665   1.956
  783SOL    HW2 3249   5.267   4.758   1.868
  784SOL     OW 3250   4.683   5.278   0.656
  784SOL    HW1 3251   4.648   5.273   0.563
  784SOL    HW2 3252   4.709   5.373   0.677
  785SOL     OW 3253   0.659   2.044   3.511
  785SOL    HW1 3254   0.596   2.102   3.459
  785SOL    HW2 3255   0.666   2.079   3.605
  786SOL     OW 3256   0.753   0.233   3.238
  786SOL    HW1 3257   0.686   0.222   3.312
  786SOL    HW2 3258   0.734   0.318   3.188
  787SOL     OW 3259   1.411   0.352   6.847
  787SOL    HW1 3260   1.320   0.311   6.845
  787SOL    HW2 3261   1.408   0.444   6.809
  788SOL     OW 3262   3.895   1.423   0.338
  788SOL    HW1 3263   3.829   1.415   0.413
  788SOL    HW2 3264   3.984   1.450   0.375
  789SOL     OW 3265   4.078   4.259   1.360
  789SOL    HW1 3266   3.993   4.206   1.362
  789SOL    HW2 3267   4.084   4.308   1.273
  790SOL     OW 3268   1.714   1.624   3.007
  790SOL    HW1 3269   1.618   1.635   2.980
  790SOL    HW2 3270   1.770   1.689   2.957
  791SOL     OW 3271   1.659   5.809   4.578
  791SOL    HW1 3272   1.654   5.768   4.487
  791SOL    HW2 3273   1.582   5.777   4.634
  792SOL     OW 3274   0.477   1.034   1.209
  792SOL    HW1 3275   0.502   1.023   1.113
  792SOL    HW2 3276   0.393   1.089   1.215
  793SOL     OW 3277   5.306   4.750   3.825
  793SOL    HW1 3278   5.288   4.824   3.760
  793SOL    HW2 3279   5.338   4.669   3.775
  794SOL     OW 3280   3.018   3.855   6.203
  794SOL    HW1 3281   2.929   3.900   6.196
  794SOL    HW2 3282   3.022   3.779   6.139
  795SOL     OW 3283   3.749   6.835   4.501
  795SOL    HW1 3284   3.805   6.775   4.557
  795SOL    HW2 3285   3.652   6.820   4.521
  796SOL     OW 3286   0.890   2.371   5.767
  796SOL    HW1 3287   0.865   2.387   5.672
  796SOL    HW2 3288   0.982   2.405   5.783
  797SOL     OW 3289   5.524   2.035   1.131
  797SOL    HW1 3290   5.587   2.108   1.103
  797SOL    HW2 3291   5.480   2.061   1.217
  798SOL     OW 3292   3.423   6.525   2.015
  798SOL    HW1 3293   3.441   6.433   1.981
  798SOL    HW2 3294   3.334   6.556   1.981
  799SOL     OW 3295   0.323   0.288   6.576
  799SOL    HW1 3296   0.289   0.382   6.575
  799SOL    HW2 3297   0.369   0.270   6.662
  800SOL     OW 3298   5.304   1.750   2.862
  800SOL    HW1 3299   5.275   1.797   2.945
  800SOL    HW2 3300   5.394   1.710   2.876
  801SOL     OW 3301   2.282   4.482   4.563
  801SOL    HW1 3302   2.193   4.524   4.544
  801SOL    HW2 3303   2.300   4.408   4.499
  802SOL     OW 3304   2.985   1.594   0.810
  802SOL    HW1 3305   2.915   1.538   0.765
  802SOL    HW2 3306   3.074   1.575   0.769
  803SOL     OW 3307   1.114   0.075   6.250
  803SOL    HW1 3308   1.109   6.996   6.230
  803SOL    HW2 3309   1.052   0.125   6.189
  804SOL     OW 3310   5.890   6.576   0.084
  804SOL    HW1 3311   5.794   6.603   0.096
  804SOL    HW2 3312   5.899   6.520   0.002
  805SOL     OW 3313   3.140   0.649   3.710
  805SOL    HW1 3314   3.106   0.718   3.647
  805SOL    HW2 3315   3.121   0.558   3.672
  806SOL     OW 3316   5.349   1.203   4.475
  806SOL    HW1 3317   5.307   1.113   4.484
  806SOL    HW2 3318   5.283   1.266   4.433
  807SOL     OW 3319   0.983   0.875   4.980
  807SOL    HW1 3320   1.070   0.847   5.021
  807SOL    HW2 3321   0.912   0.808   5.002
  808SOL     OW 3322   4.207   4.136   6.311
  808SOL    HW1 3323   4.190   4.038   6.305
  808SOL    HW2 3324   4.135   4.179   6.366
  809SOL     OW 3325   0.641   5.094   1.520
  809SOL    HW1 3326   0.659   5.087   1.422
  809SOL    HW2 3327   0.560   5.152   1.534
  810SOL     OW 3328   3.291   4.254   1.058
  810SOL    HW1 3329   3.259   4.229   1.149
  810SOL    HW2 3330   3.373   4.202   1.036
  811SOL     OW 3331   5.072   5.975   5.590
  811SOL    HW1 3332   5.145   6.019   5.539
  811SOL    HW2 3333   5.023   5.911   5.530
  812SOL     OW 3334   6.755   0.578   2.602
  812SOL    HW1 3335   6.763   0.485   2.565
  812SOL    HW2 3336   6.674   0.583   2.661
  813SOL     OW 3337   4.183   6.796   4.156
  813SOL    HW1 3338   4.126   6.717   4.133
  813SOL    HW2 3339   4.126   6.868   4.196
  814SOL     OW 3340   5.919   6.157   3.066
  814SOL    HW1 3341   5.898   6.160   3.164
  814SOL    HW2 3342   5.890   6.070   3.028
  815SOL     OW 3343   6.944   3.534   3.603
  815SOL    HW1 3344   6.849   3.553   3.578
  815SOL    HW2 3345   6.968   3.441   3.575
  816SOL     OW 3346   6.279   5.907   0.476
  816SOL    HW1 3347   6.234   5.995   0.495
  816SOL    HW2 3348   6.237   5.836   0.533
  817SOL     OW 3349   1.862   5.551   1.604
  817SOL    HW1 3350   1.771   5.536   1.643
  817SOL    HW2 3351   1.914   5.466   1.609
  818SOL     OW 3352   5.997   2.348   3.063
  818SOL    HW1 3353   5.918   2.300   3.102
  818SOL    HW2 3354   6.003   2.439   3.104
  819SOL     OW 3355   5.934   3.018   2.271
  819SOL    HW1 3356   6.024   3.030   2.314
  819SOL    HW2 3357   5.914   2.920   2.265
  820SOL     OW 3358   3.374   2.139   5.134
  820SOL    HW1 3359   3.289   2.192   5.126
  820SOL    HW2 3360   3.439   2.188   5.192
  821SOL     OW 3361   6.917   3.936   0.418
  821SOL    HW1 3362   6.984   3.962   0.488
  821SOL    HW2 3363   6.965   3.901   0.337
  822SOL     OW 3364   0.605   3.358   3.483
  822SOL    HW1 3365   0.513   3.397   3.488
  822SOL    HW2 3366   0.673   3.431   3.488
  823SOL     OW 3367   5.416   3.837   6.469
  823SOL    HW1 3368   5.448   3.897   6.395
  823SOL    HW2 3369   5.427   3.742   6.442
  824SOL     OW 3370   4.738   1.529   6.019
  824SOL    HW1 3371   4.672   1.456   6.033
  824SOL    HW2 3372   4.830   1.491   6.017
  825SOL     OW 3373   0.163   5.077   1.446
  825SOL    HW1 3374   0.194   5.149   1.383
  825SOL    HW2 3375   0.063   5.079   1.452
  826SOL     OW 3376   3.999   2.235   5.815
  826SOL    HW1 3377   3.909   2.219   5.856
  826SOL    HW2 3378   4.055   2.288   5.878
  827SOL     OW 3379   2.797   4.626   5.432
  827SOL    HW1 3380   2.814   4.565   5.355
  827SOL    HW2 3381   2.752   4.576   5.505
  828SOL     OW 3382   5.157   6.109   6.597
  828SOL    HW1 3383   5.230   6.148   6.541
  828SOL    HW2 3384   5.101   6.183   6.635
  829SOL     OW 3385   3.970   3.794   2.517
  829SOL    HW1 3386   3.932   3.702   2.513
  829SOL    HW2 3387   3.900   3.860   2.488
  830SOL     OW 3388   5.942   5.086   6.366
  830SOL    HW1 3389   5.842   5.085   6.361
  830SOL    HW2 3390   5.977   5.164   6.314
  831SOL     OW 3391   5.958   0.528   6.691
  831SOL    HW1 3392   5.911   0.586   6.625
  831SOL    HW2 3393   6.018   0.584   6.748
  832SOL     OW 3394   4.112   1.030   2.906
  832SOL    HW1 3395   4.185   0.980   2.859
  832SOL    HW2 3396   4.085   0.981   2.989
  833SOL     OW 3397   1.469   3.461   6.545
  833SOL    HW1 3398   1.442   3.416   6.630
  833SOL    HW2 3399   1.468   3.560   6.559
  834SOL     OW 3400   4.427   4.089   0.807
  834SOL    HW1 3401   4.439   4.031   0.887
  834SOL    HW2 3402   4.515   4.096   0.758
  835SOL     OW 3403   3.129   0.102   5.445
  835SOL    HW1 3404   3.190   0.046   5.389
  835SOL    HW2 3405   3.133   0.071   5.540
  836SOL     OW 3406   3.773   0.017   5.195
  836SOL    HW1 3407   3.711   0.036   5.271
  836SOL    HW2 3408   3.803   6.940   5.200
  837SOL     OW 3409   6.193   0.051   0.983
  837SOL    HW1 3410   6.213   6.982   1.026
  837SOL    HW2 3411   6.206   0.044   0.885
  838SOL     OW 3412   2.098   0.910   4.298
  838SOL    HW1 3413   2.054   0.966   4.368
  838SOL    HW2 3414   2.187   0.948   4.275
  839SOL     OW 3415   1.208   1.840   1.906
  839SOL    HW1 3416   1.207   1.751   1.952
  839SOL    HW2 3417   1.190   1.827   1.809
  840SOL     OW 3418   6.286   5.683   6.957
  840SOL    HW1 3419   6.208   5.744   6.967
  840SOL    HW2 3420   6.271   5.600   7.010
  841SOL     OW 3421   2.956   5.510   6.151
  841SOL    HW1 3422   3.022   5.448   6.191
  841SOL    HW2 3423   2.970   5.514   6.052
  842SOL     OW 3424   3.597   0.498   4.657
  842SOL    HW1 3425   3.513   0.478   4.707
  842SOL    HW2 3426   3.631   0.589   4.683
  843SOL     OW 3427   1.303   1.220   1.022
  843SOL    HW1 3428   1.312   1.254   1.116
  843SOL    HW2 3429   1.214   1.178   1.010
  844SOL     OW 3430   5.640   6.990   0.684
  844SOL    HW1 3431   5.605   0.045   0.627
  844SOL    HW2 3432   5.564   6.933   0.716
  845SOL     OW 3433   4.724   4.216   4.281
  845SOL    HW1 3434   4.654   4.287   4.287
  845SOL    HW2 3435   4.690   4.141   4.224
  846SOL     OW 3436   2.215   1.159   5.860
  846SOL    HW1 3437   2.297   1.213   5.880
  846SOL    HW2 3438   2.140   1.189   5.920
  847SOL     OW 3439   1.680   3.636   0.845
  847SOL    HW1 3440   1.736   3.663   0.924
  847SOL    HW2 3441   1.585   3.623   0.874
  848SOL     OW 3442   7.017   7.018   6.016
  848SOL    HW1 3443   0.050   0.083   6.029
  848SOL    HW2 3444   6.988   6.983   6.105
  849SOL     OW 3445   6.244   3.961   5.955
  849SOL    HW1 3446   6.260   4.045   5.903
  849SOL    HW2 3447   6.252   3.882   5.895
  850SOL     OW 3448   4.676   1.536   4.134
  850SOL    HW1 3449   4.635   1.561   4.221
  850SOL    HW2 3450   4.604   1.515   4.068
  851SOL     OW 3451   6.812   2.899   1.696
  851SOL    HW1 3452   6.814   2.985   1.747
  851SOL    HW2 3453   6.788   2.917   1.601
  852SOL     OW 3454   1.371   3.753   0.149
  852SOL    HW1 3455   1.404   3.844   0.176
  852SOL    HW2 3456   1.311   3.717   0.220
  853SOL     OW 3457   0.817   4.790   0.986
  853SOL    HW1 3458   0.741   4.728   0.963
  853SOL    HW2 3459   0.903   4.739   0.986
  854SOL     OW 3460   5.529   5.296   0.710
  854SOL    HW1 3461   5.469   5.255   0.779
  854SOL    HW2 3462   5.619   5.313   0.750
  855SOL     OW 3463   0.035   6.990   1.474
  855SOL    HW1 3464   6.998   0.032   1.530
  855SOL    HW2 3465   0.094   6.935   1.533
  856SOL     OW 3466   1.463   2.087   6.364
  856SOL    HW1 3467   1.371   2.102   6.401
  856SOL    HW2 3468   1.501   2.173   6.331
  857SOL     OW 3469   6.207   5.145   1.675
  857SOL    HW1 3470   6.171   5.109   1.588
  857SOL    HW2 3471   6.250   5.071   1.726
  858SOL     OW 3472   3.338   3.895   1.306
  858SOL    HW1 3473   3.319   3.804   1.344
  858SOL    HW2 3474   3.400   3.886   1.228
  859SOL     OW 3475   5.692   7.004   4.740
  859SOL    HW1 3476   5.640   6.920   4.727
  859SOL    HW2 3477   5.662   0.054   4.673
  860SOL     OW 3478   6.392   2.568   0.826
  860SOL    HW1 3479   6.423   2.625   0.750
  860SOL    HW2 3480   6.306   2.524   0.802
  861SOL     OW 3481   2.679   5.435   3.823
  861SOL    HW1 3482   2.620   5.368   3.778
  861SOL    HW2 3483   2.661   5.526   3.785
  862SOL     OW 3484   0.978   3.658   4.171
  862SOL    HW1 3485   0.883   3.683   4.191
  862SOL    HW2 3486   0.981   3.566   4.132
  863SOL     OW 3487   5.980   1.487   0.229
  863SOL    HW1 3488   6.031   1.402   0.212
  863SOL    HW2 3489   5.928   1.511   0.147
  864SOL     OW 3490   4.079   5.590   4.027
  864SOL    HW1 3491   4.166   5.626   3.995
  864SOL    HW2 3492   4.031   5.546   3.951
  865SOL     OW 3493   1.601   6.305   5.819
  865SOL    HW1 3494   1.531   6.248   5.776
  865SOL    HW2 3495   1.577   6.401   5.807
  866SOL     OW 3496   2.132   1.530   1.406
  866SOL    HW1 3497   2.156   1.440   1.369
  866SOL    HW2 3498   2.159   1.602   1.342
  867SOL     OW 3499   5.380   3.948   0.314
  867SOL    HW1 3500   5.294   3.994   0.336
  867SOL    HW2 3501   5.370   3.850   0.327
  868SOL     OW 3502   6.306   1.332   0.572
  868SOL    HW1 3503   6.233   1.340   0.503
  868SOL    HW2 3504   6.381   1.393   0.547
  869SOL     OW 3505   0.473   4.205   2.556
  869SOL    HW1 3506   0.450   4.280   2.617
  869SOL    HW2 3507   0.408   4.130   2.569
  870SOL     OW 3508   4.023   3.420   7.011
  870SOL    HW1 3509   3.930   3.438   6.980
  870SOL    HW2 3510   4.085   3.490   6.976
  871SOL     OW 3511   5.173   2.141   2.588
  871SOL    HW1 3512   5.142   2.134   2.682
  871SOL    HW2 3513   5.183   2.237   2.563
  872SOL     OW 3514   5.339   3.573   3.898
  872SOL    HW1 3515   5.328   3.534   3.990
  872SOL    HW2 3516   5.283   3.656   3.890
  873SOL     OW 3517   6.300   6.304   4.888
  873SOL    HW1 3518   6.311   6.205   4.881
  873SOL    HW2 3519   6.204   6.327   4.904
  874SOL     OW 3520   0.931   3.699   5.685
  874SOL    HW1 3521   1.019   3.729   5.648
  874SOL    HW2 3522   0.886   3.776   5.729
  875SOL     OW 3523   5.263   4.192   0.716
  875SOL    HW1 3524   5.211   4.110   0.694
  875SOL    HW2 3525   5.284   4.241   0.631
  876SOL     OW 3526   1.139   4.353   2.143
  876SOL    HW1 3527   1.128   4.352   2.243
  876SOL    HW2 3528   1.200   4.428   2.117
  877SOL     OW 3529   3.862   4.880   5.806
  877SOL    HW1 3530   3.798   4.898   5.881
  877SOL    HW2 3531   3.840   4.792   5.764
  878SOL     OW 3532   3.594   5.454   4.954
  878SOL    HW1 3533   3.498   5.426   4.951
  878SOL    HW2 3534   3.649   5.388   4.903
  879SOL     OW 3535   3.695   1.957   1.278
  879SOL    HW1 3536   3.760   2.033   1.280
  879SOL    HW2 3537   3.690   1.920   1.185
  880SOL     OW 3538   2.905   3.715   4.393
  880SOL    HW1 3539   2.907   3.733   4.491
  880SOL    HW2 3540   2.904   3.617   4.377
  881SOL     OW 3541   5.951   3.637   5.696
  881SOL    HW1 3542   5.889   3.623   5.773
  881SOL    HW2 3543   5.982   3.549   5.661
  882SOL     OW 3544   0.900   2.762   4.519
  882SOL    HW1 3545   0.983   2.707   4.521
  882SOL    HW2 3546   0.864   2.766   4.426
  883SOL     OW 3547   3.707   0.648   0.640
  883SOL    HW1 3548   3.671   0.664   0.732
  883SOL    HW2 3549   3.728   0.551   0.628
  884SOL     OW 3550   6.884   4.470   0.344
  884SOL    HW1 3551   6.835   4.557   0.355
  884SOL    HW2 3552   6.981   4.483   0.362
  885SOL     OW 3553   4.426   6.535   5.583
  885SOL    HW1 3554   4.353   6.599   5.556
  885SOL    HW2 3555   4.394   6.441   5.571
  886SOL     OW 3556   4.393   0.876   1.242
  886SOL    HW1 3557   4.439   0.952   1.196
  886SOL    HW2 3558   4.332   0.829   1.178
  887SOL     OW 3559   3.984   5.650   3.631
  887SOL    HW1 3560   4.007   5.589   3.707
  887SOL    HW2 3561   3.935   5.600   3.560
  888SOL     OW 3562   0.163   6.764   2.732
  888SOL    HW1 3563   0.220   6.846   2.725
  888SOL    HW2 3564   0.199   6.704   2.804
  889SOL     OW 3565   6.989   1.078   6.160
  889SOL    HW1 3566   0.002   1.020   6.236
  889SOL    HW2 3567   0.042   1.144   6.137
  890SOL     OW 3568   2.143   4.862   2.154
  890SOL    HW1 3569   2.207   4.851   2.230
  890SOL    HW2 3570   2.180   4.815   2.073
  891SOL     OW 3571   6.907   3.549   0.430
  891SOL    HW1 3572   6.909   3.455   0.463
  891SOL    HW2 3573   6.826   3.563   0.373
  892SOL     OW 3574   3.431   3.684   5.227
  892SOL    HW1 3575   3.418   3.725   5.137
  892SOL    HW2 3576   3.514   3.722   5.270
  893SOL     OW 3577   1.516   0.372   2.968
  893SOL    HW1 3578   1.422   0.355   2.940
  893SOL    HW2 3579   1.519   0.444   3.036
  894SOL     OW 3580   1.084   2.917   3.071
  894SOL    HW1 3581   1.095   2.896   3.168
  894SOL    HW2 3582   1.122   3.007   3.052
  895SOL     OW 3583   1.575   5.079   3.640
  895SOL    HW1 3584   1.491   5.133   3.650
  895SOL    HW2 3585   1.553   4.991   3.599
  896SOL     OW 3586   6.215   5.773   1.390
  896SOL    HW1 3587   6.251   5.839   1.456
  896SOL    HW2 3588   6.169   5.699   1.439
  897SOL     OW 3589   4.304   0.296   6.673
  897SOL    HW1 3590   4.353   0.277   6.587
  897SOL    HW2 3591   4.304   0.214   6.730
  898SOL     OW 3592   3.587   5.829   2.271
  898SOL    HW1 3593   3.628   5.892   2.205
  898SOL    HW2 3594   3.491   5.852   2.285
  899SOL     OW 3595   0.295   5.700   0.158
  899SOL    HW1 3596   0.337   5.791   0.167
  899SOL    HW2 3597   0.345   5.635   0.214
  900SOL     OW 3598   4.684   5.903   6.562
  900SOL    HW1 3599   4.697   5.869   6.469
  900SOL    HW2 3600   4.748   5.857   6.624
  901SOL     OW 3601   0.904   0.785   4.438
  901SOL    HW1 3602   0.931   0.826   4.525
  901SOL    HW2 3603   0.960   0.703   4.421
  902SOL     OW 3604   1.451   2.577   1.033
  902SOL    HW1 3605   1.542   2.615   1.049
  902SOL    HW2 3606   1.440   2.493   1.086
  903SOL     OW 3607   6.985   3.090   6.593
  903SOL    HW1 3608   0.018   3.086   6.678
  903SOL    HW2 3609   6.887   3.084   6.615
  904SOL     OW 3610   2.321   2.831   2.589
  904SOL    HW1 3611   2.327   2.759   2.520
  904SOL    HW2 3612   2.305   2.790   2.679
  905SOL     OW 3613   5.084   4.538   6.311
  905SOL    HW1 3614   5.115   4.540   6.216
  905SOL    HW2 3615   5.111   4.452   6.354
  906SOL     OW 3616   0.939   2.733   6.349
  906SOL    HW1 3617   0.980   2.813   6.306
  906SOL    HW2 3618   0.937   2.657   6.284
  907SOL     OW 3619   5.344   2.631   1.674
  907SOL    HW1 3620   5.370   2.724   1.700
  907SOL    HW2 3621   5.259   2.634   1.622
  908SOL     OW 3622   2.357   4.673   2.876
  908SOL    HW1 3623   2.311   4.756   2.843
  908SOL    HW2 3624   2.338   4.661   2.974
  909SOL     OW 3625   3.322   5.959   2.204
  909SOL    HW1 3626   3.270   6.044   2.192
  909SOL    HW2 3627   3.323   5.934   2.300
  910SOL     OW 3628   3.181   0.886   0.956
  910SOL    HW1 3629   3.116   0.957   0.928
  910SOL    HW2 3630   3.135   0.820   1.015
  911SOL     OW 3631   0.371   5.869   6.709
  911SOL    HW1 3632   0.457   5.818   6.713
  911SOL    HW2 3633   0.313   5.831   6.638
  912SOL     OW 3634   4.645   0.346   3.277
  912SOL    HW1 3635   4.625   0.426   3.221
  912SOL    HW2 3636   4.686   0.375   3.364
  913SOL     OW 3637   2.275   0.750   3.962
  913SOL    HW1 3638   2.184   0.739   4.002
  913SOL    HW2 3639   2.289   0.681   3.892
  914SOL     OW 3640   2.693   6.019   5.370
  914SOL    HW1 3641   2.749   6.012   5.288
  914SOL    HW2 3642   2.707   6.109   5.412
  915SOL     OW 3643   6.921   3.249   0.651
  915SOL    HW1 3644   6.970   3.295   0.725
  915SOL    HW2 3645   6.969   3.165   0.626
  916SOL     OW 3646   2.145   3.021   2.681
  916SOL    HW1 3647   2.112   3.114   2.663
  916SOL    HW2 3648   2.233   3.008   2.636
  917SOL     OW 3649   6.146   0.666   2.494
  917SOL    HW1 3650   6.137   0.709   2.404
  917SOL    HW2 3651   6.122   0.732   2.565
  918SOL     OW 3652   3.225   0.236   0.902
  918SOL    HW1 3653   3.308   0.236   0.958
  918SOL    HW2 3654   3.148   0.200   0.955
  919SOL     OW 3655   6.596   6.577   3.209
  919SOL    HW1 3656   6.689   6.552   3.180
  919SOL    HW2 3657   6.566   6.517   3.283
  920SOL     OW 3658   2.570   4.972   2.244
  920SOL    HW1 3659   2.611   4.907   2.308
  920SOL    HW2 3660   2.509   4.923   2.182
  921SOL     OW 3661   4.134   5.009   2.965
  921SOL    HW1 3662   4.209   4.947   2.944
  921SOL    HW2 3663   4.082   5.027   2.881
  922SOL     OW 3664   3.281   3.618   4.866
  922SOL    HW1 3665   3.310   3.523   4.878
  922SOL    HW2 3666   3.347   3.678   4.911
  923SOL     OW 3667   2.605   4.245   5.566
  923SOL    HW1 3668   2.550   4.256   5.648
  923SOL    HW2 3669   2.546   4.243   5.485
  924SOL     OW 3670   6.025   2.780   2.949
  924SOL    HW1 3671   5.996   2.711   3.016
  924SOL    HW2 3672   6.119   2.761   2.920
  925SOL     OW 3673   6.894   2.023   6.751
  925SOL    HW1 3674   6.955   2.101   6.763
  925SOL    HW2 3675   6.926   1.947   6.807
  926SOL     OW 3676   6.352   1.343   0.893
  926SOL    HW1 3677   6.427   1.300   0.843
  926SOL    HW2 3678   6.314   1.418   0.839
  927SOL     OW 3679   5.799   4.148   2.832
  927SOL    HW1 3680   5.814   4.052   2.811
  927SOL    HW2 3681   5.807   4.163   2.930
  928SOL     OW 3682   1.228   6.445   0.219
  928SOL    HW1 3683   1.242   6.400   0.130
  928SOL    HW2 3684   1.309   6.431   0.276
  929SOL     OW 3685   0.225   0.134   0.844
  929SOL    HW1 3686   0.298   0.128   0.776
  929SOL    HW2 3687   0.211   0.230   0.869
  930SOL     OW 3688   5.712   6.024   3.773
  930SOL    HW1 3689   5.621   6.029   3.814
  930SOL    HW2 3690   5.769   5.959   3.823
  931SOL     OW 3691   5.922   1.818   4.471
  931SOL    HW1 3692   5.987   1.742   4.465
  931SOL    HW2 3693   5.915   1.847   4.567
  932SOL     OW 3694   3.244   6.961   3.525
  932SOL    HW1 3695   3.260   0.034   3.489
  932SOL    HW2 3696   3.196   6.966   3.612
  933SOL     OW 3697   1.834   5.675   3.572
  933SOL    HW1 3698   1.916   5.725   3.545
  933SOL    HW2 3699   1.807   5.614   3.498
  934SOL     OW 3700   1.508   0.371   6.224
  934SOL    HW1 3701   1.478   0.357   6.319
  934SOL    HW2 3702   1.428   0.370   6.164
  935SOL     OW 3703   4.928   4.111   3.934
  935SOL    HW1 3704   5.012   4.063   3.958
  935SOL    HW2 3705   4.876   4.057   3.868
  936SOL     OW 3706   0.842   0.491   6.333
  936SOL    HW1 3707   0.825   0.436   6.252
  936SOL    HW2 3708   0.878   0.581   6.306
  937SOL     OW 3709   5.530   1.655   5.337
  937SOL    HW1 3710   5.472   1.574   5.328
  937SOL    HW2 3711   5.605   1.636   5.400
  938SOL     OW 3712   6.749   5.340   6.312
  938SOL    HW1 3713   6.754   5.424   6.257
  938SOL    HW2 3714   6.778   5.360   6.406
  939SOL     OW 3715   6.639   6.641   5.086
  939SOL    HW1 3716   6.657   6.544   5.096
  939SOL    HW2 3717   6.653   6.669   4.991
  940SOL     OW 3718   1.463   3.686   1.684
  940SOL    HW1 3719   1.452   3.622   1.608
  940SOL    HW2 3720   1.379   3.689   1.738
  941SOL     OW 3721   5.102   1.210   6.204
  941SOL    HW1 3722   5.201   1.213   6.220
  941SOL    HW2 3723   5.058   1.161   6.280
  942SOL     OW 3724   5.125   6.564   2.819
  942SOL    HW1 3725   5.087   6.603   2.903
  942SOL    HW2 3726   5.158   6.637   2.760
  943SOL     OW 3727   2.095   3.837   4.057
  943SOL    HW1 3728   2.000   3.865   4.074
  943SOL    HW2 3729   2.097   3.771   3.982
  944SOL     OW 3730   0.401   5.000   6.357
  944SOL    HW1 3731   0.446   4.921   6.399
  944SOL    HW2 3732   0.304   4.980   6.345
  945SOL     OW 3733   6.607   3.957   5.827
  945SOL    HW1 3734   6.650   3.978   5.914
  945SOL    HW2 3735   6.673   3.913   5.766
  946SOL     OW 3736   4.994   3.106   5.982
  946SOL    HW1 3737   4.947   3.039   6.039
  946SOL    HW2 3738   5.020   3.185   6.037
  947SOL     OW 3739   3.887   3.117   3.736
  947SOL    HW1 3740   3.966   3.131   3.678
  947SOL    HW2 3741   3.835   3.202   3.743
  948SOL     OW 3742   3.615   0.630   2.946
  948SOL    HW1 3743   3.560   0.609   2.865
  948SOL    HW2 3744   3.569   0.593   3.027
  949SOL     OW 3745   0.987   6.117   6.376
  949SOL    HW1 3746   0.925   6.177   6.326
  949SOL    HW2 3747   1.021   6.046   6.314
  950SOL     OW 3748   5.177   5.540   1.892
  950SOL    HW1 3749   5.269   5.548   1.930
  950SOL    HW2 3750   5.130   5.628   1.897
  951SOL     OW 3751   1.983   0.788   4.039
  951SOL    HW1 3752   2.027   0.851   4.103
  951SOL    HW2 3753   1.946   0.710   4.090
  952SOL     OW 3754   4.709   2.038   3.038
  952SOL    HW1 3755   4.695   2.019   3.135
  952SOL    HW2 3756   4.683   1.958   2.984
  953SOL     OW 3757   5.498   4.717   4.056
  953SOL    HW1 3758   5.582   4.771   4.054
  953SOL    HW2 3759   5.444   4.738   3.974
  954SOL     OW 3760   3.635   5.601   1.629
  954SOL    HW1 3761   3.670   5.577   1.538
  954SOL    HW2 3762   3.583   5.524   1.666
  955SOL     OW 3763   0.499   3.410   2.379
  955SOL    HW1 3764   0.467   3.324   2.340
  955SOL    HW2 3765   0.591   3.397   2.417
  956SOL     OW 3766   6.658   0.958   2.560
  956SOL    HW1 3767   6.702   0.988   2.475
  956SOL    HW2 3768   6.723   0.967   2.636
  957SOL     OW 3769   6.141   3.311   4.634
  957SOL    HW1 3770   6.106   3.405   4.633
  957SOL    HW2 3771   6.229   3.310   4.682
  958SOL     OW 3772   3.897   1.861   1.911
  958SOL    HW1 3773   3.821   1.810   1.870
  958SOL    HW2 3774   3.880   1.959   1.903
  959SOL     OW 3775   4.384   6.052   2.854
  959SOL    HW1 3776   4.445   5.981   2.890
  959SOL    HW2 3777   4.290   6.020   2.860
  960SOL     OW 3778   0.693   6.662   2.183
  960SOL    HW1 3779   0.602   6.702   2.183
  960SOL    HW2 3780   0.686   6.562   2.179
  961SOL     OW 3781   4.407   6.327   3.284
  961SOL    HW1 3782   4.403   6.386   3.365
  961SOL    HW2 3783   4.487   6.351   3.229
  962SOL     OW 3784   0.276   1.742   5.652
  962SOL    HW1 3785   0.240   1.652   5.675
  962SOL    HW2 3786   0.277   1.753   5.552
  963SOL     OW 3787   6.054   1.521   6.578
  963SOL    HW1 3788   6.003   1.594   6.624
  963SOL    HW2 3789   6.090   1.556   6.491
  964SOL     OW 3790   5.713   4.413   0.042
  964SOL    HW1 3791   5.691   4.501   0.082
  964SOL    HW2 3792   5.729   4.346   0.114
  965SOL     OW 3793   5.278   2.191   1.621
  965SOL    HW1 3794   5.209   2.121   1.604
  965SOL    HW2 3795   5.234   2.272   1.661
  966SOL     OW 3796   5.921   1.989   2.810
  966SOL    HW1 3797   5.895   2.012   2.903
  966SOL    HW2 3798   5.983   2.058   2.774
  967SOL     OW 3799   2.492   4.776   0.810
  967SOL    HW1 3800   2.496   4.683   0.774
  967SOL    HW2 3801   2.434   4.777   0.892
  968SOL     OW 3802   3.515   0.232   2.050
  968SOL    HW1 3803   3.547   0.271   2.137
  968SOL    HW2 3804   3.455   0.154   2.069
  969SOL     OW 3805   2.534   5.810   6.008
  969SOL    HW1 3806   2.489   5.788   6.095
  969SOL    HW2 3807   2.553   5.725   5.959
  970SOL     OW 3808   5.441   1.174   6.298
  970SOL    HW1 3809   5.378   1.223   6.358
  970SOL    HW2 3810   5.530   1.219   6.299
  971SOL     OW 3811   6.994   2.465   2.993
  971SOL    HW1 3812   0.074   2.480   2.998
  971SOL    HW2 3813   6.975   2.367   2.999
  972SOL     OW 3814   5.682   2.867   1.743
  972SOL    HW1 3815   5.666   2.806   1.665
  972SOL    HW2 3816   5.595   2.882   1.791
  973SOL     OW 3817   0.073   5.219   6.703
  973SOL    HW1 3818   0.078   5.184   6.797
  973SOL    HW2 3819   0.105   5.149   6.640
  974SOL     OW 3820   5.273   5.877   2.167
  974SOL    HW1 3821   5.221   5.873   2.252
  974SOL    HW2 3822   5.276   5.972   2.135
  975SOL     OW 3823   1.939   0.165   6.389
  975SOL    HW1 3824   1.906   0.085   6.339
  975SOL    HW2 3825   1.990   0.136   6.470
  976SOL     OW 3826   6.981   3.608   2.452
  976SOL    HW1 3827   0.004   3.518   2.440
  976SOL    HW2 3828   6.967   3.625   2.550
  977SOL     OW 3829   0.783   6.823   1.979
  977SOL    HW1 3830   0.877   6.831   1.946
  977SOL    HW2 3831   0.779   6.759   2.055
  978SOL     OW 3832   5.190   3.002   5.668
  978SOL    HW1 3833   5.232   2.928   5.721
  978SOL    HW2 3834   5.238   3.088   5.687
  979SOL     OW 3835   0.303   1.945   0.527
  979SOL    HW1 3836   0.396   1.946   0.491
  979SOL    HW2 3837   0.270   2.039   0.535
  980SOL     OW 3838   4.563   2.576   3.433
  980SOL    HW1 3839   4.518   2.500   3.479
  980SOL    HW2 3840   4.584   2.648   3.499
  981SOL     OW 3841   0.434   1.740   4.736
  981SOL    HW1 3842   0.462   1.644   4.740
  981SOL    HW2 3843   0.507   1.794   4.692
  982SOL     OW 3844   2.255   1.807   4.829
  982SOL    HW1 3845   2.285   1.882   4.770
  982SOL    HW2 3846   2.194   1.843   4.900
  983SOL     OW 3847   6.033   3.127   4.187
  983SOL    HW1 3848   5.999   3.181   4.110
  983SOL    HW2 3849   5.989   3.038   4.189
  984SOL     OW 3850   2.674   1.995   4.833
  984SOL    HW1 3851   2.685   2.015   4.930
  984SOL    HW2 3852   2.604   2.054   4.794
  985SOL     OW 3853   6.085   3.373   5.132
  985SOL    HW1 3854   5.988   3.394   5.118
  985SOL    HW2 3855   6.138   3.458   5.125
  986SOL     OW 3856   5.916   4.857   1.084
  986SOL    HW1 3857   5.906   4.910   1.168
  986SOL    HW2 3858   5.826   4.838   1.045
  987SOL     OW 3859   4.840   0.002   2.524
  987SOL    HW1 3860   4.866   6.940   2.575
  987SOL    HW2 3861   4.893   0.081   2.557
  988SOL     OW 3862   3.619   3.438   2.017
  988SOL    HW1 3863   3.589   3.378   1.943
  988SOL    HW2 3864   3.552   3.435   2.091
  989SOL     OW 3865   6.320   1.420   6.339
  989SOL    HW1 3866   6.342   1.332   6.383
  989SOL    HW2 3867   6.248   1.406   6.272
  990SOL     OW 3868   4.405   0.920   2.237
  990SOL    HW1 3869   4.484   0.892   2.182
  990SOL    HW2 3870   4.423   1.010   2.277
  991SOL     OW 3871   0.777   3.917   4.748
  991SOL    HW1 3872   0.679   3.902   4.762
  991SOL    HW2 3873   0.826   3.901   4.833
  992SOL     OW 3874   0.288   3.348   1.159
  992SOL    HW1 3875   0.369   3.397   1.128
  992SOL    HW2 3876   0.263   3.379   1.251
  993SOL     OW 3877   0.297   4.807   0.973
  993SOL    HW1 3878   0.331   4.892   0.932
  993SOL    HW2 3879   0.283   4.820   1.071
  994SOL     OW 3880   4.081   5.209   1.186
  994SOL    HW1 3881   4.015   5.248   1.122
  994SOL    HW2 3882   4.174   5.223   1.151
  995SOL     OW 3883   3.626   2.933   5.508
  995SOL    HW1 3884   3.636   2.949   5.410
  995SOL    HW2 3885   3.621   3.021   5.555
  996SOL     OW 3886   3.732   5.051   4.657
  996SOL    HW1 3887   3.752   5.034   4.560
  996SOL    HW2 3888   3.758   5.145   4.680
  997SOL     OW 3889   1.139   0.299   3.691
  997SOL    HW1 3890   1.219   0.319   3.634
  997SOL    HW2 3891   1.153   0.213   3.739
  998SOL     OW 3892   5.334   0.325   5.013
  998SOL    HW1 3893   5.248   0.377   5.011
  998SOL    HW2 3894   5.345   0.275   4.927
  999SOL     OW 3895   5.134   4.573   2.921
  999SOL    HW1 3896   5.111   4.578   2.824
  999SOL    HW2 3897   5.186   4.655   2.947
 1000SOL     OW 3898   2.725   1.063   1.248
 1000SOL    HW1 3899   2.663   0.992   1.215
 1000SOL    HW2 3900   2.698   1.091   1.340
 1001SOL     OW 3901   5.122   5.513   0.908
 1001SOL    HW1 3902   5.119   5.574   0.828
 1001SOL    HW2 3903   5.097   5.421   0.881
 1002SOL     OW 3904   5.876   2.082   1.457
 1002SOL    HW1 3905   5.948   2.028   1.501
 1002SOL    HW2 3906   5.787   2.053   1.492
 1003SOL     OW 3907   1.753   6.235   2.203
 1003SOL    HW1 3908   1.691   6.295   2.252
 1003SOL    HW2 3909   1.704   6.189   2.129
 1004SOL     OW 3910   0.109   0.777   1.901
 1004SOL    HW1 3911   0.181   0.707   1.902
 1004SOL    HW2 3912   0.124   0.841   1.976
 1005SOL     OW 3913   2.169   3.156   3.956
 1005SOL    HW1 3914   2.145   3.145   3.860
 1005SOL    HW2 3915   2.137   3.078   4.009
 1006SOL     OW 3916   1.544   4.447   1.253
 1006SOL    HW1 3917   1.534   4.536   1.210
 1006SOL    HW2 3918   1.585   4.383   1.188
 1007SOL     OW 3919   4.397   0.429   5.065
 1007SOL    HW1 3920   4.475   0.484   5.034
 1007SOL    HW2 3921   4.376   0.360   4.996
 1008SOL     OW 3922   1.087   3.313   5.729
 1008SOL    HW1 3923   0.992   3.344   5.725
 1008SOL    HW2 3924   1.141   3.363   5.661
 1009SOL     OW 3925   0.650   4.775   5.308
 1009SOL    HW1 3926   0.581   4.717   5.352
 1009SOL    HW2 3927   0.732   4.778   5.366
 1010SOL     OW 3928   3.604   2.000   6.981
 1010SOL    HW1 3929   3.631   1.909   7.010
 1010SOL    HW2 3930   3.538   2.038   0.027
 1011SOL     OW 3931   1.610   5.146   2.419
 1011SOL    HW1 3932   1.534   5.119   2.478
 1011SOL    HW2 3933   1.654   5.064   2.382
 1012SOL     OW 3934   6.850   6.948   2.077
 1012SOL    HW1 3935   6.883   6.991   2.161
 1012SOL    HW2 3936   6.808   7.018   2.020
 1013SOL     OW 3937   1.289   1.346   5.867
 1013SOL    HW1 3938   1.343   1.387   5.941
 1013SOL    HW2 3939   1.277   1.413   5.794
 1014SOL     OW 3940   6.506   4.964   5.515
 1014SOL    HW1 3941   6.537   5.015   5.435
 1014SOL    HW2 3942   6.451   5.023   5.573
 1015SOL     OW 3943   2.515   6.795   6.070
 1015SOL    HW1 3944   2.504   6.891   6.045
 1015SOL    HW2 3945   2.611   6.769   6.062
 1016SOL     OW 3946   4.175   3.635   6.943
 1016SOL    HW1 3947   4.244   3.676   7.003
 1016SOL    HW2 3948   4.146   3.703   6.875
 1017SOL     OW 3949   4.263   2.802   1.525
 1017SOL    HW1 3950   4.303   2.724   1.478
 1017SOL    HW2 3951   4.335   2.867   1.549
 1018SOL     OW 3952   0.421   4.350   4.219
 1018SOL    HW1 3953   0.440   4.317   4.311
 1018SOL    HW2 3954   0.461   4.440   4.206
 1019SOL     OW 3955   6.980   6.634   0.861
 1019SOL    HW1 3956   0.033   6.693   0.898
 1019SOL    HW2 3957   6.963   6.559   0.925
 1020SOL     OW 3958   6.411   1.577   1.079
 1020SOL    HW1 3959   6.380   1.484   1.055
 1020SOL    HW2 3960   6.333   1.630   1.112
 1021SOL     OW 3961   5.570   0.083   1.505
 1021SOL    HW1 3962   5.535   0.032   1.583
 1021SOL    HW2 3963   5.555   0.181   1.519
 1022SOL     OW 3964   3.235   4.490   5.438
 1022SOL    HW1 3965   3.167   4.563   5.431
 1022SOL    HW2 3966   3.192   4.403   5.414
 1023SOL     OW 3967   0.495   0.404   3.116
 1023SOL    HW1 3968   0.572   0.466   3.101
 1023SOL    HW2 3969   0.431   0.411   3.039
 1024SOL     OW 3970   0.595   2.863   4.181
 1024SOL    HW1 3971   0.674   2.805   4.157
 1024SOL    HW2 3972   0.627   2.955   4.203
 1025SOL     OW 3973   3.655   3.725   1.618
 1025SOL    HW1 3974   3.754   3.725   1.633
 1025SOL    HW2 3975   3.612   3.791   1.680
 1026SOL     OW 3976   2.542   2.418   1.266
 1026SOL    HW1 3977   2.608   2.482   1.305
 1026SOL    HW2 3978   2.580   2.378   1.182
 1027SOL     OW 3979   3.243   6.207   1.942
 1027SOL    HW1 3980   3.335   6.211   1.902
 1027SOL    HW2 3981   3.198   6.296   1.931
 1028SOL     OW 3982   2.372   6.459   1.613
 1028SOL    HW1 3983   2.408   6.542   1.569
 1028SOL    HW2 3984   2.281   6.479   1.650
 1029SOL     OW 3985   1.714   0.195   6.157
 1029SOL    HW1 3986   1.659   0.278   6.140
 1029SOL    HW2 3987   1.686   0.155   6.244
 1030SOL     OW 3988   3.285   2.715   1.689
 1030SOL    HW1 3989   3.249   2.621   1.694
 1030SOL    HW2 3990   3.371   2.720   1.738
 1031SOL     OW 3991   4.622   4.012   1.593
 1031SOL    HW1 3992   4.653   4.072   1.667
 1031SOL    HW2 3993   4.552   3.950   1.628
 1032SOL     OW 3994   2.524   1.993   5.929
 1032SOL    HW1 3995   2.592   1.926   5.899
 1032SOL    HW2 3996   2.439   1.979   5.878
 1033SOL     OW 3997   1.463   6.447   2.048
 1033SOL    HW1 3998   1.438   6.475   2.140
 1033SOL    HW2 3999   1.402   6.373   2.018
 1034SOL     OW 4000   0.225   5.273   4.609
 1034SOL    HW1 4001   0.217   5.300   4.705
 1034SOL    HW2 4002   0.321   5.268   4.584
 1035SOL     OW 4003   0.258   1.629   5.286
 1035SOL    HW1 4004   0.227   1.587   5.202
 1035SOL    HW2 4005   0.357   1.646   5.280
 1036SOL     OW 4006   4.021   6.967   1.774
 1036SOL    HW1 4007   4.118   6.957   1.796
 1036SOL    HW2 4008   3.966   6.936   1.851
 1037SOL     OW 4009   1.532   1.192   1.679
 1037SOL    HW1 4010   1.522   1.199   1.778
 1037SOL    HW2 4011   1.572   1.103   1.656
 1038SOL     OW 4012   1.760   1.127   5.077
 1038SOL    HW1 4013   1.722   1.106   5.167
 1038SOL    HW2 4014   1.858   1.105   5.076
 1039SOL     OW 4015   3.500   3.765   4.375
 1039SOL    HW1 4016   3.410   3.759   4.417
 1039SOL    HW2 4017   3.507   3.849   4.322
 1040SOL     OW 4018   4.808   1.254   2.753
 1040SOL    HW1 4019   4.781   1.180   2.815
 1040SOL    HW2 4020   4.748   1.333   2.768
 1041SOL     OW 4021   0.213   6.591   3.612
 1041SOL    HW1 4022   0.182   6.501   3.581
 1041SOL    HW2 4023   0.213   6.654   3.534
 1042SOL     OW 4024   4.220   5.419   1.978
 1042SOL    HW1 4025   4.147   5.350   1.977
 1042SOL    HW2 4026   4.190   5.500   1.929
 1043SOL     OW 4027   2.926   2.244   4.373
 1043SOL    HW1 4028   2.969   2.310   4.312
 1043SOL    HW2 4029   2.906   2.160   4.322
 1044SOL     OW 4030   5.490   5.389   2.786
 1044SOL    HW1 4031   5.515   5.473   2.834
 1044SOL    HW2 4032   5.570   5.329   2.778
 1045SOL     OW 4033   3.967   0.049   2.972
 1045SOL    HW1 4034   3.903   0.100   2.915
 1045SOL    HW2 4035   4.020   7.005   2.914
 1046SOL     OW 4036   1.829   0.714   0.497
 1046SOL    HW1 4037   1.768   0.661   0.439
 1046SOL    HW2 4038   1.861   0.794   0.447
 1047SOL     OW 4039   1.778   0.144   3.899
 1047SOL    HW1 4040   1.763   0.045   3.888
 1047SOL    HW2 4041   1.821   0.180   3.816
 1048SOL     OW 4042   4.073   6.114   3.225
 1048SOL    HW1 4043   4.168   6.095   3.200
 1048SOL    HW2 4044   4.039   6.040   3.283
 1049SOL     OW 4045   6.539   6.551   3.937
 1049SOL    HW1 4046   6.477   6.497   3.995
 1049SOL    HW2 4047   6.566   6.496   3.859
 1050SOL     OW 4048   4.087   4.786   1.162
 1050SOL    HW1 4049   4.032   4.722   1.215
 1050SOL    HW2 4050   4.029   4.837   1.099
 1051SOL     OW 4051   0.919   5.720   0.299
 1051SOL    HW1 4052   0.966   5.735   0.212
 1051SOL    HW2 4053   0.986   5.702   0.371
 1052SOL     OW 4054   4.065   0.563   5.105
 1052SOL    HW1 4055   3.998   0.569   5.031
 1052SOL    HW2 4056   4.023   0.593   5.191
 1053SOL     OW 4057   5.938   4.818   2.776
 1053SOL    HW1 4058   5.922   4.885   2.704
 1053SOL    HW2 4059   5.879   4.738   2.761
 1054SOL     OW 4060   3.625   3.522   0.360
 1054SOL    HW1 4061   3.572   3.593   0.314
 1054SOL    HW2 4062   3.697   3.564   0.415
 1055SOL     OW 4063   3.629   6.168   4.673
 1055SOL    HW1 4064   3.644   6.093   4.738
 1055SOL    HW2 4065   3.665   6.253   4.712
 1056SOL     OW 4066   2.631   4.086   6.870
 1056SOL    HW1 4067   2.722   4.061   6.836
 1056SOL    HW2 4068   2.580   4.133   6.799
 1057SOL     OW 4069   2.934   3.356   1.518
 1057SOL    HW1 4070   2.988   3.304   1.584
 1057SOL    HW2 4071   2.846   3.311   1.504
 1058SOL     OW 4072   4.686   2.252   3.700
 1058SOL    HW1 4073   4.619   2.276   3.630
 1058SOL    HW2 4074   4.639   2.245   3.789
 1059SOL     OW 4075   2.885   0.570   2.095
 1059SOL    HW1 4076   2.870   0.473   2.115
 1059SOL    HW2 4077   2.839   0.626   2.164
 1060SOL     OW 4078   0.151   4.753   4.267
 1060SOL    HW1 4079   0.232   4.794   4.309
 1060SOL    HW2 4080   0.178   4.710   4.180
 1061SOL     OW 4081   6.610   3.102   0.808
 1061SOL    HW1 4082   6.587   3.079   0.902
 1061SOL    HW2 4083   6.640   3.197   0.804
 1062SOL     OW 4084   5.361   4.847   5.830
 1062SOL    HW1 4085   5.311   4.923   5.788
 1062SOL    HW2 4086   5.304   4.765   5.828
 1063SOL     OW 4087   1.347   5.081   1.119
 1063SOL    HW1 4088   1.311   5.161   1.168
 1063SOL    HW2 4089   1.316   4.998   1.165
 1064SOL     OW 4090   1.445   4.327   2.938
 1064SOL    HW1 4091   1.391   4.311   2.855
 1064SOL    HW2 4092   1.479   4.239   2.972
 1065SOL     OW 4093   4.138   0.725   3.733
 1065SOL    HW1 4094   4.052   0.771   3.710
 1065SOL    HW2 4095   4.156   0.654   3.665
 1066SOL     OW 4096   4.862   6.772   2.658
 1066SOL    HW1 4097   4.909   6.689   2.630
 1066SOL    HW2 4098   4.825   6.761   2.750
 1067SOL     OW 4099   0.921   3.255   0.883
 1067SOL    HW1 4100   0.883   3.303   0.962
 1067SOL    HW2 4101   0.928   3.157   0.904
 1068SOL     OW 4102   6.283   4.871   3.026
 1068SOL    HW1 4103   6.183   4.863   3.025
 1068SOL    HW2 4104   6.323   4.782   3.003
 1069SOL     OW 4105   4.552   5.231   0.915
 1069SOL    HW1 4106   4.615   5.200   0.844
 1069SOL    HW2 4107   4.495   5.305   0.878
 1070SOL     OW 4108   6.952   0.576   2.011
 1070SOL    HW1 4109   6.975   0.608   1.919
 1070SOL    HW2 4110   6.872   0.626   2.045
 1071SOL     OW 4111   1.348   0.990   4.431
 1071SOL    HW1 4112   1.433   0.967   4.384
 1071SOL    HW2 4113   1.270   0.963   4.375
 1072SOL     OW 4114   2.010   1.096   0.891
 1072SOL    HW1 4115   2.053   1.183   0.913
 1072SOL    HW2 4116   2.043   1.064   0.802
 1073SOL     OW 4117   4.644   0.063   2.737
 1073SOL    HW1 4118   4.711   0.035   2.668
 1073SOL    HW2 4119   4.581   7.006   2.755
 1074SOL     OW 4120   2.350   5.153   1.449
 1074SOL    HW1 4121   2.377   5.204   1.531
 1074SOL    HW2 4122   2.270   5.196   1.407
 1075SOL     OW 4123   5.298   0.893   3.395
 1075SOL    HW1 4124   5.314   0.809   3.447
 1075SOL    HW2 4125   5.286   0.969   3.458
 1076SOL     OW 4126   0.363   2.106   5.445
 1076SOL    HW1 4127   0.292   2.085   5.378
 1076SOL    HW2 4128   0.440   2.150   5.399
 1077SOL     OW 4129   5.489   6.829   1.090
 1077SOL    HW1 4130   5.566   6.886   1.062
 1077SOL    HW2 4131   5.523   6.739   1.119
 1078SOL     OW 4132   0.729   0.761   2.368
 1078SOL    HW1 4133   0.756   0.771   2.272
 1078SOL    HW2 4134   0.632   0.783   2.377
 1079SOL     OW 4135   1.780   6.955   2.580
 1079SOL    HW1 4136   1.732   6.927   2.664
 1079SOL    HW2 4137   1.728   6.924   2.500
 1080SOL     OW 4138   1.907   5.059   3.336
 1080SOL    HW1 4139   1.993   5.102   3.363
 1080SOL    HW2 4140   1.925   4.984   3.273
 1081SOL     OW 4141   6.990   5.174   5.639
 1081SOL    HW1 4142   0.023   5.239   5.583
 1081SOL    HW2 4143   6.900   5.213   5.658
 1082SOL     OW 4144   5.396   2.095   4.725
 1082SOL    HW1 4145   5.396   2.052   4.635
 1082SOL    HW2 4146   5.428   2.030   4.794
 1083SOL     OW 4147   4.662   4.165   0.649
 1083SOL    HW1 4148   4.741   4.221   0.626
 1083SOL    HW2 4149   4.582   4.200   0.600
 1084SOL     OW 4150   5.912   6.391   6.892
 1084SOL    HW1 4151   5.977   6.318   6.873
 1084SOL    HW2 4152   5.867   6.419   6.806
 1085SOL     OW 4153   2.068   3.549   4.642
 1085SOL    HW1 4154   2.083   3.645   4.667
 1085SOL    HW2 4155   2.077   3.540   4.543
 1086SOL     OW 4156   0.735   5.312   0.580
 1086SOL    HW1 4157   0.757   5.220   0.609
 1086SOL    HW2 4158   0.774   5.328   0.489
 1087SOL     OW 4159   5.969   2.360   5.227
 1087SOL    HW1 4160   5.911   2.289   5.187
 1087SOL    HW2 4161   5.983   2.341   5.324
 1088SOL     OW 4162   0.690   3.763   2.894
 1088SOL    HW1 4163   0.608   3.707   2.909
 1088SOL    HW2 4164   0.744   3.766   2.978
 1089SOL     OW 4165   0.959   5.945   4.361
 1089SOL    HW1 4166   0.940   6.034   4.401
 1089SOL    HW2 4167   1.000   5.886   4.431
 1090SOL     OW 4168   2.687   2.370   3.097
 1090SOL    HW1 4169   2.640   2.327   3.020
 1090SOL    HW2 4170   2.690   2.469   3.082
 1091SOL     OW 4171   2.818   2.287   4.704
 1091SOL    HW1 4172   2.886   2.252   4.770
 1091SOL    HW2 4173   2.865   2.338   4.633
 1092SOL     OW 4174   1.351   4.302   1.043
 1092SOL    HW1 4175   1.437   4.276   1.086
 1092SOL    HW2 4176   1.278   4.239   1.071
 1093SOL     OW 4177   1.770   1.326   1.741
 1093SOL    HW1 4178   1.701   1.257   1.721
 1093SOL    HW2 4179   1.827   1.341   1.660
 1094SOL     OW 4180   0.345   0.093   2.404
 1094SOL    HW1 4181   0.330   0.141   2.489
 1094SOL    HW2 4182   0.430   0.124   2.362
 1095SOL     OW 4183   1.035   2.956   6.230
 1095SOL    HW1 4184   1.006   2.971   6.136
 1095SOL    HW2 4185   0.976   3.007   6.292
 1096SOL     OW 4186   3.588   4.377   1.717
 1096SOL    HW1 4187   3.541   4.456   1.756
 1096SOL    HW2 4188   3.549   4.293   1.755
 1097SOL     OW 4189   2.450   4.458   4.238
 1097SOL    HW1 4190   2.371   4.516   4.257
 1097SOL    HW2 4191   2.463   4.452   4.139
 1098SOL     OW 4192   4.425   3.832   6.560
 1098SOL    HW1 4193   4.383   3.886   6.634
 1098SOL    HW2 4194   4.439   3.738   6.591
 1099SOL     OW 4195   3.470   0.734   5.924
 1099SOL    HW1 4196   3.483   0.831   5.941
 1099SOL    HW2 4197   3.543   0.700   5.865
 1100SOL     OW 4198   3.880   1.908   4.261
 1100SOL    HW1 4199   3.857   1.992   4.310
 1100SOL    HW2 4200   3.978   1.891   4.267
 1101SOL     OW 4201   5.628   2.888   6.111
 1101SOL    HW1 4202   5.634   2.818   6.040
 1101SOL    HW2 4203   5.617   2.844   6.200
 1102SOL     OW 4204   0.727   6.894   4.602
 1102SOL    HW1 4205   0.748   6.934   4.513
 1102SOL    HW2 4206   0.804   6.837   4.632
 1103SOL     OW 4207   4.082   1.705   0.163
 1103SOL    HW1 4208   4.060   1.642   0.088
 1103SOL    HW2 4209   4.014   1.696   0.235
 1104SOL     OW 4210   2.092   3.474   5.935
 1104SOL    HW1 4211   2.168   3.464   5.871
 1104SOL    HW2 4212   2.063   3.384   5.967
 1105SOL     OW 4213   6.414   3.584   4.595
 1105SOL    HW1 4214   6.360   3.532   4.530
 1105SOL    HW2 4215   6.356   3.652   4.640
 1106SOL     OW 4216   0.129   2.272   1.554
 1106SOL    HW1 4217   0.115   2.371   1.542
 1106SOL    HW2 4218   0.121   2.249   1.651
 1107SOL     OW 4219   0.753   0.668   6.951
 1107SOL    HW1 4220   0.752   0.744   7.017
 1107SOL    HW2 4221   0.822   0.602   6.979
 1108SOL     OW 4222   3.233   0.136   5.126
 1108SOL    HW1 4223   3.242   0.152   5.224
 1108SOL    HW2 4224   3.271   0.047   5.103
 1109SOL     OW 4225   4.691   1.136   4.341
 1109SOL    HW1 4226   4.639   1.063   4.297
 1109SOL    HW2 4227   4.633   1.181   4.410
 1110SOL     OW 4228   3.275   1.872   3.337
 1110SOL    HW1 4229   3.272   1.804   3.264
 1110SOL    HW2 4230   3.319   1.955   3.302
 1111SOL     OW 4231   4.707   5.428   6.250
 1111SOL    HW1 4232   4.802   5.421   6.219
 1111SOL    HW2 4233   4.704   5.479   6.336
 1112SOL     OW 4234   5.587   0.879   2.843
 1112SOL    HW1 4235   5.528   0.943   2.795
 1112SOL    HW2 4236   5.607   0.801   2.783
 1113SOL     OW 4237   5.961   4.616   1.772
 1113SOL    HW1 4238   5.909   4.629   1.688
 1113SOL    HW2 4239   5.959   4.520   1.799
 1114SOL     OW 4240   3.620   1.649   6.029
 1114SOL    HW1 4241   3.605   1.651   5.931
 1114SOL    HW2 4242   3.607   1.740   6.067
 1115SOL     OW 4243   4.112   3.186   5.943
 1115SOL    HW1 4244   4.074   3.199   6.034
 1115SOL    HW2 4245   4.195   3.240   5.933
 1116SOL     OW 4246   4.754   0.010   6.172
 1116SOL    HW1 4247   4.726   6.970   6.096
 1116SOL    HW2 4248   4.675   0.031   6.229
 1117SOL     OW 4249   2.327   2.417   1.898
 1117SOL    HW1 4250   2.379   2.333   1.910
 1117SOL    HW2 4251   2.340   2.451   1.805
 1118SOL     OW 4252   2.579   4.600   0.037
 1118SOL    HW1 4253   2.649   4.664   0.068
 1118SOL    HW2 4254   2.622   4.516   0.006
 1119SOL     OW 4255   4.196   4.750   1.754
 1119SOL    HW1 4256   4.288   4.740   1.792
 1119SOL    HW2 4257   4.200   4.741   1.654
 1120SOL     OW 4258   6.055   6.155   0.075
 1120SOL    HW1 4259   6.025   6.222   0.143
 1120SOL    HW2 4260   6.139   6.188   0.032
 1121SOL     OW 4261   6.088   4.258   4.449
 1121SOL    HW1 4262   6.058   4.279   4.356
 1121SOL    HW2 4263   6.022   4.198   4.493
 1122SOL     OW 4264   5.609   2.283   0.984
 1122SOL    HW1 4265   5.688   2.259   0.928
 1122SOL    HW2 4266   5.525   2.269   0.931
 1123SOL     OW 4267   5.037   1.724   3.476
 1123SOL    HW1 4268   5.018   1.630   3.449
 1123SOL    HW2 4269   4.977   1.786   3.426
 1124SOL     OW 4270   0.040   3.447   5.369
 1124SOL    HW1 4271   0.086   3.475   5.284
 1124SOL    HW2 4272   0.003   3.355   5.358
 1125SOL     OW 4273   2.566   2.259   3.677
 1125SOL    HW1 4274   2.603   2.166   3.672
 1125SOL    HW2 4275   2.608   2.308   3.753
 1126SOL     OW 4276   5.482   4.802   0.423
 1126SOL    HW1 4277   5.414   4.731   0.403
 1126SOL    HW2 4278   5.455   4.887   0.377
 1127SOL     OW 4279   5.152   5.313   4.560
 1127SOL    HW1 4280   5.178   5.342   4.652
 1127SOL    HW2 4281   5.139   5.393   4.501
 1128SOL     OW 4282   5.789   1.821   5.492
 1128SOL    HW1 4283   5.759   1.832   5.587
 1128SOL    HW2 4284   5.858   1.749   5.487
 1129SOL     OW 4285   1.493   0.159   0.749
 1129SOL    HW1 4286   1.531   0.248   0.776
 1129SOL    HW2 4287   1.462   0.164   0.654
 1130SOL     OW 4288   2.915   4.853   0.407
 1130SOL    HW1 4289   2.892   4.759   0.381
 1130SOL    HW2 4290   2.836   4.895   0.452
 1131SOL     OW 4291   0.973   5.761   5.720
 1131SOL    HW1 4292   0.915   5.686   5.750
 1131SOL    HW2 4293   0.990   5.753   5.622
 1132SOL     OW 4294   5.418   6.774   2.102
 1132SOL    HW1 4295   5.352   6.723   2.157
 1132SOL    HW2 4296   5.371   6.845   2.051
 1133SOL     OW 4297   0.656   1.072   0.595
 1133SOL    HW1 4298   0.603   1.155   0.580
 1133SOL    HW2 4299   0.746   1.096   0.633
 1134SOL     OW 4300   5.201   0.268   2.626
 1134SOL    HW1 4301   5.243   0.338   2.684
 1134SOL    HW2 4302   5.209   0.178   2.670
 1135SOL     OW 4303   2.080   0.166   3.369
 1135SOL    HW1 4304   2.029   0.218   3.301
 1135SOL    HW2 4305   2.123   0.087   3.325
 1136SOL     OW 4306   4.384   4.884   2.869
 1136SOL    HW1 4307   4.385   4.942   2.788
 1136SOL    HW2 4308   4.417   4.792   2.846
 1137SOL     OW 4309   1.060   6.966   0.337
 1137SOL    HW1 4310   0.977   6.911   0.346
 1137SOL    HW2 4311   1.133   6.909   0.300
 1138SOL     OW 4312   6.894   0.809   6.027
 1138SOL    HW1 4313   6.831   0.766   6.092
 1138SOL    HW2 4314   6.944   0.883   6.073
 1139SOL     OW 4315   3.169   4.971   2.217
 1139SOL    HW1 4316   3.180   4.926   2.128
 1139SOL    HW2 4317   3.259   4.998   2.252
 1140SOL     OW 4318   2.833   0.972   2.001
 1140SOL    HW1 4319   2.880   1.038   2.059
 1140SOL    HW2 4320   2.847   0.879   2.037
 1141SOL     OW 4321   0.751   6.556   6.920
 1141SOL    HW1 4322   0.700   6.478   6.883
 1141SOL    HW2 4323   0.729   6.638   6.868
 1142SOL     OW 4324   3.015   6.658   4.480
 1142SOL    HW1 4325   2.972   6.730   4.426
 1142SOL    HW2 4326   3.074   6.699   4.549
 1143SOL     OW 4327   2.158   2.976   3.374
 1143SOL    HW1 4328   2.224   2.903   3.356
 1143SOL    HW2 4329   2.069   2.937   3.397
 1144SOL     OW 4330   6.266   4.756   4.354
 1144SOL    HW1 4331   6.182   4.756   4.407
 1144SOL    HW2 4332   6.309   4.847   4.362
 1145SOL     OW 4333   6.662   4.063   1.693
 1145SOL    HW1 4334   6.601   4.129   1.737
 1145SOL    HW2 4335   6.756   4.080   1.722
 1146SOL     OW 4336   6.978   0.778   2.879
 1146SOL    HW1 4337   6.883   0.753   2.900
 1146SOL    HW2 4338   0.021   0.716   2.928
 1147SOL     OW 4339   2.704   5.808   1.341
 1147SOL    HW1 4340   2.737   5.768   1.426
 1147SOL    HW2 4341   2.736   5.753   1.264
 1148SOL     OW 4342   4.428   5.948   0.615
 1148SOL    HW1 4343   4.374   5.882   0.564
 1148SOL    HW2 4344   4.423   6.037   0.570
 1149SOL     OW 4345   6.294   3.475   2.599
 1149SOL    HW1 4346   6.255   3.567   2.608
 1149SOL    HW2 4347   6.242   3.424   2.530
 1150SOL     OW 4348   1.520   3.731   0.481
 1150SOL    HW1 4349   1.530   3.636   0.451
 1150SOL    HW2 4350   1.424   3.758   0.473
 1151SOL     OW 4351   5.123   4.472   6.984
 1151SOL    HW1 4352   5.121   4.428   6.894
 1151SOL    HW2 4353   5.033   4.464   0.008
 1152SOL     OW 4354   5.423   5.245   6.956
 1152SOL    HW1 4355   5.342   5.278   6.908
 1152SOL    HW2 4356   5.465   5.170   6.904
 1153SOL     OW 4357   0.805   0.596   1.626
 1153SOL    HW1 4358   0.711   0.624   1.606
 1153SOL    HW2 4359   0.840   0.542   1.549
 1154SOL     OW 4360   6.543   4.301   1.536
 1154SOL    HW1 4361   6.641   4.287   1.526
 1154SOL    HW2 4362   6.509   4.354   1.459
 1155SOL     OW 4363   2.322   4.868   5.986
 1155SOL    HW1 4364   2.334   4.904   6.078
 1155SOL    HW2 4365   2.250   4.797   5.987
 1156SOL     OW 4366   4.735   1.591   4.799
 1156SOL    HW1 4367   4.819   1.629   4.837
 1156SOL    HW2 4368   4.750   1.495   4.775
 1157SOL     OW 4369   4.970   1.821   5.880
 1157SOL    HW1 4370   4.882   1.779   5.904
 1157SOL    HW2 4371   4.958   1.920   5.874
 1158SOL     OW 4372   6.868   4.922   5.621
 1158SOL    HW1 4373   6.927   5.002   5.631
 1158SOL    HW2 4374   6.876   4.864   5.702
 1159SOL     OW 4375   6.713   6.627   3.501
 1159SOL    HW1 4376   6.648   6.687   3.548
 1159SOL    HW2 4377   6.770   6.581   3.570
 1160SOL     OW 4378   5.186   4.724   1.237
 1160SOL    HW1 4379   5.256   4.793   1.217
 1160SOL    HW2 4380   5.095   4.764   1.227
 1161SOL     OW 4381   5.894   6.252   5.897
 1161SOL    HW1 4382   5.904   6.295   5.987
 1161SOL    HW2 4383   5.971   6.280   5.838
 1162SOL     OW 4384   3.454   2.779   6.746
 1162SOL    HW1 4385   3.473   2.798   6.650
 1162SOL    HW2 4386   3.415   2.860   6.789
 1163SOL     OW 4387   6.838   4.063   1.365
 1163SOL    HW1 4388   6.886   3.978   1.388
 1163SOL    HW2 4389   6.739   4.049   1.374
 1164SOL     OW 4390   6.225   3.197   4.386
 1164SOL    HW1 4391   6.163   3.217   4.461
 1164SOL    HW2 4392   6.173   3.165   4.307
 1165SOL     OW 4393   3.602   4.945   3.691
 1165SOL    HW1 4394   3.585   5.035   3.652
 1165SOL    HW2 4395   3.525   4.918   3.749
 1166SOL     OW 4396   3.765   6.977   0.014
 1166SOL    HW1 4397   3.730   6.888   7.003
 1166SOL    HW2 4398   3.850   6.998   6.985
 1167SOL     OW 4399   4.792   6.018   0.046
 1167SOL    HW1 4400   4.859   5.983   6.999
 1167SOL    HW2 4401   4.834   6.092   0.099
 1168SOL     OW 4402   5.184   2.403   2.910
 1168SOL    HW1 4403   5.217   2.490   2.871
 1168SOL    HW2 4404   5.092   2.385   2.877
 1169SOL     OW 4405   4.472   2.761   5.986
 1169SOL    HW1 4406   4.519   2.678   6.016
 1169SOL    HW2 4407   4.391   2.736   5.933
 1170SOL     OW 4408   5.223   0.065   2.807
 1170SOL    HW1 4409   5.234   7.016   2.735
 1170SOL    HW2 4410   5.155   0.034   2.873
 1171SOL     OW 4411   2.504   6.645   0.413
 1171SOL    HW1 4412   2.558   6.652   0.330
 1171SOL    HW2 4413   2.459   6.732   0.432
 1172SOL     OW 4414   3.343   4.253   1.437
 1172SOL    HW1 4415   3.278   4.302   1.495
 1172SOL    HW2 4416   3.296   4.178   1.390
 1173SOL     OW 4417   3.120   0.699   0.147
 1173SOL    HW1 4418   3.142   0.758   0.224
 1173SOL    HW2 4419   3.204   0.656   0.113
 1174SOL     OW 4420   2.795   5.120   1.333
 1174SOL    HW1 4421   2.865   5.164   1.389
 1174SOL    HW2 4422   2.813   5.021   1.329
 1175SOL     OW 4423   4.702   4.643   6.860
 1175SOL    HW1 4424   4.710   4.563   6.801
 1175SOL    HW2 4425   4.653   4.618   6.944
 1176SOL     OW 4426   6.113   4.137   6.468
 1176SOL    HW1 4427   6.129   4.039   6.485
 1176SOL    HW2 4428   6.085   4.181   6.554
 1177SOL     OW 4429   0.440   3.373   5.190
 1177SOL    HW1 4430   0.466   3.455   5.241
 1177SOL    HW2 4431   0.475   3.292   5.237
 1178SOL     OW 4432   3.591   4.320   0.651
 1178SOL    HW1 4433   3.619   4.385   0.581
 1178SOL    HW2 4434   3.563   4.370   0.734
 1179SOL     OW 4435   2.267   6.165   0.940
 1179SOL    HW1 4436   2.211   6.088   0.910
 1179SOL    HW2 4437   2.281   6.229   0.864
 1180SOL     OW 4438   2.606   6.048   4.658
 1180SOL    HW1 4439   2.568   5.993   4.732
 1180SOL    HW2 4440   2.628   5.990   4.580
 1181SOL     OW 4441   0.028   4.302   6.200
 1181SOL    HW1 4442   0.057   4.320   6.294
 1181SOL    HW2 4443   0.046   4.383   6.144
 1182SOL     OW 4444   3.760   5.206   3.234
 1182SOL    HW1 4445   3.850   5.189   3.193
 1182SOL    HW2 4446   3.766   5.191   3.333
 1183SOL     OW 4447   2.917   4.778   1.526
 1183SOL    HW1 4448   2.990   4.710   1.531
 1183SOL    HW2 4449   2.945   4.862   1.572
 1184SOL     OW 4450   0.124   1.420   5.158
 1184SOL    HW1 4451   0.131   1.337   5.214
 1184SOL    HW2 4452   0.031   1.456   5.164
 1185SOL     OW 4453   1.305   0.829   0.409
 1185SOL    HW1 4454   1.220   0.879   0.395
 1185SOL    HW2 4455   1.295   0.736   0.375
 1186SOL     OW 4456   4.902   6.299   5.178
 1186SOL    HW1 4457   4.885   6.289   5.080
 1186SOL    HW2 4458   4.889   6.210   5.223
 1187SOL     OW 4459   5.117   0.161   4.922
 1187SOL    HW1 4460   5.169   0.077   4.912
 1187SOL    HW2 4461   5.113   0.186   5.019
 1188SOL     OW 4462   2.454   5.422   6.106
 1188SOL    HW1 4463   2.456   5.333   6.151
 1188SOL    HW2 4464   2.506   5.418   6.021
 1189SOL     OW 4465   6.481   1.913   1.668
 1189SOL    HW1 4466   6.489   1.893   1.765
 1189SOL    HW2 4467   6.571   1.939   1.632
 1190SOL     OW 4468   3.005   5.877   2.959
 1190SOL    HW1 4469   2.934   5.861   3.027
 1190SOL    HW2 4470   2.967   5.863   2.867
 1191SOL     OW 4471   4.301   6.031   4.417
 1191SOL    HW1 4472   4.355   6.010   4.335
 1191SOL    HW2 4473   4.236   6.104   4.396
 1192SOL     OW 4474   5.170   5.252   3.335
 1192SOL    HW1 4475   5.198   5.301   3.418
 1192SOL    HW2 4476   5.071   5.261   3.323
 1193SOL     OW 4477   6.875   2.106   5.550
 1193SOL    HW1 4478   6.793   2.057   5.580
 1193SOL    HW2 4479   6.859   2.145   5.459
 1194SOL     OW 4480   6.335   1.089   1.724
 1194SOL    HW1 4481   6.398   1.075   1.800
 1194SOL    HW2 4482   6.385   1.119   1.644
 1195SOL     OW 4483   0.182   3.678   0.467
 1195SOL    HW1 4484   0.231   3.607   0.519
 1195SOL    HW2 4485   0.089   3.647   0.449
 1196SOL     OW 4486   6.878   5.063   3.518
 1196SOL    HW1 4487   6.893   4.980   3.571
 1196SOL    HW2 4488   6.812   5.122   3.567
 1197SOL     OW 4489   4.398   6.254   3.954
 1197SOL    HW1 4490   4.430   6.349   3.950
 1197SOL    HW2 4491   4.379   6.222   3.861
 1198SOL     OW 4492   1.807   3.664   2.045
 1198SOL    HW1 4493   1.717   3.659   2.002
 1198SOL    HW2 4494   1.852   3.575   2.039
 1199SOL     OW 4495   3.409   3.891   2.674
 1199SOL    HW1 4496   3.386   3.853   2.584
 1199SOL    HW2 4497   3.407   3.818   2.742
 1200SOL     OW 4498   2.976   3.991   4.839
 1200SOL    HW1 4499   2.936   3.941   4.915
 1200SOL    HW2 4500   2.923   4.074   4.820
 1201SOL     OW 4501   0.453   1.442   4.236
 1201SOL    HW1 4502   0.504   1.486   4.310
 1201SOL    HW2 4503   0.426   1.350   4.265
 1202SOL     OW 4504   0.464   6.019   5.618
 1202SOL    HW1 4505   0.434   6.017   5.714
 1202SOL    HW2 4506   0.387   5.994   5.559
 1203SOL     OW 4507   0.523   5.275   0.779
 1203SOL    HW1 4508   0.451   5.344   0.776
 1203SOL    HW2 4509   0.584   5.287   0.700
 1204SOL     OW 4510   4.584   1.557   1.331
 1204SOL    HW1 4511   4.590   1.457   1.331
 1204SOL    HW2 4512   4.489   1.585   1.327
 1205SOL     OW 4513   3.806   3.892   0.794
 1205SOL    HW1 4514   3.761   3.804   0.778
 1205SOL    HW2 4515   3.905   3.877   0.801
 1206SOL     OW 4516   2.138   2.779   5.758
 1206SOL    HW1 4517   2.177   2.704   5.704
 1206SOL    HW2 4518   2.042   2.759   5.778
 1207SOL     OW 4519   1.103   0.609   0.960
 1207SOL    HW1 4520   1.150   0.522   0.968
 1207SOL    HW2 4521   1.044   0.607   0.879
 1208SOL     OW 4522   3.359   3.567   1.656
 1208SOL    HW1 4523   3.378   3.508   1.734
 1208SOL    HW2 4524   3.391   3.524   1.572
 1209SOL     OW 4525   4.834   0.563   3.949
 1209SOL    HW1 4526   4.735   0.569   3.940
 1209SOL    HW2 4527   4.857   0.502   4.025
 1210SOL     OW 4528   3.767   6.471   3.742
 1210SOL    HW1 4529   3.769   6.490   3.643
 1210SOL    HW2 4530   3.710   6.391   3.759
 1211SOL     OW 4531   1.392   2.938   3.228
 1211SOL    HW1 4532   1.399   2.855   3.172
 1211SOL    HW2 4533   1.383   3.018   3.168
 1212SOL     OW 4534   6.664   0.191   5.902
 1212SOL    HW1 4535   6.632   0.285   5.908
 1212SOL    HW2 4536   6.720   0.169   5.982
 1213SOL     OW 4537   6.036   2.684   1.422
 1213SOL    HW1 4538   6.078   2.620   1.358
 1213SOL    HW2 4539   5.968   2.636   1.478
 1214SOL     OW 4540   0.944   3.141   0.073
 1214SOL    HW1 4541   0.973   3.215   0.012
 1214SOL    HW2 4542   1.025   3.103   0.119
 1215SOL     OW 4543   0.770   5.035   3.252
 1215SOL    HW1 4544   0.767   5.063   3.156
 1215SOL    HW2 4545   0.861   5.055   3.289
 1216SOL     OW 4546   5.451   1.061   0.479
 1216SOL    HW1 4547   5.551   1.061   0.483
 1216SOL    HW2 4548   5.414   1.119   0.551
 1217SOL     OW 4549   2.735   4.145   0.878
 1217SOL    HW1 4550   2.639   4.130   0.901
 1217SOL    HW2 4551   2.785   4.059   0.886
 1218SOL     OW 4552   1.627   3.130   5.056
 1218SOL    HW1 4553   1.672   3.175   4.979
 1218SOL    HW2 4554   1.655   3.034   5.060
 1219SOL     OW 4555   6.064   5.941   1.860
 1219SOL    HW1 4556   6.041   5.970   1.767
 1219SOL    HW2 4557   6.162   5.955   1.875
 1220SOL     OW 4558   0.828   4.632   2.285
 1220SOL    HW1 4559   0.921   4.665   2.268
 1220SOL    HW2 4560   0.831   4.558   2.352
 1221SOL     OW 4561   4.012   3.518   6.397
 1221SOL    HW1 4562   4.099   3.540   6.353
 1221SOL    HW2 4563   4.029   3.477   6.487
 1222SOL     OW 4564   6.814   1.372   6.663
 1222SOL    HW1 4565   6.910   1.368   6.692
 1222SOL    HW2 4566   6.807   1.343   6.567
 1223SOL     OW 4567   4.033   1.531   0.645
 1223SOL    HW1 4568   4.066   1.614   0.691
 1223SOL    HW2 4569   4.102   1.499   0.580
 1224SOL     OW 4570   3.314   5.748   0.308
 1224SOL    HW1 4571   3.266   5.778   0.226
 1224SOL    HW2 4572   3.276   5.795   0.388
 1225SOL     OW 4573   3.243   2.988   6.819
 1225SOL    HW1 4574   3.249   3.027   6.911
 1225SOL    HW2 4575   3.234   3.061   6.752
 1226SOL     OW 4576   2.933   6.922   1.363
 1226SOL    HW1 4577   3.033   6.918   1.359
 1226SOL    HW2 4578   2.904   7.013   1.394
 1227SOL     OW 4579   5.182   4.659   5.790
 1227SOL    HW1 4580   5.166   4.594   5.715
 1227SOL    HW2 4581   5.104   4.721   5.798
 1228SOL     OW 4582   2.788   2.331   6.229
 1228SOL    HW1 4583   2.863   2.322   6.295
 1228SOL    HW2 4584   2.781   2.248   6.174
 1229SOL     OW 4585   3.294   5.741   6.415
 1229SOL    HW1 4586   3.385   5.705   6.435
 1229SOL    HW2 4587   3.279   5.826   6.465
 1230SOL     OW 4588   5.226   6.429   1.923
 1230SOL    HW1 4589   5.280   6.431   2.008
 1230SOL    HW2 4590   5.203   6.522   1.896
 1231SOL     OW 4591   1.896   2.051   5.574
 1231SOL    HW1 4592   1.885   2.014   5.666
 1231SOL    HW2 4593   1.826   2.122   5.559
 1232SOL     OW 4594   0.134   2.059   5.661
 1232SOL    HW1 4595   0.049   2.084   5.615
 1232SOL    HW2 4596   0.212   2.099   5.612
 1233SOL     OW 4597   1.038   5.212   5.345
 1233SOL    HW1 4598   1.008   5.229   5.438
 1233SOL    HW2 4599   1.037   5.114   5.326
 1234SOL     OW 4600   6.326   2.917   6.198
 1234SOL    HW1 4601   6.379   2.919   6.283
 1234SOL    HW2 4602   6.365   2.982   6.133
 1235SOL     OW 4603   6.111   5.792   2.871
 1235SOL    HW1 4604   6.197   5.821   2.912
 1235SOL    HW2 4605   6.106   5.824   2.777
 1236SOL     OW 4606   4.604   0.875   0.344
 1236SOL    HW1 4607   4.686   0.931   0.338
 1236SOL    HW2 4608   4.576   0.867   0.440
 1237SOL     OW 4609   2.000   4.647   6.005
 1237SOL    HW1 4610   2.033   4.664   5.912
 1237SOL    HW2 4611   2.048   4.568   6.043
 1238SOL     OW 4612   1.111   0.814   0.161
 1238SOL    HW1 4613   1.202   0.787   0.131
 1238SOL    HW2 4614   1.046   0.742   0.139
 1239SOL     OW 4615   6.835   6.827   6.539
 1239SOL    HW1 4616   6.894   6.863   6.611
 1239SOL    HW2 4617   6.869   6.737   6.510
 1240SOL     OW 4618   5.348   6.267   0.708
 1240SOL    HW1 4619   5.437   6.235   0.675
 1240SOL    HW2 4620   5.321   6.214   0.788
 1241SOL     OW 4621   5.121   3.857   4.291
 1241SOL    HW1 4622   5.196   3.825   4.348
 1241SOL    HW2 4623   5.078   3.780   4.244
 1242SOL     OW 4624   0.632   3.922   1.279
 1242SOL    HW1 4625   0.570   3.901   1.355
 1242SOL    HW2 4626   0.697   3.846   1.267
 1243SOL     OW 4627   0.436   0.056   5.092
 1243SOL    HW1 4628   0.512   0.099   5.042
 1243SOL    HW2 4629   0.403   6.996   5.041
 1244SOL     OW 4630   5.753   6.794   4.532
 1244SOL    HW1 4631   5.664   6.781   4.576
 1244SOL    HW2 4632   5.825   6.766   4.596
 1245SOL     OW 4633   5.776   4.322   0.617
 1245SOL    HW1 4634   5.845   4.321   0.544
 1245SOL    HW2 4635   5.737   4.414   0.625
 1246SOL     OW 4636   2.846   0.384   1.192
 1246SOL    HW1 4637   2.818   0.396   1.287
 1246SOL    HW2 4638   2.765   0.379   1.133
 1247SOL     OW 4639   0.706   6.802   6.372
 1247SOL    HW1 4640   0.758   6.842   6.447
 1247SOL    HW2 4641   0.631   6.863   6.347
 1248SOL     OW 4642   2.163   0.141   5.083
 1248SOL    HW1 4643   2.086   0.192   5.044
 1248SOL    HW2 4644   2.148   0.043   5.070
 1249SOL     OW 4645   6.388   2.119   2.368
 1249SOL    HW1 4646   6.481   2.153   2.381
 1249SOL    HW2 4647   6.388   2.049   2.297
 1250SOL     OW 4648   6.329   5.434   3.762
 1250SOL    HW1 4649   6.422   5.448   3.730
 1250SOL    HW2 4650   6.307   5.501   3.833
 1251SOL     OW 4651   2.491   0.562   3.558
 1251SOL    HW1 4652   2.541   0.476   3.545
 1251SOL    HW2 4653   2.545   0.637   3.522
 1252SOL     OW 4654   4.592   2.975   6.271
 1252SOL    HW1 4655   4.584   2.996   6.368
 1252SOL    HW2 4656   4.502   2.979   6.228
 1253SOL     OW 4657   2.875   6.215   2.111
 1253SOL    HW1 4658   2.829   6.240   2.196
 1253SOL    HW2 4659   2.903   6.119   2.115
 1254SOL     OW 4660   1.239   2.595   2.709
 1254SOL    HW1 4661   1.208   2.555   2.795
 1254SOL    HW2 4662   1.318   2.543   2.675
 1255SOL     OW 4663   5.708   1.404   6.191
 1255SOL    HW1 4664   5.720   1.462   6.110
 1255SOL    HW2 4665   5.636   1.442   6.248
 1256SOL     OW 4666   6.982   6.688   3.041
 1256SOL    HW1 4667   6.992   6.786   3.059
 1256SOL    HW2 4668   6.940   6.643   3.120
 1257SOL     OW 4669   6.678   5.888   5.189
 1257SOL    HW1 4670   6.711   5.940   5.111
 1257SOL    HW2 4671   6.668   5.792   5.163
 1258SOL     OW 4672   1.918   4.774   3.169
 1258SOL    HW1 4673   1.841   4.837   3.166
 1258SOL    HW2 4674   1.928   4.729   3.080
 1259SOL     OW 4675   3.601   1.000   3.976
 1259SOL    HW1 4676   3.581   0.925   3.913
 1259SOL    HW2 4677   3.533   1.001   4.049
 1260SOL     OW 4678   2.394   1.848   0.159
 1260SOL    HW1 4679   2.469   1.872   0.098
 1260SOL    HW2 4680   2.336   1.928   0.174
 1261SOL     OW 4681   0.083   6.062   6.965
 1261SOL    HW1 4682   0.091   6.027   6.872
 1261SOL    HW2 4683   0.024   6.143   6.965
 1262SOL     OW 4684   6.229   4.549   1.231
 1262SOL    HW1 4685   6.328   4.558   1.240
 1262SOL    HW2 4686   6.202   4.454   1.246
 1263SOL     OW 4687   0.076   2.531   1.565
 1263SOL    HW1 4688   0.102   2.601   1.632
 1263SOL    HW2 4689   7.017   2.563   1.512
 1264SOL     OW 4690   0.325   4.484   1.093
 1264SOL    HW1 4691   0.326   4.441   1.003
 1264SOL    HW2 4692   0.310   4.414   1.163
 1265SOL     OW 4693   5.441   5.323   4.467
 1265SOL    HW1 4694   5.367   5.390   4.471
 1265SOL    HW2 4695   5.423   5.249   4.531
 1266SOL     OW 4696   0.362   1.622   4.021
 1266SOL    HW1 4697   0.435   1.616   3.953
 1266SOL    HW2 4698   0.381   1.556   4.095
 1267SOL     OW 4699   4.678   0.237   1.072
 1267SOL    HW1 4700   4.699   0.311   1.136
 1267SOL    HW2 4701   4.597   0.188   1.103
 1268SOL     OW 4702   2.748   2.111   0.608
 1268SOL    HW1 4703   2.743   2.186   0.675
 1268SOL    HW2 4704   2.706   2.141   0.522
 1269SOL     OW 4705   5.877   4.205   5.183
 1269SOL    HW1 4706   5.798   4.151   5.213
 1269SOL    HW2 4707   5.895   4.278   5.249
 1270SOL     OW 4708   1.416   3.139   3.702
 1270SOL    HW1 4709   1.451   3.047   3.715
 1270SOL    HW2 4710   1.418   3.188   3.789
 1271SOL     OW 4711   2.714   1.938   3.438
 1271SOL    HW1 4712   2.811   1.956   3.456
 1271SOL    HW2 4713   2.670   2.022   3.406
 1272SOL     OW 4714   6.047   4.506   6.646
 1272SOL    HW1 4715   6.016   4.419   6.682
 1272SOL    HW2 4716   6.144   4.499   6.621
 1273SOL     OW 4717   0.690   2.863   0.069
 1273SOL    HW1 4718   0.590   2.862   0.070
 1273SOL    HW2 4719   0.723   2.917   0.146
 1274SOL     OW 4720   6.872   4.598   1.584
 1274SOL    HW1 4721   6.849   4.500   1.581
 1274SOL    HW2 4722   6.879   4.627   1.679
 1275SOL     OW 4723   3.468   1.625   4.321
 1275SOL    HW1 4724   3.562   1.638   4.353
 1275SOL    HW2 4725   3.407   1.685   4.373
 1276SOL     OW 4726   6.356   5.708   5.394
 1276SOL    HW1 4727   6.406   5.735   5.477
 1276SOL    HW2 4728   6.421   5.685   5.322
 1277SOL     OW 4729   1.427   5.392   5.891
 1277SOL    HW1 4730   1.502   5.389   5.824
 1277SOL    HW2 4731   1.400   5.487   5.905
 1278SOL     OW 4732   0.880   6.919   4.967
 1278SOL    HW1 4733   0.905   6.976   5.046
 1278SOL    HW2 4734   0.815   6.849   4.995
 1279SOL     OW 4735   2.081   4.975   0.339
 1279SOL    HW1 4736   2.088   5.070   0.310
 1279SOL    HW2 4737   2.171   4.931   0.331
 1280SOL     OW 4738   4.041   6.005   4.105
 1280SOL    HW1 4739   3.961   5.950   4.083
 1280SOL    HW2 4740   4.117   5.979   4.045
 1281SOL     OW 4741   2.358   6.469   3.256
 1281SOL    HW1 4742   2.332   6.392   3.198
 1281SOL    HW2 4743   2.391   6.544   3.198
 1282SOL     OW 4744   6.571   2.437   0.133
 1282SOL    HW1 4745   6.670   2.426   0.123
 1282SOL    HW2 4746   6.535   2.367   0.194
 1283SOL     OW 4747   6.715   3.315   5.417
 1283SOL    HW1 4748   6.760   3.393   5.461
 1283SOL    HW2 4749   6.619   3.335   5.403
 1284SOL     OW 4750   4.921   2.170   1.309
 1284SOL    HW1 4751   4.876   2.259   1.314
 1284SOL    HW2 4752   4.948   2.140   1.400
 1285SOL     OW 4753   4.472   1.999   5.785
 1285SOL    HW1 4754   4.398   1.985   5.720
 1285SOL    HW2 4755   4.483   1.917   5.842
 1286SOL     OW 4756   4.165   3.934   1.787
 1286SOL    HW1 4757   4.134   3.936   1.883
 1286SOL    HW2 4758   4.217   3.851   1.770
 1287SOL     OW 4759   5.706   4.894   4.942
 1287SOL    HW1 4760   5.730   4.989   4.959
 1287SOL    HW2 4761   5.711   4.842   5.027
 1288SOL     OW 4762   4.102   3.158   0.010
 1288SOL    HW1 4763   4.057   3.245   0.029
 1288SOL    HW2 4764   4.043   3.082   0.040
 1289SOL     OW 4765   6.563   6.896   1.234
 1289SOL    HW1 4766   6.488   6.849   1.279
 1289SOL    HW2 4767   6.572   6.863   1.140
 1290SOL     OW 4768   0.937   6.619   0.078
 1290SOL    HW1 4769   0.960   6.550   0.147
 1290SOL    HW2 4770   0.870   6.581   0.014
 1291SOL     OW 4771   0.433   4.182   4.468
 1291SOL    HW1 4772   0.351   4.195   4.524
 1291SOL    HW2 4773   0.454   4.084   4.463
 1292SOL     OW 4774   0.469   6.019   2.212
 1292SOL    HW1 4775   0.556   5.986   2.174
 1292SOL    HW2 4776   0.438   6.098   2.159
 1293SOL     OW 4777   1.303   2.028   0.192
 1293SOL    HW1 4778   1.353   1.944   0.173
 1293SOL    HW2 4779   1.273   2.028   0.288
 1294SOL     OW 4780   0.466   3.756   6.458
 1294SOL    HW1 4781   0.416   3.687   6.510
 1294SOL    HW2 4782   0.555   3.772   6.502
 1295SOL     OW 4783   0.389   3.830   1.407
 1295SOL    HW1 4784   0.368   3.886   1.487
 1295SOL    HW2 4785   0.336   3.862   1.328
 1296SOL     OW 4786   3.730   6.449   5.389
 1296SOL    HW1 4787   3.769   6.389   5.319
 1296SOL    HW2 4788   3.683   6.525   5.344
 1297SOL     OW 4789   6.701   0.278   1.546
 1297SOL    HW1 4790   6.651   0.233   1.471
 1297SOL    HW2 4791   6.744   0.361   1.512
 1298SOL     OW 4792   5.663   5.376   3.530
 1298SOL    HW1 4793   5.649   5.369   3.629
 1298SOL    HW2 4794   5.593   5.436   3.491
 1299SOL     OW 4795   2.139   3.386   3.351
 1299SOL    HW1 4796   2.174   3.312   3.294
 1299SOL    HW2 4797   2.063   3.353   3.407
 1300SOL     OW 4798   1.790   3.083   0.595
 1300SOL    HW1 4799   1.752   3.002   0.550
 1300SOL    HW2 4800   1.842   3.056   0.675
 1301SOL     OW 4801   0.122   6.789   1.013
 1301SOL    HW1 4802   0.208   6.822   0.973
 1301SOL    HW2 4803   0.100   6.845   1.093
 1302SOL     OW 4804   4.326   0.438   5.777
 1302SOL    HW1 4805   4.340   0.359   5.718
 1302SOL    HW2 4806   4.414   0.485   5.791
 1303SOL     OW 4807   3.769   2.001   1.539
 1303SOL    HW1 4808   3.741   1.981   1.445
 1303SOL    HW2 4809   3.710   1.951   1.602
 1304SOL     OW 4810   1.934   0.812   6.880
 1304SOL    HW1 4811   1.934   0.784   6.784
 1304SOL    HW2 4812   1.893   0.740   6.935
 1305SOL     OW 4813   5.422   3.513   1.048
 1305SOL    HW1 4814   5.500   3.538   1.105
 1305SOL    HW2 4815   5.448   3.521   0.952
 1306SOL     OW 4816   1.036   5.691   3.803
 1306SOL    HW1 4817   0.975   5.768   3.788
 1306SOL    HW2 4818   1.015   5.648   3.891
 1307SOL     OW 4819   1.635   3.986   3.975
 1307SOL    HW1 4820   1.662   4.061   4.035
 1307SOL    HW2 4821   1.536   3.971   3.983
 1308SOL     OW 4822   6.451   0.265   5.297
 1308SOL    HW1 4823   6.469   0.282   5.394
 1308SOL    HW2 4824   6.537   0.244   5.250
 1309SOL     OW 4825   5.818   4.955   5.336
 1309SOL    HW1 4826   5.810   5.053   5.350
 1309SOL    HW2 4827   5.887   4.918   5.398
 1310SOL     OW 4828   6.310   3.975   4.130
 1310SOL    HW1 4829   6.344   4.057   4.083
 1310SOL    HW2 4830   6.249   4.002   4.205
 1311SOL     OW 4831   0.341   5.706   5.692
 1311SOL    HW1 4832   0.330   5.779   5.759
 1311SOL    HW2 4833   0.439   5.693   5.673
 1312SOL     OW 4834   1.058   6.622   6.787
 1312SOL    HW1 4835   1.051   6.716   6.752
 1312SOL    HW2 4836   1.014   6.616   6.876
 1313SOL     OW 4837   0.456   4.933   2.898
 1313SOL    HW1 4838   0.549   4.936   2.859
 1313SOL    HW2 4839   0.425   4.838   2.901
 1314SOL     OW 4840   4.547   1.341   5.209
 1314SOL    HW1 4841   4.566   1.310   5.302
 1314SOL    HW2 4842   4.562   1.440   5.204
 1315SOL     OW 4843   0.235   1.642   2.731
 1315SOL    HW1 4844   0.151   1.680   2.771
 1315SOL    HW2 4845   0.233   1.542   2.740
 1316SOL     OW 4846   2.894   6.526   6.166
 1316SOL    HW1 4847   2.817   6.462   6.173
 1316SOL    HW2 4848   2.860   6.619   6.176
 1317SOL     OW 4849   2.115   4.235   5.930
 1317SOL    HW1 4850   2.096   4.266   6.023
 1317SOL    HW2 4851   2.179   4.158   5.933
 1318SOL     OW 4852   1.079   2.304   1.016
 1318SOL    HW1 4853   1.121   2.381   0.968
 1318SOL    HW2 4854   1.107   2.306   1.113
 1319SOL     OW 4855   6.527   6.498   0.069
 1319SOL    HW1 4856   6.520   6.399   0.086
 1319SOL    HW2 4857   6.477   6.548   0.139
 1320SOL     OW 4858   3.888   4.550   6.704
 1320SOL    HW1 4859   3.853   4.620   6.767
 1320SOL    HW2 4860   3.813   4.488   6.678
 1321SOL     OW 4861   5.913   2.205   6.338
 1321SOL    HW1 4862   5.863   2.141   6.397
 1321SOL    HW2 4863   5.908   2.296   6.378
 1322SOL     OW 4864   3.460   1.451   3.655
 1322SOL    HW1 4865   3.442   1.377   3.721
 1322SOL    HW2 4866   3.551   1.489   3.673
 1323SOL     OW 4867   4.061   0.109   6.017
 1323SOL    HW1 4868   4.038   0.013   6.033
 1323SOL    HW2 4869   4.060   0.127   5.919
 1324SOL     OW 4870   0.673   3.690   6.995
 1324SOL    HW1 4871   0.633   3.680   0.067
 1324SOL    HW2 4872   0.676   3.787   6.970
 1325SOL     OW 4873   2.651   6.914   4.011
 1325SOL    HW1 4874   2.575   6.943   4.069
 1325SOL    HW2 4875   2.624   6.834   3.958
 1326SOL     OW 4876   4.834   3.403   5.340
 1326SOL    HW1 4877   4.777   3.407   5.422
 1326SOL    HW2 4878   4.784   3.442   5.263
 1327SOL     OW 4879   0.999   6.041   1.397
 1327SOL    HW1 4880   1.001   6.129   1.444
 1327SOL    HW2 4881   1.092   6.008   1.383
 1328SOL     OW 4882   2.189   3.348   1.426
 1328SOL    HW1 4883   2.094   3.351   1.457
 1328SOL    HW2 4884   2.192   3.358   1.327
 1329SOL     OW 4885   0.539   2.332   2.005
 1329SOL    HW1 4886   0.504   2.322   1.912
 1329SOL    HW2 4887   0.510   2.421   2.042
 1330SOL     OW 4888   0.617   0.986   1.919
 1330SOL    HW1 4889   0.679   0.970   1.842
 1330SOL    HW2 4890   0.567   1.071   1.905
 1331SOL     OW 4891   4.866   3.362   2.997
 1331SOL    HW1 4892   4.806   3.429   3.042
 1331SOL    HW2 4893   4.809   3.296   2.947
 1332SOL     OW 4894   2.703   0.132   6.975
 1332SOL    HW1 4895   2.803   0.141   6.973
 1332SOL    HW2 4896   2.666   0.156   6.885
 1333SOL     OW 4897   3.563   3.214   4.068
 1333SOL    HW1 4898   3.604   3.136   4.116
 1333SOL    HW2 4899   3.614   3.297   4.090
 1334SOL     OW 4900   6.108   1.776   4.179
 1334SOL    HW1 4901   6.067   1.719   4.251
 1334SOL    HW2 4902   6.164   1.719   4.120
 1335SOL     OW 4903   2.324   1.965   2.171
 1335SOL    HW1 4904   2.260   2.026   2.218
 1335SOL    HW2 4905   2.275   1.910   2.104
 1336SOL     OW 4906   2.352   2.527   5.381
 1336SOL    HW1 4907   2.368   2.603   5.317
 1336SOL    HW2 4908   2.353   2.441   5.331
 1337SOL     OW 4909   1.683   1.470   3.930
 1337SOL    HW1 4910   1.607   1.408   3.952
 1337SOL    HW2 4911   1.753   1.420   3.880
 1338SOL     OW 4912   5.716   2.489   5.095
 1338SOL    HW1 4913   5.739   2.392   5.098
 1338SOL    HW2 4914   5.686   2.513   5.003
 1339SOL     OW 4915   6.331   2.127   6.421
 1339SOL    HW1 4916   6.252   2.105   6.363
 1339SOL    HW2 4917   6.403   2.060   6.406
 1340SOL     OW 4918   6.283   2.217   3.123
 1340SOL    HW1 4919   6.322   2.134   3.083
 1340SOL    HW2 4920   6.184   2.217   3.109
 1341SOL     OW 4921   5.481   6.984   6.827
 1341SOL    HW1 4922   5.559   6.933   6.792
 1341SOL    HW2 4923   5.474   0.053   6.780
 1342SOL     OW 4924   2.927   6.057   5.843
 1342SOL    HW1 4925   2.924   6.064   5.743
 1342SOL    HW2 4926   2.888   5.969   5.871
 1343SOL     OW 4927   5.567   5.761   2.503
 1343SOL    HW1 4928   5.640   5.715   2.554
 1343SOL    HW2 4929   5.479   5.721   2.526
 1344SOL     OW 4930   0.198   6.051   4.579
 1344SOL    HW1 4931   0.130   6.089   4.642
 1344SOL    HW2 4932   0.160   5.971   4.533
 1345SOL     OW 4933   1.246   6.763   3.288
 1345SOL    HW1 4934   1.296   6.752   3.202
 1345SOL    HW2 4935   1.301   6.730   3.364
 1346SOL     OW 4936   0.869   5.477   4.536
 1346SOL    HW1 4937   0.835   5.550   4.595
 1346SOL    HW2 4938   0.965   5.496   4.512
 1347SOL     OW 4939   0.540   6.513   5.920
 1347SOL    HW1 4940   0.629   6.554   5.898
 1347SOL    HW2 4941   0.532   6.503   6.019
 1348SOL     OW 4942   5.724   6.258   3.622
 1348SOL    HW1 4943   5.691   6.196   3.692
 1348SOL    HW2 4944   5.824   6.260   3.624
 1349SOL     OW 4945   4.678   2.560   5.546
 1349SOL    HW1 4946   4.705   2.493   5.477
 1349SOL    HW2 4947   4.693   2.652   5.511
 1350SOL     OW 4948   5.265   5.370   5.831
 1350SOL    HW1 4949   5.310   5.298   5.778
 1350SOL    HW2 4950   5.321   5.453   5.827
 1351SOL     OW 4951   5.528   2.068   3.145
 1351SOL    HW1 4952   5.466   2.026   3.212
 1351SOL    HW2 4953   5.482   2.145   3.101
 1352SOL     OW 4954   6.848   6.463   2.921
 1352SOL    HW1 4955   6.917   6.527   2.951
 1352SOL    HW2 4956   6.882   6.412   2.841
 1353SOL     OW 4957   0.192   2.190   0.549
 1353SOL    HW1 4958   0.267   2.250   0.577
 1353SOL    HW2 4959   0.108   2.243   0.541
 1354SOL     OW 4960   1.100   4.144   1.970
 1354SOL    HW1 4961   1.113   4.233   2.012
 1354SOL    HW2 4962   1.027   4.094   2.017
 1355SOL     OW 4963   5.605   2.627   4.040
 1355SOL    HW1 4964   5.616   2.694   4.113
 1355SOL    HW2 4965   5.677   2.558   4.048
 1356SOL     OW 4966   3.563   3.563   2.313
 1356SOL    HW1 4967   3.545   3.475   2.269
 1356SOL    HW2 4968   3.647   3.603   2.277
 1357SOL     OW 4969   0.699   3.411   6.012
 1357SOL    HW1 4970   0.669   3.450   6.099
 1357SOL    HW2 4971   0.798   3.421   6.003
 1358SOL     OW 4972   3.852   6.442   6.309
 1358SOL    HW1 4973   3.804   6.521   6.270
 1358SOL    HW2 4974   3.882   6.464   6.402
 1359SOL     OW 4975   5.886   4.987   2.495
 1359SOL    HW1 4976   5.973   5.033   2.477
 1359SOL    HW2 4977   5.824   5.050   2.541
 1360SOL     OW 4978   3.050   3.159   0.363
 1360SOL    HW1 4979   3.050   3.223   0.441
 1360SOL    HW2 4980   3.019   3.207   0.281
 1361SOL     OW 4981   6.329   5.176   5.626
 1361SOL    HW1 4982   6.328   5.261   5.678
 1361SOL    HW2 4983   6.293   5.192   5.534
 1362SOL     OW 4984   3.042   3.913   3.354
 1362SOL    HW1 4985   3.063   3.848   3.281
 1362SOL    HW2 4986   3.006   3.997   3.315
 1363SOL     OW 4987   6.770   5.304   2.898
 1363SOL    HW1 4988   6.866   5.334   2.895
 1363SOL    HW2 4989   6.710   5.384   2.893
 1364SOL     OW 4990   6.586   4.055   1.018
 1364SOL    HW1 4991   6.606   4.123   1.089
 1364SOL    HW2 4992   6.534   3.980   1.058
 1365SOL     OW 4993   0.773   3.970   6.106
 1365SOL    HW1 4994   0.681   4.008   6.115
 1365SOL    HW2 4995   0.840   4.044   6.099
 1366SOL     OW 4996   1.172   4.923   0.249
 1366SOL    HW1 4997   1.169   4.992   0.176
 1366SOL    HW2 4998   1.262   4.879   0.248
 1367SOL     OW 4999   1.617   0.481   3.367
 1367SOL    HW1 5000   1.646   0.397   3.322
 1367SOL    HW2 5001   1.655   0.560   3.318
 1368SOL     OW 5002   5.782   0.630   3.391
 1368SOL    HW1 5003   5.700   0.684   3.375
 1368SOL    HW2 5004   5.792   0.562   3.319
 1369SOL     OW 5005   2.561   6.723   1.502
 1369SOL    HW1 5006   2.502   6.797   1.470
 1369SOL    HW2 5007   2.645   6.761   1.540
 1370SOL     OW 5008   3.583   0.513   0.889
 1370SOL    HW1 5009   3.549   0.480   0.801
 1370SOL    HW2 5010   3.546   0.604   0.908
 1371SOL     OW 5011   6.003   2.074   4.463
 1371SOL    HW1 5012   6.090   2.122   4.477
 1371SOL    HW2 5013   6.020   1.975   4.462
 1372SOL     OW 5014   1.567   3.099   0.299
 1372SOL    HW1 5015   1.551   3.166   0.227
 1372SOL    HW2 5016   1.495   3.029   0.295
 1373SOL     OW 5017   5.557   3.053   0.197
 1373SOL    HW1 5018   5.569   3.081   0.102
 1373SOL    HW2 5019   5.538   2.954   0.200
 1374SOL     OW 5020   4.726   1.999   0.026
 1374SOL    HW1 5021   4.819   1.994   0.063
 1374SOL    HW2 5022   4.729   1.987   6.946
 1375SOL     OW 5023   0.043   3.672   6.231
 1375SOL    HW1 5024   0.096   3.645   6.150
 1375SOL    HW2 5025   0.008   3.590   6.276
 1376SOL     OW 5026   4.632   4.411   4.621
 1376SOL    HW1 5027   4.630   4.312   4.634
 1376SOL    HW2 5028   4.725   4.445   4.635
 1377SOL     OW 5029   6.736   4.043   6.050
 1377SOL    HW1 5030   6.827   4.048   6.091
 1377SOL    HW2 5031   6.705   4.134   6.024
 1378SOL     OW 5032   6.195   0.858   4.612
 1378SOL    HW1 5033   6.109   0.902   4.640
 1378SOL    HW2 5034   6.272   0.916   4.636
 1379SOL     OW 5035   3.077   6.774   2.704
 1379SOL    HW1 5036   3.020   6.810   2.631
 1379SOL    HW2 5037   3.156   6.726   2.664
 1380SOL     OW 5038   0.358   0.227   2.670
 1380SOL    HW1 5039   0.449   0.233   2.712
 1380SOL    HW2 5040   0.342   0.308   2.614
 1381SOL     OW 5041   5.792   2.137   0.131
 1381SOL    HW1 5042   5.755   2.137   0.038
 1381SOL    HW2 5043   5.818   2.230   0.155
 1382SOL     OW 5044   4.587   4.661   0.589
 1382SOL    HW1 5045   4.572   4.661   0.491
 1382SOL    HW2 5046   4.675   4.705   0.610
 1383SOL     OW 5047   0.992   6.934   1.187
 1383SOL    HW1 5048   1.074   6.987   1.164
 1383SOL    HW2 5049   0.967   6.952   1.282
 1384SOL     OW 5050   3.924   0.295   2.425
 1384SOL    HW1 5051   4.012   0.336   2.445
 1384SOL    HW2 5052   3.850   0.356   2.455
 1385SOL     OW 5053   1.258   3.560   3.378
 1385SOL    HW1 5054   1.174   3.544   3.326
 1385SOL    HW2 5055   1.238   3.619   3.457
 1386SOL     OW 5056   2.439   1.286   4.692
 1386SOL    HW1 5057   2.415   1.191   4.670
 1386SOL    HW2 5058   2.356   1.342   4.694
 1387SOL     OW 5059   4.018   6.345   2.862
 1387SOL    HW1 5060   4.105   6.393   2.874
 1387SOL    HW2 5061   3.962   6.394   2.795
 1388SOL     OW 5062   0.061   6.433   3.307
 1388SOL    HW1 5063   0.125   6.507   3.286
 1388SOL    HW2 5064   0.101   6.346   3.282
 1389SOL     OW 5065   0.295   0.905   4.049
 1389SOL    HW1 5066   0.262   0.977   4.111
 1389SOL    HW2 5067   0.218   0.849   4.019
 1390SOL     OW 5068   4.687   2.314   6.210
 1390SOL    HW1 5069   4.744   2.279   6.135
 1390SOL    HW2 5070   4.602   2.352   6.173
 1391SOL     OW 5071   6.428   0.731   5.271
 1391SOL    HW1 5072   6.489   0.800   5.231
 1391SOL    HW2 5073   6.339   0.772   5.290
 1392SOL     OW 5074   5.301   5.844   6.232
 1392SOL    HW1 5075   5.244   5.925   6.226
 1392SOL    HW2 5076   5.395   5.871   6.253
 1393SOL     OW 5077   6.079   3.893   6.231
 1393SOL    HW1 5078   6.162   3.915   6.282
 1393SOL    HW2 5079   6.095   3.905   6.133
 1394SOL     OW 5080   4.092   6.464   3.355
 1394SOL    HW1 5081   4.116   6.368   3.338
 1394SOL    HW2 5082   4.030   6.495   3.283
 1395SOL     OW 5083   1.425   4.113   3.432
 1395SOL    HW1 5084   1.500   4.056   3.465
 1395SOL    HW2 5085   1.387   4.165   3.508
 1396SOL     OW 5086   1.330   6.777   3.886
 1396SOL    HW1 5087   1.231   6.787   3.897
 1396SOL    HW2 5088   1.376   6.859   3.918
 1397SOL     OW 5089   0.353   5.964   4.353
 1397SOL    HW1 5090   0.297   5.885   4.330
 1397SOL    HW2 5091   0.298   6.030   4.404
 1398SOL     OW 5092   1.332   1.489   6.487
 1398SOL    HW1 5093   1.403   1.506   6.555
 1398SOL    HW2 5094   1.327   1.391   6.469
 1399SOL     OW 5095   4.451   0.554   0.120
 1399SOL    HW1 5096   4.459   0.563   0.021
 1399SOL    HW2 5097   4.535   0.588   0.164
 1400SOL     OW 5098   6.745   2.175   4.371
 1400SOL    HW1 5099   6.755   2.153   4.274
 1400SOL    HW2 5100   6.701   2.099   4.418
 1401SOL     OW 5101   6.539   6.393   4.684
 1401SOL    HW1 5102   6.452   6.439   4.668
 1401SOL    HW2 5103   6.592   6.391   4.599
 1402SOL     OW 5104   5.746   4.146   6.907
 1402SOL    HW1 5105   5.756   4.047   6.909
 1402SOL    HW2 5106   5.650   4.171   6.897
 1403SOL     OW 5107   2.239   2.330   0.875
 1403SOL    HW1 5108   2.246   2.384   0.959
 1403SOL    HW2 5109   2.313   2.263   0.872
 1404SOL     OW 5110   5.589   0.018   0.356
 1404SOL    HW1 5111   5.565   0.058   0.267
 1404SOL    HW2 5112   5.567   0.084   0.428
 1405SOL     OW 5113   2.743   3.453   0.368
 1405SOL    HW1 5114   2.767   3.543   0.405
 1405SOL    HW2 5115   2.658   3.422   0.410
 1406SOL     OW 5116   1.968   5.106   0.696
 1406SOL    HW1 5117   2.052   5.129   0.646
 1406SOL    HW2 5118   1.935   5.017   0.666
 1407SOL     OW 5119   1.667   3.821   3.341
 1407SOL    HW1 5120   1.733   3.747   3.332
 1407SOL    HW2 5121   1.581   3.795   3.297
 1408SOL     OW 5122   5.399   6.747   6.718
 1408SOL    HW1 5123   5.426   6.842   6.731
 1408SOL    HW2 5124   5.411   6.697   6.804
 1409SOL     OW 5125   0.039   1.155   4.889
 1409SOL    HW1 5126   0.073   1.072   4.844
 1409SOL    HW2 5127   0.070   1.157   4.984
 1410SOL     OW 5128   3.476   3.772   0.375
 1410SOL    HW1 5129   3.565   3.772   0.419
 1410SOL    HW2 5130   3.405   3.794   0.442
 1411SOL     OW 5131   3.746   6.181   6.302
 1411SOL    HW1 5132   3.798   6.265   6.298
 1411SOL    HW2 5133   3.795   6.113   6.356
 1412SOL     OW 5134   0.630   4.573   1.775
 1412SOL    HW1 5135   0.625   4.567   1.875
 1412SOL    HW2 5136   0.722   4.548   1.745
 1413SOL     OW 5137   1.417   1.746   4.391
 1413SOL    HW1 5138   1.410   1.657   4.345
 1413SOL    HW2 5139   1.367   1.815   4.338
 1414SOL     OW 5140   1.750   2.480   1.660
 1414SOL    HW1 5141   1.662   2.433   1.660
 1414SOL    HW2 5142   1.811   2.439   1.593
 1415SOL     OW 5143   3.086   1.747   4.008
 1415SOL    HW1 5144   3.131   1.827   4.047
 1415SOL    HW2 5145   3.096   1.748   3.909
 1416SOL     OW 5146   4.048   0.597   4.214
 1416SOL    HW1 5147   4.123   0.549   4.261
 1416SOL    HW2 5148   4.076   0.618   4.120
 1417SOL     OW 5149   3.367   2.931   6.196
 1417SOL    HW1 5150   3.380   2.918   6.098
 1417SOL    HW2 5151   3.278   2.894   6.223
 1418SOL     OW 5152   3.180   3.606   0.198
 1418SOL    HW1 5153   3.236   3.526   0.220
 1418SOL    HW2 5154   3.085   3.577   0.183
 1419SOL     OW 5155   2.051   5.538   4.195
 1419SOL    HW1 5156   2.074   5.511   4.288
 1419SOL    HW2 5157   2.026   5.456   4.142
 1420SOL     OW 5158   3.385   5.311   2.517
 1420SOL    HW1 5159   3.342   5.223   2.494
 1420SOL    HW2 5160   3.444   5.340   2.442
 1421SOL     OW 5161   1.420   4.224   4.230
 1421SOL    HW1 5162   1.435   4.135   4.274
 1421SOL    HW2 5163   1.446   4.218   4.134
 1422SOL     OW 5164   3.347   4.565   5.740
 1422SOL    HW1 5165   3.267   4.624   5.752
 1422SOL    HW2 5166   3.319   4.481   5.694
 1423SOL     OW 5167   3.670   1.427   5.226
 1423SOL    HW1 5168   3.681   1.525   5.211
 1423SOL    HW2 5169   3.577   1.399   5.201
 1424SOL     OW 5170   6.535   3.748   0.107
 1424SOL    HW1 5171   6.446   3.778   0.074
 1424SOL    HW2 5172   6.596   3.826   0.117
 1425SOL     OW 5173   2.289   5.736   5.239
 1425SOL    HW1 5174   2.371   5.726   5.183
 1425SOL    HW2 5175   2.304   5.805   5.309
 1426SOL     OW 5176   1.945   1.739   6.132
 1426SOL    HW1 5177   1.853   1.701   6.117
 1426SOL    HW2 5178   1.937   1.835   6.159
 1427SOL     OW 5179   0.115   0.364   3.854
 1427SOL    HW1 5180   0.125   0.424   3.934
 1427SOL    HW2 5181   0.154   0.408   3.774
 1428SOL     OW 5182   6.984   1.921   2.157
 1428SOL    HW1 5183   6.966   2.016   2.134
 1428SOL    HW2 5184   0.041   1.886   2.103
 1429SOL     OW 5185   5.721   1.497   0.085
 1429SOL    HW1 5186   5.689   1.405   0.064
 1429SOL    HW2 5187   5.766   1.536   0.004
 1430SOL     OW 5188   2.195   3.835   4.336
 1430SOL    HW1 5189   2.156   3.825   4.245
 1430SOL    HW2 5190   2.255   3.916   4.338
 1431SOL     OW 5191   2.528   2.322   6.669
 1431SOL    HW1 5192   2.541   2.328   6.570
 1431SOL    HW2 5193   2.455   2.385   6.696
 1432SOL     OW 5194   2.066   1.005   1.571
 1432SOL    HW1 5195   1.989   0.980   1.630
 1432SOL    HW2 5196   2.034   1.065   1.498
 1433SOL     OW 5197   4.060   6.577   4.100
 1433SOL    HW1 5198   4.076   6.506   4.032
 1433SOL    HW2 5199   4.031   6.536   4.186
 1434SOL     OW 5200   6.700   1.186   6.447
 1434SOL    HW1 5201   6.661   1.257   6.388
 1434SOL    HW2 5202   6.794   1.167   6.419
 1435SOL     OW 5203   6.674   0.820   3.707
 1435SOL    HW1 5204   6.618   0.863   3.778
 1435SOL    HW2 5205   6.617   0.755   3.655
 1436SOL     OW 5206   5.866   3.602   0.233
 1436SOL    HW1 5207   5.879   3.577   0.329
 1436SOL    HW2 5208   5.802   3.678   0.227
 1437SOL     OW 5209   3.072   0.592   5.470
 1437SOL    HW1 5210   3.020   0.655   5.413
 1437SOL    HW2 5211   3.148   0.640   5.513
 1438SOL     OW 5212   3.076   0.619   1.770
 1438SOL    HW1 5213   3.059   0.578   1.859
 1438SOL    HW2 5214   3.144   0.692   1.779
 1439SOL     OW 5215   0.755   5.195   0.987
 1439SOL    HW1 5216   0.679   5.238   0.938
 1439SOL    HW2 5217   0.829   5.262   0.997
 1440SOL     OW 5218   3.767   3.386   4.913
 1440SOL    HW1 5219   3.787   3.406   5.009
 1440SOL    HW2 5220   3.712   3.303   4.907
 1441SOL     OW 5221   6.354   3.541   4.054
 1441SOL    HW1 5222   6.327   3.454   4.094
 1441SOL    HW2 5223   6.426   3.583   4.109
 1442SOL     OW 5224   6.715   4.698   0.329
 1442SOL    HW1 5225   6.666   4.726   0.246
 1442SOL    HW2 5226   6.649   4.672   0.400
 1443SOL     OW 5227   0.857   2.438   4.418
 1443SOL    HW1 5228   0.890   2.369   4.354
 1443SOL    HW2 5229   0.912   2.521   4.409
 1444SOL     OW 5230   4.343   6.379   1.914
 1444SOL    HW1 5231   4.249   6.396   1.885
 1444SOL    HW2 5232   4.359   6.423   2.002
 1445SOL     OW 5233   0.386   2.594   2.555
 1445SOL    HW1 5234   0.433   2.679   2.580
 1445SOL    HW2 5235   0.380   2.587   2.456
 1446SOL     OW 5236   5.141   2.359   6.326
 1446SOL    HW1 5237   5.069   2.420   6.294
 1446SOL    HW2 5238   5.103   2.269   6.346
 1447SOL     OW 5239   6.478   0.074   4.795
 1447SOL    HW1 5240   6.515   0.165   4.776
 1447SOL    HW2 5241   6.549   0.006   4.779
 1448SOL     OW 5242   6.241   2.460   0.306
 1448SOL    HW1 5243   6.201   2.386   0.250
 1448SOL    HW2 5244   6.327   2.429   0.346
 1449SOL     OW 5245   6.161   0.115   6.768
 1449SOL    HW1 5246   6.150   0.188   6.836
 1449SOL    HW2 5247   6.092   0.126   6.696
 1450SOL     OW 5248   0.076   2.416   2.356
 1450SOL    HW1 5249   7.017   2.471   2.326
 1450SOL    HW2 5250   0.063   2.389   2.451
 1451SOL     OW 5251   3.231   0.545   2.021
 1451SOL    HW1 5252   3.180   0.568   2.104
 1451SOL    HW2 5253   3.290   0.621   1.996
 1452SOL     OW 5254   4.915   2.494   4.606
 1452SOL    HW1 5255   4.874   2.431   4.540
 1452SOL    HW2 5256   4.852   2.510   4.681
 1453SOL     OW 5257   6.573   3.860   5.186
 1453SOL    HW1 5258   6.551   3.826   5.095
 1453SOL    HW2 5259   6.500   3.922   5.217
 1454SOL     OW 5260   6.163   2.565   2.316
 1454SOL    HW1 5261   6.063   2.558   2.315
 1454SOL    HW2 5262   6.203   2.473   2.322
 1455SOL     OW 5263   1.740   0.682   1.757
 1455SOL    HW1 5264   1.723   0.635   1.670
 1455SOL    HW2 5265   1.666   0.747   1.775
 1456SOL     OW 5266   6.308   0.062   5.418
 1456SOL    HW1 5267   6.365   0.137   5.383
 1456SOL    HW2 5268   6.219   0.064   5.373
 1457SOL     OW 5269   1.477   0.332   1.585
 1457SOL    HW1 5270   1.424   0.251   1.561
 1457SOL    HW2 5271   1.467   0.351   1.682
 1458SOL     OW 5272   4.859   6.231   4.190
 1458SOL    HW1 5273   4.830   6.318   4.150
 1458SOL    HW2 5274   4.894   6.248   4.282
 1459SOL     OW 5275   3.087   4.589   6.211
 1459SOL    HW1 5276   3.170   4.543   6.179
 1459SOL    HW2 5277   3.079   4.578   6.310
 1460SOL     OW 5278   0.349   5.151   6.024
 1460SOL    HW1 5279   0.365   5.214   6.100
 1460SOL    HW2 5280   0.437   5.114   5.993
 1461SOL     OW 5281   0.478   4.657   3.494
 1461SOL    HW1 5282   0.524   4.610   3.569
 1461SOL    HW2 5283   0.448   4.748   3.524
 1462SOL     OW 5284   6.699   1.133   6.052
 1462SOL    HW1 5285   6.774   1.101   6.109
 1462SOL    HW2 5286   6.654   1.055   6.009
 1463SOL     OW 5287   6.992   5.809   6.283
 1463SOL    HW1 5288   6.936   5.832   6.203
 1463SOL    HW2 5289   0.011   5.718   6.272
 1464SOL     OW 5290   6.393   6.591   0.940
 1464SOL    HW1 5291   6.420   6.548   0.854
 1464SOL    HW2 5292   6.459   6.568   1.011
 1465SOL     OW 5293   1.605   2.041   2.675
 1465SOL    HW1 5294   1.505   2.052   2.671
 1465SOL    HW2 5295   1.634   1.977   2.604
 1466SOL     OW 5296   1.196   0.602   2.715
 1466SOL    HW1 5297   1.240   0.587   2.627
 1466SOL    HW2 5298   1.162   0.696   2.719
 1467SOL     OW 5299   2.134   1.392   1.777
 1467SOL    HW1 5300   2.232   1.389   1.796
 1467SOL    HW2 5301   2.089   1.454   1.841
 1468SOL     OW 5302   5.040   5.486   2.728
 1468SOL    HW1 5303   5.078   5.433   2.652
 1468SOL    HW2 5304   5.086   5.574   2.734
 1469SOL     OW 5305   1.103   0.381   2.445
 1469SOL    HW1 5306   1.202   0.389   2.451
 1469SOL    HW2 5307   1.077   0.285   2.457
 1470SOL     OW 5308   1.623   1.328   2.706
 1470SOL    HW1 5309   1.723   1.336   2.705
 1470SOL    HW2 5310   1.585   1.376   2.627
 1471SOL     OW 5311   0.383   0.780   0.635
 1471SOL    HW1 5312   0.478   0.773   0.666
 1471SOL    HW2 5313   0.325   0.720   0.690
 1472SOL     OW 5314   4.322   5.483   4.856
 1472SOL    HW1 5315   4.263   5.435   4.792
 1472SOL    HW2 5316   4.394   5.422   4.888
 1473SOL     OW 5317   5.818   6.051   4.133
 1473SOL    HW1 5318   5.875   6.061   4.051
 1473SOL    HW2 5319   5.795   6.142   4.169
 1474SOL     OW 5320   6.409   6.041   3.917
 1474SOL    HW1 5321   6.500   6.056   3.877
 1474SOL    HW2 5322   6.339   6.074   3.854
 1475SOL     OW 5323   6.360   0.345   1.344
 1475SOL    HW1 5324   6.370   0.421   1.280
 1475SOL    HW2 5325   6.267   0.309   1.341
 1476SOL     OW 5326   1.438   1.479   0.857
 1476SOL    HW1 5327   1.455   1.553   0.922
 1476SOL    HW2 5328   1.381   1.409   0.901
 1477SOL     OW 5329   2.441   0.290   6.501
 1477SOL    HW1 5330   2.440   0.389   6.486
 1477SOL    HW2 5331   2.346   0.257   6.506
 1478SOL     OW 5332   5.449   4.440   0.176
 1478SOL    HW1 5333   5.473   4.360   0.121
 1478SOL    HW2 5334   5.525   4.504   0.177
 1479SOL     OW 5335   1.538   3.416   0.040
 1479SOL    HW1 5336   1.586   3.335   0.007
 1479SOL    HW2 5337   1.604   3.482   0.075
 1480SOL     OW 5338   2.530   6.925   6.922
 1480SOL    HW1 5339   2.536   0.004   6.938
 1480SOL    HW2 5340   2.582   6.901   6.839
 1481SOL     OW 5341   6.967   2.283   4.903
 1481SOL    HW1 5342   6.892   2.227   4.870
 1481SOL    HW2 5343   6.981   2.361   4.842
 1482SOL     OW 5344   5.174   2.159   1.198
 1482SOL    HW1 5345   5.197   2.084   1.135
 1482SOL    HW2 5346   5.075   2.170   1.202
 1483SOL     OW 5347   6.837   2.636   6.248
 1483SOL    HW1 5348   6.889   2.557   6.216
 1483SOL    HW2 5349   6.740   2.621   6.230
 1484SOL     OW 5350   5.944   4.562   4.077
 1484SOL    HW1 5351   5.990   4.619   4.008
 1484SOL    HW2 5352   5.981   4.583   4.167
 1485SOL     OW 5353   3.812   2.114   2.547
 1485SOL    HW1 5354   3.787   2.140   2.454
 1485SOL    HW2 5355   3.756   2.037   2.576
 1486SOL     OW 5356   4.866   2.625   2.861
 1486SOL    HW1 5357   4.904   2.539   2.828
 1486SOL    HW2 5358   4.772   2.635   2.828
 1487SOL     OW 5359   6.752   2.765   6.872
 1487SOL    HW1 5360   6.775   2.778   6.969
 1487SOL    HW2 5361   6.681   2.696   6.864
 1488SOL     OW 5362   5.984   2.029   3.112
 1488SOL    HW1 5363   5.973   1.936   3.146
 1488SOL    HW2 5364   5.915   2.088   3.153
 1489SOL     OW 5365   4.174   5.228   4.121
 1489SOL    HW1 5366   4.263   5.249   4.162
 1489SOL    HW2 5367   4.116   5.309   4.124
 1490SOL     OW 5368   1.351   3.176   1.499
 1490SOL    HW1 5369   1.447   3.147   1.489
 1490SOL    HW2 5370   1.318   3.150   1.589
 1491SOL     OW 5371   6.065   3.467   3.817
 1491SOL    HW1 5372   6.034   3.556   3.852
 1491SOL    HW2 5373   6.117   3.481   3.733
 1492SOL     OW 5374   5.815   1.787   2.043
 1492SOL    HW1 5375   5.755   1.779   2.123
 1492SOL    HW2 5376   5.909   1.764   2.068
 1493SOL     OW 5377   5.098   0.241   4.342
 1493SOL    HW1 5378   5.169   0.237   4.414
 1493SOL    HW2 5379   5.008   0.227   4.384
 1494SOL     OW 5380   4.207   2.552   6.052
 1494SOL    HW1 5381   4.229   2.587   6.143
 1494SOL    HW2 5382   4.179   2.628   5.993
 1495SOL     OW 5383   0.612   3.108   4.265
 1495SOL    HW1 5384   0.692   3.159   4.297
 1495SOL    HW2 5385   0.559   3.077   4.343
 1496SOL     OW 5386   1.132   1.426   2.526
 1496SOL    HW1 5387   1.229   1.446   2.545
 1496SOL    HW2 5388   1.085   1.409   2.613
 1497SOL     OW 5389   0.745   3.470   2.704
 1497SOL    HW1 5390   0.782   3.435   2.790
 1497SOL    HW2 5391   0.802   3.546   2.672
 1498SOL     OW 5392   1.488   4.607   6.254
 1498SOL    HW1 5393   1.521   4.588   6.346
 1498SOL    HW2 5394   1.399   4.563   6.241
 1499SOL     OW 5395   1.262   3.395   5.524
 1499SOL    HW1 5396   1.190   3.337   5.487
 1499SOL    HW2 5397   1.282   3.469   5.459
 1500SOL     OW 5398   5.765   6.558   6.701
 1500SOL    HW1 5399   5.827   6.566   6.623
 1500SOL    HW2 5400   5.772   6.640   6.757
 1501SOL     OW 5401   4.556   1.453   6.805
 1501SOL    HW1 5402   4.620   1.529   6.815
 1501SOL    HW2 5403   4.469   1.477   6.846
 1502SOL     OW 5404   5.748   0.057   1.299
 1502SOL    HW1 5405   5.680   0.073   1.371
 1502SOL    HW2 5406   5.809   0.136   1.294
 1503SOL     OW 5407   2.714   1.266   2.128
 1503SOL    HW1 5408   2.801   1.315   2.131
 1503SOL    HW2 5409   2.710   1.202   2.205
 1504SOL     OW 5410   1.252   1.228   4.819
 1504SOL    HW1 5411   1.196   1.235   4.902
 1504SOL    HW2 5412   1.246   1.314   4.768
 1505SOL     OW 5413   5.869   0.948   6.511
 1505SOL    HW1 5414   5.827   0.881   6.450
 1505SOL    HW2 5415   5.929   1.008   6.459
 1506SOL     OW 5416   2.129   5.423   2.133
 1506SOL    HW1 5417   2.055   5.454   2.073
 1506SOL    HW2 5418   2.118   5.325   2.150
 1507SOL     OW 5419   1.211   2.185   5.674
 1507SOL    HW1 5420   1.174   2.094   5.690
 1507SOL    HW2 5421   1.308   2.178   5.648
 1508SOL     OW 5422   5.757   0.967   1.280
 1508SOL    HW1 5423   5.748   0.876   1.240
 1508SOL    HW2 5424   5.666   1.000   1.308
 1509SOL     OW 5425   4.161   2.524   6.806
 1509SOL    HW1 5426   4.072   2.493   6.839
 1509SOL    HW2 5427   4.150   2.571   6.719
 1510SOL     OW 5428   5.779   2.453   3.713
 1510SOL    HW1 5429   5.787   2.369   3.660
 1510SOL    HW2 5430   5.684   2.467   3.740
 1511SOL     OW 5431   3.090   2.568   1.044
 1511SOL    HW1 5432   3.061   2.476   1.073
 1511SOL    HW2 5433   3.036   2.637   1.092
 1512SOL     OW 5434   0.019   6.462   1.625
 1512SOL    HW1 5435   0.059   6.532   1.685
 1512SOL    HW2 5436   0.092   6.419   1.572
 1513SOL     OW 5437   4.146   0.456   3.821
 1513SOL    HW1 5438   4.120   0.383   3.759
 1513SOL    HW2 5439   4.067   0.514   3.840
 1514SOL     OW 5440   5.552   3.004   5.365
 1514SOL    HW1 5441   5.537   3.046   5.275
 1514SOL    HW2 5442   5.491   2.926   5.376
 1515SOL     OW 5443   6.454   3.473   5.378
 1515SOL    HW1 5444   6.498   3.563   5.384
 1515SOL    HW2 5445   6.380   3.468   5.444
 1516SOL     OW 5446   0.929   0.383   1.123
 1516SOL    HW1 5447   1.028   0.383   1.136
 1516SOL    HW2 5448   0.897   0.289   1.106
 1517SOL     OW 5449   4.254   5.719   3.174
 1517SOL    HW1 5450   4.183   5.728   3.104
 1517SOL    HW2 5451   4.287   5.625   3.175
 1518SOL     OW 5452   0.768   3.043   0.258
 1518SOL    HW1 5453   0.823   3.080   0.183
 1518SOL    HW2 5454   0.732   3.118   0.313
 1519SOL     OW 5455   6.928   4.695   1.835
 1519SOL    HW1 5456   6.972   4.755   1.901
 1519SOL    HW2 5457   6.891   4.615   1.883
 1520SOL     OW 5458   1.339   2.946   2.276
 1520SOL    HW1 5459   1.376   3.034   2.246
 1520SOL    HW2 5460   1.383   2.872   2.224
 1521SOL     OW 5461   2.785   3.674   6.988
 1521SOL    HW1 5462   2.694   3.695   6.954
 1521SOL    HW2 5463   2.820   3.752   0.022
 1522SOL     OW 5464   6.655   1.544   5.225
 1522SOL    HW1 5465   6.624   1.639   5.220
 1522SOL    HW2 5466   6.628   1.495   5.142
 1523SOL     OW 5467   5.131   4.061   0.296
 1523SOL    HW1 5468   5.177   4.086   0.211
 1523SOL    HW2 5469   5.038   4.031   0.277
 1524SOL     OW 5470   0.922   1.930   1.541
 1524SOL    HW1 5471   0.883   1.842   1.513
 1524SOL    HW2 5472   0.851   1.986   1.582
 1525SOL     OW 5473   5.618   2.101   6.649
 1525SOL    HW1 5474   5.588   2.019   6.698
 1525SOL    HW2 5475   5.677   2.074   6.572
 1526SOL     OW 5476   1.579   0.758   6.816
 1526SOL    HW1 5477   1.608   0.798   6.903
 1526SOL    HW2 5478   1.627   0.803   6.741
 1527SOL     OW 5479   3.512   0.601   5.354
 1527SOL    HW1 5480   3.533   0.608   5.452
 1527SOL    HW2 5481   3.598   0.601   5.302
 1528SOL     OW 5482   5.086   5.875   2.363
 1528SOL    HW1 5483   5.119   5.940   2.431
 1528SOL    HW2 5484   5.027   5.807   2.408
 1529SOL     OW 5485   4.016   1.196   0.183
 1529SOL    HW1 5486   3.937   1.136   0.167
 1529SOL    HW2 5487   3.993   1.262   0.255
 1530SOL     OW 5488   2.777   0.702   1.840
 1530SOL    HW1 5489   2.850   0.760   1.804
 1530SOL    HW2 5490   2.810   0.649   1.917
 1531SOL     OW 5491   6.005   1.576   4.924
 1531SOL    HW1 5492   5.991   1.478   4.908
 1531SOL    HW2 5493   6.074   1.588   4.994
 1532SOL     OW 5494   2.742   3.200   6.143
 1532SOL    HW1 5495   2.644   3.215   6.131
 1532SOL    HW2 5496   2.770   3.119   6.092
 1533SOL     OW 5497   0.073   3.367   6.570
 1533SOL    HW1 5498   0.042   3.272   6.562
 1533SOL    HW2 5499   0.152   3.370   6.632
 1534SOL     OW 5500   1.245   4.785   6.540
 1534SOL    HW1 5501   1.225   4.687   6.542
 1534SOL    HW2 5502   1.337   4.802   6.576
 1535SOL     OW 5503   5.219   6.147   4.132
 1535SOL    HW1 5504   5.196   6.234   4.175
 1535SOL    HW2 5505   5.224   6.076   4.203
 1536SOL     OW 5506   4.325   4.562   5.685
 1536SOL    HW1 5507   4.232   4.552   5.652
 1536SOL    HW2 5508   4.331   4.533   5.780
 1537SOL     OW 5509   3.976   5.652   2.491
 1537SOL    HW1 5510   4.035   5.610   2.421
 1537SOL    HW2 5511   3.908   5.585   2.521
 1538SOL     OW 5512   2.985   5.601   5.886
 1538SOL    HW1 5513   3.055   5.664   5.853
 1538SOL    HW2 5514   3.000   5.510   5.845
 1539SOL     OW 5515   4.271   4.493   1.353
 1539SOL    HW1 5516   4.362   4.502   1.313
 1539SOL    HW2 5517   4.205   4.471   1.281
 1540SOL     OW 5518   1.241   0.037   5.395
 1540SOL    HW1 5519   1.253   6.993   5.471
 1540SOL    HW2 5520   1.158   0.091   5.411
 1541SOL     OW 5521   3.497   3.160   1.811
 1541SOL    HW1 5522   3.533   3.128   1.723
 1541SOL    HW2 5523   3.497   3.085   1.877
 1542SOL     OW 5524   0.125   5.549   1.415
 1542SOL    HW1 5525   0.167   5.487   1.482
 1542SOL    HW2 5526   0.097   5.633   1.461
 1543SOL     OW 5527   2.886   3.455   4.322
 1543SOL    HW1 5528   2.796   3.412   4.330
 1543SOL    HW2 5529   2.952   3.406   4.378
 1544SOL     OW 5530   2.978   3.777   2.661
 1544SOL    HW1 5531   2.962   3.747   2.567
 1544SOL    HW2 5532   3.004   3.699   2.718
 1545SOL     OW 5533   5.176   0.829   4.680
 1545SOL    HW1 5534   5.202   0.835   4.584
 1545SOL    HW2 5535   5.212   0.908   4.729
 1546SOL     OW 5536   5.460   0.226   6.057
 1546SOL    HW1 5537   5.416   0.308   6.095
 1546SOL    HW2 5538   5.529   0.253   5.991
 1547SOL     OW 5539   2.609   4.851   2.772
 1547SOL    HW1 5540   2.621   4.782   2.843
 1547SOL    HW2 5541   2.676   4.925   2.786
 1548SOL     OW 5542   5.079   3.310   6.135
 1548SOL    HW1 5543   5.163   3.364   6.130
 1548SOL    HW2 5544   5.035   3.324   6.224
 1549SOL     OW 5545   5.250   1.347   2.345
 1549SOL    HW1 5546   5.188   1.391   2.410
 1549SOL    HW2 5547   5.338   1.396   2.345
 1550SOL     OW 5548   3.383   5.965   5.736
 1550SOL    HW1 5549   3.387   5.883   5.793
 1550SOL    HW2 5550   3.357   6.043   5.793
 1551SOL     OW 5551   2.209   3.225   0.522
 1551SOL    HW1 5552   2.206   3.218   0.422
 1551SOL    HW2 5553   2.116   3.234   0.557
 1552SOL     OW 5554   0.394   0.403   1.230
 1552SOL    HW1 5555   0.466   0.368   1.171
 1552SOL    HW2 5556   0.307   0.403   1.181
 1553SOL     OW 5557   6.270   1.893   6.180
 1553SOL    HW1 5558   6.301   1.873   6.087
 1553SOL    HW2 5559   6.285   1.813   6.238
 1554SOL     OW 5560   3.404   2.040   2.439
 1554SOL    HW1 5561   3.341   1.969   2.470
 1554SOL    HW2 5562   3.421   2.104   2.515
 1555SOL     OW 5563   4.794   2.471   5.882
 1555SOL    HW1 5564   4.722   2.427   5.828
 1555SOL    HW2 5565   4.753   2.542   5.939
 1556SOL     OW 5566   3.790   1.031   0.127
 1556SOL    HW1 5567   3.723   1.094   0.165
 1556SOL    HW2 5568   3.820   0.967   0.197
 1557SOL     OW 5569   2.958   1.687   0.399
 1557SOL    HW1 5570   3.037   1.629   0.419
 1557SOL    HW2 5571   2.973   1.778   0.437
 1558SOL     OW 5572   5.754   1.780   4.254
 1558SOL    HW1 5573   5.795   1.814   4.339
 1558SOL    HW2 5574   5.791   1.831   4.177
 1559SOL     OW 5575   0.640   2.474   0.730
 1559SOL    HW1 5576   0.711   2.445   0.794
 1559SOL    HW2 5577   0.596   2.557   0.765
 1560SOL     OW 5578   2.763   1.309   6.425
 1560SOL    HW1 5579   2.758   1.409   6.425
 1560SOL    HW2 5580   2.837   1.280   6.487
 1561SOL     OW 5581   5.291   5.690   3.243
 1561SOL    HW1 5582   5.375   5.696   3.189
 1561SOL    HW2 5583   5.214   5.666   3.182
 1562SOL     OW 5584   3.976   6.315   1.584
 1562SOL    HW1 5585   3.885   6.297   1.546
 1562SOL    HW2 5586   4.018   6.391   1.535
 1563SOL     OW 5587   2.218   1.811   5.804
 1563SOL    HW1 5588   2.255   1.883   5.745
 1563SOL    HW2 5589   2.270   1.727   5.791
 1564SOL     OW 5590   1.441   2.468   2.594
 1564SOL    HW1 5591   1.502   2.466   2.674
 1564SOL    HW2 5592   1.473   2.401   2.527
 1565SOL     OW 5593   4.154   5.367   4.672
 1565SOL    HW1 5594   4.228   5.321   4.623
 1565SOL    HW2 5595   4.083   5.394   4.608
 1566SOL     OW 5596   6.431   5.330   4.926
 1566SOL    HW1 5597   6.476   5.341   4.838
 1566SOL    HW2 5598   6.336   5.359   4.919
 1567SOL     OW 5599   6.618   5.749   0.343
 1567SOL    HW1 5600   6.577   5.761   0.434
 1567SOL    HW2 5601   6.549   5.714   0.280
 1568SOL     OW 5602   2.129   6.677   2.941
 1568SOL    HW1 5603   2.170   6.594   2.904
 1568SOL    HW2 5604   2.164   6.757   2.892
 1569SOL     OW 5605   3.733   6.516   3.467
 1569SOL    HW1 5606   3.717   6.597   3.411
 1569SOL    HW2 5607   3.743   6.436   3.408
 1570SOL     OW 5608   1.478   6.651   0.387
 1570SOL    HW1 5609   1.458   6.555   0.403
 1570SOL    HW2 5610   1.564   6.660   0.336
 1571SOL     OW 5611   6.904   1.844   3.247
 1571SOL    HW1 5612   6.932   1.929   3.292
 1571SOL    HW2 5613   6.818   1.812   3.286
 1572SOL     OW 5614   2.128   5.585   1.450
 1572SOL    HW1 5615   2.039   5.588   1.496
 1572SOL    HW2 5616   2.140   5.496   1.407
 1573SOL     OW 5617   6.171   5.353   1.891
 1573SOL    HW1 5618   6.111   5.425   1.857
 1573SOL    HW2 5619   6.158   5.270   1.837
 1574SOL     OW 5620   6.580   2.387   3.228
 1574SOL    HW1 5621   6.662   2.331   3.241
 1574SOL    HW2 5622   6.597   2.481   3.258
 1575SOL     OW 5623   2.554   1.227   1.906
 1575SOL    HW1 5624   2.477   1.292   1.902
 1575SOL    HW2 5625   2.623   1.262   1.969
 1576SOL     OW 5626   0.702   0.114   3.544
 1576SOL    HW1 5627   0.794   0.124   3.505
 1576SOL    HW2 5628   0.692   0.176   3.622
 1577SOL     OW 5629   2.105   0.893   5.532
 1577SOL    HW1 5630   2.044   0.941   5.596
 1577SOL    HW2 5631   2.088   0.927   5.439
 1578SOL     OW 5632   4.981   1.416   5.773
 1578SOL    HW1 5633   4.994   1.507   5.732
 1578SOL    HW2 5634   4.993   1.422   5.872
 1579SOL     OW 5635   6.930   1.552   2.377
 1579SOL    HW1 5636   6.964   1.646   2.382
 1579SOL    HW2 5637   6.899   1.523   2.468
 1580SOL     OW 5638   3.427   4.094   3.985
 1580SOL    HW1 5639   3.341   4.055   3.951
 1580SOL    HW2 5640   3.491   4.102   3.908
 1581SOL     OW 5641   6.620   4.700   5.541
 1581SOL    HW1 5642   6.704   4.696   5.595
 1581SOL    HW2 5643   6.596   4.796   5.523
 1582SOL     OW 5644   3.131   6.277   4.730
 1582SOL    HW1 5645   3.118   6.180   4.709
 1582SOL    HW2 5646   3.097   6.332   4.654
 1583SOL     OW 5647   0.426   5.740   3.535
 1583SOL    HW1 5648   0.445   5.815   3.600
 1583SOL    HW2 5649   0.496   5.670   3.545
 1584SOL     OW 5650   0.607   4.994   5.618
 1584SOL    HW1 5651   0.513   5.017   5.645
 1584SOL    HW2 5652   0.624   5.025   5.524
 1585SOL     OW 5653   4.303   2.363   2.528
 1585SOL    HW1 5654   4.309   2.362   2.628
 1585SOL    HW2 5655   4.230   2.303   2.498
 1586SOL     OW 5656   3.000   5.177   2.337
 1586SOL    HW1 5657   3.055   5.115   2.281
 1586SOL    HW2 5658   2.947   5.237   2.277
 1587SOL     OW 5659   2.529   5.506   5.115
 1587SOL    HW1 5660   2.601   5.570   5.086
 1587SOL    HW2 5661   2.540   5.420   5.065
 1588SOL     OW 5662   4.505   1.109   1.991
 1588SOL    HW1 5663   4.563   1.035   2.025
 1588SOL    HW2 5664   4.501   1.182   2.059
 1589SOL     OW 5665   0.291   3.164   2.487
 1589SOL    HW1 5666   0.336   3.114   2.561
 1589SOL    HW2 5667   0.328   3.132   2.399
 1590SOL     OW 5668   4.939   0.746   3.724
 1590SOL    HW1 5669   4.917   0.664   3.778
 1590SOL    HW2 5670   4.873   0.755   3.650
 1591SOL     OW 5671   6.825   6.002   1.174
 1591SOL    HW1 5672   6.885   5.945   1.118
 1591SOL    HW2 5673   6.843   6.098   1.156
 1592SOL     OW 5674   2.271   4.029   6.643
 1592SOL    HW1 5675   2.361   4.073   6.637
 1592SOL    HW2 5676   2.263   3.983   6.731
 1593SOL     OW 5677   0.839   6.965   5.255
 1593SOL    HW1 5678   0.880   0.012   5.317
 1593SOL    HW2 5679   0.837   6.875   5.299
 1594SOL     OW 5680   0.457   6.325   1.994
 1594SOL    HW1 5681   0.362   6.342   2.019
 1594SOL    HW2 5682   0.460   6.257   1.920
 1595SOL     OW 5683   0.992   5.008   1.142
 1595SOL    HW1 5684   0.947   4.975   1.058
 1595SOL    HW2 5685   0.922   5.039   1.206
 1596SOL     OW 5686   6.703   3.674   3.538
 1596SOL    HW1 5687   6.695   3.703   3.633
 1596SOL    HW2 5688   6.736   3.750   3.483
 1597SOL     OW 5689   1.568   6.110   1.056
 1597SOL    HW1 5690   1.516   6.031   1.089
 1597SOL    HW2 5691   1.666   6.090   1.061
 1598SOL     OW 5692   1.085   4.644   6.191
 1598SOL    HW1 5693   1.045   4.675   6.104
 1598SOL    HW2 5694   1.030   4.679   6.267
 1599SOL     OW 5695   5.275   5.335   5.138
 1599SOL    HW1 5696   5.235   5.378   5.218
 1599SOL    HW2 5697   5.280   5.236   5.152
 1600SOL     OW 5698   2.777   1.637   3.010
 1600SOL    HW1 5699   2.683   1.622   3.040
 1600SOL    HW2 5700   2.778   1.702   2.934
 1601SOL     OW 5701   6.498   6.968   4.040
 1601SOL    HW1 5702   6.513   0.012   4.117
 1601SOL    HW2 5703   6.490   0.001   3.956
 1602SOL     OW 5704   4.434   4.548   3.665
 1602SOL    HW1 5705   4.387   4.578   3.582
 1602SOL    HW2 5706   4.396   4.597   3.743
 1603SOL     OW 5707   2.897   5.343   2.834
 1603SOL    HW1 5708   2.919   5.343   2.932
 1603SOL    HW2 5709   2.799   5.359   2.822
 1604SOL     OW 5710   4.964   4.929   1.664
 1604SOL    HW1 5711   4.934   4.875   1.743
 1604SOL    HW2 5712   4.938   4.883   1.580
 1605SOL     OW 5713   6.781   5.421   1.999
 1605SOL    HW1 5714   6.740   5.512   2.005
 1605SOL    HW2 5715   6.765   5.382   1.908
 1606SOL     OW 5716   3.950   6.151   5.780
 1606SOL    HW1 5717   3.963   6.208   5.699
 1606SOL    HW2 5718   3.974   6.203   5.862
 1607SOL     OW 5719   3.960   6.926   0.579
 1607SOL    HW1 5720   3.937   6.945   0.484
 1607SOL    HW2 5721   3.876   6.918   0.633
 1608SOL     OW 5722   6.782   1.193   3.289
 1608SOL    HW1 5723   6.723   1.134   3.343
 1608SOL    HW2 5724   6.801   1.149   3.201
 1609SOL     OW 5725   3.540   6.878   0.147
 1609SOL    HW1 5726   3.480   6.826   0.086
 1609SOL    HW2 5727   3.604   6.932   0.092
 1610SOL     OW 5728   5.686   5.738   0.604
 1610SOL    HW1 5729   5.666   5.667   0.537
 1610SOL    HW2 5730   5.743   5.809   0.562
 1611SOL     OW 5731   2.376   3.023   0.411
 1611SOL    HW1 5732   2.303   3.048   0.475
 1611SOL    HW2 5733   2.431   2.949   0.451
 1612SOL     OW 5734   3.191   6.807   0.755
 1612SOL    HW1 5735   3.134   6.871   0.807
 1612SOL    HW2 5736   3.237   6.745   0.818
 1613SOL     OW 5737   1.833   5.710   2.114
 1613SOL    HW1 5738   1.917   5.662   2.089
 1613SOL    HW2 5739   1.852   5.808   2.124
 1614SOL     OW 5740   5.770   1.738   6.200
 1614SOL    HW1 5741   5.740   1.833   6.190
 1614SOL    HW2 5742   5.752   1.688   6.116
 1615SOL     OW 5743   6.104   5.882   0.005
 1615SOL    HW1 5744   6.059   5.830   0.078
 1615SOL    HW2 5745   6.077   5.978   0.011
 1616SOL     OW 5746   3.869   1.089   4.503
 1616SOL    HW1 5747   3.833   1.073   4.411
 1616SOL    HW2 5748   3.804   1.144   4.556
 1617SOL     OW 5749   5.553   6.215   3.157
 1617SOL    HW1 5750   5.547   6.313   3.175
 1617SOL    HW2 5751   5.639   6.180   3.194
 1618SOL     OW 5752   1.661   6.543   3.326
 1618SOL    HW1 5753   1.610   6.461   3.355
 1618SOL    HW2 5754   1.644   6.560   3.229
 1619SOL     OW 5755   0.562   4.623   0.889
 1619SOL    HW1 5756   0.583   4.544   0.948
 1619SOL    HW2 5757   0.475   4.663   0.918
 1620SOL     OW 5758   3.180   4.698   1.449
 1620SOL    HW1 5759   3.144   4.625   1.507
 1620SOL    HW2 5760   3.217   4.659   1.365
 1621SOL     OW 5761   6.033   0.437   0.931
 1621SOL    HW1 5762   5.983   0.351   0.947
 1621SOL    HW2 5763   6.105   0.447   0.999
 1622SOL     OW 5764   0.743   3.321   5.459
 1622SOL    HW1 5765   0.753   3.227   5.493
 1622SOL    HW2 5766   0.647   3.340   5.440
 1623SOL     OW 5767   0.670   2.987   4.837
 1623SOL    HW1 5768   0.613   2.927   4.893
 1623SOL    HW2 5769   0.657   2.964   4.740
 1624SOL     OW 5770   3.920   0.716   5.286
 1624SOL    HW1 5771   3.820   0.714   5.289
 1624SOL    HW2 5772   3.952   0.810   5.301
 1625SOL     OW 5773   1.399   4.775   0.171
 1625SOL    HW1 5774   1.415   4.782   0.073
 1625SOL    HW2 5775   1.485   4.787   0.220
 1626SOL     OW 5776   3.756   0.838   0.879
 1626SOL    HW1 5777   3.718   0.783   0.953
 1626SOL    HW2 5778   3.681   0.877   0.825
 1627SOL     OW 5779   5.783   3.028   3.675
 1627SOL    HW1 5780   5.744   3.119   3.657
 1627SOL    HW2 5781   5.710   2.964   3.696
 1628SOL     OW 5782   4.452   5.339   0.312
 1628SOL    HW1 5783   4.437   5.242   0.290
 1628SOL    HW2 5784   4.400   5.396   0.249
 1629SOL     OW 5785   2.454   0.928   3.821
 1629SOL    HW1 5786   2.397   0.856   3.862
 1629SOL    HW2 5787   2.550   0.911   3.844
 1630SOL     OW 5788   0.696   4.938   6.157
 1630SOL    HW1 5789   0.640   4.981   6.085
 1630SOL    HW2 5790   0.734   4.852   6.123
 1631SOL     OW 5791   0.893   2.816   0.363
 1631SOL    HW1 5792   0.839   2.900   0.370
 1631SOL    HW2 5793   0.839   2.738   0.395
 1632SOL     OW 5794   5.151   2.703   1.481
 1632SOL    HW1 5795   5.068   2.756   1.501
 1632SOL    HW2 5796   5.209   2.754   1.418
 1633SOL     OW 5797   4.967   3.811   4.616
 1633SOL    HW1 5798   4.936   3.866   4.539
 1633SOL    HW2 5799   5.029   3.865   4.673
 1634SOL     OW 5800   4.664   6.048   4.043
 1634SOL    HW1 5801   4.747   6.083   4.086
 1634SOL    HW2 5802   4.613   6.124   4.003
 1635SOL     OW 5803   0.781   5.057   0.123
 1635SOL    HW1 5804   0.733   5.016   0.045
 1635SOL    HW2 5805   0.848   4.992   0.159
 1636SOL     OW 5806   3.046   5.170   1.096
 1636SOL    HW1 5807   3.094   5.122   1.021
 1636SOL    HW2 5808   3.037   5.108   1.174
 1637SOL     OW 5809   0.017   0.302   3.416
 1637SOL    HW1 5810   6.999   0.354   3.339
 1637SOL    HW2 5811   6.976   0.315   3.496
 1638SOL     OW 5812   0.841   3.401   2.943
 1638SOL    HW1 5813   0.827   3.479   3.004
 1638SOL    HW2 5814   0.853   3.318   2.998
 1639SOL     OW 5815   5.544   5.138   1.374
 1639SOL    HW1 5816   5.628   5.083   1.376
 1639SOL    HW2 5817   5.481   5.104   1.443
 1640SOL     OW 5818   5.658   0.518   0.039
 1640SOL    HW1 5819   5.648   0.571   0.123
 1640SOL    HW2 5820   5.753   0.488   0.029
 1641SOL     OW 5821   5.391   1.952   3.405
 1641SOL    HW1 5822   5.353   1.870   3.363
 1641SOL    HW2 5823   5.340   2.032   3.374
 1642SOL     OW 5824   6.516   3.376   6.980
 1642SOL    HW1 5825   6.445   3.425   0.011
 1642SOL    HW2 5826   6.476   3.331   6.900
 1643SOL     OW 5827   2.876   4.757   3.924
 1643SOL    HW1 5828   2.782   4.789   3.913
 1643SOL    HW2 5829   2.902   4.762   4.021
 1644SOL     OW 5830   5.723   3.810   0.149
 1644SOL    HW1 5831   5.642   3.858   0.115
 1644SOL    HW2 5832   5.805   3.844   0.103
 1645SOL     OW 5833   2.177   5.420   6.059
 1645SOL    HW1 5834   2.258   5.479   6.058
 1645SOL    HW2 5835   2.199   5.333   6.104
 1646SOL     OW 5836   2.594   6.849   1.021
 1646SOL    HW1 5837   2.528   6.845   1.096
 1646SOL    HW2 5838   2.616   6.945   1.001
 1647SOL     OW 5839   5.970   2.743   4.082
 1647SOL    HW1 5840   5.997   2.669   4.144
 1647SOL    HW2 5841   5.958   2.706   3.990
 1648SOL     OW 5842   5.032   5.731   0.283
 1648SOL    HW1 5843   5.061   5.755   0.376
 1648SOL    HW2 5844   4.941   5.691   0.286
 1649SOL     OW 5845   3.420   1.731   3.820
 1649SOL    HW1 5846   3.478   1.650   3.813
 1649SOL    HW2 5847   3.413   1.758   3.916
 1650SOL     OW 5848   0.672   5.942   5.090
 1650SOL    HW1 5849   0.764   5.931   5.128
 1650SOL    HW2 5850   0.639   5.854   5.057
 1651SOL     OW 5851   0.290   2.143   2.013
 1651SOL    HW1 5852   0.260   2.089   2.091
 1651SOL    HW2 5853   0.297   2.240   2.040
 1652SOL     OW 5854   1.594   2.954   2.627
 1652SOL    HW1 5855   1.541   2.890   2.571
 1652SOL    HW2 5856   1.539   2.982   2.706
 1653SOL     OW 5857   0.730   6.602   0.370
 1653SOL    HW1 5858   0.682   6.572   0.452
 1653SOL    HW2 5859   0.772   6.522   0.325
 1654SOL     OW 5860   0.047   3.293   1.534
 1654SOL    HW1 5861   6.966   3.293   1.538
 1654SOL    HW2 5862   0.084   3.257   1.620
 1655SOL     OW 5863   0.507   2.551   4.321
 1655SOL    HW1 5864   0.480   2.576   4.414
 1655SOL    HW2 5865   0.533   2.634   4.271
 1656SOL     OW 5866   2.115   5.259   3.139
 1656SOL    HW1 5867   2.153   5.244   3.230
 1656SOL    HW2 5868   2.137   5.181   3.080
 1657SOL     OW 5869   5.792   1.109   4.170
 1657SOL    HW1 5870   5.757   1.086   4.080
 1657SOL    HW2 5871   5.847   1.034   4.205
 1658SOL     OW 5872   6.197   1.211   1.386
 1658SOL    HW1 5873   6.232   1.162   1.306
 1658SOL    HW2 5874   6.101   1.189   1.399
 1659SOL     OW 5875   2.963   0.463   0.150
 1659SOL    HW1 5876   3.023   0.543   0.144
 1659SOL    HW2 5877   2.882   0.478   0.093
 1660SOL     OW 5878   1.907   5.858   2.385
 1660SOL    HW1 5879   1.985   5.822   2.436
 1660SOL    HW2 5880   1.940   5.912   2.307
 1661SOL     OW 5881   2.059   6.561   1.746
 1661SOL    HW1 5882   2.033   6.467   1.727
 1661SOL    HW2 5883   2.003   6.623   1.691
 1662SOL     OW 5884   0.375   1.231   4.421
 1662SOL    HW1 5885   0.336   1.218   4.512
 1662SOL    HW2 5886   0.474   1.222   4.425
 1663SOL     OW 5887   4.489   5.600   3.398
 1663SOL    HW1 5888   4.403   5.647   3.419
 1663SOL    HW2 5889   4.477   5.547   3.313
 1664SOL     OW 5890   2.431   5.973   5.086
 1664SOL    HW1 5891   2.437   6.069   5.058
 1664SOL    HW2 5892   2.396   5.968   5.180
 1665SOL     OW 5893   6.466   3.072   2.638
 1665SOL    HW1 5894   6.528   2.994   2.637
 1665SOL    HW2 5895   6.390   3.053   2.700
 1666SOL     OW 5896   5.187   1.292   6.885
 1666SOL    HW1 5897   5.274   1.337   6.905
 1666SOL    HW2 5898   5.204   1.209   6.831
 1667SOL     OW 5899   0.265   6.563   1.224
 1667SOL    HW1 5900   0.276   6.608   1.135
 1667SOL    HW2 5901   0.271   6.464   1.212
 1668SOL     OW 5902   4.892   5.465   3.783
 1668SOL    HW1 5903   4.798   5.449   3.813
 1668SOL    HW2 5904   4.955   5.423   3.849
 1669SOL     OW 5905   6.898   4.595   5.708
 1669SOL    HW1 5906   6.933   4.596   5.614
 1669SOL    HW2 5907   6.960   4.647   5.767
 1670SOL     OW 5908   6.679   4.513   5.303
 1670SOL    HW1 5909   6.586   4.478   5.315
 1670SOL    HW2 5910   6.680   4.580   5.229
 1671SOL     OW 5911   5.541   1.701   3.139
 1671SOL    HW1 5912   5.604   1.637   3.183
 1671SOL    HW2 5913   5.594   1.765   3.082
 1672SOL     OW 5914   2.163   3.274   1.142
 1672SOL    HW1 5915   2.111   3.195   1.110
 1672SOL    HW2 5916   2.251   3.278   1.094
 1673SOL     OW 5917   1.279   1.538   5.134
 1673SOL    HW1 5918   1.344   1.613   5.119
 1673SOL    HW2 5919   1.327   1.460   5.176
 1674SOL     OW 5920   0.962   3.110   2.481
 1674SOL    HW1 5921   0.978   3.053   2.561
 1674SOL    HW2 5922   0.889   3.175   2.500
 1675SOL     OW 5923   4.869   6.767   6.828
 1675SOL    HW1 5924   4.823   6.779   6.916
 1675SOL    HW2 5925   4.834   6.685   6.784
 1676SOL     OW 5926   2.327   2.122   1.408
 1676SOL    HW1 5927   2.349   2.215   1.438
 1676SOL    HW2 5928   2.240   2.094   1.449
 1677SOL     OW 5929   3.764   3.642   3.783
 1677SOL    HW1 5930   3.853   3.629   3.827
 1677SOL    HW2 5931   3.710   3.707   3.836
 1678SOL     OW 5932   6.611   4.784   2.534
 1678SOL    HW1 5933   6.622   4.684   2.531
 1678SOL    HW2 5934   6.547   4.808   2.607
 1679SOL     OW 5935   2.691   1.583   4.376
 1679SOL    HW1 5936   2.671   1.677   4.403
 1679SOL    HW2 5937   2.616   1.546   4.322
 1680SOL     OW 5938   0.454   3.510   5.572
 1680SOL    HW1 5939   0.371   3.566   5.576
 1680SOL    HW2 5940   0.534   3.568   5.586
 1681SOL     OW 5941   0.630   4.998   6.912
 1681SOL    HW1 5942   0.643   5.091   6.879
 1681SOL    HW2 5943   0.577   4.946   6.845
 1682SOL     OW 5944   1.461   0.560   5.842
 1682SOL    HW1 5945   1.476   0.466   5.810
 1682SOL    HW2 5946   1.363   0.580   5.843
 1683SOL     OW 5947   6.022   5.712   2.375
 1683SOL    HW1 5948   6.021   5.613   2.372
 1683SOL    HW2 5949   5.941   5.748   2.328
 1684SOL     OW 5950   0.787   6.024   2.148
 1684SOL    HW1 5951   0.784   5.935   2.102
 1684SOL    HW2 5952   0.864   6.027   2.211
 1685SOL     OW 5953   1.419   1.080   5.341
 1685SOL    HW1 5954   1.517   1.102   5.337
 1685SOL    HW2 5955   1.383   1.101   5.432
 1686SOL     OW 5956   2.376   6.234   4.511
 1686SOL    HW1 5957   2.436   6.187   4.576
 1686SOL    HW2 5958   2.394   6.332   4.513
 1687SOL     OW 5959   1.291   2.850   1.655
 1687SOL    HW1 5960   1.312   2.809   1.567
 1687SOL    HW2 5961   1.221   2.796   1.702
 1688SOL     OW 5962   2.328   1.860   3.738
 1688SOL    HW1 5963   2.263   1.860   3.815
 1688SOL    HW2 5964   2.414   1.900   3.768
 1689SOL     OW 5965   6.189   0.621   2.797
 1689SOL    HW1 5966   6.202   0.675   2.880
 1689SOL    HW2 5967   6.274   0.622   2.744
 1690SOL     OW 5968   1.570   2.522   4.741
 1690SOL    HW1 5969   1.624   2.438   4.737
 1690SOL    HW2 5970   1.497   2.512   4.809
 1691SOL     OW 5971   5.257   2.810   3.723
 1691SOL    HW1 5972   5.295   2.720   3.699
 1691SOL    HW2 5973   5.308   2.848   3.800
 1692SOL     OW 5974   4.550   6.412   0.991
 1692SOL    HW1 5975   4.544   6.343   0.918
 1692SOL    HW2 5976   4.571   6.366   1.078
 1693SOL     OW 5977   6.660   2.344   2.956
 1693SOL    HW1 5978   6.671   2.342   3.056
 1693SOL    HW2 5979   6.627   2.255   2.924
 1694SOL     OW 5980   6.223   2.052   3.755
 1694SOL    HW1 5981   6.231   2.134   3.811
 1694SOL    HW2 5982   6.307   1.998   3.761
 1695SOL     OW 5983   4.083   0.698   6.381
 1695SOL    HW1 5984   3.992   0.739   6.379
 1695SOL    HW2 5985   4.124   0.713   6.471
 1696SOL     OW 5986   4.194   6.170   1.536
 1696SOL    HW1 5987   4.191   6.099   1.466
 1696SOL    HW2 5988   4.102   6.209   1.548
 1697SOL     OW 5989   6.729   1.348   0.599
 1697SOL    HW1 5990   6.745   1.260   0.553
 1697SOL    HW2 5991   6.671   1.406   0.542
 1698SOL     OW 5992   3.447   6.812   0.393
 1698SOL    HW1 5993   3.487   6.830   0.303
 1698SOL    HW2 5994   3.475   6.883   0.457
 1699SOL     OW 5995   2.529   1.421   6.681
 1699SOL    HW1 5996   2.516   1.471   6.595
 1699SOL    HW2 5997   2.540   1.323   6.660
 1700SOL     OW 5998   6.185   4.439   3.696
 1700SOL    HW1 5999   6.232   4.352   3.685
 1700SOL    HW2 6000   6.241   4.514   3.661
 1701SOL     OW 6001   5.592   5.404   6.326
 1701SOL    HW1 6002   5.535   5.415   6.407
 1701SOL    HW2 6003   5.576   5.314   6.286
 1702SOL     OW 6004   6.480   1.721   0.836
 1702SOL    HW1 6005   6.573   1.748   0.814
 1702SOL    HW2 6006   6.467   1.723   0.935
 1703SOL     OW 6007   3.622   1.798   0.497
 1703SOL    HW1 6008   3.587   1.713   0.458
 1703SOL    HW2 6009   3.686   1.840   0.432
 1704SOL     OW 6010   0.957   2.243   0.020
 1704SOL    HW1 6011   0.949   2.203   0.111
 1704SOL    HW2 6012   1.046   2.221   7.000
 1705SOL     OW 6013   2.947   2.075   1.910
 1705SOL    HW1 6014   2.921   2.160   1.955
 1705SOL    HW2 6015   2.938   2.085   1.811
 1706SOL     OW 6016   4.886   1.571   1.550
 1706SOL    HW1 6017   4.869   1.474   1.570
 1706SOL    HW2 6018   4.836   1.597   1.467
 1707SOL     OW 6019   4.207   1.712   2.928
 1707SOL    HW1 6020   4.301   1.694   2.898
 1707SOL    HW2 6021   4.147   1.639   2.896
 1708SOL     OW 6022   4.930   6.026   1.963
 1708SOL    HW1 6023   4.912   6.101   2.027
 1708SOL    HW2 6024   5.002   6.054   1.900
 1709SOL     OW 6025   3.182   6.496   2.792
 1709SOL    HW1 6026   3.274   6.501   2.753
 1709SOL    HW2 6027   3.158   6.586   2.830
 1710SOL     OW 6028   4.410   4.873   3.147
 1710SOL    HW1 6029   4.389   4.867   3.050
 1710SOL    HW2 6030   4.486   4.811   3.168
 1711SOL     OW 6031   1.856   4.950   4.576
 1711SOL    HW1 6032   1.880   4.991   4.487
 1711SOL    HW2 6033   1.927   4.971   4.643
 1712SOL     OW 6034   6.468   2.459   4.518
 1712SOL    HW1 6035   6.483   2.437   4.422
 1712SOL    HW2 6036   6.550   2.437   4.571
 1713SOL     OW 6037   4.764   2.498   2.086
 1713SOL    HW1 6038   4.707   2.579   2.069
 1713SOL    HW2 6039   4.751   2.467   2.180
 1714SOL     OW 6040   3.451   1.418   6.200
 1714SOL    HW1 6041   3.381   1.430   6.129
 1714SOL    HW2 6042   3.439   1.487   6.271
 1715SOL     OW 6043   2.196   6.077   3.330
 1715SOL    HW1 6044   2.290   6.092   3.299
 1715SOL    HW2 6045   2.189   5.986   3.371
 1716SOL     OW 6046   3.527   0.022   3.776
 1716SOL    HW1 6047   3.571   0.053   3.861
 1716SOL    HW2 6048   3.596   7.011   3.711
 1717SOL     OW 6049   3.322   5.819   4.820
 1717SOL    HW1 6050   3.347   5.749   4.753
 1717SOL    HW2 6051   3.285   5.899   4.772
 1718SOL     OW 6052   3.118   1.314   2.027
 1718SOL    HW1 6053   3.146   1.393   1.973
 1718SOL    HW2 6054   3.032   1.335   2.074
 1719SOL     OW 6055   1.984   2.958   0.755
 1719SOL    HW1 6056   2.054   2.923   0.692
 1719SOL    HW2 6057   1.944   2.883   0.807
 1720SOL     OW 6058   6.761   3.164   6.802
 1720SOL    HW1 6059   6.729   3.079   6.762
 1720SOL    HW2 6060   6.791   3.147   6.896
 1721SOL     OW 6061   1.921   6.407   1.485
 1721SOL    HW1 6062   1.990   6.337   1.501
 1721SOL    HW2 6063   1.887   6.400   1.391
 1722SOL     OW 6064   3.113   1.452   3.788
 1722SOL    HW1 6065   3.208   1.443   3.818
 1722SOL    HW2 6066   3.052   1.439   3.866
 1723SOL     OW 6067   5.744   2.194   6.880
 1723SOL    HW1 6068   5.698   2.155   6.800
 1723SOL    HW2 6069   5.743   2.294   6.873
 1724SOL     OW 6070   0.631   2.976   2.129
 1724SOL    HW1 6071   0.706   2.911   2.115
 1724SOL    HW2 6072   0.648   3.058   2.074
 1725SOL     OW 6073   1.637   5.334   6.065
 1725SOL    HW1 6074   1.577   5.366   5.992
 1725SOL    HW2 6075   1.627   5.234   6.074
 1726SOL     OW 6076   6.011   4.337   4.896
 1726SOL    HW1 6077   6.034   4.290   4.981
 1726SOL    HW2 6078   5.912   4.344   4.886
 1727SOL     OW 6079   4.101   3.177   4.054
 1727SOL    HW1 6080   4.010   3.136   4.044
 1727SOL    HW2 6081   4.118   3.240   3.978
 1728SOL     OW 6082   5.765   5.220   5.416
 1728SOL    HW1 6083   5.857   5.217   5.455
 1728SOL    HW2 6084   5.734   5.315   5.408
 1729SOL     OW 6085   2.138   4.088   2.732
 1729SOL    HW1 6086   2.227   4.095   2.688
 1729SOL    HW2 6087   2.100   3.997   2.717
 1730SOL     OW 6088   2.283   0.503   5.359
 1730SOL    HW1 6089   2.270   0.570   5.432
 1730SOL    HW2 6090   2.235   0.418   5.383
 1731SOL     OW 6091   0.441   4.056   3.863
 1731SOL    HW1 6092   0.423   4.142   3.816
 1731SOL    HW2 6093   0.446   4.071   3.961
 1732SOL     OW 6094   2.609   5.023   5.890
 1732SOL    HW1 6095   2.578   4.954   5.825
 1732SOL    HW2 6096   2.591   4.991   5.983
 1733SOL     OW 6097   1.872   4.085   1.078
 1733SOL    HW1 6098   1.951   4.053   1.131
 1733SOL    HW2 6099   1.832   4.007   1.029
 1734SOL     OW 6100   4.742   2.965   1.158
 1734SOL    HW1 6101   4.675   2.986   1.229
 1734SOL    HW2 6102   4.700   2.974   1.068
 1735SOL     OW 6103   4.458   5.668   6.546
 1735SOL    HW1 6104   4.459   5.761   6.510
 1735SOL    HW2 6105   4.399   5.610   6.490
 1736SOL     OW 6106   3.476   3.822   1.077
 1736SOL    HW1 6107   3.447   3.727   1.072
 1736SOL    HW2 6108   3.572   3.827   1.106
 1737SOL     OW 6109   4.529   0.439   4.765
 1737SOL    HW1 6110   4.514   0.349   4.805
 1737SOL    HW2 6111   4.527   0.508   4.837
 1738SOL     OW 6112   2.252   2.599   4.565
 1738SOL    HW1 6113   2.176   2.542   4.534
 1738SOL    HW2 6114   2.221   2.658   4.640
 1739SOL     OW 6115   6.785   2.114   4.789
 1739SOL    HW1 6116   6.811   2.052   4.863
 1739SOL    HW2 6117   6.703   2.079   4.744
 1740SOL     OW 6118   0.106   2.484   4.731
 1740SOL    HW1 6119   0.190   2.430   4.725
 1740SOL    HW2 6120   0.116   2.552   4.805
 1741SOL     OW 6121   2.446   0.480   4.436
 1741SOL    HW1 6122   2.380   0.426   4.488
 1741SOL    HW2 6123   2.506   0.419   4.384
 1742SOL     OW 6124   5.755   0.467   5.373
 1742SOL    HW1 6125   5.780   0.482   5.469
 1742SOL    HW2 6126   5.806   0.390   5.337
 1743SOL     OW 6127   0.473   1.941   2.199
 1743SOL    HW1 6128   0.528   1.858   2.193
 1743SOL    HW2 6129   0.532   2.020   2.181
 1744SOL     OW 6130   6.626   3.382   3.824
 1744SOL    HW1 6131   6.647   3.478   3.806
 1744SOL    HW2 6132   6.529   3.373   3.847
 1745SOL     OW 6133   5.345   5.635   2.621
 1745SOL    HW1 6134   5.254   5.675   2.633
 1745SOL    HW2 6135   5.381   5.607   2.710
 1746SOL     OW 6136   1.431   4.289   3.972
 1746SOL    HW1 6137   1.349   4.345   3.968
 1746SOL    HW2 6138   1.428   4.220   3.900
 1747SOL     OW 6139   4.389   1.462   2.844
 1747SOL    HW1 6140   4.359   1.437   2.936
 1747SOL    HW2 6141   4.335   1.412   2.776
 1748SOL     OW 6142   0.071   1.985   4.252
 1748SOL    HW1 6143   0.034   1.933   4.329
 1748SOL    HW2 6144   0.131   1.925   4.198
 1749SOL     OW 6145   2.407   6.617   5.798
 1749SOL    HW1 6146   2.496   6.659   5.817
 1749SOL    HW2 6147   2.391   6.543   5.862
 1750SOL     OW 6148   5.317   6.787   3.509
 1750SOL    HW1 6149   5.258   6.854   3.555
 1750SOL    HW2 6150   5.282   6.695   3.526
 1751SOL     OW 6151   4.880   2.053   4.660
 1751SOL    HW1 6152   4.795   2.105   4.653
 1751SOL    HW2 6153   4.862   1.956   4.645
 1752SOL     OW 6154   6.191   1.023   1.948
 1752SOL    HW1 6155   6.234   1.091   1.888
 1752SOL    HW2 6156   6.210   1.047   2.043
 1753SOL     OW 6157   6.517   0.721   1.552
 1753SOL    HW1 6158   6.442   0.705   1.617
 1753SOL    HW2 6159   6.591   0.769   1.598
 1754SOL     OW 6160   1.530   4.769   6.498
 1754SOL    HW1 6161   1.522   4.848   6.558
 1754SOL    HW2 6162   1.623   4.763   6.461
 1755SOL     OW 6163   0.201   5.241   0.153
 1755SOL    HW1 6164   0.204   5.337   0.125
 1755SOL    HW2 6165   0.120   5.197   0.113
 1756SOL     OW 6166   4.126   5.522   5.240
 1756SOL    HW1 6167   4.149   5.426   5.252
 1756SOL    HW2 6168   4.137   5.570   5.327
 1757SOL     OW 6169   3.047   5.167   4.717
 1757SOL    HW1 6170   2.968   5.178   4.778
 1757SOL    HW2 6171   3.024   5.202   4.626
 1758SOL     OW 6172   1.807   1.239   4.466
 1758SOL    HW1 6173   1.892   1.186   4.465
 1758SOL    HW2 6174   1.737   1.189   4.517
 1759SOL     OW 6175   2.701   6.274   5.461
 1759SOL    HW1 6176   2.632   6.285   5.533
 1759SOL    HW2 6177   2.750   6.360   5.448
 1760SOL     OW 6178   5.694   1.025   3.946
 1760SOL    HW1 6179   5.772   0.968   3.919
 1760SOL    HW2 6180   5.707   1.118   3.913
 1761SOL     OW 6181   0.105   1.177   2.034
 1761SOL    HW1 6182   0.083   1.247   2.102
 1761SOL    HW2 6183   0.194   1.197   1.994
 1762SOL     OW 6184   0.239   1.224   4.659
 1762SOL    HW1 6185   0.255   1.273   4.744
 1762SOL    HW2 6186   0.154   1.256   4.618
 1763SOL     OW 6187   0.536   4.609   4.216
 1763SOL    HW1 6188   0.619   4.664   4.221
 1763SOL    HW2 6189   0.504   4.590   4.309
 1764SOL     OW 6190   2.239   2.979   1.942
 1764SOL    HW1 6191   2.159   2.933   1.901
 1764SOL    HW2 6192   2.220   2.998   2.038
 1765SOL     OW 6193   3.625   0.735   1.805
 1765SOL    HW1 6194   3.564   0.716   1.728
 1765SOL    HW2 6195   3.609   0.669   1.878
 1766SOL     OW 6196   5.736   4.685   3.902
 1766SOL    HW1 6197   5.774   4.765   3.949
 1766SOL    HW2 6198   5.745   4.605   3.960
 1767SOL     OW 6199   0.811   4.158   3.624
 1767SOL    HW1 6200   0.760   4.085   3.668
 1767SOL    HW2 6201   0.759   4.193   3.546
 1768SOL     OW 6202   2.946   0.652   6.804
 1768SOL    HW1 6203   2.931   0.588   6.880
 1768SOL    HW2 6204   2.940   0.602   6.717
 1769SOL     OW 6205   5.412   1.156   6.650
 1769SOL    HW1 6206   5.362   1.211   6.584
 1769SOL    HW2 6207   5.510   1.158   6.628
 1770SOL     OW 6208   6.823   4.885   4.967
 1770SOL    HW1 6209   6.791   4.980   4.963
 1770SOL    HW2 6210   6.913   4.882   5.012
 1771SOL     OW 6211   1.395   4.993   0.429
 1771SOL    HW1 6212   1.470   5.040   0.475
 1771SOL    HW2 6213   1.390   4.899   0.461
 1772SOL     OW 6214   3.721   5.909   3.583
 1772SOL    HW1 6215   3.782   5.834   3.609
 1772SOL    HW2 6216   3.632   5.897   3.628
 1773SOL     OW 6217   2.564   2.423   5.982
 1773SOL    HW1 6218   2.486   2.409   6.043
 1773SOL    HW2 6219   2.531   2.459   5.894
 1774SOL     OW 6220   5.560   6.608   1.868
 1774SOL    HW1 6221   5.474   6.594   1.820
 1774SOL    HW2 6222   5.632   6.628   1.802
 1775SOL     OW 6223   1.606   5.503   6.270
 1775SOL    HW1 6224   1.620   5.446   6.189
 1775SOL    HW2 6225   1.511   5.535   6.272
 1776SOL     OW 6226   5.097   0.580   6.489
 1776SOL    HW1 6227   5.094   0.642   6.411
 1776SOL    HW2 6228   5.133   0.491   6.460
 1777SOL     OW 6229   2.762   6.784   6.715
 1777SOL    HW1 6230   2.837   6.730   6.754
 1777SOL    HW2 6231   2.793   6.879   6.702
 1778SOL     OW 6232   4.836   2.280   4.154
 1778SOL    HW1 6233   4.863   2.366   4.112
 1778SOL    HW2 6234   4.905   2.210   4.134
 1779SOL     OW 6235   5.226   0.981   5.511
 1779SOL    HW1 6236   5.199   1.062   5.562
 1779SOL    HW2 6237   5.148   0.919   5.504
 1780SOL     OW 6238   1.851   3.785   5.951
 1780SOL    HW1 6239   1.928   3.777   5.888
 1780SOL    HW2 6240   1.859   3.869   6.004
 1781SOL     OW 6241   5.485   6.352   4.705
 1781SOL    HW1 6242   5.445   6.307   4.785
 1781SOL    HW2 6243   5.516   6.282   4.640
 1782SOL     OW 6244   2.346   0.996   3.013
 1782SOL    HW1 6245   2.360   0.903   3.048
 1782SOL    HW2 6246   2.326   0.992   2.915
 1783SOL     OW 6247   3.171   3.187   6.645
 1783SOL    HW1 6248   3.186   3.142   6.556
 1783SOL    HW2 6249   3.145   3.283   6.630
 1784SOL     OW 6250   2.467   1.366   1.127
 1784SOL    HW1 6251   2.525   1.444   1.106
 1784SOL    HW2 6252   2.513   1.282   1.099
 1785SOL     OW 6253   5.890   6.604   3.916
 1785SOL    HW1 6254   5.946   6.524   3.894
 1785SOL    HW2 6255   5.801   6.595   3.872
 1786SOL     OW 6256   1.987   4.595   6.870
 1786SOL    HW1 6257   1.959   4.544   6.788
 1786SOL    HW2 6258   2.069   4.648   6.849
 1787SOL     OW 6259   2.770   2.030   6.212
 1787SOL    HW1 6260   2.755   2.061   6.119
 1787SOL    HW2 6261   2.866   2.040   6.236
 1788SOL     OW 6262   4.619   3.982   6.776
 1788SOL    HW1 6263   4.670   4.021   6.699
 1788SOL    HW2 6264   4.534   3.941   6.743
 1789SOL     OW 6265   5.892   3.050   1.704
 1789SOL    HW1 6266   5.840   3.124   1.661
 1789SOL    HW2 6267   5.841   2.965   1.696
 1790SOL     OW 6268   2.947   1.103   4.916
 1790SOL    HW1 6269   2.866   1.137   4.869
 1790SOL    HW2 6270   3.004   1.052   4.851
 1791SOL     OW 6271   6.323   1.577   3.355
 1791SOL    HW1 6272   6.297   1.664   3.397
 1791SOL    HW2 6273   6.371   1.595   3.269
 1792SOL     OW 6274   6.955   1.643   4.317
 1792SOL    HW1 6275   0.034   1.623   4.317
 1792SOL    HW2 6276   6.923   1.652   4.222
 1793SOL     OW 6277   6.545   2.109   4.163
 1793SOL    HW1 6278   6.585   2.152   4.082
 1793SOL    HW2 6279   6.462   2.060   4.137
 1794SOL     OW 6280   5.212   6.710   5.189
 1794SOL    HW1 6281   5.212   6.616   5.155
 1794SOL    HW2 6282   5.118   6.745   5.189
 1795SOL     OW 6283   0.084   5.131   2.122
 1795SOL    HW1 6284   0.150   5.139   2.197
 1795SOL    HW2 6285   7.010   5.136   2.159
 1796SOL     OW 6286   2.779   1.785   5.867
 1796SOL    HW1 6287   2.728   1.699   5.854
 1796SOL    HW2 6288   2.836   1.802   5.787
 1797SOL     OW 6289   1.059   6.794   5.667
 1797SOL    HW1 6290   1.059   6.702   5.707
 1797SOL    HW2 6291   1.124   6.798   5.592
 1798SOL     OW 6292   3.660   3.189   5.207
 1798SOL    HW1 6293   3.580   3.146   5.165
 1798SOL    HW2 6294   3.743   3.140   5.180
 1799SOL     OW 6295   4.564   2.938   6.541
 1799SOL    HW1 6296   4.627   2.865   6.567
 1799SOL    HW2 6297   4.605   3.027   6.563
 1800SOL     OW 6298   5.025   4.891   3.605
 1800SOL    HW1 6299   4.996   4.979   3.641
 1800SOL    HW2 6300   5.125   4.882   3.616
 1801SOL     OW 6301   1.017   1.535   2.250
 1801SOL    HW1 6302   0.945   1.582   2.300
 1801SOL    HW2 6303   1.066   1.472   2.311
 1802SOL     OW 6304   6.425   6.164   3.598
 1802SOL    HW1 6305   6.336   6.135   3.633
 1802SOL    HW2 6306   6.448   6.111   3.516
 1803SOL     OW 6307   0.276   0.342   2.017
 1803SOL    HW1 6308   0.244   0.361   2.110
 1803SOL    HW2 6309   0.337   0.262   2.019
 1804SOL     OW 6310   4.045   3.347   5.159
 1804SOL    HW1 6311   4.074   3.422   5.099
 1804SOL    HW2 6312   3.964   3.375   5.211
 1805SOL     OW 6313   0.323   5.234   5.765
 1805SOL    HW1 6314   0.291   5.231   5.859
 1805SOL    HW2 6315   0.423   5.240   5.764
 1806SOL     OW 6316   0.639   2.627   1.605
 1806SOL    HW1 6317   0.709   2.591   1.667
 1806SOL    HW2 6318   0.599   2.710   1.645
 1807SOL     OW 6319   6.126   2.639   6.531
 1807SOL    HW1 6320   6.101   2.576   6.458
 1807SOL    HW2 6321   6.127   2.733   6.496
 1808SOL     OW 6322   5.875   4.049   4.528
 1808SOL    HW1 6323   5.899   4.026   4.623
 1808SOL    HW2 6324   5.910   3.978   4.467
 1809SOL     OW 6325   2.897   2.135   5.455
 1809SOL    HW1 6326   2.855   2.138   5.546
 1809SOL    HW2 6327   2.989   2.172   5.461
 1810SOL     OW 6328   0.634   0.519   5.113
 1810SOL    HW1 6329   0.565   0.452   5.139
 1810SOL    HW2 6330   0.714   0.510   5.172
 1811SOL     OW 6331   5.369   4.526   2.096
 1811SOL    HW1 6332   5.301   4.599   2.089
 1811SOL    HW2 6333   5.421   4.521   2.010
 1812SOL     OW 6334   4.157   6.341   6.594
 1812SOL    HW1 6335   4.199   6.411   6.536
 1812SOL    HW2 6336   4.060   6.362   6.607
 1813SOL     OW 6337   5.359   5.144   2.356
 1813SOL    HW1 6338   5.260   5.132   2.361
 1813SOL    HW2 6339   5.403   5.090   2.428
 1814SOL     OW 6340   5.891   0.519   0.524
 1814SOL    HW1 6341   5.821   0.576   0.568
 1814SOL    HW2 6342   5.853   0.478   0.441
 1815SOL     OW 6343   6.311   0.232   2.918
 1815SOL    HW1 6344   6.214   0.216   2.935
 1815SOL    HW2 6345   6.363   0.209   3.000
 1816SOL     OW 6346   3.617   4.952   6.280
 1816SOL    HW1 6347   3.529   4.947   6.232
 1816SOL    HW2 6348   3.677   4.880   6.247
 1817SOL     OW 6349   3.563   1.110   3.263
 1817SOL    HW1 6350   3.610   1.109   3.174
 1817SOL    HW2 6351   3.571   1.200   3.305
 1818SOL     OW 6352   1.603   0.241   0.414
 1818SOL    HW1 6353   1.650   0.159   0.445
 1818SOL    HW2 6354   1.519   0.253   0.467
 1819SOL     OW 6355   1.737   5.460   2.188
 1819SOL    HW1 6356   1.766   5.553   2.166
 1819SOL    HW2 6357   1.658   5.463   2.250
 1820SOL     OW 6358   2.804   0.340   2.239
 1820SOL    HW1 6359   2.750   0.291   2.171
 1820SOL    HW2 6360   2.898   0.305   2.238
 1821SOL     OW 6361   2.548   0.951   2.090
 1821SOL    HW1 6362   2.638   0.914   2.067
 1821SOL    HW2 6363   2.545   1.048   2.068
 1822SOL     OW 6364   1.206   3.149   1.246
 1822SOL    HW1 6365   1.226   3.149   1.344
 1822SOL    HW2 6366   1.292   3.138   1.195
 1823SOL     OW 6367   2.693   6.052   2.984
 1823SOL    HW1 6368   2.703   5.953   2.982
 1823SOL    HW2 6369   2.781   6.095   2.961
 1824SOL     OW 6370   4.166   4.162   0.168
 1824SOL    HW1 6371   4.232   4.197   0.102
 1824SOL    HW2 6372   4.146   4.066   0.148
 1825SOL     OW 6373   0.841   3.056   4.566
 1825SOL    HW1 6374   0.899   3.012   4.496
 1825SOL    HW2 6375   0.898   3.086   4.642
 1826SOL     OW 6376   3.040   0.742   1.319
 1826SOL    HW1 6377   3.009   0.668   1.379
 1826SOL    HW2 6378   3.020   0.718   1.224
 1827SOL     OW 6379   5.562   5.555   0.887
 1827SOL    HW1 6380   5.490   5.546   0.956
 1827SOL    HW2 6381   5.522   5.570   0.797
 1828SOL     OW 6382   1.507   2.650   6.524
 1828SOL    HW1 6383   1.434   2.626   6.588
 1828SOL    HW2 6384   1.468   2.660   6.432
 1829SOL     OW 6385   3.484   6.780   3.465
 1829SOL    HW1 6386   3.415   6.839   3.507
 1829SOL    HW2 6387   3.495   6.697   3.520
 1830SOL     OW 6388   5.715   6.638   4.306
 1830SOL    HW1 6389   5.670   6.668   4.222
 1830SOL    HW2 6390   5.710   6.711   4.374
 1831SOL     OW 6391   4.971   6.168   3.031
 1831SOL    HW1 6392   4.960   6.235   3.105
 1831SOL    HW2 6393   5.039   6.100   3.057
 1832SOL     OW 6394   4.002   2.530   0.360
 1832SOL    HW1 6395   3.913   2.492   0.338
 1832SOL    HW2 6396   4.032   2.496   0.449
 1833SOL     OW 6397   5.216   0.639   1.277
 1833SOL    HW1 6398   5.154   0.659   1.353
 1833SOL    HW2 6399   5.252   0.725   1.241
 1834SOL     OW 6400   2.206   3.962   1.108
 1834SOL    HW1 6401   2.175   3.939   1.016
 1834SOL    HW2 6402   2.283   3.904   1.132
 1835SOL     OW 6403   1.043   4.523   1.640
 1835SOL    HW1 6404   1.128   4.473   1.654
 1835SOL    HW2 6405   0.969   4.460   1.619
 1836SOL     OW 6406   5.568   2.438   1.647
 1836SOL    HW1 6407   5.533   2.377   1.718
 1836SOL    HW2 6408   5.504   2.513   1.633
 1837SOL     OW 6409   1.438   6.953   6.096
 1837SOL    HW1 6410   1.471   7.000   6.014
 1837SOL    HW2 6411   1.499   6.877   6.117
 1838SOL     OW 6412   5.711   0.434   6.086
 1838SOL    HW1 6413   5.798   0.387   6.075
 1838SOL    HW2 6414   5.675   0.417   6.178
 1839SOL     OW 6415   6.387   0.733   5.736
 1839SOL    HW1 6416   6.459   0.758   5.671
 1839SOL    HW2 6417   6.305   0.786   5.715
 1840SOL     OW 6418   3.865   0.065   2.570
 1840SOL    HW1 6419   3.822   0.058   2.660
 1840SOL    HW2 6420   3.878   0.161   2.547
 1841SOL     OW 6421   2.095   0.304   2.878
 1841SOL    HW1 6422   2.191   0.284   2.896
 1841SOL    HW2 6423   2.084   0.327   2.781
 1842SOL     OW 6424   0.797   5.533   1.021
 1842SOL    HW1 6425   0.864   5.527   0.947
 1842SOL    HW2 6426   0.844   5.522   1.109
 1843SOL     OW 6427   5.421   0.448   4.201
 1843SOL    HW1 6428   5.442   0.473   4.295
 1843SOL    HW2 6429   5.488   0.381   4.169
 1844SOL     OW 6430   3.676   0.925   5.368
 1844SOL    HW1 6431   3.755   0.967   5.324
 1844SOL    HW2 6432   3.593   0.946   5.315
 1845SOL     OW 6433   2.911   6.892   3.964
 1845SOL    HW1 6434   2.914   6.971   3.902
 1845SOL    HW2 6435   2.818   6.881   4.000
 1846SOL     OW 6436   4.392   0.871   3.441
 1846SOL    HW1 6437   4.426   0.788   3.486
 1846SOL    HW2 6438   4.297   0.886   3.468
 1847SOL     OW 6439   1.403   0.245   5.495
 1847SOL    HW1 6440   1.365   0.198   5.574
 1847SOL    HW2 6441   1.359   0.212   5.412
 1848SOL     OW 6442   1.771   6.184   3.906
 1848SOL    HW1 6443   1.837   6.184   3.831
 1848SOL    HW2 6444   1.820   6.193   3.993
 1849SOL     OW 6445   4.274   2.314   1.153
 1849SOL    HW1 6446   4.213   2.280   1.081
 1849SOL    HW2 6447   4.257   2.264   1.237
 1850SOL     OW 6448   5.830   1.827   2.597
 1850SOL    HW1 6449   5.830   1.846   2.499
 1850SOL    HW2 6450   5.875   1.902   2.645
 1851SOL     OW 6451   1.395   3.618   6.929
 1851SOL    HW1 6452   1.382   3.670   7.014
 1851SOL    HW2 6453   1.451   3.537   6.948
 1852SOL     OW 6454   0.275   4.934   2.468
 1852SOL    HW1 6455   0.351   4.884   2.427
 1852SOL    HW2 6456   0.266   5.024   2.425
 1853SOL     OW 6457   6.801   2.633   3.049
 1853SOL    HW1 6458   6.793   2.704   2.979
 1853SOL    HW2 6459   6.886   2.582   3.035
 1854SOL     OW 6460   1.733   4.741   2.590
 1854SOL    HW1 6461   1.703   4.720   2.683
 1854SOL    HW2 6462   1.832   4.727   2.583
 1855SOL     OW 6463   5.095   2.991   5.378
 1855SOL    HW1 6464   5.107   2.985   5.477
 1855SOL    HW2 6465   5.012   2.941   5.352
 1856SOL     OW 6466   4.114   3.149   6.380
 1856SOL    HW1 6467   4.173   3.219   6.420
 1856SOL    HW2 6468   4.075   3.182   6.295
 1857SOL     OW 6469   4.326   1.227   0.302
 1857SOL    HW1 6470   4.404   1.266   0.351
 1857SOL    HW2 6471   4.359   1.175   0.223
 1858SOL     OW 6472   5.431   2.302   3.510
 1858SOL    HW1 6473   5.415   2.317   3.608
 1858SOL    HW2 6474   5.365   2.357   3.458
 1859SOL     OW 6475   4.834   1.762   3.679
 1859SOL    HW1 6476   4.813   1.664   3.685
 1859SOL    HW2 6477   4.925   1.774   3.641
 1860SOL     OW 6478   0.200   1.449   5.693
 1860SOL    HW1 6479   0.224   1.364   5.647
 1860SOL    HW2 6480   0.196   1.435   5.792
 1861SOL     OW 6481   4.672   0.742   3.262
 1861SOL    HW1 6482   4.640   0.821   3.209
 1861SOL    HW2 6483   4.749   0.699   3.215
 1862SOL     OW 6484   1.685   6.632   6.852
 1862SOL    HW1 6485   1.708   6.587   6.938
 1862SOL    HW2 6486   1.587   6.622   6.835
 1863SOL     OW 6487   6.547   2.897   1.826
 1863SOL    HW1 6488   6.503   2.873   1.739
 1863SOL    HW2 6489   6.646   2.892   1.815
 1864SOL     OW 6490   3.709   5.780   4.471
 1864SOL    HW1 6491   3.746   5.778   4.564
 1864SOL    HW2 6492   3.660   5.695   4.453
 1865SOL     OW 6493   3.302   1.037   1.158
 1865SOL    HW1 6494   3.400   1.031   1.137
 1865SOL    HW2 6495   3.249   0.995   1.084
 1866SOL     OW 6496   6.316   4.879   3.822
 1866SOL    HW1 6497   6.270   4.832   3.897
 1866SOL    HW2 6498   6.299   4.977   3.829
 1867SOL     OW 6499   2.344   3.279   1.646
 1867SOL    HW1 6500   2.287   3.311   1.570
 1867SOL    HW2 6501   2.358   3.355   1.710
 1868SOL     OW 6502   5.219   3.565   6.506
 1868SOL    HW1 6503   5.164   3.641   6.541
 1868SOL    HW2 6504   5.168   3.479   6.516
 1869SOL     OW 6505   6.082   3.613   4.250
 1869SOL    HW1 6506   6.133   3.560   4.318
 1869SOL    HW2 6507   6.080   3.709   4.277
 1870SOL     OW 6508   1.361   3.017   5.010
 1870SOL    HW1 6509   1.450   3.045   4.974
 1870SOL    HW2 6510   1.374   2.957   5.089
 1871SOL     OW 6511   6.032   6.792   0.452
 1871SOL    HW1 6512   6.104   6.726   0.472
 1871SOL    HW2 6513   6.068   6.885   0.462
 1872SOL     OW 6514   4.317   2.005   0.310
 1872SOL    HW1 6515   4.325   1.934   0.241
 1872SOL    HW2 6516   4.298   2.093   0.266
 1873SOL     OW 6517   6.596   0.647   5.532
 1873SOL    HW1 6518   6.663   0.576   5.508
 1873SOL    HW2 6519   6.535   0.663   5.454
 1874SOL     OW 6520   1.177   0.771   6.697
 1874SOL    HW1 6521   1.150   0.825   6.777
 1874SOL    HW2 6522   1.244   0.822   6.644
 1875SOL     OW 6523   6.464   6.396   0.706
 1875SOL    HW1 6524   6.452   6.416   0.609
 1875SOL    HW2 6525   6.561   6.381   0.725
 1876SOL     OW 6526   4.785   6.194   6.582
 1876SOL    HW1 6527   4.742   6.106   6.563
 1876SOL    HW2 6528   4.866   6.205   6.524
 1877SOL     OW 6529   0.811   1.574   3.304
 1877SOL    HW1 6530   0.829   1.476   3.312
 1877SOL    HW2 6531   0.869   1.625   3.368
 1878SOL     OW 6532   0.152   4.270   3.858
 1878SOL    HW1 6533   0.224   4.272   3.789
 1878SOL    HW2 6534   0.160   4.350   3.918
 1879SOL     OW 6535   2.639   5.691   3.781
 1879SOL    HW1 6536   2.615   5.756   3.853
 1879SOL    HW2 6537   2.607   5.726   3.693
 1880SOL     OW 6538   0.694   2.446   3.100
 1880SOL    HW1 6539   0.609   2.477   3.057
 1880SOL    HW2 6540   0.761   2.424   3.030
 1881SOL     OW 6541   1.027   1.644   3.569
 1881SOL    HW1 6542   1.011   1.672   3.664
 1881SOL    HW2 6543   1.028   1.544   3.564
 1882SOL     OW 6544   0.744   5.238   6.779
 1882SOL    HW1 6545   0.690   5.306   6.731
 1882SOL    HW2 6546   0.776   5.168   6.714
 1883SOL     OW 6547   0.858   3.326   3.689
 1883SOL    HW1 6548   0.804   3.290   3.613
 1883SOL    HW2 6549   0.946   3.359   3.654
 1884SOL     OW 6550   5.687   1.734   0.908
 1884SOL    HW1 6551   5.621   1.695   0.972
 1884SOL    HW2 6552   5.777   1.737   0.950
 1885SOL     OW 6553   0.060   2.048   0.865
 1885SOL    HW1 6554   0.135   2.104   0.829
 1885SOL    HW2 6555   0.053   2.061   0.964
 1886SOL     OW 6556   1.671   1.933   6.979
 1886SOL    HW1 6557   1.642   1.852   0.011
 1886SOL    HW2 6558   1.752   1.973   0.004
 1887SOL     OW 6559   0.253   4.221   5.788
 1887SOL    HW1 6560   0.311   4.144   5.759
 1887SOL    HW2 6561   0.242   4.218   5.887
 1888SOL     OW 6562   2.366   1.839   6.274
 1888SOL    HW1 6563   2.333   1.890   6.354
 1888SOL    HW2 6564   2.291   1.789   6.233
 1889SOL     OW 6565   4.463   3.584   6.716
 1889SOL    HW1 6566   4.479   3.529   6.634
 1889SOL    HW2 6567   4.421   3.527   6.786
 1890SOL     OW 6568   1.462   5.860   5.753
 1890SOL    HW1 6569   1.389   5.892   5.693
 1890SOL    HW2 6570   1.517   5.792   5.704
 1891SOL     OW 6571   5.308   3.542   4.226
 1891SOL    HW1 6572   5.363   3.459   4.218
 1891SOL    HW2 6573   5.211   3.518   4.219
 1892SOL     OW 6574   3.591   6.724   1.025
 1892SOL    HW1 6575   3.639   6.659   1.084
 1892SOL    HW2 6576   3.602   6.696   0.929
 1893SOL     OW 6577   3.861   2.116   5.032
 1893SOL    HW1 6578   3.854   2.146   5.127
 1893SOL    HW2 6579   3.775   2.136   4.984
 1894SOL     OW 6580   4.444   3.776   1.593
 1894SOL    HW1 6581   4.472   3.713   1.520
 1894SOL    HW2 6582   4.385   3.728   1.658
 1895SOL     OW 6583   6.000   0.837   2.657
 1895SOL    HW1 6584   5.967   0.808   2.747
 1895SOL    HW2 6585   5.959   0.926   2.634
 1896SOL     OW 6586   6.970   0.828   3.290
 1896SOL    HW1 6587   6.948   0.866   3.380
 1896SOL    HW2 6588   6.888   0.825   3.234
 1897SOL     OW 6589   6.990   5.359   3.291
 1897SOL    HW1 6590   0.023   5.309   3.361
 1897SOL    HW2 6591   6.892   5.345   3.306
 1898SOL     OW 6592   3.139   5.930   1.796
 1898SOL    HW1 6593   3.067   5.989   1.832
 1898SOL    HW2 6594   3.215   5.986   1.762
 1899SOL     OW 6595   1.175   2.475   2.956
 1899SOL    HW1 6596   1.250   2.442   3.015
 1899SOL    HW2 6597   1.132   2.555   2.998
 1900SOL     OW 6598   0.970   0.252   5.727
 1900SOL    HW1 6599   1.051   0.286   5.679
 1900SOL    HW2 6600   0.969   0.152   5.723
 1901SOL     OW 6601   2.218   1.315   1.212
 1901SOL    HW1 6602   2.153   1.314   1.136
 1901SOL    HW2 6603   2.310   1.331   1.178
 1902SOL     OW 6604   2.398   2.218   4.875
 1902SOL    HW1 6605   2.475   2.282   4.879
 1902SOL    HW2 6606   2.387   2.185   4.782
 1903SOL     OW 6607   7.008   4.096   3.962
 1903SOL    HW1 6608   0.047   4.021   3.990
 1903SOL    HW2 6609   0.043   4.164   3.912
 1904SOL     OW 6610   6.520   0.142   3.814
 1904SOL    HW1 6611   6.584   0.216   3.790
 1904SOL    HW2 6612   6.437   0.182   3.852
 1905SOL     OW 6613   0.580   2.192   4.085
 1905SOL    HW1 6614   0.485   2.207   4.059
 1905SOL    HW2 6615   0.594   2.221   4.180
 1906SOL     OW 6616   2.547   6.752   5.303
 1906SOL    HW1 6617   2.525   6.817   5.231
 1906SOL    HW2 6618   2.643   6.763   5.330
 1907SOL     OW 6619   3.034   6.608   3.225
 1907SOL    HW1 6620   3.000   6.585   3.317
 1907SOL    HW2 6621   3.117   6.556   3.206
 1908SOL     OW 6622   4.517   0.866   4.995
 1908SOL    HW1 6623   4.485   0.854   4.901
 1908SOL    HW2 6624   4.459   0.933   5.042
 1909SOL     OW 6625   1.913   3.920   2.937
 1909SOL    HW1 6626   1.958   3.835   2.964
 1909SOL    HW2 6627   1.959   3.997   2.980
 1910SOL     OW 6628   6.023   2.188   6.738
 1910SOL    HW1 6629   5.993   2.279   6.712
 1910SOL    HW2 6630   5.950   2.140   6.786
 1911SOL     OW 6631   5.803   1.926   5.804
 1911SOL    HW1 6632   5.746   2.006   5.825
 1911SOL    HW2 6633   5.745   1.852   5.771
 1912SOL     OW 6634   3.891   6.717   1.701
 1912SOL    HW1 6635   3.888   6.744   1.605
 1912SOL    HW2 6636   3.984   6.725   1.736
 1913SOL     OW 6637   1.741   6.486   5.548
 1913SOL    HW1 6638   1.743   6.389   5.523
 1913SOL    HW2 6639   1.787   6.499   5.636
 1914SOL     OW 6640   3.058   2.978   0.122
 1914SOL    HW1 6641   2.989   2.906   0.112
 1914SOL    HW2 6642   3.013   3.067   0.128
 1915SOL     OW 6643   3.886   1.210   5.531
 1915SOL    HW1 6644   3.957   1.268   5.492
 1915SOL    HW2 6645   3.880   1.124   5.479
 1916SOL     OW 6646   2.802   5.734   0.850
 1916SOL    HW1 6647   2.828   5.829   0.836
 1916SOL    HW2 6648   2.829   5.705   0.941
 1917SOL     OW 6649   3.793   2.950   4.546
 1917SOL    HW1 6650   3.717   2.934   4.483
 1917SOL    HW2 6651   3.859   3.012   4.504
 1918SOL     OW 6652   6.522   0.141   0.011
 1918SOL    HW1 6653   6.435   0.106   0.046
 1918SOL    HW2 6654   6.516   0.154   6.931
 1919SOL     OW 6655   1.827   6.900   2.289
 1919SOL    HW1 6656   1.863   6.916   2.197
 1919SOL    HW2 6657   1.728   6.888   2.285
 1920SOL     OW 6658   0.781   5.028   3.670
 1920SOL    HW1 6659   0.717   5.044   3.595
 1920SOL    HW2 6660   0.850   4.961   3.643
 1921SOL     OW 6661   1.060   4.150   0.029
 1921SOL    HW1 6662   1.150   4.195   0.031
 1921SOL    HW2 6663   1.047   4.108   6.958
 1922SOL     OW 6664   3.665   4.321   1.079
 1922SOL    HW1 6665   3.685   4.241   1.022
 1922SOL    HW2 6666   3.720   4.398   1.047
 1923SOL     OW 6667   3.433   0.515   6.852
 1923SOL    HW1 6668   3.388   0.507   6.763
 1923SOL    HW2 6669   3.464   0.424   6.881
 1924SOL     OW 6670   5.700   5.476   2.250
 1924SOL    HW1 6671   5.625   5.439   2.305
 1924SOL    HW2 6672   5.705   5.425   2.164
 1925SOL     OW 6673   3.179   3.849   1.998
 1925SOL    HW1 6674   3.090   3.831   1.955
 1925SOL    HW2 6675   3.224   3.763   2.020
 1926SOL     OW 6676   0.800   6.694   3.857
 1926SOL    HW1 6677   0.705   6.665   3.868
 1926SOL    HW2 6678   0.859   6.640   3.917
 1927SOL     OW 6679   3.575   5.219   6.376
 1927SOL    HW1 6680   3.662   5.268   6.371
 1927SOL    HW2 6681   3.577   5.142   6.312
 1928SOL     OW 6682   6.801   3.380   6.165
 1928SOL    HW1 6683   6.881   3.363   6.223
 1928SOL    HW2 6684   6.831   3.416   6.077
 1929SOL     OW 6685   0.884   6.244   1.175
 1929SOL    HW1 6686   0.869   6.154   1.135
 1929SOL    HW2 6687   0.981   6.258   1.190
 1930SOL     OW 6688   4.245   3.889   0.209
 1930SOL    HW1 6689   4.161   3.836   0.204
 1930SOL    HW2 6690   4.315   3.847   0.151
 1931SOL     OW 6691   0.124   3.138   3.364
 1931SOL    HW1 6692   0.067   3.055   3.369
 1931SOL    HW2 6693   0.220   3.113   3.376
 1932SOL     OW 6694   5.149   4.245   1.914
 1932SOL    HW1 6695   5.223   4.183   1.889
 1932SOL    HW2 6696   5.187   4.324   1.962
 1933SOL     OW 6697   3.637   4.115   0.347
 1933SOL    HW1 6698   3.637   4.041   0.415
 1933SOL    HW2 6699   3.687   4.194   0.383
 1934SOL     OW 6700   0.172   0.552   5.030
 1934SOL    HW1 6701   0.130   0.597   4.951
 1934SOL    HW2 6702   0.187   0.456   5.010
 1935SOL     OW 6703   3.323   0.522   4.740
 1935SOL    HW1 6704   3.237   0.513   4.790
 1935SOL    HW2 6705   3.305   0.535   4.643
 1936SOL     OW 6706   5.977   4.012   4.127
 1936SOL    HW1 6707   6.059   4.063   4.152
 1936SOL    HW2 6708   5.917   4.069   4.072
 1937SOL     OW 6709   4.640   6.634   0.843
 1937SOL    HW1 6710   4.619   6.548   0.889
 1937SOL    HW2 6711   4.672   6.701   0.911
 1938SOL     OW 6712   3.936   1.465   2.551
 1938SOL    HW1 6713   4.027   1.477   2.511
 1938SOL    HW2 6714   3.872   1.434   2.481
 1939SOL     OW 6715   0.192   6.674   4.662
 1939SOL    HW1 6716   0.236   6.709   4.579
 1939SOL    HW2 6717   0.096   6.701   4.662
 1940SOL     OW 6718   4.926   4.947   6.482
 1940SOL    HW1 6719   4.957   5.001   6.561
 1940SOL    HW2 6720   4.865   4.874   6.514
 1941SOL     OW 6721   0.180   4.166   2.806
 1941SOL    HW1 6722   0.088   4.207   2.801
 1941SOL    HW2 6723   0.225   4.196   2.889
 1942SOL     OW 6724   5.990   0.907   3.031
 1942SOL    HW1 6725   6.082   0.877   3.007
 1942SOL    HW2 6726   5.977   0.901   3.130
 1943SOL     OW 6727   2.374   6.282   2.286
 1943SOL    HW1 6728   2.322   6.250   2.365
 1943SOL    HW2 6729   2.436   6.210   2.254
 1944SOL     OW 6730   5.302   2.067   6.878
 1944SOL    HW1 6731   5.218   2.023   6.848
 1944SOL    HW2 6732   5.282   2.128   6.955
 1945SOL     OW 6733   4.103   6.017   2.267
 1945SOL    HW1 6734   4.019   6.002   2.320
 1945SOL    HW2 6735   4.116   6.116   2.254
 1946SOL     OW 6736   5.688   0.853   1.025
 1946SOL    HW1 6737   5.657   0.935   0.977
 1946SOL    HW2 6738   5.632   0.775   0.997
 1947SOL     OW 6739   4.714   6.277   3.825
 1947SOL    HW1 6740   4.802   6.257   3.868
 1947SOL    HW2 6741   4.701   6.377   3.822
 1948SOL     OW 6742   6.084   6.054   3.989
 1948SOL    HW1 6743   6.107   6.142   4.031
 1948SOL    HW2 6744   6.140   5.982   4.029
 1949SOL     OW 6745   4.267   4.416   5.908
 1949SOL    HW1 6746   4.313   4.337   5.950
 1949SOL    HW2 6747   4.210   4.461   5.977
 1950SOL     OW 6748   3.247   4.730   0.987
 1950SOL    HW1 6749   3.290   4.743   0.897
 1950SOL    HW2 6750   3.230   4.819   1.029
 1951SOL     OW 6751   6.069   3.832   0.860
 1951SOL    HW1 6752   5.975   3.808   0.838
 1951SOL    HW2 6753   6.114   3.868   0.779
 1952SOL     OW 6754   3.771   1.959   0.316
 1952SOL    HW1 6755   3.829   1.948   0.235
 1952SOL    HW2 6756   3.734   2.052   0.318
 1953SOL     OW 6757   6.418   3.066   6.929
 1953SOL    HW1 6758   6.398   3.150   6.878
 1953SOL    HW2 6759   6.402   3.082   0.007
 1954SOL     OW 6760   5.424   0.805   4.132
 1954SOL    HW1 6761   5.516   0.768   4.121
 1954SOL    HW2 6762   5.429   0.905   4.137
 1955SOL     OW 6763   1.290   0.995   2.647
 1955SOL    HW1 6764   1.380   0.995   2.691
 1955SOL    HW2 6765   1.231   0.928   2.692
 1956SOL     OW 6766   5.338   0.249   2.386
 1956SOL    HW1 6767   5.296   0.281   2.471
 1956SOL    HW2 6768   5.356   0.151   2.392
 1957SOL     OW 6769   6.438   5.934   5.023
 1957SOL    HW1 6770   6.353   5.923   5.076
 1957SOL    HW2 6771   6.514   5.894   5.074
 1958SOL     OW 6772   5.672   2.821   2.609
 1958SOL    HW1 6773   5.634   2.900   2.560
 1958SOL    HW2 6774   5.767   2.807   2.582
 1959SOL     OW 6775   0.212   1.499   5.970
 1959SOL    HW1 6776   0.161   1.581   5.995
 1959SOL    HW2 6777   0.307   1.509   5.997
 1960SOL     OW 6778   6.964   4.325   1.320
 1960SOL    HW1 6779   7.009   4.364   1.240
 1960SOL    HW2 6780   6.960   4.225   1.311
 1961SOL     OW 6781   5.920   4.832   4.320
 1961SOL    HW1 6782   5.945   4.736   4.336
 1961SOL    HW2 6783   5.871   4.868   4.400
 1962SOL     OW 6784   2.456   6.800   3.643
 1962SOL    HW1 6785   2.373   6.812   3.589
 1962SOL    HW2 6786   2.536   6.815   3.584
 1963SOL     OW 6787   0.898   1.144   1.283
 1963SOL    HW1 6788   0.991   1.108   1.294
 1963SOL    HW2 6789   0.833   1.068   1.290
 1964SOL     OW 6790   4.636   3.323   1.721
 1964SOL    HW1 6791   4.602   3.234   1.753
 1964SOL    HW2 6792   4.724   3.342   1.765
 1965SOL     OW 6793   1.131   3.217   3.968
 1965SOL    HW1 6794   1.053   3.252   4.021
 1965SOL    HW2 6795   1.166   3.290   3.910
 1966SOL     OW 6796   6.789   5.973   6.100
 1966SOL    HW1 6797   6.701   5.981   6.146
 1966SOL    HW2 6798   6.826   6.064   6.080
 1967SOL     OW 6799   4.728   2.360   4.804
 1967SOL    HW1 6800   4.700   2.285   4.864
 1967SOL    HW2 6801   4.647   2.409   4.771
 1968SOL     OW 6802   3.418   6.385   0.496
 1968SOL    HW1 6803   3.402   6.466   0.552
 1968SOL    HW2 6804   3.408   6.303   0.553
 1969SOL     OW 6805   0.602   1.936   1.879
 1969SOL    HW1 6806   0.576   1.977   1.966
 1969SOL    HW2 6807   0.658   1.855   1.895
 1970SOL     OW 6808   2.304   0.098   6.261
 1970SOL    HW1 6809   2.209   0.091   6.232
 1970SOL    HW2 6810   2.345   0.181   6.222
 1971SOL     OW 6811   0.246   0.565   6.065
 1971SOL    HW1 6812   0.216   0.571   6.160
 1971SOL    HW2 6813   0.172   0.595   6.005
 1972SOL     OW 6814   5.439   2.730   2.690
 1972SOL    HW1 6815   5.535   2.745   2.668
 1972SOL    HW2 6816   5.425   2.740   2.789
 1973SOL     OW 6817   2.694   3.111   0.589
 1973SOL    HW1 6818   2.770   3.176   0.596
 1973SOL    HW2 6819   2.611   3.152   0.627
 1974SOL     OW 6820   5.767   6.265   4.268
 1974SOL    HW1 6821   5.832   6.336   4.240
 1974SOL    HW2 6822   5.674   6.301   4.260
 1975SOL     OW 6823   2.521   1.617   3.131
 1975SOL    HW1 6824   2.464   1.547   3.087
 1975SOL    HW2 6825   2.512   1.610   3.230
 1976SOL     OW 6826   0.039   5.792   0.535
 1976SOL    HW1 6827   0.043   5.756   0.442
 1976SOL    HW2 6828   6.971   5.839   0.550
 1977SOL     OW 6829   1.150   3.094   3.553
 1977SOL    HW1 6830   1.167   3.064   3.647
 1977SOL    HW2 6831   1.082   3.167   3.554
 1978SOL     OW 6832   0.628   1.107   3.311
 1978SOL    HW1 6833   0.635   1.100   3.211
 1978SOL    HW2 6834   0.551   1.167   3.335
 1979SOL     OW 6835   6.369   4.370   5.474
 1979SOL    HW1 6836   6.445   4.314   5.440
 1979SOL    HW2 6837   6.296   4.373   5.406
 1980SOL     OW 6838   2.937   0.882   5.997
 1980SOL    HW1 6839   2.929   0.826   5.915
 1980SOL    HW2 6840   2.846   0.901   6.033
 1981SOL     OW 6841   6.393   2.276   2.685
 1981SOL    HW1 6842   6.367   2.345   2.753
 1981SOL    HW2 6843   6.333   2.283   2.606
 1982SOL     OW 6844   0.335   3.784   5.263
 1982SOL    HW1 6845   0.276   3.713   5.224
 1982SOL    HW2 6846   0.425   3.745   5.284
 1983SOL     OW 6847   0.526   1.167   2.863
 1983SOL    HW1 6848   0.488   1.189   2.773
 1983SOL    HW2 6849   0.465   1.104   2.911
 1984SOL     OW 6850   6.100   1.771   4.711
 1984SOL    HW1 6851   6.175   1.726   4.663
 1984SOL    HW2 6852   6.070   1.713   4.787
 1985SOL     OW 6853   1.059   6.642   2.729
 1985SOL    HW1 6854   1.111   6.614   2.810
 1985SOL    HW2 6855   0.991   6.711   2.756
 1986SOL     OW 6856   1.675   0.343   6.934
 1986SOL    HW1 6857   1.583   0.325   6.898
 1986SOL    HW2 6858   1.683   0.302   0.006
 1987SOL     OW 6859   1.084   2.767   0.982
 1987SOL    HW1 6860   1.123   2.692   0.930
 1987SOL    HW2 6861   1.000   2.737   1.027
 1988SOL     OW 6862   5.652   4.848   0.999
 1988SOL    HW1 6863   5.609   4.885   0.916
 1988SOL    HW2 6864   5.653   4.918   1.070
 1989SOL     OW 6865   2.431   6.554   4.428
 1989SOL    HW1 6866   2.450   6.623   4.358
 1989SOL    HW2 6867   2.375   6.594   4.501
 1990SOL     OW 6868   3.315   6.101   0.295
 1990SOL    HW1 6869   3.238   6.072   0.352
 1990SOL    HW2 6870   3.364   6.175   0.340
 1991SOL     OW 6871   4.390   4.788   6.513
 1991SOL    HW1 6872   4.369   4.691   6.519
 1991SOL    HW2 6873   4.473   4.801   6.459
 1992SOL     OW 6874   0.717   0.342   6.864
 1992SOL    HW1 6875   0.732   0.441   6.865
 1992SOL    HW2 6876   0.732   0.305   6.956
 1993SOL     OW 6877   3.951   3.152   4.819
 1993SOL    HW1 6878   3.958   3.137   4.720
 1993SOL    HW2 6879   3.954   3.251   4.837
 1994SOL     OW 6880   1.029   1.508   0.246
 1994SOL    HW1 6881   0.946   1.516   0.301
 1994SOL    HW2 6882   1.089   1.438   0.284
 1995SOL     OW 6883   5.701   2.421   2.261
 1995SOL    HW1 6884   5.666   2.350   2.200
 1995SOL    HW2 6885   5.665   2.510   2.233
 1996SOL     OW 6886   2.458   3.716   0.528
 1996SOL    HW1 6887   2.376   3.668   0.557
 1996SOL    HW2 6888   2.439   3.814   0.521
 1997SOL     OW 6889   4.261   0.755   4.865
 1997SOL    HW1 6890   4.199   0.681   4.891
 1997SOL    HW2 6891   4.248   0.776   4.769
 1998SOL     OW 6892   3.442   3.608   6.081
 1998SOL    HW1 6893   3.453   3.566   5.991
 1998SOL    HW2 6894   3.397   3.543   6.143
 1999SOL     OW 6895   3.708   6.536   1.442
 1999SOL    HW1 6896   3.622   6.554   1.491
 1999SOL    HW2 6897   3.776   6.502   1.507
 2000SOL     OW 6898   4.461   2.200   5.100
 2000SOL    HW1 6899   4.466   2.184   5.001
 2000SOL    HW2 6900   4.470   2.112   5.148
 2001SOL     OW 6901   3.344   1.466   1.859
 2001SOL    HW1 6902   3.429   1.443   1.907
 2001SOL    HW2 6903   3.336   1.409   1.776
 2002SOL     OW 6904   0.822   4.593   5.700
 2002SOL    HW1 6905   0.828   4.536   5.618
 2002SOL    HW2 6906   0.738   4.649   5.696
 2003SOL     OW 6907   5.872   6.590   3.590
 2003SOL    HW1 6908   5.783   6.581   3.636
 2003SOL    HW2 6909   5.862   6.648   3.510
 2004SOL     OW 6910   4.292   1.272   5.170
 2004SOL    HW1 6911   4.386   1.303   5.151
 2004SOL    HW2 6912   4.281   1.179   5.135
 2005SOL     OW 6913   1.025   4.424   7.005
 2005SOL    HW1 6914   1.100   4.362   0.007
 2005SOL    HW2 6915   0.942   4.393   0.032
 2006SOL     OW 6916   5.248   5.246   4.254
 2006SOL    HW1 6917   5.203   5.165   4.219
 2006SOL    HW2 6918   5.322   5.219   4.316
 2007SOL     OW 6919   4.407   4.932   0.910
 2007SOL    HW1 6920   4.486   4.882   0.875
 2007SOL    HW2 6921   4.428   5.030   0.913
 2008SOL     OW 6922   1.563   5.311   3.098
 2008SOL    HW1 6923   1.515   5.354   3.022
 2008SOL    HW2 6924   1.642   5.260   3.063
 2009SOL     OW 6925   5.891   0.022   1.740
 2009SOL    HW1 6926   5.923   0.036   1.834
 2009SOL    HW2 6927   5.818   0.087   1.719
 2010SOL     OW 6928   2.137   1.693   0.550
 2010SOL    HW1 6929   2.231   1.719   0.574
 2010SOL    HW2 6930   2.081   1.693   0.633
 2011SOL     OW 6931   6.643   1.410   4.954
 2011SOL    HW1 6932   6.593   1.436   4.871
 2011SOL    HW2 6933   6.741   1.416   4.937
 2012SOL     OW 6934   1.453   2.847   1.868
 2012SOL    HW1 6935   1.518   2.773   1.853
 2012SOL    HW2 6936   1.399   2.863   1.785
 2013SOL     OW 6937   6.390   1.282   3.357
 2013SOL    HW1 6938   6.412   1.217   3.284
 2013SOL    HW2 6939   6.298   1.318   3.343
 2014SOL     OW 6940   1.990   5.062   2.610
 2014SOL    HW1 6941   1.959   5.121   2.536
 2014SOL    HW2 6942   2.063   5.108   2.661
 2015SOL     OW 6943   2.260   1.441   0.412
 2015SOL    HW1 6944   2.193   1.382   0.367
 2015SOL    HW2 6945   2.217   1.488   0.489
 2016SOL     OW 6946   0.961   5.459   5.231
 2016SOL    HW1 6947   1.013   5.483   5.149
 2016SOL    HW2 6948   0.994   5.372   5.268
 2017SOL     OW 6949   2.386   6.882   4.415
 2017SOL    HW1 6950   2.298   6.859   4.374
 2017SOL    HW2 6951   2.456   6.818   4.384
 2018SOL     OW 6952   5.960   6.868   5.555
 2018SOL    HW1 6953   5.943   6.937   5.484
 2018SOL    HW2 6954   5.880   6.861   5.614
 2019SOL     OW 6955   4.817   2.177   2.176
 2019SOL    HW1 6956   4.806   2.252   2.111
 2019SOL    HW2 6957   4.908   2.183   2.217
 2020SOL     OW 6958   0.540   5.726   4.969
 2020SOL    HW1 6959   0.543   5.626   4.979
 2020SOL    HW2 6960   0.447   5.754   4.946
 2021SOL     OW 6961   2.242   5.517   3.166
 2021SOL    HW1 6962   2.184   5.577   3.221
 2021SOL    HW2 6963   2.203   5.424   3.166
 2022SOL     OW 6964   1.997   3.466   3.071
 2022SOL    HW1 6965   1.900   3.454   3.093
 2022SOL    HW2 6966   2.053   3.434   3.148
 2023SOL     OW 6967   6.346   0.795   6.449
 2023SOL    HW1 6968   6.298   0.764   6.531
 2023SOL    HW2 6969   6.324   0.734   6.372
 2024SOL     OW 6970   6.895   6.992   3.288
 2024SOL    HW1 6971   6.910   6.942   3.373
 2024SOL    HW2 6972   6.875   0.069   3.309
 2025SOL     OW 6973   2.583   2.391   2.419
 2025SOL    HW1 6974   2.571   2.293   2.431
 2025SOL    HW2 6975   2.618   2.409   2.327
 2026SOL     OW 6976   0.680   2.991   6.235
 2026SOL    HW1 6977   0.712   2.988   6.140
 2026SOL    HW2 6978   0.735   3.056   6.287
 2027SOL     OW 6979   0.921   0.931   0.369
 2027SOL    HW1 6980   0.889   0.945   0.463
 2027SOL    HW2 6981   0.965   0.841   0.362
 2028SOL     OW 6982   2.914   1.245   5.987
 2028SOL    HW1 6983   2.964   1.291   5.913
 2028SOL    HW2 6984   2.859   1.171   5.949
 2029SOL     OW 6985   6.180   0.716   0.883
 2029SOL    HW1 6986   6.181   0.751   0.977
 2029SOL    HW2 6987   6.258   0.655   0.869
 2030SOL     OW 6988   2.086   0.525   3.040
 2030SOL    HW1 6989   2.093   0.609   2.987
 2030SOL    HW2 6990   2.070   0.448   2.978
 2031SOL     OW 6991   5.979   6.289   2.083
 2031SOL    HW1 6992   6.078   6.288   2.067
 2031SOL    HW2 6993   5.947   6.383   2.084
 2032SOL     OW 6994   4.499   6.454   1.714
 2032SOL    HW1 6995   4.432   6.440   1.787
 2032SOL    HW2 6996   4.484   6.545   1.673
 2033SOL     OW 6997   3.547   4.220   6.875
 2033SOL    HW1 6998   3.490   4.293   6.913
 2033SOL    HW2 6999   3.489   4.155   6.826
 2034SOL     OW 7000   3.350   6.565   4.601
 2034SOL    HW1 7001   3.361   6.486   4.661
 2034SOL    HW2 7002   3.304   6.537   4.516
 2035SOL     OW 7003   6.657   0.701   1.879
 2035SOL    HW1 7004   6.627   0.613   1.842
 2035SOL    HW2 7005   6.578   0.750   1.915
 2036SOL     OW 7006   0.936   5.348   2.918
 2036SOL    HW1 7007   0.925   5.314   2.825
 2036SOL    HW2 7008   0.992   5.283   2.970
 2037SOL     OW 7009   0.533   2.556   5.659
 2037SOL    HW1 7010   0.474   2.484   5.696
 2037SOL    HW2 7011   0.502   2.581   5.567
 2038SOL     OW 7012   1.510   2.110   6.829
 2038SOL    HW1 7013   1.434   2.155   6.874
 2038SOL    HW2 7014   1.547   2.038   6.888
 2039SOL     OW 7015   0.869   5.319   3.441
 2039SOL    HW1 7016   0.887   5.395   3.379
 2039SOL    HW2 7017   0.814   5.351   3.518
 2040SOL     OW 7018   3.818   2.935   5.245
 2040SOL    HW1 7019   3.726   2.920   5.207
 2040SOL    HW2 7020   3.875   2.980   5.176
 2041SOL     OW 7021   0.090   5.647   5.597
 2041SOL    HW1 7022   0.078   5.574   5.665
 2041SOL    HW2 7023   0.180   5.689   5.609
 2042SOL     OW 7024   5.625   4.564   6.755
 2042SOL    HW1 7025   5.660   4.537   6.844
 2042SOL    HW2 7026   5.702   4.591   6.696
 2043SOL     OW 7027   6.309   4.073   3.135
 2043SOL    HW1 7028   6.273   4.153   3.087
 2043SOL    HW2 7029   6.236   4.006   3.148
 2044SOL     OW 7030   5.065   0.074   1.177
 2044SOL    HW1 7031   5.070   0.001   1.245
 2044SOL    HW2 7032   5.155   0.114   1.162
 2045SOL     OW 7033   3.131   4.907   3.795
 2045SOL    HW1 7034   3.068   4.984   3.784
 2045SOL    HW2 7035   3.079   4.822   3.801
 2046SOL     OW 7036   0.075   1.546   4.053
 2046SOL    HW1 7037   0.095   1.448   4.061
 2046SOL    HW2 7038   0.157   1.595   4.025
 2047SOL     OW 7039   5.478   2.299   0.213
 2047SOL    HW1 7040   5.548   2.354   0.259
 2047SOL    HW2 7041   5.495   2.202   0.230
 2048SOL     OW 7042   1.192   5.889   0.503
 2048SOL    HW1 7043   1.107   5.852   0.540
 2048SOL    HW2 7044   1.211   5.978   0.544
 2049SOL     OW 7045   4.995   1.765   6.425
 2049SOL    HW1 7046   4.960   1.828   6.356
 2049SOL    HW2 7047   4.977   1.671   6.398
 2050SOL     OW 7048   0.439   2.967   2.698
 2050SOL    HW1 7049   0.508   3.025   2.742
 2050SOL    HW2 7050   0.359   2.960   2.758
 2051SOL     OW 7051   1.012   5.978   0.809
 2051SOL    HW1 7052   1.095   6.028   0.784
 2051SOL    HW2 7053   0.957   5.962   0.728
 2052SOL     OW 7054   1.190   4.098   1.169
 2052SOL    HW1 7055   1.233   4.015   1.131
 2052SOL    HW2 7056   1.092   4.095   1.152
 2053SOL     OW 7057   5.538   6.743   4.689
 2053SOL    HW1 7058   5.555   6.691   4.772
 2053SOL    HW2 7059   5.462   6.703   4.638
 2054SOL     OW 7060   4.033   3.076   1.931
 2054SOL    HW1 7061   4.061   2.989   1.893
 2054SOL    HW2 7062   3.986   3.061   2.018
 2055SOL     OW 7063   6.320   3.500   3.650
 2055SOL    HW1 7064   6.356   3.435   3.717
 2055SOL    HW2 7065   6.318   3.591   3.689
 2056SOL     OW 7066   2.363   0.216   2.867
 2056SOL    HW1 7067   2.371   0.271   2.950
 2056SOL    HW2 7068   2.452   0.212   2.821
 2057SOL     OW 7069   5.479   3.183   3.762
 2057SOL    HW1 7070   5.487   3.100   3.708
 2057SOL    HW2 7071   5.405   3.240   3.726
 2058SOL     OW 7072   0.891   1.901   3.232
 2058SOL    HW1 7073   0.969   1.873   3.288
 2058SOL    HW2 7074   0.874   1.833   3.161
 2059SOL     OW 7075   2.836   6.238   6.240
 2059SOL    HW1 7076   2.861   6.143   6.224
 2059SOL    HW2 7077   2.780   6.244   6.323
 2060SOL     OW 7078   6.196   4.676   0.623
 2060SOL    HW1 7079   6.141   4.613   0.569
 2060SOL    HW2 7080   6.260   4.725   0.564
 2061SOL     OW 7081   0.177   1.712   3.488
 2061SOL    HW1 7082   0.231   1.637   3.525
 2061SOL    HW2 7083   0.235   1.791   3.474
 2062SOL     OW 7084   6.180   0.299   3.722
 2062SOL    HW1 7085   6.233   0.348   3.652
 2062SOL    HW2 7086   6.239   0.278   3.800
 2063SOL     OW 7087   1.753   6.918   6.371
 2063SOL    HW1 7088   1.687   6.864   6.422
 2063SOL    HW2 7089   1.782   6.869   6.289
 2064SOL     OW 7090   0.796   2.658   5.523
 2064SOL    HW1 7091   0.706   2.653   5.567
 2064SOL    HW2 7092   0.799   2.594   5.447
 2065SOL     OW 7093   6.750   2.489   4.825
 2065SOL    HW1 7094   6.840   2.533   4.818
 2065SOL    HW2 7095   6.732   2.436   4.743
 2066SOL     OW 7096   1.163   5.018   3.855
 2066SOL    HW1 7097   1.262   5.007   3.846
 2066SOL    HW2 7098   1.137   5.004   3.950
 2067SOL     OW 7099   6.450   5.438   0.928
 2067SOL    HW1 7100   6.462   5.342   0.953
 2067SOL    HW2 7101   6.494   5.455   0.840
 2068SOL     OW 7102   1.626   1.275   4.879
 2068SOL    HW1 7103   1.664   1.336   4.809
 2068SOL    HW2 7104   1.694   1.206   4.904
 2069SOL     OW 7105   0.828   3.147   3.051
 2069SOL    HW1 7106   0.827   3.048   3.037
 2069SOL    HW2 7107   0.882   3.168   3.133
 2070SOL     OW 7108   1.524   1.108   1.944
 2070SOL    HW1 7109   1.437   1.065   1.963
 2070SOL    HW2 7110   1.594   1.072   2.006
 2071SOL     OW 7111   5.839   5.728   5.229
 2071SOL    HW1 7112   5.761   5.780   5.195
 2071SOL    HW2 7113   5.815   5.631   5.235
 2072SOL     OW 7114   4.279   6.877   3.235
 2072SOL    HW1 7115   4.245   6.793   3.194
 2072SOL    HW2 7116   4.240   6.888   3.326
 2073SOL     OW 7117   3.658   0.080   4.421
 2073SOL    HW1 7118   3.700   7.013   4.450
 2073SOL    HW2 7119   3.561   0.064   4.401
 2074SOL     OW 7120   1.730   2.893   0.401
 2074SOL    HW1 7121   1.667   2.965   0.373
 2074SOL    HW2 7122   1.681   2.806   0.407
 2075SOL     OW 7123   5.514   3.265   1.433
 2075SOL    HW1 7124   5.523   3.180   1.484
 2075SOL    HW2 7125   5.437   3.318   1.468
 2076SOL     OW 7126   5.371   0.249   6.396
 2076SOL    HW1 7127   5.271   0.260   6.390
 2076SOL    HW2 7128   5.398   0.169   6.342
 2077SOL     OW 7129   5.405   2.657   2.422
 2077SOL    HW1 7130   5.413   2.651   2.522
 2077SOL    HW2 7131   5.312   2.681   2.397
 2078SOL     OW 7132   1.039   5.430   5.577
 2078SOL    HW1 7133   0.968   5.360   5.574
 2078SOL    HW2 7134   1.027   5.493   5.501
 2079SOL     OW 7135   5.311   2.290   4.086
 2079SOL    HW1 7136   5.278   2.353   4.157
 2079SOL    HW2 7137   5.410   2.279   4.094
 2080SOL     OW 7138   1.680   0.810   5.016
 2080SOL    HW1 7139   1.673   0.796   5.115
 2080SOL    HW2 7140   1.776   0.823   4.991
 2081SOL     OW 7141   1.429   5.097   4.108
 2081SOL    HW1 7142   1.414   5.164   4.035
 2081SOL    HW2 7143   1.428   5.005   4.069
 2082SOL     OW 7144   0.377   6.723   3.415
 2082SOL    HW1 7145   0.326   6.683   3.339
 2082SOL    HW2 7146   0.432   6.799   3.382
 2083SOL     OW 7147   6.232   5.137   6.259
 2083SOL    HW1 7148   6.310   5.188   6.296
 2083SOL    HW2 7149   6.262   5.081   6.182
 2084SOL     OW 7150   1.510   3.549   3.783
 2084SOL    HW1 7151   1.584   3.495   3.741
 2084SOL    HW2 7152   1.506   3.639   3.739
 2085SOL     OW 7153   4.347   0.347   6.994
 2085SOL    HW1 7154   4.390   0.394   0.053
 2085SOL    HW2 7155   4.388   0.256   6.984
 2086SOL     OW 7156   4.183   6.670   5.488
 2086SOL    HW1 7157   4.134   6.753   5.515
 2086SOL    HW2 7158   4.183   6.663   5.388
 2087SOL     OW 7159   4.889   0.218   1.347
 2087SOL    HW1 7160   4.940   0.150   1.293
 2087SOL    HW2 7161   4.874   0.182   1.439
 2088SOL     OW 7162   1.885   5.935   0.235
 2088SOL    HW1 7163   1.956   5.906   0.172
 2088SOL    HW2 7164   1.874   5.867   0.308
 2089SOL     OW 7165   5.242   2.196   6.087
 2089SOL    HW1 7166   5.184   2.243   6.020
 2089SOL    HW2 7167   5.197   2.198   6.177
 2090SOL     OW 7168   3.626   3.006   6.251
 2090SOL    HW1 7169   3.528   2.986   6.261
 2090SOL    HW2 7170   3.638   3.078   6.183
 2091SOL     OW 7171   6.997   5.231   0.700
 2091SOL    HW1 7172   6.975   5.165   0.771
 2091SOL    HW2 7173   0.065   5.206   0.657
 2092SOL     OW 7174   5.486   4.239   6.910
 2092SOL    HW1 7175   5.527   4.330   6.901
 2092SOL    HW2 7176   5.392   4.241   6.874
 2093SOL     OW 7177   2.689   2.121   1.375
 2093SOL    HW1 7178   2.626   2.138   1.450
 2093SOL    HW2 7179   2.733   2.031   1.388
 2094SOL     OW 7180   6.163   1.631   1.724
 2094SOL    HW1 7181   6.067   1.606   1.736
 2094SOL    HW2 7182   6.199   1.667   1.810
 2095SOL     OW 7183   5.317   6.940   4.978
 2095SOL    HW1 7184   5.357   6.995   5.052
 2095SOL    HW2 7185   5.307   6.846   5.009
 2096SOL     OW 7186   4.823   3.866   2.782
 2096SOL    HW1 7187   4.821   3.767   2.798
 2096SOL    HW2 7188   4.847   3.913   2.867
 2097SOL     OW 7189   2.844   2.945   6.712
 2097SOL    HW1 7190   2.848   2.966   6.614
 2097SOL    HW2 7191   2.878   3.022   6.765
 2098SOL     OW 7192   3.921   5.640   2.128
 2098SOL    HW1 7193   3.843   5.607   2.181
 2098SOL    HW2 7194   3.907   5.737   2.105
 2099SOL     OW 7195   2.826   2.848   6.201
 2099SOL    HW1 7196   2.790   2.931   6.158
 2099SOL    HW2 7197   2.806   2.769   6.143
 2100SOL     OW 7198   4.456   2.428   6.177
 2100SOL    HW1 7199   4.408   2.344   6.152
 2100SOL    HW2 7200   4.417   2.465   6.262
 2101SOL     OW 7201   1.239   6.629   2.523
 2101SOL    HW1 7202   1.284   6.713   2.551
 2101SOL    HW2 7203   1.218   6.574   2.603
 2102SOL     OW 7204   6.328   4.709   2.733
 2102SOL    HW1 7205   6.237   4.750   2.738
 2102SOL    HW2 7206   6.345   4.656   2.816
 2103SOL     OW 7207   4.084   4.404   5.579
 2103SOL    HW1 7208   4.009   4.388   5.644
 2103SOL    HW2 7209   4.046   4.414   5.487
 2104SOL     OW 7210   2.305   4.235   1.217
 2104SOL    HW1 7211   2.269   4.146   1.189
 2104SOL    HW2 7212   2.230   4.294   1.245
 2105SOL     OW 7213   4.957   6.060   5.279
 2105SOL    HW1 7214   4.963   6.039   5.181
 2105SOL    HW2 7215   4.934   5.978   5.329
 2106SOL     OW 7216   4.881   4.739   1.461
 2106SOL    HW1 7217   4.783   4.721   1.460
 2106SOL    HW2 7218   4.927   4.669   1.516
 2107SOL     OW 7219   5.239   2.488   5.381
 2107SOL    HW1 7220   5.240   2.581   5.418
 2107SOL    HW2 7221   5.193   2.427   5.445
 2108SOL     OW 7222   6.169   5.436   4.968
 2108SOL    HW1 7223   6.217   5.410   5.052
 2108SOL    HW2 7224   6.099   5.504   4.990
 2109SOL     OW 7225   4.366   5.899   2.354
 2109SOL    HW1 7226   4.272   5.912   2.324
 2109SOL    HW2 7227   4.368   5.881   2.452
 2110SOL     OW 7228   2.426   1.572   0.144
 2110SOL    HW1 7229   2.360   1.552   0.217
 2110SOL    HW2 7230   2.406   1.662   0.105
 2111SOL     OW 7231   1.445   2.416   6.680
 2111SOL    HW1 7232   1.372   2.359   6.718
 2111SOL    HW2 7233   1.516   2.428   6.749
 2112SOL     OW 7234   5.567   3.693   0.542
 2112SOL    HW1 7235   5.532   3.715   0.634
 2112SOL    HW2 7236   5.665   3.678   0.546
 2113SOL     OW 7237   2.360   2.056   5.711
 2113SOL    HW1 7238   2.437   2.025   5.654
 2113SOL    HW2 7239   2.302   2.117   5.657
 2114SOL     OW 7240   1.375   1.844   6.806
 2114SOL    HW1 7241   1.413   1.898   6.731
 2114SOL    HW2 7242   1.336   1.906   6.875
 2115SOL     OW 7243   1.961   3.320   2.394
 2115SOL    HW1 7244   2.007   3.340   2.308
 2115SOL    HW2 7245   1.985   3.228   2.425
 2116SOL     OW 7246   0.341   5.161   3.353
 2116SOL    HW1 7247   0.251   5.168   3.396
 2116SOL    HW2 7248   0.354   5.068   3.318
 2117SOL     OW 7249   7.003   5.221   1.699
 2117SOL    HW1 7250   0.045   5.196   1.774
 2117SOL    HW2 7251   6.922   5.267   1.736
 2118SOL     OW 7252   6.492   3.673   2.064
 2118SOL    HW1 7253   6.504   3.581   2.101
 2118SOL    HW2 7254   6.395   3.687   2.041
 2119SOL     OW 7255   1.476   6.694   1.178
 2119SOL    HW1 7256   1.399   6.632   1.166
 2119SOL    HW2 7257   1.449   6.787   1.154
 2120SOL     OW 7258   6.804   5.166   4.119
 2120SOL    HW1 7259   6.884   5.226   4.114
 2120SOL    HW2 7260   6.804   5.118   4.207
 2121SOL     OW 7261   1.827   4.300   5.932
 2121SOL    HW1 7262   1.829   4.390   5.889
 2121SOL    HW2 7263   1.893   4.240   5.888
 2122SOL     OW 7264   5.709   3.930   5.881
 2122SOL    HW1 7265   5.748   3.986   5.954
 2122SOL    HW2 7266   5.775   3.922   5.807
 2123SOL     OW 7267   6.842   6.017   2.554
 2123SOL    HW1 7268   6.901   5.987   2.479
 2123SOL    HW2 7269   6.830   6.116   2.549
 2124SOL     OW 7270   3.168   1.807   1.256
 2124SOL    HW1 7271   3.261   1.821   1.291
 2124SOL    HW2 7272   3.170   1.737   1.185
 2125SOL     OW 7273   2.081   0.988   2.022
 2125SOL    HW1 7274   2.113   0.932   1.946
 2125SOL    HW2 7275   2.045   1.074   1.987
 2126SOL     OW 7276   3.819   1.566   6.210
 2126SOL    HW1 7277   3.828   1.467   6.199
 2126SOL    HW2 7278   3.742   1.599   6.156
 2127SOL     OW 7279   0.468   3.373   4.916
 2127SOL    HW1 7280   0.469   3.368   5.016
 2127SOL    HW2 7281   0.555   3.338   4.880
 2128SOL     OW 7282   6.793   3.212   3.710
 2128SOL    HW1 7283   6.744   3.287   3.755
 2128SOL    HW2 7284   6.736   3.175   3.636
 2129SOL     OW 7285   4.616   3.375   5.555
 2129SOL    HW1 7286   4.663   3.402   5.639
 2129SOL    HW2 7287   4.558   3.296   5.573
 2130SOL     OW 7288   3.457   0.850   2.680
 2130SOL    HW1 7289   3.508   0.895   2.607
 2130SOL    HW2 7290   3.449   0.911   2.758
 2131SOL     OW 7291   5.271   1.347   0.937
 2131SOL    HW1 7292   5.263   1.411   0.860
 2131SOL    HW2 7293   5.207   1.374   1.009
 2132SOL     OW 7294   3.169   0.250   1.972
 2132SOL    HW1 7295   3.208   0.342   1.977
 2132SOL    HW2 7296   3.239   0.182   1.993
 2133SOL     OW 7297   3.332   2.907   0.624
 2133SOL    HW1 7298   3.257   2.967   0.651
 2133SOL    HW2 7299   3.316   2.873   0.531
 2134SOL     OW 7300   6.927   1.349   5.930
 2134SOL    HW1 7301   6.833   1.345   5.964
 2134SOL    HW2 7302   6.930   1.408   5.849
 2135SOL     OW 7303   1.396   3.346   4.820
 2135SOL    HW1 7304   1.440   3.303   4.741
 2135SOL    HW2 7305   1.400   3.285   4.898
 2136SOL     OW 7306   1.384   3.781   3.660
 2136SOL    HW1 7307   1.450   3.851   3.634
 2136SOL    HW2 7308   1.308   3.781   3.595
 2137SOL     OW 7309   2.879   5.494   4.945
 2137SOL    HW1 7310   2.972   5.527   4.959
 2137SOL    HW2 7311   2.860   5.487   4.847
 2138SOL     OW 7312   6.502   0.697   2.622
 2138SOL    HW1 7313   6.495   0.680   2.720
 2138SOL    HW2 7314   6.565   0.773   2.606
 2139SOL     OW 7315   3.848   0.793   3.700
 2139SOL    HW1 7316   3.756   0.814   3.734
 2139SOL    HW2 7317   3.845   0.785   3.600
 2140SOL     OW 7318   3.804   6.609   3.976
 2140SOL    HW1 7319   3.894   6.639   4.008
 2140SOL    HW2 7320   3.815   6.545   3.900
 2141SOL     OW 7321   0.280   3.423   2.164
 2141SOL    HW1 7322   0.372   3.445   2.197
 2141SOL    HW2 7323   0.275   3.438   2.066
 2142SOL     OW 7324   2.070   1.811   3.080
 2142SOL    HW1 7325   2.037   1.802   3.174
 2142SOL    HW2 7326   2.124   1.896   3.072
 2143SOL     OW 7327   2.675   4.665   1.509
 2143SOL    HW1 7328   2.693   4.619   1.422
 2143SOL    HW2 7329   2.748   4.731   1.527
 2144SOL     OW 7330   1.396   5.273   3.885
 2144SOL    HW1 7331   1.327   5.281   3.813
 2144SOL    HW2 7332   1.383   5.347   3.951
 2145SOL     OW 7333   4.377   5.975   4.143
 2145SOL    HW1 7334   4.316   5.931   4.078
 2145SOL    HW2 7335   4.424   6.052   4.099
 2146SOL     OW 7336   2.716   3.632   1.608
 2146SOL    HW1 7337   2.781   3.671   1.674
 2146SOL    HW2 7338   2.644   3.699   1.590
 2147SOL     OW 7339   6.338   1.733   5.926
 2147SOL    HW1 7340   6.310   1.657   5.985
 2147SOL    HW2 7341   6.307   1.716   5.833
 2148SOL     OW 7342   6.186   3.139   5.342
 2148SOL    HW1 7343   6.137   3.056   5.317
 2148SOL    HW2 7344   6.169   3.210   5.274
 2149SOL     OW 7345   3.418   1.851   1.351
 2149SOL    HW1 7346   3.461   1.911   1.284
 2149SOL    HW2 7347   3.472   1.767   1.359
 2150SOL     OW 7348   2.490   2.115   1.998
 2150SOL    HW1 7349   2.431   2.065   2.061
 2150SOL    HW2 7350   2.586   2.097   2.019
 2151SOL     OW 7351   1.187   0.392   5.647
 2151SOL    HW1 7352   1.225   0.330   5.715
 2151SOL    HW2 7353   1.175   0.483   5.689
 2152SOL     OW 7354   3.522   5.890   1.894
 2152SOL    HW1 7355   3.465   5.810   1.875
 2152SOL    HW2 7356   3.613   5.877   1.855
 2153SOL     OW 7357   3.885   1.087   2.729
 2153SOL    HW1 7358   3.963   1.093   2.792
 2153SOL    HW2 7359   3.907   1.024   2.655
 2154SOL     OW 7360   5.122   0.665   4.891
 2154SOL    HW1 7361   5.034   0.621   4.871
 2154SOL    HW2 7362   5.148   0.723   4.815
 2155SOL     OW 7363   2.486   5.992   0.252
 2155SOL    HW1 7364   2.544   5.963   0.328
 2155SOL    HW2 7365   2.431   6.071   0.280
 2156SOL     OW 7366   1.686   1.704   5.115
 2156SOL    HW1 7367   1.749   1.762   5.166
 2156SOL    HW2 7368   1.710   1.608   5.130
 2157SOL     OW 7369   5.875   0.916   3.690
 2157SOL    HW1 7370   5.811   0.954   3.623
 2157SOL    HW2 7371   5.836   0.835   3.732
 2158SOL     OW 7372   3.933   6.133   1.249
 2158SOL    HW1 7373   4.029   6.154   1.267
 2158SOL    HW2 7374   3.891   6.093   1.330
 2159SOL     OW 7375   1.117   6.433   5.246
 2159SOL    HW1 7376   1.077   6.355   5.294
 2159SOL    HW2 7377   1.169   6.400   5.167
 2160SOL     OW 7378   4.396   4.026   0.400
 2160SOL    HW1 7379   4.334   4.004   0.324
 2160SOL    HW2 7380   4.445   3.944   0.428
 2161SOL     OW 7381   5.622   5.112   2.899
 2161SOL    HW1 7382   5.628   5.135   2.996
 2161SOL    HW2 7383   5.530   5.080   2.878
 2162SOL     OW 7384   2.004   1.189   1.884
 2162SOL    HW1 7385   2.065   1.253   1.839
 2162SOL    HW2 7386   1.910   1.205   1.854
 2163SOL     OW 7387   1.546   4.389   5.872
 2163SOL    HW1 7388   1.582   4.479   5.849
 2163SOL    HW2 7389   1.613   4.340   5.928
 2164SOL     OW 7390   1.402   2.896   0.422
 2164SOL    HW1 7391   1.442   2.941   0.502
 2164SOL    HW2 7392   1.303   2.893   0.432
 2165SOL     OW 7393   0.251   1.958   2.709
 2165SOL    HW1 7394   0.287   1.944   2.618
 2165SOL    HW2 7395   0.303   1.903   2.775
 2166SOL     OW 7396   1.640   2.480   5.529
 2166SOL    HW1 7397   1.719   2.510   5.583
 2166SOL    HW2 7398   1.607   2.556   5.473
 2167SOL     OW 7399   1.715   1.604   3.281
 2167SOL    HW1 7400   1.722   1.624   3.184
 2167SOL    HW2 7401   1.690   1.688   3.330
 2168SOL     OW 7402   0.846   2.195   3.987
 2168SOL    HW1 7403   0.908   2.132   4.034
 2168SOL    HW2 7404   0.768   2.216   4.046
 2169SOL     OW 7405   5.304   1.010   6.834
 2169SOL    HW1 7406   5.344   1.078   6.772
 2169SOL    HW2 7407   5.348   0.922   6.819
 2170SOL     OW 7408   6.681   4.451   5.612
 2170SOL    HW1 7409   6.623   4.503   5.549
 2170SOL    HW2 7410   6.759   4.508   5.639
 2171SOL     OW 7411   0.490   5.299   1.329
 2171SOL    HW1 7412   0.485   5.221   1.266
 2171SOL    HW2 7413   0.529   5.377   1.281
 2172SOL     OW 7414   1.968   2.144   0.321
 2172SOL    HW1 7415   1.976   2.240   0.347
 2172SOL    HW2 7416   1.990   2.087   0.400
 2173SOL     OW 7417   3.339   0.826   5.406
 2173SOL    HW1 7418   3.392   0.750   5.368
 2173SOL    HW2 7419   3.337   0.820   5.505
 2174SOL     OW 7420   5.461   6.404   5.293
 2174SOL    HW1 7421   5.378   6.430   5.342
 2174SOL    HW2 7422   5.540   6.448   5.335
 2175SOL     OW 7423   2.129   2.962   4.353
 2175SOL    HW1 7424   2.167   3.027   4.419
 2175SOL    HW2 7425   2.079   2.891   4.402
 2176SOL     OW 7426   6.436   2.266   0.648
 2176SOL    HW1 7427   6.506   2.195   0.645
 2176SOL    HW2 7428   6.365   2.241   0.714
 2177SOL     OW 7429   6.777   1.951   3.641
 2177SOL    HW1 7430   6.802   2.002   3.559
 2177SOL    HW2 7431   6.847   1.882   3.661
 2178SOL     OW 7432   1.976   2.304   0.912
 2178SOL    HW1 7433   1.966   2.273   1.007
 2178SOL    HW2 7434   2.073   2.322   0.894
 2179SOL     OW 7435   2.037   5.033   4.770
 2179SOL    HW1 7436   2.106   5.076   4.713
 2179SOL    HW2 7437   2.082   4.974   4.838
 2180SOL     OW 7438   1.914   2.311   1.534
 2180SOL    HW1 7439   2.004   2.317   1.576
 2180SOL    HW2 7440   1.884   2.215   1.531
 2181SOL     OW 7441   4.756   5.123   4.391
 2181SOL    HW1 7442   4.823   5.063   4.434
 2181SOL    HW2 7443   4.771   5.125   4.292
 2182SOL     OW 7444   1.387   3.832   3.933
 2182SOL    HW1 7445   1.383   3.813   3.835
 2182SOL    HW2 7446   1.298   3.865   3.964
 2183SOL     OW 7447   2.710   3.728   5.700
 2183SOL    HW1 7448   2.805   3.730   5.667
 2183SOL    HW2 7449   2.687   3.816   5.741
 2184SOL     OW 7450   4.099   1.630   6.315
 2184SOL    HW1 7451   4.009   1.651   6.276
 2184SOL    HW2 7452   4.154   1.583   6.246
 2185SOL     OW 7453   0.583   1.091   0.932
 2185SOL    HW1 7454   0.650   1.160   0.903
 2185SOL    HW2 7455   0.506   1.091   0.869
 2186SOL     OW 7456   0.485   6.147   1.804
 2186SOL    HW1 7457   0.481   6.054   1.842
 2186SOL    HW2 7458   0.396   6.171   1.766
 2187SOL     OW 7459   6.718   0.136   2.748
 2187SOL    HW1 7460   6.685   0.206   2.811
 2187SOL    HW2 7461   6.800   0.092   2.786
 2188SOL     OW 7462   6.928   6.387   4.988
 2188SOL    HW1 7463   6.870   6.385   4.906
 2188SOL    HW2 7464   7.012   6.438   4.968
 2189SOL     OW 7465   1.563   6.765   0.624
 2189SOL    HW1 7466   1.635   6.829   0.599
 2189SOL    HW2 7467   1.531   6.717   0.543
 2190SOL     OW 7468   0.238   3.475   1.878
 2190SOL    HW1 7469   0.306   3.546   1.861
 2190SOL    HW2 7470   0.168   3.479   1.805
 2191SOL     OW 7471   3.134   1.867   6.660
 2191SOL    HW1 7472   3.179   1.868   6.570
 2191SOL    HW2 7473   3.180   1.930   6.721
 2192SOL     OW 7474   4.445   1.038   2.502
 2192SOL    HW1 7475   4.528   1.095   2.497
 2192SOL    HW2 7476   4.365   1.095   2.483
 2193SOL     OW 7477   5.666   5.574   6.661
 2193SOL    HW1 7478   5.573   5.536   6.659
 2193SOL    HW2 7479   5.729   5.510   6.616
 2194SOL     OW 7480   2.855   4.111   5.539
 2194SOL    HW1 7481   2.879   4.015   5.526
 2194SOL    HW2 7482   2.756   4.122   5.536
 2195SOL     OW 7483   0.018   0.656   4.775
 2195SOL    HW1 7484   7.013   0.753   4.783
 2195SOL    HW2 7485   0.091   0.645   4.708
 2196SOL     OW 7486   2.821   6.760   5.356
 2196SOL    HW1 7487   2.838   6.857   5.342
 2196SOL    HW2 7488   2.853   6.708   5.277
 2197SOL     OW 7489   3.375   3.827   0.640
 2197SOL    HW1 7490   3.324   3.824   0.727
 2197SOL    HW2 7491   3.470   3.849   0.658
 2198SOL     OW 7492   5.611   1.193   0.115
 2198SOL    HW1 7493   5.585   1.193   0.212
 2198SOL    HW2 7494   5.671   1.115   0.097
 2199SOL     OW 7495   4.749   0.847   3.517
 2199SOL    HW1 7496   4.829   0.901   3.492
 2199SOL    HW2 7497   4.714   0.800   3.435
 2200SOL     OW 7498   2.770   1.432   5.491
 2200SOL    HW1 7499   2.744   1.528   5.481
 2200SOL    HW2 7500   2.817   1.402   5.408
 2201SOL     OW 7501   6.418   2.750   3.136
 2201SOL    HW1 7502   6.398   2.707   3.224
 2201SOL    HW2 7503   6.346   2.727   3.070
 2202SOL     OW 7504   2.837   5.626   2.070
 2202SOL    HW1 7505   2.784   5.547   2.100
 2202SOL    HW2 7506   2.893   5.601   1.991
 2203SOL     OW 7507   1.729   2.026   1.090
 2203SOL    HW1 7508   1.792   1.983   1.027
 2203SOL    HW2 7509   1.780   2.085   1.154
 2204SOL     OW 7510   3.566   1.287   1.567
 2204SOL    HW1 7511   3.543   1.299   1.471
 2204SOL    HW2 7512   3.651   1.234   1.575
 2205SOL     OW 7513   0.639   0.260   6.305
 2205SOL    HW1 7514   0.628   0.323   6.383
 2205SOL    HW2 7515   0.612   0.168   6.333
 2206SOL     OW 7516   3.355   4.775   6.409
 2206SOL    HW1 7517   3.401   4.701   6.360
 2206SOL    HW2 7518   3.346   4.854   6.348
 2207SOL     OW 7519   2.801   4.898   6.358
 2207SOL    HW1 7520   2.842   4.904   6.449
 2207SOL    HW2 7521   2.860   4.944   6.291
 2208SOL     OW 7522   1.745   6.285   3.042
 2208SOL    HW1 7523   1.781   6.193   3.023
 2208SOL    HW2 7524   1.820   6.351   3.038
 2209SOL     OW 7525   1.480   6.265   5.378
 2209SOL    HW1 7526   1.387   6.230   5.392
 2209SOL    HW2 7527   1.545   6.189   5.380
 2210SOL     OW 7528   6.485   4.605   4.273
 2210SOL    HW1 7529   6.434   4.674   4.324
 2210SOL    HW2 7530   6.446   4.514   4.290
 2211SOL     OW 7531   5.506   0.405   0.745
 2211SOL    HW1 7532   5.604   0.397   0.767
 2211SOL    HW2 7533   5.470   0.489   0.785
 2212SOL     OW 7534   1.755   5.930   6.943
 2212SOL    HW1 7535   1.728   5.898   0.015
 2212SOL    HW2 7536   1.795   6.021   6.951
 2213SOL     OW 7537   3.557   2.535   5.445
 2213SOL    HW1 7538   3.628   2.571   5.385
 2213SOL    HW2 7539   3.546   2.596   5.524
 2214SOL     OW 7540   3.508   3.020   4.964
 2214SOL    HW1 7541   3.539   3.013   4.869
 2214SOL    HW2 7542   3.410   3.004   4.968
 2215SOL     OW 7543   6.102   1.105   0.456
 2215SOL    HW1 7544   6.079   1.127   0.550
 2215SOL    HW2 7545   6.183   1.046   0.454
 2216SOL     OW 7546   1.703   0.480   6.009
 2216SOL    HW1 7547   1.780   0.544   6.003
 2216SOL    HW2 7548   1.640   0.512   6.080
 2217SOL     OW 7549   4.066   6.858   1.521
 2217SOL    HW1 7550   4.057   6.915   1.439
 2217SOL    HW2 7551   4.053   6.915   1.602
 2218SOL     OW 7552   0.277   5.951   0.449
 2218SOL    HW1 7553   0.241   6.043   0.460
 2218SOL    HW2 7554   0.212   5.884   0.486
 2219SOL     OW 7555   5.530   1.695   1.742
 2219SOL    HW1 7556   5.443   1.729   1.707
 2219SOL    HW2 7557   5.544   1.727   1.836
 2220SOL     OW 7558   1.781   0.393   4.754
 2220SOL    HW1 7559   1.731   0.325   4.700
 2220SOL    HW2 7560   1.718   0.440   4.815
 2221SOL     OW 7561   5.934   0.979   5.224
 2221SOL    HW1 7562   5.882   0.985   5.138
 2221SOL    HW2 7563   6.031   0.986   5.205
 2222SOL     OW 7564   5.058   0.736   0.567
 2222SOL    HW1 7565   5.044   0.702   0.474
 2222SOL    HW2 7566   5.155   0.750   0.583
 2223SOL     OW 7567   5.981   1.363   5.206
 2223SOL    HW1 7568   6.064   1.340   5.155
 2223SOL    HW2 7569   5.982   1.460   5.230
 2224SOL     OW 7570   0.985   3.597   0.186
 2224SOL    HW1 7571   0.982   3.578   0.088
 2224SOL    HW2 7572   0.901   3.565   0.229
 2225SOL     OW 7573   6.332   6.537   3.101
 2225SOL    HW1 7574   6.298   6.496   3.186
 2225SOL    HW2 7575   6.422   6.577   3.117
 2226SOL     OW 7576   3.421   4.774   0.762
 2226SOL    HW1 7577   3.497   4.713   0.783
 2226SOL    HW2 7578   3.430   4.808   0.668
 2227SOL     OW 7579   5.611   3.547   0.036
 2227SOL    HW1 7580   5.525   3.516   0.077
 2227SOL    HW2 7581   5.659   3.606   0.101
 2228SOL     OW 7582   2.853   4.589   1.022
 2228SOL    HW1 7583   2.861   4.626   0.930
 2228SOL    HW2 7584   2.935   4.536   1.044
 2229SOL     OW 7585   4.459   2.500   4.611
 2229SOL    HW1 7586   4.444   2.500   4.710
 2229SOL    HW2 7587   4.492   2.589   4.583
 2230SOL     OW 7588   5.777   5.805   7.004
 2230SOL    HW1 7589   5.814   5.712   6.997
 2230SOL    HW2 7590   5.691   5.811   6.953
 2231SOL     OW 7591   0.359   0.787   2.062
 2231SOL    HW1 7592   0.368   0.720   1.989
 2231SOL    HW2 7593   0.287   0.758   2.126
 2232SOL     OW 7594   0.646   2.844   5.080
 2232SOL    HW1 7595   0.682   2.919   5.137
 2232SOL    HW2 7596   0.715   2.771   5.074
 2233SOL     OW 7597   2.082   3.548   0.204
 2233SOL    HW1 7598   2.052   3.585   0.116
 2233SOL    HW2 7599   2.001   3.523   0.258
 2234SOL     OW 7600   4.044   1.632   1.830
 2234SOL    HW1 7601   3.971   1.606   1.768
 2234SOL    HW2 7602   4.013   1.707   1.888
 2235SOL     OW 7603   2.842   0.139   1.497
 2235SOL    HW1 7604   2.904   0.175   1.566
 2235SOL    HW2 7605   2.847   0.196   1.415
 2236SOL     OW 7606   1.683   4.762   6.109
 2236SOL    HW1 7607   1.695   4.719   6.020
 2236SOL    HW2 7608   1.626   4.703   6.167
 2237SOL     OW 7609   5.965   5.106   4.254
 2237SOL    HW1 7610   5.888   5.154   4.296
 2237SOL    HW2 7611   5.961   5.009   4.279
 2238SOL     OW 7612   5.362   4.944   1.187
 2238SOL    HW1 7613   5.314   4.990   1.263
 2238SOL    HW2 7614   5.437   5.002   1.156
 2239SOL     OW 7615   4.024   4.810   3.384
 2239SOL    HW1 7616   3.959   4.818   3.460
 2239SOL    HW2 7617   3.974   4.796   3.299
 2240SOL     OW 7618   5.279   5.491   3.864
 2240SOL    HW1 7619   5.215   5.429   3.910
 2240SOL    HW2 7620   5.231   5.573   3.834
 2241SOL     OW 7621   0.419   6.207   3.186
 2241SOL    HW1 7622   0.470   6.126   3.213
 2241SOL    HW2 7623   0.438   6.282   3.249
 2242SOL     OW 7624   4.949   2.396   2.735
 2242SOL    HW1 7625   5.017   2.354   2.676
 2242SOL    HW2 7626   4.892   2.325   2.776
 2243SOL     OW 7627   1.550   6.700   6.108
 2243SOL    HW1 7628   1.494   6.662   6.034
 2243SOL    HW2 7629   1.561   6.632   6.180
 2244SOL     OW 7630   1.661   6.852   1.782
 2244SOL    HW1 7631   1.597   6.775   1.784
 2244SOL    HW2 7632   1.751   6.820   1.753
 2245SOL     OW 7633   0.418   1.763   1.117
 2245SOL    HW1 7634   0.406   1.862   1.106
 2245SOL    HW2 7635   0.500   1.734   1.067
 2246SOL     OW 7636   1.038   2.286   5.186
 2246SOL    HW1 7637   1.062   2.305   5.282
 2246SOL    HW2 7638   0.947   2.244   5.182
 2247SOL     OW 7639   3.366   3.186   4.394
 2247SOL    HW1 7640   3.462   3.170   4.417
 2247SOL    HW2 7641   3.327   3.102   4.356
 2248SOL     OW 7642   4.971   3.981   5.568
 2248SOL    HW1 7643   5.069   3.965   5.584
 2248SOL    HW2 7644   4.950   3.967   5.472
 2249SOL     OW 7645   6.329   6.324   2.901
 2249SOL    HW1 7646   6.398   6.385   2.940
 2249SOL    HW2 7647   6.239   6.348   2.937
 2250SOL     OW 7648   4.494   3.867   6.293
 2250SOL    HW1 7649   4.470   3.863   6.390
 2250SOL    HW2 7650   4.550   3.948   6.275
 2251SOL     OW 7651   5.192   0.835   0.038
 2251SOL    HW1 7652   5.239   0.922   0.025
 2251SOL    HW2 7653   5.254   0.760   0.016
 2252SOL     OW 7654   5.040   3.086   2.625
 2252SOL    HW1 7655   4.981   3.090   2.706
 2252SOL    HW2 7656   4.986   3.052   2.547
 2253SOL     OW 7657   1.067   3.521   6.600
 2253SOL    HW1 7658   1.128   3.550   6.525
 2253SOL    HW2 7659   0.998   3.457   6.564
 2254SOL     OW 7660   3.941   2.899   5.477
 2254SOL    HW1 7661   3.869   2.909   5.408
 2254SOL    HW2 7662   4.011   2.969   5.463
 2255SOL     OW 7663   4.531   2.530   6.518
 2255SOL    HW1 7664   4.578   2.449   6.552
 2255SOL    HW2 7665   4.488   2.578   6.594
 2256SOL     OW 7666   5.693   6.051   1.462
 2256SOL    HW1 7667   5.630   6.123   1.488
 2256SOL    HW2 7668   5.724   6.065   1.368
 2257SOL     OW 7669   6.971   2.349   3.948
 2257SOL    HW1 7670   6.995   2.315   4.039
 2257SOL    HW2 7671   6.960   2.449   3.952
 2258SOL     OW 7672   0.839   5.315   5.817
 2258SOL    HW1 7673   0.840   5.270   5.727
 2258SOL    HW2 7674   0.929   5.355   5.835
 2259SOL     OW 7675   5.505   3.623   6.808
 2259SOL    HW1 7676   5.550   3.601   6.894
 2259SOL    HW2 7677   5.531   3.715   6.779
 2260SOL     OW 7678   6.105   3.990   2.489
 2260SOL    HW1 7679   6.120   4.075   2.538
 2260SOL    HW2 7680   6.193   3.954   2.457
 2261SOL     OW 7681   6.408   6.497   6.825
 2261SOL    HW1 7682   6.439   6.542   6.741
 2261SOL    HW2 7683   6.462   6.529   6.902
 2262SOL     OW 7684   5.661   1.415   2.703
 2262SOL    HW1 7685   5.594   1.489   2.695
 2262SOL    HW2 7686   5.690   1.387   2.611
 2263SOL     OW 7687   3.442   5.541   6.706
 2263SOL    HW1 7688   3.429   5.487   6.623
 2263SOL    HW2 7689   3.354   5.552   6.753
 2264SOL     OW 7690   2.695   4.094   0.312
 2264SOL    HW1 7691   2.718   4.021   0.376
 2264SOL    HW2 7692   2.705   4.182   0.357
 2265SOL     OW 7693   0.595   1.227   4.642
 2265SOL    HW1 7694   0.557   1.138   4.666
 2265SOL    HW2 7695   0.694   1.226   4.654
 2266SOL     OW 7696   5.703   1.794   0.372
 2266SOL    HW1 7697   5.657   1.749   0.296
 2266SOL    HW2 7698   5.684   1.744   0.457
 2267SOL     OW 7699   5.234   2.769   5.105
 2267SOL    HW1 7700   5.182   2.809   5.030
 2267SOL    HW2 7701   5.315   2.722   5.070
 2268SOL     OW 7702   6.407   3.661   6.567
 2268SOL    HW1 7703   6.440   3.635   6.476
 2268SOL    HW2 7704   6.479   3.647   6.634
 2269SOL     OW 7705   5.686   5.712   4.883
 2269SOL    HW1 7706   5.633   5.792   4.856
 2269SOL    HW2 7707   5.780   5.740   4.903
 2270SOL     OW 7708   3.316   2.283   6.542
 2270SOL    HW1 7709   3.243   2.224   6.577
 2270SOL    HW2 7710   3.382   2.300   6.615
 2271SOL     OW 7711   5.841   4.008   0.535
 2271SOL    HW1 7712   5.870   4.102   0.553
 2271SOL    HW2 7713   5.746   4.008   0.505
 2272SOL     OW 7714   6.349   2.284   5.873
 2272SOL    HW1 7715   6.410   2.292   5.794
 2272SOL    HW2 7716   6.401   2.249   5.951
 2273SOL     OW 7717   1.904   0.680   2.012
 2273SOL    HW1 7718   1.854   0.686   1.926
 2273SOL    HW2 7719   1.890   0.764   2.065
 2274SOL     OW 7720   0.061   2.755   6.556
 2274SOL    HW1 7721   7.010   2.811   6.513
 2274SOL    HW2 7722   0.079   2.675   6.500
 2275SOL     OW 7723   5.843   0.511   4.527
 2275SOL    HW1 7724   5.793   0.583   4.478
 2275SOL    HW2 7725   5.790   0.482   4.607
 2276SOL     OW 7726   2.378   5.138   0.958
 2276SOL    HW1 7727   2.384   5.097   0.867
 2276SOL    HW2 7728   2.447   5.210   0.966
 2277SOL     OW 7729   4.173   3.747   5.179
 2277SOL    HW1 7730   4.166   3.688   5.259
 2277SOL    HW2 7731   4.161   3.842   5.207
 2278SOL     OW 7732   6.614   4.735   4.070
 2278SOL    HW1 7733   6.531   4.789   4.055
 2278SOL    HW2 7734   6.597   4.667   4.141
 2279SOL     OW 7735   5.178   6.201   4.722
 2279SOL    HW1 7736   5.233   6.235   4.646
 2279SOL    HW2 7737   5.238   6.182   4.800
 2280SOL     OW 7738   6.707   6.868   4.310
 2280SOL    HW1 7739   6.706   6.800   4.237
 2280SOL    HW2 7740   6.626   6.926   4.303
 2281SOL     OW 7741   3.248   1.662   2.056
 2281SOL    HW1 7742   3.340   1.698   2.040
 2281SOL    HW2 7743   3.218   1.611   1.976
 2282SOL     OW 7744   4.908   0.287   4.771
 2282SOL    HW1 7745   4.874   0.287   4.865
 2282SOL    HW2 7746   4.994   0.238   4.766
 2283SOL     OW 7747   0.231   4.472   2.027
 2283SOL    HW1 7748   0.227   4.458   1.928
 2283SOL    HW2 7749   0.242   4.383   2.072
 2284SOL     OW 7750   1.774   2.194   6.481
 2284SOL    HW1 7751   1.827   2.258   6.535
 2284SOL    HW2 7752   1.680   2.228   6.471
 2285SOL     OW 7753   2.535   2.122   0.888
 2285SOL    HW1 7754   2.608   2.159   0.830
 2285SOL    HW2 7755   2.576   2.073   0.965
 2286SOL     OW 7756   6.692   0.336   4.139
 2286SOL    HW1 7757   6.611   0.286   4.168
 2286SOL    HW2 7758   6.669   0.393   4.060
 2287SOL     OW 7759   1.271   1.221   3.121
 2287SOL    HW1 7760   1.365   1.242   3.093
 2287SOL    HW2 7761   1.256   1.122   3.117
 2288SOL     OW 7762   6.306   5.208   4.570
 2288SOL    HW1 7763   6.239   5.194   4.643
 2288SOL    HW2 7764   6.260   5.244   4.489
 2289SOL     OW 7765   0.396   4.693   2.052
 2289SOL    HW1 7766   0.353   4.610   2.017
 2289SOL    HW2 7767   0.495   4.686   2.042
 2290SOL     OW 7768   1.438   4.569   1.889
 2290SOL    HW1 7769   1.505   4.565   1.814
 2290SOL    HW2 7770   1.371   4.640   1.870
 2291SOL     OW 7771   2.795   2.298   6.727
 2291SOL    HW1 7772   2.841   2.283   6.639
 2291SOL    HW2 7773   2.696   2.304   6.713
 2292SOL     OW 7774   5.720   2.016   4.729
 2292SOL    HW1 7775   5.715   2.058   4.819
 2292SOL    HW2 7776   5.731   2.086   4.659
 2293SOL     OW 7777   5.377   0.022   1.303
 2293SOL    HW1 7778   5.411   6.957   1.261
 2293SOL    HW2 7779   5.454   0.072   1.344
 2294SOL     OW 7780   3.077   1.097   6.428
 2294SOL    HW1 7781   3.070   1.121   6.332
 2294SOL    HW2 7782   3.108   1.002   6.437
 2295SOL     OW 7783   0.529   1.946   2.891
 2295SOL    HW1 7784   0.498   1.851   2.888
 2295SOL    HW2 7785   0.480   1.995   2.963
 2296SOL     OW 7786   3.785   5.800   1.808
 2296SOL    HW1 7787   3.737   5.712   1.808
 2296SOL    HW2 7788   3.858   5.798   1.739
 2297SOL     OW 7789   4.789   4.482   5.530
 2297SOL    HW1 7790   4.786   4.578   5.559
 2297SOL    HW2 7791   4.776   4.423   5.609
 2298SOL     OW 7792   4.206   3.312   1.917
 2298SOL    HW1 7793   4.143   3.236   1.904
 2298SOL    HW2 7794   4.158   3.386   1.965
 2299SOL     OW 7795   4.578   5.001   4.930
 2299SOL    HW1 7796   4.605   5.001   5.026
 2299SOL    HW2 7797   4.479   4.992   4.923
 2300SOL     OW 7798   2.348   6.108   1.869
 2300SOL    HW1 7799   2.410   6.039   1.830
 2300SOL    HW2 7800   2.380   6.132   1.961
 2301SOL     OW 7801   3.561   2.872   2.677
 2301SOL    HW1 7802   3.651   2.909   2.700
 2301SOL    HW2 7803   3.498   2.886   2.754
 2302SOL     OW 7804   3.405   7.006   0.975
 2302SOL    HW1 7805   3.361   7.018   0.886
 2302SOL    HW2 7806   3.504   6.999   0.962
 2303SOL     OW 7807   2.487   3.459   6.386
 2303SOL    HW1 7808   2.529   3.426   6.471
 2303SOL    HW2 7809   2.410   3.400   6.362
 2304SOL     OW 7810   4.919   6.586   3.671
 2304SOL    HW1 7811   4.879   6.644   3.599
 2304SOL    HW2 7812   4.846   6.535   3.716
 2305SOL     OW 7813   2.344   0.254   2.572
 2305SOL    HW1 7814   2.256   0.207   2.575
 2305SOL    HW2 7815   2.409   0.207   2.632
 2306SOL     OW 7816   2.554   4.983   1.820
 2306SOL    HW1 7817   2.504   4.966   1.735
 2306SOL    HW2 7818   2.499   4.953   1.898
 2307SOL     OW 7819   6.675   3.910   3.372
 2307SOL    HW1 7820   6.577   3.904   3.354
 2307SOL    HW2 7821   6.695   3.992   3.425
 2308SOL     OW 7822   1.627   5.209   1.511
 2308SOL    HW1 7823   1.634   5.308   1.520
 2308SOL    HW2 7824   1.569   5.172   1.584
 2309SOL     OW 7825   1.833   0.860   6.299
 2309SOL    HW1 7826   1.814   0.923   6.223
 2309SOL    HW2 7827   1.900   0.902   6.361
 2310SOL     OW 7828   5.312   6.279   0.441
 2310SOL    HW1 7829   5.280   6.372   0.458
 2310SOL    HW2 7830   5.306   6.225   0.525
 2311SOL     OW 7831   1.829   6.463   1.229
 2311SOL    HW1 7832   1.751   6.400   1.222
 2311SOL    HW2 7833   1.797   6.557   1.230
 2312SOL     OW 7834   4.196   6.356   2.599
 2312SOL    HW1 7835   4.101   6.327   2.613
 2312SOL    HW2 7836   4.255   6.312   2.667
 2313SOL     OW 7837   6.028   6.188   1.361
 2313SOL    HW1 7838   6.050   6.280   1.328
 2313SOL    HW2 7839   6.062   6.120   1.296
 2314SOL     OW 7840   5.915   0.031   3.902
 2314SOL    HW1 7841   5.975   6.977   3.867
 2314SOL    HW2 7842   5.918   0.109   3.841
 2315SOL     OW 7843   4.659   3.231   6.555
 2315SOL    HW1 7844   4.736   3.264   6.609
 2315SOL    HW2 7845   4.608   3.309   6.518
 2316SOL     OW 7846   3.605   1.288   4.193
 2316SOL    HW1 7847   3.563   1.319   4.277
 2316SOL    HW2 7848   3.605   1.188   4.190
 2317SOL     OW 7849   0.818   6.321   3.034
 2317SOL    HW1 7850   0.846   6.261   2.959
 2317SOL    HW2 7851   0.721   6.343   3.024
 2318SOL     OW 7852   1.737   3.015   4.416
 2318SOL    HW1 7853   1.728   3.114   4.405
 2318SOL    HW2 7854   1.800   2.995   4.491
 2319SOL     OW 7855   2.250   4.630   4.132
 2319SOL    HW1 7856   2.192   4.620   4.051
 2319SOL    HW2 7857   2.203   4.685   4.201
 2320SOL     OW 7858   0.981   2.210   4.821
 2320SOL    HW1 7859   0.965   2.112   4.808
 2320SOL    HW2 7860   0.902   2.262   4.787
 2321SOL     OW 7861   2.298   0.306   6.841
 2321SOL    HW1 7862   2.289   0.357   6.926
 2321SOL    HW2 7863   2.225   0.333   6.778
 2322SOL     OW 7864   3.124   1.428   4.393
 2322SOL    HW1 7865   3.083   1.495   4.454
 2322SOL    HW2 7866   3.085   1.337   4.413
 2323SOL     OW 7867   2.799   5.179   1.810
 2323SOL    HW1 7868   2.715   5.191   1.756
 2323SOL    HW2 7869   2.778   5.190   1.907
 2324SOL     OW 7870   6.526   6.797   1.662
 2324SOL    HW1 7871   6.605   6.801   1.600
 2324SOL    HW2 7872   6.460   6.867   1.636
 2325SOL     OW 7873   1.460   4.993   1.963
 2325SOL    HW1 7874   1.537   5.020   2.021
 2325SOL    HW2 7875   1.375   4.998   2.015
 2326SOL     OW 7876   3.265   6.137   5.511
 2326SOL    HW1 7877   3.212   6.063   5.470
 2326SOL    HW2 7878   3.330   6.099   5.577
 2327SOL     OW 7879   6.809   2.867   4.264
 2327SOL    HW1 7880   6.821   2.965   4.248
 2327SOL    HW2 7881   6.763   2.825   4.186
 2328SOL     OW 7882   3.114   1.882   2.482
 2328SOL    HW1 7883   3.181   1.870   2.409
 2328SOL    HW2 7884   3.122   1.975   2.519
 2329SOL     OW 7885   1.466   3.710   5.145
 2329SOL    HW1 7886   1.461   3.804   5.179
 2329SOL    HW2 7887   1.548   3.666   5.179
 2330SOL     OW 7888   1.164   3.962   1.796
 2330SOL    HW1 7889   1.176   4.002   1.705
 2330SOL    HW2 7890   1.123   4.031   1.857
 2331SOL     OW 7891   6.160   4.736   1.046
 2331SOL    HW1 7892   6.170   4.654   1.102
 2331SOL    HW2 7893   6.069   4.775   1.061
 2332SOL     OW 7894   4.984   1.730   4.901
 2332SOL    HW1 7895   5.082   1.750   4.909
 2332SOL    HW2 7896   4.931   1.808   4.935
 2333SOL     OW 7897   0.581   5.358   2.999
 2333SOL    HW1 7898   0.642   5.279   2.998
 2333SOL    HW2 7899   0.502   5.338   3.057
 2334SOL     OW 7900   2.648   6.816   0.104
 2334SOL    HW1 7901   2.659   6.717   0.117
 2334SOL    HW2 7902   2.583   6.833   0.031
 2335SOL     OW 7903   5.866   1.411   2.896
 2335SOL    HW1 7904   5.876   1.509   2.878
 2335SOL    HW2 7905   5.784   1.376   2.850
 2336SOL     OW 7906   4.476   2.210   4.834
 2336SOL    HW1 7907   4.380   2.184   4.819
 2336SOL    HW2 7908   4.484   2.309   4.833
 2337SOL     OW 7909   4.285   1.019   3.230
 2337SOL    HW1 7910   4.264   0.959   3.152
 2337SOL    HW2 7911   4.331   0.966   3.301
 2338SOL     OW 7912   1.347   1.796   5.918
 2338SOL    HW1 7913   1.390   1.725   5.973
 2338SOL    HW2 7914   1.249   1.799   5.939
 2339SOL     OW 7915   3.977   3.793   4.971
 2339SOL    HW1 7916   4.011   3.831   4.885
 2339SOL    HW2 7917   4.052   3.787   5.037
 2340SOL     OW 7918   5.399   4.786   6.983
 2340SOL    HW1 7919   5.410   4.753   6.889
 2340SOL    HW2 7920   5.353   4.875   6.981
 2341SOL     OW 7921   5.264   4.030   1.117
 2341SOL    HW1 7922   5.168   4.041   1.090
 2341SOL    HW2 7923   5.279   3.937   1.150
 2342SOL     OW 7924   0.131   6.514   4.920
 2342SOL    HW1 7925   0.182   6.559   4.846
 2342SOL    HW2 7926   0.195   6.478   4.988
 2343SOL     OW 7927   1.967   6.144   2.669
 2343SOL    HW1 7928   1.881   6.105   2.635
 2343SOL    HW2 7929   2.033   6.072   2.684
 2344SOL     OW 7930   1.571   1.206   1.205
 2344SOL    HW1 7931   1.478   1.233   1.229
 2344SOL    HW2 7932   1.633   1.283   1.221
 2345SOL     OW 7933   3.413   5.350   5.678
 2345SOL    HW1 7934   3.427   5.321   5.773
 2345SOL    HW2 7935   3.452   5.441   5.665
 2346SOL     OW 7936   4.597   2.687   5.017
 2346SOL    HW1 7937   4.551   2.774   5.001
 2346SOL    HW2 7938   4.662   2.669   4.944
 2347SOL     OW 7939   2.664   3.364   1.751
 2347SOL    HW1 7940   2.683   3.430   1.678
 2347SOL    HW2 7941   2.568   3.372   1.779
 2348SOL     OW 7942   3.641   6.044   2.966
 2348SOL    HW1 7943   3.635   6.004   3.058
 2348SOL    HW2 7944   3.726   6.096   2.958
 2349SOL     OW 7945   0.320   4.717   5.759
 2349SOL    HW1 7946   0.312   4.647   5.688
 2349SOL    HW2 7947   0.309   4.807   5.718
 2350SOL     OW 7948   5.033   6.998   6.314
 2350SOL    HW1 7949   5.089   6.988   6.232
 2350SOL    HW2 7950   4.937   7.001   6.289
 2351SOL     OW 7951   3.245   4.867   2.629
 2351SOL    HW1 7952   3.204   4.956   2.610
 2351SOL    HW2 7953   3.275   4.825   2.544
 2352SOL     OW 7954   1.187   3.770   2.177
 2352SOL    HW1 7955   1.190   3.686   2.123
 2352SOL    HW2 7956   1.246   3.838   2.135
 2353SOL     OW 7957   3.080   4.677   5.278
 2353SOL    HW1 7958   3.022   4.598   5.258
 2353SOL    HW2 7959   3.063   4.749   5.210
 2354SOL     OW 7960   3.042   1.817   6.324
 2354SOL    HW1 7961   3.011   1.722   6.337
 2354SOL    HW2 7962   3.024   1.845   6.230
 2355SOL     OW 7963   1.305   5.417   6.606
 2355SOL    HW1 7964   1.388   5.465   6.633
 2355SOL    HW2 7965   1.249   5.477   6.548
 2356SOL     OW 7966   2.262   3.838   0.263
 2356SOL    HW1 7967   2.317   3.922   0.264
 2356SOL    HW2 7968   2.321   3.759   0.254
 2357SOL     OW 7969   4.181   5.281   3.773
 2357SOL    HW1 7970   4.212   5.244   3.686
 2357SOL    HW2 7971   4.223   5.229   3.848
 2358SOL     OW 7972   2.851   5.514   5.454
 2358SOL    HW1 7973   2.911   5.584   5.417
 2358SOL    HW2 7974   2.896   5.469   5.531
 2359SOL     OW 7975   7.014   0.567   5.940
 2359SOL    HW1 7976   6.979   0.639   6.000
 2359SOL    HW2 7977   7.012   0.598   5.845
 2360SOL     OW 7978   5.159   6.417   5.668
 2360SOL    HW1 7979   5.209   6.336   5.698
 2360SOL    HW2 7980   5.080   6.432   5.727
 2361SOL     OW 7981   2.666   0.748   5.532
 2361SOL    HW1 7982   2.759   0.781   5.519
 2361SOL    HW2 7983   2.620   0.802   5.602
 2362SOL     OW 7984   2.604   0.661   5.285
 2362SOL    HW1 7985   2.667   0.719   5.233
 2362SOL    HW2 7986   2.601   0.692   5.380
 2363SOL     OW 7987   3.982   2.594   5.547
 2363SOL    HW1 7988   4.051   2.538   5.593
 2363SOL    HW2 7989   3.969   2.679   5.597
 2364SOL     OW 7990   0.472   2.554   2.994
 2364SOL    HW1 7991   0.377   2.532   3.018
 2364SOL    HW2 7992   0.480   2.652   2.975
 2365SOL     OW 7993   6.150   2.524   5.932
 2365SOL    HW1 7994   6.212   2.455   5.896
 2365SOL    HW2 7995   6.151   2.604   5.872
 2366SOL     OW 7996   1.691   4.635   5.847
 2366SOL    HW1 7997   1.750   4.568   5.802
 2366SOL    HW2 7998   1.667   4.707   5.782
 2367SOL     OW 7999   3.753   3.898   0.101
 2367SOL    HW1 8000   3.738   3.978   0.158
 2367SOL    HW2 8001   3.683   3.829   0.122
 2368SOL     OW 8002   5.108   0.308   3.376
 2368SOL    HW1 8003   5.142   0.275   3.465
 2368SOL    HW2 8004   5.049   0.387   3.391
 2369SOL     OW 8005   1.839   2.523   5.149
 2369SOL    HW1 8006   1.882   2.497   5.236
 2369SOL    HW2 8007   1.857   2.619   5.131
 2370SOL     OW 8008   5.042   3.841   6.846
 2370SOL    HW1 8009   5.028   3.922   6.788
 2370SOL    HW2 8010   5.031   3.867   6.942
 2371SOL     OW 8011   1.235   6.318   1.940
 2371SOL    HW1 8012   1.233   6.226   1.901
 2371SOL    HW2 8013   1.185   6.318   2.027
 2372SOL     OW 8014   0.563   1.988   1.468
 2372SOL    HW1 8015   0.623   2.011   1.545
 2372SOL    HW2 8016   0.491   1.926   1.500
 2373SOL     OW 8017   6.728   6.842   0.060
 2373SOL    HW1 8018   6.644   6.884   0.096
 2373SOL    HW2 8019   6.803   6.860   0.124
 2374SOL     OW 8020   5.946   0.836   4.278
 2374SOL    HW1 8021   6.038   0.840   4.316
 2374SOL    HW2 8022   5.890   0.774   4.333
 2375SOL     OW 8023   2.166   6.612   4.627
 2375SOL    HW1 8024   2.075   6.637   4.660
 2375SOL    HW2 8025   2.235   6.653   4.687
 2376SOL     OW 8026   5.834   2.173   4.003
 2376SOL    HW1 8027   5.877   2.102   4.059
 2376SOL    HW2 8028   5.842   2.149   3.906
 2377SOL     OW 8029   3.600   4.097   2.794
 2377SOL    HW1 8030   3.684   4.150   2.803
 2377SOL    HW2 8031   3.611   4.009   2.841
 2378SOL     OW 8032   5.078   2.590   6.813
 2378SOL    HW1 8033   5.141   2.541   6.753
 2378SOL    HW2 8034   5.010   2.527   6.849
 2379SOL     OW 8035   6.723   1.611   6.510
 2379SOL    HW1 8036   6.670   1.635   6.592
 2379SOL    HW2 8037   6.820   1.627   6.527
 2380SOL     OW 8038   6.937   6.608   5.715
 2380SOL    HW1 8039   0.003   6.615   5.768
 2380SOL    HW2 8040   6.877   6.684   5.739
 2381SOL     OW 8041   2.184   4.110   4.187
 2381SOL    HW1 8042   2.183   4.197   4.139
 2381SOL    HW2 8043   2.176   4.035   4.121
 2382SOL     OW 8044   2.472   5.315   3.131
 2382SOL    HW1 8045   2.380   5.353   3.136
 2382SOL    HW2 8046   2.473   5.239   3.066
 2383SOL     OW 8047   5.590   6.058   6.986
 2383SOL    HW1 8048   5.499   6.079   6.950
 2383SOL    HW2 8049   5.655   6.053   6.911
 2384SOL     OW 8050   0.156   6.808   2.147
 2384SOL    HW1 8051   0.143   6.822   2.245
 2384SOL    HW2 8052   0.115   6.883   2.096
 2385SOL     OW 8053   6.116   6.746   1.652
 2385SOL    HW1 8054   6.095   6.739   1.749
 2385SOL    HW2 8055   6.117   6.655   1.611
 2386SOL     OW 8056   5.263   4.483   4.531
 2386SOL    HW1 8057   5.312   4.402   4.563
 2386SOL    HW2 8058   5.229   4.467   4.438
 2387SOL     OW 8059   0.348   1.916   3.394
 2387SOL    HW1 8060   0.431   1.862   3.385
 2387SOL    HW2 8061   0.358   2.002   3.343
 2388SOL     OW 8062   1.427   1.888   3.967
 2388SOL    HW1 8063   1.468   1.820   3.906
 2388SOL    HW2 8064   1.390   1.963   3.913
 2389SOL     OW 8065   5.757   3.452   3.684
 2389SOL    HW1 8066   5.671   3.468   3.635
 2389SOL    HW2 8067   5.744   3.381   3.753
 2390SOL     OW 8068   3.222   3.644   4.242
 2390SOL    HW1 8069   3.124   3.628   4.245
 2390SOL    HW2 8070   3.271   3.562   4.270
 2391SOL     OW 8071   4.513   4.153   5.862
 2391SOL    HW1 8072   4.559   4.066   5.882
 2391SOL    HW2 8073   4.427   4.157   5.912
 2392SOL     OW 8074   3.331   6.684   5.122
 2392SOL    HW1 8075   3.332   6.783   5.133
 2392SOL    HW2 8076   3.421   6.647   5.144
 2393SOL     OW 8077   4.220   5.012   0.719
 2393SOL    HW1 8078   4.302   5.021   0.662
 2393SOL    HW2 8079   4.245   4.965   0.804
 2394SOL     OW 8080   1.648   2.963   4.758
 2394SOL    HW1 8081   1.549   2.977   4.756
 2394SOL    HW2 8082   1.668   2.867   4.778
 2395SOL     OW 8083   6.040   2.805   0.087
 2395SOL    HW1 8084   6.013   2.716   0.051
 2395SOL    HW2 8085   6.139   2.817   0.077
 2396SOL     OW 8086   4.227   5.503   0.244
 2396SOL    HW1 8087   4.180   5.504   0.156
 2396SOL    HW2 8088   4.175   5.557   0.310
 2397SOL     OW 8089   0.358   3.699   0.263
 2397SOL    HW1 8090   0.299   3.677   0.341
 2397SOL    HW2 8091   0.454   3.684   0.289
 2398SOL     OW 8092   3.250   4.366   6.158
 2398SOL    HW1 8093   3.310   4.380   6.079
 2398SOL    HW2 8094   3.183   4.294   6.136
 2399SOL     OW 8095   4.977   1.048   2.541
 2399SOL    HW1 8096   4.954   1.078   2.634
 2399SOL    HW2 8097   4.931   0.961   2.522
 2400SOL     OW 8098   4.392   5.155   0.558
 2400SOL    HW1 8099   4.344   5.208   0.488
 2400SOL    HW2 8100   4.465   5.102   0.515
 2401SOL     OW 8101   4.161   0.695   6.704
 2401SOL    HW1 8102   4.100   0.763   6.745
 2401SOL    HW2 8103   4.111   0.610   6.691
 2402SOL     OW 8104   0.637   2.131   4.647
 2402SOL    HW1 8105   0.630   2.050   4.705
 2402SOL    HW2 8106   0.663   2.105   4.555
 2403SOL     OW 8107   2.876   2.778   0.157
 2403SOL    HW1 8108   2.845   2.778   0.062
 2403SOL    HW2 8109   2.797   2.771   0.218
 2404SOL     OW 8110   5.780   1.139   1.853
 2404SOL    HW1 8111   5.845   1.157   1.779
 2404SOL    HW2 8112   5.758   1.041   1.855
 2405SOL     OW 8113   3.362   3.698   3.538
 2405SOL    HW1 8114   3.348   3.600   3.550
 2405SOL    HW2 8115   3.344   3.723   3.443
 2406SOL     OW 8116   1.513   6.627   3.783
 2406SOL    HW1 8117   1.487   6.535   3.756
 2406SOL    HW2 8118   1.435   6.672   3.828
 2407SOL     OW 8119   4.967   2.800   2.649
 2407SOL    HW1 8120   4.883   2.751   2.626
 2407SOL    HW2 8121   4.982   2.797   2.748
 2408SOL     OW 8122   3.014   4.791   2.358
 2408SOL    HW1 8123   3.073   4.863   2.321
 2408SOL    HW2 8124   3.027   4.707   2.306
 2409SOL     OW 8125   1.694   2.749   1.744
 2409SOL    HW1 8126   1.723   2.816   1.675
 2409SOL    HW2 8127   1.725   2.658   1.717
 2410SOL     OW 8128   4.946   2.523   6.230
 2410SOL    HW1 8129   4.979   2.599   6.174
 2410SOL    HW2 8130   4.877   2.557   6.295
 2411SOL     OW 8131   4.511   5.363   5.363
 2411SOL    HW1 8132   4.498   5.266   5.341
 2411SOL    HW2 8133   4.533   5.414   5.280
 2412SOL     OW 8134   3.016   4.215   6.887
 2412SOL    HW1 8135   3.046   4.183   6.977
 2412SOL    HW2 8136   3.075   4.291   6.858
 2413SOL     OW 8137   6.380   2.389   6.967
 2413SOL    HW1 8138   6.465   2.391   0.000
 2413SOL    HW2 8139   6.362   2.296   6.936
 2414SOL     OW 8140   5.981   4.297   2.207
 2414SOL    HW1 8141   5.972   4.240   2.125
 2414SOL    HW2 8142   5.904   4.281   2.268
 2415SOL     OW 8143   1.077   6.648   1.210
 2415SOL    HW1 8144   1.065   6.744   1.186
 2415SOL    HW2 8145   0.989   6.607   1.234
 2416SOL     OW 8146   3.007   2.099   5.198
 2416SOL    HW1 8147   2.974   2.138   5.284
 2416SOL    HW2 8148   3.068   2.165   5.154
 2417SOL     OW 8149   4.327   2.641   6.382
 2417SOL    HW1 8150   4.348   2.738   6.367
 2417SOL    HW2 8151   4.403   2.599   6.433
 2418SOL     OW 8152   2.926   3.433   3.487
 2418SOL    HW1 8153   2.941   3.522   3.531
 2418SOL    HW2 8154   2.972   3.362   3.538
 2419SOL     OW 8155   0.641   6.553   3.492
 2419SOL    HW1 8156   0.613   6.647   3.508
 2419SOL    HW2 8157   0.737   6.542   3.519
 2420SOL     OW 8158   3.372   1.308   2.198
 2420SOL    HW1 8159   3.351   1.336   2.105
 2420SOL    HW2 8160   3.347   1.212   2.210
 2421SOL     OW 8161   2.578   1.079   5.226
 2421SOL    HW1 8162   2.672   1.084   5.260
 2421SOL    HW2 8163   2.515   1.069   5.302
 2422SOL     OW 8164   5.463   0.385   1.845
 2422SOL    HW1 8165   5.392   0.437   1.798
 2422SOL    HW2 8166   5.467   0.412   1.941
 2423SOL     OW 8167   1.714   5.808   3.766
 2423SOL    HW1 8168   1.758   5.812   3.856
 2423SOL    HW2 8169   1.764   5.745   3.707
 2424SOL     OW 8170   5.736   6.315   6.202
 2424SOL    HW1 8171   5.739   6.389   6.269
 2424SOL    HW2 8172   5.679   6.343   6.124
 2425SOL     OW 8173   6.160   0.108   4.125
 2425SOL    HW1 8174   6.185   0.137   4.217
 2425SOL    HW2 8175   6.084   0.164   4.092
 2426SOL     OW 8176   0.816   4.665   3.663
 2426SOL    HW1 8177   0.884   4.734   3.689
 2426SOL    HW2 8178   0.848   4.615   3.583
 2427SOL     OW 8179   6.122   5.492   6.663
 2427SOL    HW1 8180   6.023   5.478   6.664
 2427SOL    HW2 8181   6.156   5.495   6.757
 2428SOL     OW 8182   0.137   6.990   3.620
 2428SOL    HW1 8183   0.072   6.918   3.597
 2428SOL    HW2 8184   0.095   0.035   3.684
 2429SOL     OW 8185   6.499   6.087   4.303
 2429SOL    HW1 8186   6.588   6.058   4.270
 2429SOL    HW2 8187   6.453   6.011   4.349
 2430SOL     OW 8188   6.507   2.352   1.708
 2430SOL    HW1 8189   6.592   2.304   1.691
 2430SOL    HW2 8190   6.527   2.446   1.736
 2431SOL     OW 8191   3.717   0.079   1.907
 2431SOL    HW1 8192   3.652   0.145   1.946
 2431SOL    HW2 8193   3.749   0.018   1.979
 2432SOL     OW 8194   3.512   6.572   3.189
 2432SOL    HW1 8195   3.514   6.672   3.188
 2432SOL    HW2 8196   3.587   6.536   3.133
 2433SOL     OW 8197   3.266   6.514   0.853
 2433SOL    HW1 8198   3.167   6.504   0.865
 2433SOL    HW2 8199   3.314   6.464   0.925
 2434SOL     OW 8200   4.043   1.461   3.330
 2434SOL    HW1 8201   4.068   1.544   3.281
 2434SOL    HW2 8202   4.126   1.410   3.354
 2435SOL     OW 8203   4.733   5.391   5.559
 2435SOL    HW1 8204   4.771   5.474   5.600
 2435SOL    HW2 8205   4.646   5.413   5.514
 2436SOL     OW 8206   1.595   6.971   1.156
 2436SOL    HW1 8207   1.614   6.934   1.065
 2436SOL    HW2 8208   1.499   6.995   1.163
 2437SOL     OW 8209   3.593   5.836   0.897
 2437SOL    HW1 8210   3.573   5.816   0.993
 2437SOL    HW2 8211   3.523   5.897   0.860
 2438SOL     OW 8212   3.985   1.540   5.497
 2438SOL    HW1 8213   3.963   1.560   5.593
 2438SOL    HW2 8214   3.951   1.613   5.439
 2439SOL     OW 8215   1.320   4.270   0.046
 2439SOL    HW1 8216   1.343   4.257   6.969
 2439SOL    HW2 8217   1.400   4.302   0.096
 2440SOL     OW 8218   3.569   6.540   4.914
 2440SOL    HW1 8219   3.504   6.465   4.902
 2440SOL    HW2 8220   3.610   6.563   4.826
 2441SOL     OW 8221   6.307   0.298   0.393
 2441SOL    HW1 8222   6.260   0.318   0.479
 2441SOL    HW2 8223   6.383   0.235   0.410
 2442SOL     OW 8224   6.725   5.883   3.931
 2442SOL    HW1 8225   6.676   5.957   3.886
 2442SOL    HW2 8226   6.810   5.863   3.881
 2443SOL     OW 8227   3.193   6.727   6.270
 2443SOL    HW1 8228   3.178   6.633   6.299
 2443SOL    HW2 8229   3.251   6.774   6.336
 2444SOL     OW 8230   3.839   4.388   6.076
 2444SOL    HW1 8231   3.810   4.483   6.081
 2444SOL    HW2 8232   3.772   4.330   6.123
 2445SOL     OW 8233   6.774   0.972   2.311
 2445SOL    HW1 8234   6.866   0.963   2.274
 2445SOL    HW2 8235   6.732   0.881   2.318
 2446SOL     OW 8236   0.479   3.320   4.265
 2446SOL    HW1 8237   0.398   3.319   4.323
 2446SOL    HW2 8238   0.515   3.227   4.255
 2447SOL     OW 8239   2.494   1.118   0.962
 2447SOL    HW1 8240   2.402   1.093   0.995
 2447SOL    HW2 8241   2.513   1.068   0.878
 2448SOL     OW 8242   0.528   0.446   4.791
 2448SOL    HW1 8243   0.587   0.373   4.826
 2448SOL    HW2 8244   0.549   0.531   4.839
 2449SOL     OW 8245   0.329   4.018   2.356
 2449SOL    HW1 8246   0.266   3.962   2.410
 2449SOL    HW2 8247   0.322   4.114   2.385
 2450SOL     OW 8248   2.877   4.799   4.205
 2450SOL    HW1 8249   2.799   4.738   4.216
 2450SOL    HW2 8250   2.870   4.875   4.269
 2451SOL     OW 8251   0.231   6.934   4.070
 2451SOL    HW1 8252   0.246   0.012   4.050
 2451SOL    HW2 8253   0.234   6.882   3.984
 2452SOL     OW 8254   2.690   2.420   3.422
 2452SOL    HW1 8255   2.760   2.446   3.355
 2452SOL    HW2 8256   2.727   2.352   3.485
 2453SOL     OW 8257   0.178   3.347   0.819
 2453SOL    HW1 8258   0.091   3.394   0.838
 2453SOL    HW2 8259   0.197   3.350   0.721
 2454SOL     OW 8260   3.518   0.859   0.058
 2454SOL    HW1 8261   3.548   0.951   0.035
 2454SOL    HW2 8262   3.597   0.801   0.076
 2455SOL     OW 8263   5.104   0.035   0.788
 2455SOL    HW1 8264   5.067   0.066   0.875
 2455SOL    HW2 8265   5.195   0.075   0.775
 2456SOL     OW 8266   5.472   0.813   6.775
 2456SOL    HW1 8267   5.566   0.843   6.791
 2456SOL    HW2 8268   5.456   0.805   6.677
 2457SOL     OW 8269   6.182   6.191   6.692
 2457SOL    HW1 8270   6.254   6.122   6.692
 2457SOL    HW2 8271   6.123   6.178   6.612
 2458SOL     OW 8272   2.430   5.824   4.203
 2458SOL    HW1 8273   2.454   5.763   4.278
 2458SOL    HW2 8274   2.406   5.914   4.239
 2459SOL     OW 8275   2.826   6.498   0.341
 2459SOL    HW1 8276   2.811   6.476   0.438
 2459SOL    HW2 8277   2.884   6.427   0.300
 2460SOL     OW 8278   1.685   1.411   1.396
 2460SOL    HW1 8279   1.606   1.416   1.458
 2460SOL    HW2 8280   1.769   1.420   1.449
 2461SOL     OW 8281   4.052   0.092   3.222
 2461SOL    HW1 8282   4.048   0.190   3.240
 2461SOL    HW2 8283   4.055   0.076   3.123
 2462SOL     OW 8284   2.643   5.370   0.099
 2462SOL    HW1 8285   2.593   5.367   0.012
 2462SOL    HW2 8286   2.728   5.422   0.086
 2463SOL     OW 8287   6.452   2.687   4.072
 2463SOL    HW1 8288   6.524   2.755   4.054
 2463SOL    HW2 8289   6.444   2.626   3.993
 2464SOL     OW 8290   1.821   4.098   1.657
 2464SOL    HW1 8291   1.780   4.085   1.567
 2464SOL    HW2 8292   1.790   4.025   1.719
 2465SOL     OW 8293   0.522   0.040   1.520
 2465SOL    HW1 8294   0.462   7.016   1.452
 2465SOL    HW2 8295   0.579   6.990   1.563
 2466SOL     OW 8296   3.234   1.693   1.730
 2466SOL    HW1 8297   3.307   1.628   1.750
 2466SOL    HW2 8298   3.153   1.669   1.783
 2467SOL     OW 8299   5.739   1.722   5.182
 2467SOL    HW1 8300   5.654   1.680   5.213
 2467SOL    HW2 8301   5.817   1.665   5.209
 2468SOL     OW 8302   5.814   6.132   2.353
 2468SOL    HW1 8303   5.855   6.163   2.267
 2468SOL    HW2 8304   5.863   6.174   2.430
 2469SOL     OW 8305   3.790   4.550   5.445
 2469SOL    HW1 8306   3.722   4.482   5.419
 2469SOL    HW2 8307   3.751   4.641   5.437
 2470SOL     OW 8308   3.850   4.623   5.731
 2470SOL    HW1 8309   3.899   4.562   5.793
 2470SOL    HW2 8310   3.856   4.589   5.638
 2471SOL     OW 8311   2.481   6.459   1.038
 2471SOL    HW1 8312   2.475   6.482   1.135
 2471SOL    HW2 8313   2.456   6.539   0.983
 2472SOL     OW 8314   4.277   1.948   3.828
 2472SOL    HW1 8315   4.202   1.897   3.872
 2472SOL    HW2 8316   4.362   1.931   3.878
 2473SOL     OW 8317   2.070   4.112   5.158
 2473SOL    HW1 8318   2.006   4.037   5.172
 2473SOL    HW2 8319   2.150   4.079   5.109
 2474SOL     OW 8320   0.484   5.664   0.349
 2474SOL    HW1 8321   0.518   5.751   0.313
 2474SOL    HW2 8322   0.553   5.593   0.336
 2475SOL     OW 8323   4.953   1.480   1.208
 2475SOL    HW1 8324   4.875   1.439   1.160
 2475SOL    HW2 8325   4.922   1.558   1.262
 2476SOL     OW 8326   1.020   2.684   3.942
 2476SOL    HW1 8327   0.941   2.635   3.980
 2476SOL    HW2 8328   0.990   2.741   3.866
 2477SOL     OW 8329   5.543   0.825   2.454
 2477SOL    HW1 8330   5.523   0.845   2.358
 2477SOL    HW2 8331   5.631   0.779   2.460
 2478SOL     OW 8332   5.364   0.591   2.195
 2478SOL    HW1 8333   5.412   0.679   2.192
 2478SOL    HW2 8334   5.431   0.517   2.202
 2479SOL     OW 8335   1.701   3.718   1.134
 2479SOL    HW1 8336   1.669   3.806   1.168
 2479SOL    HW2 8337   1.657   3.644   1.185
 2480SOL     OW 8338   5.773   4.585   0.834
 2480SOL    HW1 8339   5.696   4.622   0.887
 2480SOL    HW2 8340   5.739   4.548   0.748
 2481SOL     OW 8341   2.689   6.856   0.609
 2481SOL    HW1 8342   2.706   6.758   0.614
 2481SOL    HW2 8343   2.669   6.882   0.515
 2482SOL     OW 8344   4.921   2.737   5.531
 2482SOL    HW1 8345   4.848   2.779   5.476
 2482SOL    HW2 8346   4.881   2.697   5.613
 2483SOL     OW 8347   2.263   1.534   6.744
 2483SOL    HW1 8348   2.346   1.503   6.698
 2483SOL    HW2 8349   2.211   1.594   6.682
 2484SOL     OW 8350   2.118   0.682   0.360
 2484SOL    HW1 8351   2.074   0.691   0.449
 2484SOL    HW2 8352   2.197   0.743   0.355
 2485SOL     OW 8353   4.783   4.718   2.239
 2485SOL    HW1 8354   4.740   4.808   2.251
 2485SOL    HW2 8355   4.712   4.647   2.238
 2486SOL     OW 8356   3.427   5.336   3.043
 2486SOL    HW1 8357   3.352   5.377   3.097
 2486SOL    HW2 8358   3.453   5.249   3.083
 2487SOL     OW 8359   4.142   5.332   6.822
 2487SOL    HW1 8360   4.050   5.359   6.794
 2487SOL    HW2 8361   4.157   5.235   6.803
 2488SOL     OW 8362   2.261   4.239   2.519
 2488SOL    HW1 8363   2.215   4.294   2.589
 2488SOL    HW2 8364   2.196   4.171   2.483
 2489SOL     OW 8365   2.435   5.966   3.647
 2489SOL    HW1 8366   2.413   5.888   3.705
 2489SOL    HW2 8367   2.404   6.050   3.690
 2490SOL     OW 8368   6.341   5.663   1.039
 2490SOL    HW1 8369   6.389   5.751   1.041
 2490SOL    HW2 8370   6.404   5.590   1.013
 2491SOL     OW 8371   2.733   6.167   1.715
 2491SOL    HW1 8372   2.687   6.243   1.760
 2491SOL    HW2 8373   2.819   6.199   1.675
 2492SOL     OW 8374   4.534   3.324   0.022
 2492SOL    HW1 8375   4.473   3.293   0.095
 2492SOL    HW2 8376   4.611   3.261   0.015
 2493SOL     OW 8377   5.416   6.833   2.949
 2493SOL    HW1 8378   5.334   6.838   2.892
 2493SOL    HW2 8379   5.497   6.825   2.890
 2494SOL     OW 8380   5.821   3.472   2.773
 2494SOL    HW1 8381   5.749   3.407   2.796
 2494SOL    HW2 8382   5.872   3.439   2.693
 2495SOL     OW 8383   4.816   6.992   4.500
 2495SOL    HW1 8384   4.814   0.073   4.489
 2495SOL    HW2 8385   4.749   6.951   4.439
 2496SOL     OW 8386   0.963   4.915   6.315
 2496SOL    HW1 8387   0.914   4.839   6.359
 2496SOL    HW2 8388   0.902   4.961   6.250
 2497SOL     OW 8389   0.313   1.028   0.770
 2497SOL    HW1 8390   0.320   0.974   0.686
 2497SOL    HW2 8391   0.290   0.968   0.847
 2498SOL     OW 8392   3.009   2.220   3.505
 2498SOL    HW1 8393   2.974   2.267   3.586
 2498SOL    HW2 8394   2.985   2.123   3.509
 2499SOL     OW 8395   5.383   1.633   4.527
 2499SOL    HW1 8396   5.428   1.611   4.613
 2499SOL    HW2 8397   5.448   1.618   4.451
 2500SOL     OW 8398   4.374   3.359   5.853
 2500SOL    HW1 8399   4.409   3.284   5.797
 2500SOL    HW2 8400   4.415   3.354   5.944
 2501SOL     OW 8401   0.030   5.989   6.708
 2501SOL    HW1 8402   0.124   6.022   6.698
 2501SOL    HW2 8403   0.027   5.891   6.686
 2502SOL     OW 8404   2.696   6.245   3.227
 2502SOL    HW1 8405   2.784   6.215   3.263
 2502SOL    HW2 8406   2.662   6.177   3.162
 2503SOL     OW 8407   3.653   5.740   6.150
 2503SOL    HW1 8408   3.652   5.680   6.069
 2503SOL    HW2 8409   3.679   5.833   6.123
 2504SOL     OW 8410   3.405   5.560   5.281
 2504SOL    HW1 8411   3.491   5.515   5.258
 2504SOL    HW2 8412   3.420   5.626   5.354
 2505SOL     OW 8413   1.599   6.346   4.234
 2505SOL    HW1 8414   1.677   6.409   4.233
 2505SOL    HW2 8415   1.634   6.252   4.237
 2506SOL     OW 8416   6.131   3.150   6.075
 2506SOL    HW1 8417   6.185   3.188   6.150
 2506SOL    HW2 8418   6.124   3.217   6.001
 2507SOL     OW 8419   0.047   4.185   0.314
 2507SOL    HW1 8420   6.977   4.139   0.309
 2507SOL    HW2 8421   0.049   4.259   0.247
 2508SOL     OW 8422   2.745   1.400   2.381
 2508SOL    HW1 8423   2.740   1.497   2.357
 2508SOL    HW2 8424   2.824   1.358   2.336
 2509SOL     OW 8425   5.579   2.939   3.036
 2509SOL    HW1 8426   5.604   2.882   2.958
 2509SOL    HW2 8427   5.517   3.012   3.006
 2510SOL     OW 8428   3.490   4.477   1.261
 2510SOL    HW1 8429   3.534   4.438   1.180
 2510SOL    HW2 8430   3.394   4.497   1.241
 2511SOL     OW 8431   2.508   2.528   4.580
 2511SOL    HW1 8432   2.567   2.596   4.537
 2511SOL    HW2 8433   2.412   2.557   4.572
 2512SOL     OW 8434   5.152   5.438   5.358
 2512SOL    HW1 8435   5.189   5.433   5.451
 2512SOL    HW2 8436   5.060   5.398   5.356
 2513SOL     OW 8437   1.151   3.038   5.562
 2513SOL    HW1 8438   1.114   3.129   5.543
 2513SOL    HW2 8439   1.075   2.975   5.580
 2514SOL     OW 8440   6.642   3.721   4.458
 2514SOL    HW1 8441   6.618   3.814   4.431
 2514SOL    HW2 8442   6.558   3.669   4.476
 2515SOL     OW 8443   1.159   6.732   0.924
 2515SOL    HW1 8444   1.229   6.741   0.853
 2515SOL    HW2 8445   1.139   6.636   0.939
 2516SOL     OW 8446   5.925   6.492   3.253
 2516SOL    HW1 8447   5.912   6.549   3.173
 2516SOL    HW2 8448   5.836   6.467   3.291
 2517SOL     OW 8449   1.461   5.475   5.394
 2517SOL    HW1 8450   1.559   5.477   5.371
 2517SOL    HW2 8451   1.430   5.567   5.416
 2518SOL     OW 8452   2.244   2.665   0.347
 2518SOL    HW1 8453   2.226   2.730   0.274
 2518SOL    HW2 8454   2.256   2.573   0.308
 2519SOL     OW 8455   5.040   5.602   4.218
 2519SOL    HW1 8456   5.059   5.607   4.316
 2519SOL    HW2 8457   4.944   5.623   4.202
 2520SOL     OW 8458   1.436   3.037   1.078
 2520SOL    HW1 8459   1.529   3.061   1.050
 2520SOL    HW2 8460   1.413   2.947   1.043
 2521SOL     OW 8461   1.246   6.513   5.460
 2521SOL    HW1 8462   1.209   6.481   5.373
 2521SOL    HW2 8463   1.241   6.439   5.527
 2522SOL     OW 8464   1.033   3.060   5.897
 2522SOL    HW1 8465   1.052   3.121   5.820
 2522SOL    HW2 8466   1.119   3.024   5.933
 2523SOL     OW 8467   0.420   3.196   0.851
 2523SOL    HW1 8468   0.500   3.253   0.867
 2523SOL    HW2 8469   0.337   3.249   0.868
 2524SOL     OW 8470   0.496   5.953   4.063
 2524SOL    HW1 8471   0.421   5.900   4.024
 2524SOL    HW2 8472   0.463   6.005   4.142
 2525SOL     OW 8473   1.401   2.461   4.940
 2525SOL    HW1 8474   1.419   2.396   5.014
 2525SOL    HW2 8475   1.323   2.428   4.886
 2526SOL     OW 8476   1.401   3.926   5.628
 2526SOL    HW1 8477   1.381   4.021   5.602
 2526SOL    HW2 8478   1.474   3.925   5.696
 2527SOL     OW 8479   4.576   0.004   5.033
 2527SOL    HW1 8480   4.672   6.997   5.042
 2527SOL    HW2 8481   4.546   7.006   4.939
 2528SOL     OW 8482   6.227   4.205   1.021
 2528SOL    HW1 8483   6.307   4.253   1.059
 2528SOL    HW2 8484   6.149   4.268   1.020
 2529SOL     OW 8485   5.675   5.833   6.100
 2529SOL    HW1 8486   5.648   5.922   6.136
 2529SOL    HW2 8487   5.705   5.774   6.175
 2530SOL     OW 8488   1.180   5.876   4.797
 2530SOL    HW1 8489   1.216   5.882   4.704
 2530SOL    HW2 8490   1.081   5.889   4.795
 2531SOL     OW 8491   5.360   5.633   4.573
 2531SOL    HW1 8492   5.366   5.594   4.665
 2531SOL    HW2 8493   5.452   5.641   4.534
 2532SOL     OW 8494   0.701   5.792   0.755
 2532SOL    HW1 8495   0.619   5.818   0.704
 2532SOL    HW2 8496   0.681   5.791   0.853
 2533SOL     OW 8497   5.008   6.247   3.668
 2533SOL    HW1 8498   4.957   6.224   3.751
 2533SOL    HW2 8499   5.001   6.346   3.651
 2534SOL     OW 8500   1.998   6.903   3.751
 2534SOL    HW1 8501   1.968   6.843   3.677
 2534SOL    HW2 8502   2.014   6.995   3.715
 2535SOL     OW 8503   2.599   2.601   6.847
 2535SOL    HW1 8504   2.583   2.680   6.788
 2535SOL    HW2 8505   2.693   2.570   6.837
 2536SOL     OW 8506   0.509   1.558   3.362
 2536SOL    HW1 8507   0.593   1.517   3.326
 2536SOL    HW2 8508   0.531   1.638   3.417
 2537SOL     OW 8509   5.440   5.861   0.206
 2537SOL    HW1 8510   5.412   5.884   0.113
 2537SOL    HW2 8511   5.459   5.763   0.213
 2538SOL     OW 8512   1.301   4.529   4.735
 2538SOL    HW1 8513   1.249   4.488   4.811
 2538SOL    HW2 8514   1.345   4.457   4.682
 2539SOL     OW 8515   4.006   0.151   5.726
 2539SOL    HW1 8516   3.964   0.223   5.670
 2539SOL    HW2 8517   4.024   0.071   5.668
 2540SOL     OW 8518   4.711   0.880   0.918
 2540SOL    HW1 8519   4.773   0.859   0.842
 2540SOL    HW2 8520   4.665   0.796   0.948
 2541SOL     OW 8521   1.619   0.320   5.788
 2541SOL    HW1 8522   1.635   0.378   5.707
 2541SOL    HW2 8523   1.662   0.363   5.868
 2542SOL     OW 8524   3.912   1.575   5.074
 2542SOL    HW1 8525   3.979   1.596   5.002
 2542SOL    HW2 8526   3.911   1.650   5.141
 2543SOL     OW 8527   2.024   0.938   2.752
 2543SOL    HW1 8528   2.014   1.028   2.794
 2543SOL    HW2 8529   1.961   0.931   2.674
 2544SOL     OW 8530   0.295   5.082   2.759
 2544SOL    HW1 8531   0.342   5.045   2.839
 2544SOL    HW2 8532   0.318   5.026   2.679
 2545SOL     OW 8533   1.412   0.882   1.369
 2545SOL    HW1 8534   1.404   0.783   1.378
 2545SOL    HW2 8535   1.434   0.905   1.274
 2546SOL     OW 8536   6.124   3.412   1.779
 2546SOL    HW1 8537   6.143   3.321   1.816
 2546SOL    HW2 8538   6.026   3.432   1.787
 2547SOL     OW 8539   5.135   5.455   6.527
 2547SOL    HW1 8540   5.058   5.491   6.580
 2547SOL    HW2 8541   5.104   5.379   6.470
 2548SOL     OW 8542   2.362   0.808   5.249
 2548SOL    HW1 8543   2.436   0.751   5.284
 2548SOL    HW2 8544   2.286   0.751   5.218
 2549SOL     OW 8545   2.316   2.080   1.780
 2549SOL    HW1 8546   2.372   2.034   1.713
 2549SOL    HW2 8547   2.372   2.105   1.859
 2550SOL     OW 8548   6.316   0.747   6.839
 2550SOL    HW1 8549   6.278   0.838   6.824
 2550SOL    HW2 8550   6.247   0.687   6.879
 2551SOL     OW 8551   3.360   5.462   0.108
 2551SOL    HW1 8552   3.312   5.549   0.107
 2551SOL    HW2 8553   3.435   5.464   0.041
 2552SOL     OW 8554   1.882   5.401   5.975
 2552SOL    HW1 8555   1.787   5.405   6.007
 2552SOL    HW2 8556   1.943   5.429   6.049
 2553SOL     OW 8557   2.934   3.173   6.821
 2553SOL    HW1 8558   2.887   3.230   6.753
 2553SOL    HW2 8559   3.031   3.166   6.797
 2554SOL     OW 8560   1.537   5.687   6.661
 2554SOL    HW1 8561   1.547   5.658   6.756
 2554SOL    HW2 8562   1.602   5.636   6.604
 2555SOL     OW 8563   6.275   6.385   6.540
 2555SOL    HW1 8564   6.328   6.459   6.580
 2555SOL    HW2 8565   6.235   6.329   6.612
 2556SOL     OW 8566   4.194   6.261   0.950
 2556SOL    HW1 8567   4.215   6.316   1.031
 2556SOL    HW2 8568   4.121   6.305   0.898
 2557SOL     OW 8569   2.424   1.606   6.486
 2557SOL    HW1 8570   2.349   1.590   6.422
 2557SOL    HW2 8571   2.425   1.703   6.512
 2558SOL     OW 8572   3.925   3.915   5.340
 2558SOL    HW1 8573   3.869   3.968   5.276
 2558SOL    HW2 8574   4.018   3.952   5.341
 2559SOL     OW 8575   6.256   3.301   4.122
 2559SOL    HW1 8576   6.294   3.261   4.206
 2559SOL    HW2 8577   6.169   3.257   4.101
 2560SOL     OW 8578   4.966   3.628   3.843
 2560SOL    HW1 8579   4.955   3.579   3.756
 2560SOL    HW2 8580   5.037   3.698   3.833
 2561SOL     OW 8581   3.567   0.850   3.736
 2561SOL    HW1 8582   3.506   0.771   3.735
 2561SOL    HW2 8583   3.575   0.887   3.644
 2562SOL     OW 8584   2.461   5.457   2.715
 2562SOL    HW1 8585   2.539   5.519   2.721
 2562SOL    HW2 8586   2.379   5.504   2.747
 2563SOL     OW 8587   4.223   1.571   6.547
 2563SOL    HW1 8588   4.318   1.602   6.546
 2563SOL    HW2 8589   4.177   1.600   6.463
 2564SOL     OW 8590   1.261   6.251   6.412
 2564SOL    HW1 8591   1.225   6.166   6.373
 2564SOL    HW2 8592   1.349   6.233   6.456
 2565SOL     OW 8593   0.097   0.554   1.101
 2565SOL    HW1 8594   0.130   0.461   1.087
 2565SOL    HW2 8595   7.016   0.555   1.103
 2566SOL     OW 8596   1.283   6.848   0.593
 2566SOL    HW1 8597   1.253   6.767   0.542
 2566SOL    HW2 8598   1.381   6.861   0.579
 2567SOL     OW 8599   1.153   1.230   1.976
 2567SOL    HW1 8600   1.062   1.245   2.016
 2567SOL    HW2 8601   1.201   1.159   2.027
 2568SOL     OW 8602   2.862   0.620   0.364
 2568SOL    HW1 8603   2.767   0.653   0.356
 2568SOL    HW2 8604   2.878   0.548   0.298
 2569SOL     OW 8605   1.988   1.454   2.448
 2569SOL    HW1 8606   2.029   1.362   2.448
 2569SOL    HW2 8607   1.919   1.459   2.520
 2570SOL     OW 8608   5.586   6.899   6.282
 2570SOL    HW1 8609   5.650   6.884   6.207
 2570SOL    HW2 8610   5.503   6.943   6.247
 2571SOL     OW 8611   3.057   3.291   4.466
 2571SOL    HW1 8612   3.027   3.300   4.561
 2571SOL    HW2 8613   3.155   3.272   4.463
 2572SOL     OW 8614   1.710   6.685   1.274
 2572SOL    HW1 8615   1.734   6.780   1.290
 2572SOL    HW2 8616   1.619   6.679   1.234
 2573SOL     OW 8617   6.254   1.332   2.014
 2573SOL    HW1 8618   6.170   1.376   1.982
 2573SOL    HW2 8619   6.329   1.358   1.954
 2574SOL     OW 8620   6.491   3.174   0.181
 2574SOL    HW1 8621   6.576   3.151   0.229
 2574SOL    HW2 8622   6.509   3.248   0.116
 2575SOL     OW 8623   4.828   4.064   1.399
 2575SOL    HW1 8624   4.814   4.001   1.323
 2575SOL    HW2 8625   4.749   4.059   1.461
 2576SOL     OW 8626   3.776   6.786   3.697
 2576SOL    HW1 8627   3.860   6.838   3.709
 2576SOL    HW2 8628   3.798   6.690   3.681
 2577SOL     OW 8629   4.366   0.331   2.960
 2577SOL    HW1 8630   4.347   0.367   3.052
 2577SOL    HW2 8631   4.458   0.292   2.958
 2578SOL     OW 8632   4.431   3.124   5.719
 2578SOL    HW1 8633   4.511   3.074   5.754
 2578SOL    HW2 8634   4.358   3.058   5.699
 2579SOL     OW 8635   1.142   1.243   4.519
 2579SOL    HW1 8636   1.161   1.201   4.431
 2579SOL    HW2 8637   1.204   1.320   4.534
 2580SOL     OW 8638   1.295   3.059   6.309
 2580SOL    HW1 8639   1.241   3.042   6.391
 2580SOL    HW2 8640   1.296   2.977   6.252
 2581SOL     OW 8641   5.982   4.892   1.777
 2581SOL    HW1 8642   5.981   4.941   1.690
 2581SOL    HW2 8643   5.988   4.794   1.760
 2582SOL     OW 8644   1.386   4.653   2.628
 2582SOL    HW1 8645   1.396   4.667   2.530
 2582SOL    HW2 8646   1.340   4.566   2.645
 2583SOL     OW 8647   1.333   1.283   1.308
 2583SOL    HW1 8648   1.375   1.300   1.397
 2583SOL    HW2 8649   1.234   1.277   1.318
 2584SOL     OW 8650   3.567   5.447   6.937
 2584SOL    HW1 8651   3.549   5.409   6.847
 2584SOL    HW2 8652   3.664   5.474   6.943
 2585SOL     OW 8653   3.365   0.624   0.088
 2585SOL    HW1 8654   3.392   0.718   0.112
 2585SOL    HW2 8655   3.414   0.596   0.005
 2586SOL     OW 8656   4.681   2.048   4.100
 2586SOL    HW1 8657   4.741   2.124   4.128
 2586SOL    HW2 8658   4.724   1.998   4.026
 2587SOL     OW 8659   6.842   1.393   4.313
 2587SOL    HW1 8660   6.755   1.389   4.264
 2587SOL    HW2 8661   6.873   1.487   4.318
 2588SOL     OW 8662   4.631   0.009   0.592
 2588SOL    HW1 8663   4.578   6.986   0.519
 2588SOL    HW2 8664   4.726   6.996   0.588
 2589SOL     OW 8665   0.316   6.509   5.770
 2589SOL    HW1 8666   0.403   6.498   5.819
 2589SOL    HW2 8667   0.265   6.585   5.809
 2590SOL     OW 8668   3.503   6.610   2.257
 2590SOL    HW1 8669   3.450   6.549   2.316
 2590SOL    HW2 8670   3.501   6.575   2.163
 2591SOL     OW 8671   6.151   6.141   2.770
 2591SOL    HW1 8672   6.103   6.128   2.857
 2591SOL    HW2 8673   6.228   6.203   2.785
 2592SOL     OW 8674   2.248   0.038   1.229
 2592SOL    HW1 8675   2.220   0.040   1.133
 2592SOL    HW2 8676   2.290   0.126   1.253
 2593SOL     OW 8677   3.208   6.696   1.928
 2593SOL    HW1 8678   3.224   6.716   2.024
 2593SOL    HW2 8679   3.246   6.770   1.872
 2594SOL     OW 8680   0.360   6.244   5.908
 2594SOL    HW1 8681   0.349   6.332   5.862
 2594SOL    HW2 8682   0.398   6.259   5.999
 2595SOL     OW 8683   6.118   1.889   5.519
 2595SOL    HW1 8684   6.116   1.909   5.617
 2595SOL    HW2 8685   6.026   1.901   5.481
 2596SOL     OW 8686   3.906   2.150   1.886
 2596SOL    HW1 8687   3.938   2.173   1.978
 2596SOL    HW2 8688   3.815   2.187   1.872
 2597SOL     OW 8689   2.041   3.876   0.409
 2597SOL    HW1 8690   2.123   3.843   0.362
 2597SOL    HW2 8691   2.056   3.969   0.442
 2598SOL     OW 8692   6.620   1.449   4.682
 2598SOL    HW1 8693   6.657   1.359   4.702
 2598SOL    HW2 8694   6.537   1.439   4.626
 2599SOL     OW 8695   2.913   0.275   0.814
 2599SOL    HW1 8696   2.863   0.192   0.839
 2599SOL    HW2 8697   2.912   0.287   0.715
 2600SOL     OW 8698   4.920   3.619   4.792
 2600SOL    HW1 8699   4.935   3.703   4.740
 2600SOL    HW2 8700   4.880   3.641   4.881
 2601SOL     OW 8701   3.280   1.453   6.924
 2601SOL    HW1 8702   3.245   1.522   6.861
 2601SOL    HW2 8703   3.379   1.465   6.934
 2602SOL     OW 8704   6.698   5.193   3.689
 2602SOL    HW1 8705   6.752   5.145   3.758
 2602SOL    HW2 8706   6.601   5.192   3.716
 2603SOL     OW 8707   2.146   2.655   1.475
 2603SOL    HW1 8708   2.187   2.671   1.385
 2603SOL    HW2 8709   2.217   2.623   1.538
 2604SOL     OW 8710   5.093   1.259   2.809
 2604SOL    HW1 8711   4.995   1.255   2.789
 2604SOL    HW2 8712   5.128   1.166   2.822
 2605SOL     OW 8713   3.095   5.231   3.397
 2605SOL    HW1 8714   3.147   5.147   3.384
 2605SOL    HW2 8715   3.158   5.309   3.399
 2606SOL     OW 8716   0.139   4.727   0.775
 2606SOL    HW1 8717   0.120   4.629   0.769
 2606SOL    HW2 8718   0.199   4.745   0.853
 2607SOL     OW 8719   0.524   1.512   5.990
 2607SOL    HW1 8720   0.612   1.544   6.024
 2607SOL    HW2 8721   0.522   1.518   5.891
 2608SOL     OW 8722   3.702   5.528   2.589
 2608SOL    HW1 8723   3.605   5.528   2.610
 2608SOL    HW2 8724   3.742   5.439   2.615
 2609SOL     OW 8725   0.536   2.439   1.405
 2609SOL    HW1 8726   0.634   2.448   1.386
 2609SOL    HW2 8727   0.508   2.509   1.470
 2610SOL     OW 8728   6.922   4.714   4.656
 2610SOL    HW1 8729   6.960   4.804   4.676
 2610SOL    HW2 8730   6.907   4.705   4.558
 2611SOL     OW 8731   5.557   6.776   1.543
 2611SOL    HW1 8732   5.518   6.865   1.564
 2611SOL    HW2 8733   5.644   6.765   1.591
 2612SOL     OW 8734   6.875   6.822   5.855
 2612SOL    HW1 8735   6.922   6.791   5.938
 2612SOL    HW2 8736   6.870   6.922   5.855
 2613SOL     OW 8737   2.873   6.678   1.201
 2613SOL    HW1 8738   2.893   6.752   1.265
 2613SOL    HW2 8739   2.833   6.601   1.252
 2614SOL     OW 8740   6.814   0.195   6.370
 2614SOL    HW1 8741   6.769   0.140   6.440
 2614SOL    HW2 8742   6.906   0.160   6.354
 2615SOL     OW 8743   6.160   3.698   2.678
 2615SOL    HW1 8744   6.128   3.739   2.593
 2615SOL    HW2 8745   6.085   3.696   2.744
 2616SOL     OW 8746   4.000   3.450   3.545
 2616SOL    HW1 8747   4.055   3.526   3.579
 2616SOL    HW2 8748   3.932   3.425   3.614
 2617SOL     OW 8749   3.962   6.344   0.821
 2617SOL    HW1 8750   3.972   6.305   0.730
 2617SOL    HW2 8751   3.932   6.439   0.813
 2618SOL     OW 8752   0.222   6.538   4.049
 2618SOL    HW1 8753   0.273   6.588   4.119
 2618SOL    HW2 8754   0.134   6.508   4.086
 2619SOL     OW 8755   2.771   1.407   3.374
 2619SOL    HW1 8756   2.836   1.433   3.302
 2619SOL    HW2 8757   2.791   1.458   3.457
 2620SOL     OW 8758   0.962   6.559   3.116
 2620SOL    HW1 8759   0.967   6.594   3.210
 2620SOL    HW2 8760   0.903   6.478   3.114
 2621SOL     OW 8761   2.042   5.499   2.722
 2621SOL    HW1 8762   2.061   5.485   2.625
 2621SOL    HW2 8763   1.950   5.465   2.743
 2622SOL     OW 8764   2.824   1.891   6.752
 2622SOL    HW1 8765   2.840   1.881   6.654
 2622SOL    HW2 8766   2.795   1.803   6.790
 2623SOL     OW 8767   3.457   2.057   4.679
 2623SOL    HW1 8768   3.462   1.993   4.603
 2623SOL    HW2 8769   3.371   2.043   4.729
 2624SOL     OW 8770   6.866   2.900   5.072
 2624SOL    HW1 8771   6.805   2.978   5.088
 2624SOL    HW2 8772   6.891   2.859   5.160
 2625SOL     OW 8773   2.970   2.511   6.113
 2625SOL    HW1 8774   2.904   2.443   6.144
 2625SOL    HW2 8775   3.039   2.525   6.184
 2626SOL     OW 8776   0.436   0.363   5.173
 2626SOL    HW1 8777   0.448   0.274   5.216
 2626SOL    HW2 8778   0.340   0.391   5.179
 2627SOL     OW 8779   0.707   0.241   4.905
 2627SOL    HW1 8780   0.701   0.141   4.906
 2627SOL    HW2 8781   0.721   0.274   4.999
 2628SOL     OW 8782   2.401   4.992   6.500
 2628SOL    HW1 8783   2.483   5.046   6.479
 2628SOL    HW2 8784   2.427   4.896   6.513
 2629SOL     OW 8785   3.466   4.134   1.785
 2629SOL    HW1 8786   3.437   4.046   1.748
 2629SOL    HW2 8787   3.419   4.151   1.872
 2630SOL     OW 8788   3.062   1.727   3.492
 2630SOL    HW1 8789   3.103   1.722   3.583
 2630SOL    HW2 8790   3.133   1.719   3.422
 2631SOL     OW 8791   4.680   0.250   4.172
 2631SOL    HW1 8792   4.757   0.313   4.169
 2631SOL    HW2 8793   4.711   0.159   4.147
 2632SOL     OW 8794   3.097   1.658   6.839
 2632SOL    HW1 8795   3.084   1.687   6.934
 2632SOL    HW2 8796   3.096   1.738   6.779
 2633SOL     OW 8797   6.270   1.670   5.679
 2633SOL    HW1 8798   6.363   1.661   5.644
 2633SOL    HW2 8799   6.224   1.745   5.632
 2634SOL     OW 8800   1.871   4.223   2.974
 2634SOL    HW1 8801   1.864   4.262   2.882
 2634SOL    HW2 8802   1.788   4.173   2.996
 2635SOL     OW 8803   5.560   6.214   5.110
 2635SOL    HW1 8804   5.508   6.269   5.174
 2635SOL    HW2 8805   5.657   6.214   5.135
 2636SOL     OW 8806   4.740   0.419   5.128
 2636SOL    HW1 8807   4.775   0.485   5.194
 2636SOL    HW2 8808   4.809   0.348   5.111
 2637SOL     OW 8809   5.804   1.711   3.698
 2637SOL    HW1 8810   5.850   1.731   3.785
 2637SOL    HW2 8811   5.873   1.686   3.630
 2638SOL     OW 8812   0.103   0.140   2.673
 2638SOL    HW1 8813   0.189   0.188   2.692
 2638SOL    HW2 8814   0.060   0.179   2.592
 2639SOL     OW 8815   1.310   0.129   1.563
 2639SOL    HW1 8816   1.256   0.061   1.513
 2639SOL    HW2 8817   1.359   0.083   1.637
 2640SOL     OW 8818   6.958   6.225   4.590
 2640SOL    HW1 8819   6.985   6.194   4.681
 2640SOL    HW2 8820   6.891   6.299   4.599
 2641SOL     OW 8821   4.912   3.167   2.050
 2641SOL    HW1 8822   4.847   3.091   2.053
 2641SOL    HW2 8823   4.895   3.222   1.969
 2642SOL     OW 8824   4.472   6.817   4.119
 2642SOL    HW1 8825   4.460   6.729   4.165
 2642SOL    HW2 8826   4.412   6.885   4.162
 2643SOL     OW 8827   1.094   4.322   2.697
 2643SOL    HW1 8828   1.060   4.258   2.629
 2643SOL    HW2 8829   1.027   4.332   2.771
 2644SOL     OW 8830   6.227   5.453   5.760
 2644SOL    HW1 8831   6.291   5.445   5.837
 2644SOL    HW2 8832   6.217   5.550   5.736
 2645SOL     OW 8833   4.620   5.403   3.812
 2645SOL    HW1 8834   4.547   5.457   3.770
 2645SOL    HW2 8835   4.580   5.331   3.869
 2646SOL     OW 8836   5.840   0.333   6.371
 2646SOL    HW1 8837   5.828   0.240   6.336
 2646SOL    HW2 8838   5.752   0.369   6.403
 2647SOL     OW 8839   6.181   0.490   2.174
 2647SOL    HW1 8840   6.229   0.578   2.171
 2647SOL    HW2 8841   6.082   0.507   2.174
 2648SOL     OW 8842   0.257   0.159   3.456
 2648SOL    HW1 8843   0.243   0.088   3.525
 2648SOL    HW2 8844   0.172   0.210   3.442
 2649SOL     OW 8845   5.759   3.483   6.326
 2649SOL    HW1 8846   5.692   3.457   6.256
 2649SOL    HW2 8847   5.799   3.401   6.366
 2650SOL     OW 8848   0.633   3.753   4.263
 2650SOL    HW1 8849   0.644   3.656   4.283
 2650SOL    HW2 8850   0.564   3.765   4.191
 2651SOL     OW 8851   0.281   2.470   6.689
 2651SOL    HW1 8852   0.318   2.562   6.674
 2651SOL    HW2 8853   0.183   2.477   6.710
 2652SOL     OW 8854   3.151   3.579   3.798
 2652SOL    HW1 8855   3.188   3.607   3.886
 2652SOL    HW2 8856   3.107   3.658   3.754
 2653SOL     OW 8857   4.839   0.057   5.835
 2653SOL    HW1 8858   4.814   6.982   5.810
 2653SOL    HW2 8859   4.909   0.091   5.772
 2654SOL     OW 8860   5.093   4.970   1.009
 2654SOL    HW1 8861   5.113   5.045   1.072
 2654SOL    HW2 8862   5.169   4.905   1.011
 2655SOL     OW 8863   5.078   4.830   4.176
 2655SOL    HW1 8864   5.056   4.751   4.119
 2655SOL    HW2 8865   5.176   4.831   4.195
 2656SOL     OW 8866   3.690   4.973   4.073
 2656SOL    HW1 8867   3.598   4.965   4.111
 2656SOL    HW2 8868   3.744   4.892   4.096
 2657SOL     OW 8869   2.432   4.587   6.242
 2657SOL    HW1 8870   2.358   4.621   6.300
 2657SOL    HW2 8871   2.520   4.620   6.277
 2658SOL     OW 8872   4.955   4.311   0.621
 2658SOL    HW1 8873   5.029   4.289   0.556
 2658SOL    HW2 8874   4.995   4.342   0.707
 2659SOL     OW 8875   6.318   2.993   4.820
 2659SOL    HW1 8876   6.413   2.981   4.848
 2659SOL    HW2 8877   6.275   2.904   4.808
 2660SOL     OW 8878   0.235   1.571   1.054
 2660SOL    HW1 8879   0.268   1.659   1.089
 2660SOL    HW2 8880   0.190   1.585   0.965
 2661SOL     OW 8881   2.070   6.348   0.801
 2661SOL    HW1 8882   2.066   6.419   0.871
 2661SOL    HW2 8883   2.138   6.373   0.732
 2662SOL     OW 8884   4.264   0.121   5.341
 2662SOL    HW1 8885   4.220   0.207   5.313
 2662SOL    HW2 8886   4.352   0.112   5.294
 2663SOL     OW 8887   2.438   4.211   0.969
 2663SOL    HW1 8888   2.376   4.241   1.042
 2663SOL    HW2 8889   2.451   4.112   0.975
 2664SOL     OW 8890   4.182   3.538   5.003
 2664SOL    HW1 8891   4.269   3.530   4.953
 2664SOL    HW2 8892   4.184   3.621   5.059
 2665SOL     OW 8893   2.650   2.587   5.235
 2665SOL    HW1 8894   2.580   2.651   5.268
 2665SOL    HW2 8895   2.739   2.633   5.232
 2666SOL     OW 8896   5.039   3.834   1.806
 2666SOL    HW1 8897   5.062   3.842   1.903
 2666SOL    HW2 8898   4.963   3.769   1.796
 2667SOL     OW 8899   1.745   6.105   4.307
 2667SOL    HW1 8900   1.739   6.005   4.311
 2667SOL    HW2 8901   1.829   6.135   4.353
 2668SOL     OW 8902   5.926   3.275   3.983
 2668SOL    HW1 8903   5.978   3.331   3.919
 2668SOL    HW2 8904   5.831   3.267   3.951
 2669SOL     OW 8905   3.052   4.862   5.079
 2669SOL    HW1 8906   2.991   4.787   5.054
 2669SOL    HW2 8907   3.108   4.887   5.001
 2670SOL     OW 8908   5.263   2.165   6.601
 2670SOL    HW1 8909   5.170   2.145   6.571
 2670SOL    HW2 8910   5.284   2.113   6.684
 2671SOL     OW 8911   3.584   5.195   6.675
 2671SOL    HW1 8912   3.560   5.202   6.578
 2671SOL    HW2 8913   3.546   5.110   6.712
 2672SOL     OW 8914   0.096   4.842   0.539
 2672SOL    HW1 8915   0.115   4.782   0.616
 2672SOL    HW2 8916   0.181   4.884   0.507
 2673SOL     OW 8917   6.482   1.842   3.915
 2673SOL    HW1 8918   6.415   1.890   3.972
 2673SOL    HW2 8919   6.490   1.888   3.827
 2674SOL     OW 8920   1.582   3.956   3.586
 2674SOL    HW1 8921   1.636   3.908   3.516
 2674SOL    HW2 8922   1.642   3.985   3.660
 2675SOL     OW 8923   6.494   5.010   4.646
 2675SOL    HW1 8924   6.446   4.951   4.710
 2675SOL    HW2 8925   6.437   5.090   4.624
 2676SOL     OW 8926   4.820   1.456   1.920
 2676SOL    HW1 8927   4.802   1.554   1.923
 2676SOL    HW2 8928   4.734   1.406   1.925
 2677SOL     OW 8929   3.049   4.048   0.087
 2677SOL    HW1 8930   3.056   4.087   0.179
 2677SOL    HW2 8931   3.129   3.991   0.069
 2678SOL     OW 8932   6.717   4.254   1.180
 2678SOL    HW1 8933   6.716   4.205   1.268
 2678SOL    HW2 8934   6.751   4.347   1.194
 2679SOL     OW 8935   3.374   5.509   1.076
 2679SOL    HW1 8936   3.439   5.582   1.053
 2679SOL    HW2 8937   3.424   5.427   1.101
 2680SOL     OW 8938   0.778   1.692   0.595
 2680SOL    HW1 8939   0.685   1.728   0.599
 2680SOL    HW2 8940   0.843   1.768   0.595
 2681SOL     OW 8941   1.686   2.442   4.357
 2681SOL    HW1 8942   1.676   2.396   4.445
 2681SOL    HW2 8943   1.775   2.419   4.316
 2682SOL     OW 8944   5.431   3.721   2.879
 2682SOL    HW1 8945   5.467   3.629   2.872
 2682SOL    HW2 8946   5.492   3.777   2.935
 2683SOL     OW 8947   2.355   3.545   0.270
 2683SOL    HW1 8948   2.373   3.473   0.337
 2683SOL    HW2 8949   2.257   3.547   0.249
 2684SOL     OW 8950   4.514   5.993   1.388
 2684SOL    HW1 8951   4.502   6.070   1.451
 2684SOL    HW2 8952   4.539   5.912   1.441
 2685SOL     OW 8953   6.358   5.980   6.691
 2685SOL    HW1 8954   6.352   5.888   6.652
 2685SOL    HW2 8955   6.428   5.981   6.762
 2686SOL     OW 8956   1.437   1.701   5.339
 2686SOL    HW1 8957   1.416   1.626   5.402
 2686SOL    HW2 8958   1.536   1.705   5.324
 2687SOL     OW 8959   4.483   4.739   2.385
 2687SOL    HW1 8960   4.439   4.734   2.296
 2687SOL    HW2 8961   4.457   4.659   2.440
 2688SOL     OW 8962   4.964   5.273   0.015
 2688SOL    HW1 8963   4.888   5.337   0.024
 2688SOL    HW2 8964   4.938   5.184   0.054
 2689SOL     OW 8965   1.803   2.929   3.509
 2689SOL    HW1 8966   1.781   2.956   3.416
 2689SOL    HW2 8967   1.772   2.999   3.573
 2690SOL     OW 8968   3.274   3.744   3.971
 2690SOL    HW1 8969   3.247   3.758   4.066
 2690SOL    HW2 8970   3.245   3.823   3.916
 2691SOL     OW 8971   1.051   5.480   2.230
 2691SOL    HW1 8972   1.071   5.565   2.181
 2691SOL    HW2 8973   0.953   5.472   2.244
 2692SOL     OW 8974   3.701   4.868   3.171
 2692SOL    HW1 8975   3.792   4.835   3.148
 2692SOL    HW2 8976   3.675   4.942   3.109
 2693SOL     OW 8977   1.599   4.100   3.022
 2693SOL    HW1 8978   1.602   4.142   3.113
 2693SOL    HW2 8979   1.581   4.002   3.031
 2694SOL     OW 8980   4.436   6.596   2.698
 2694SOL    HW1 8981   4.453   6.499   2.686
 2694SOL    HW2 8982   4.451   6.622   2.794
 2695SOL     OW 8983   4.970   0.831   2.781
 2695SOL    HW1 8984   4.957   0.825   2.682
 2695SOL    HW2 8985   5.003   0.743   2.815
 2696SOL     OW 8986   3.797   3.491   5.153
 2696SOL    HW1 8987   3.787   3.590   5.145
 2696SOL    HW2 8988   3.719   3.453   5.202
 2697SOL     OW 8989   3.308   1.263   2.914
 2697SOL    HW1 8990   3.300   1.257   3.014
 2697SOL    HW2 8991   3.216   1.274   2.874
 2698SOL     OW 8992   1.801   6.124   0.587
 2698SOL    HW1 8993   1.746   6.081   0.516
 2698SOL    HW2 8994   1.810   6.222   0.568
 2699SOL     OW 8995   3.227   6.452   0.337
 2699SOL    HW1 8996   3.232   6.551   0.319
 2699SOL    HW2 8997   3.295   6.428   0.407
 2700SOL     OW 8998   2.091   3.931   0.856
 2700SOL    HW1 8999   2.046   3.845   0.879
 2700SOL    HW2 9000   2.043   3.974   0.780
 2701SOL     OW 9001   3.793   0.579   6.615
 2701SOL    HW1 9002   3.771   0.642   6.541
 2701SOL    HW2 9003   3.883   0.539   6.599
 2702SOL     OW 9004   0.892   2.711   3.634
 2702SOL    HW1 9005   0.865   2.806   3.650
 2702SOL    HW2 9006   0.878   2.688   3.538
 2703SOL     OW 9007   1.912   0.917   2.506
 2703SOL    HW1 9008   1.952   0.825   2.515
 2703SOL    HW2 9009   1.882   0.932   2.412
 2704SOL     OW 9010   0.052   6.156   1.048
 2704SOL    HW1 9011   0.021   6.074   0.999
 2704SOL    HW2 9012   0.151   6.162   1.044
 2705SOL     OW 9013   1.292   4.959   4.330
 2705SOL    HW1 9014   1.313   5.000   4.242
 2705SOL    HW2 9015   1.377   4.928   4.373
 2706SOL     OW 9016   0.131   0.602   1.562
 2706SOL    HW1 9017   0.228   0.606   1.535
 2706SOL    HW2 9018   0.085   0.686   1.532
 2707SOL     OW 9019   2.243   0.901   4.947
 2707SOL    HW1 9020   2.262   0.854   5.034
 2707SOL    HW2 9021   2.235   0.834   4.874
 2708SOL     OW 9022   0.934   1.929   0.593
 2708SOL    HW1 9023   0.878   1.972   0.523
 2708SOL    HW2 9024   0.924   1.978   0.679
 2709SOL     OW 9025   5.568   6.531   0.542
 2709SOL    HW1 9026   5.492   6.594   0.526
 2709SOL    HW2 9027   5.545   6.441   0.507
 2710SOL     OW 9028   0.597   3.122   3.343
 2710SOL    HW1 9029   0.684   3.075   3.326
 2710SOL    HW2 9030   0.614   3.206   3.394
 2711SOL     OW 9031   2.413   1.094   3.587
 2711SOL    HW1 9032   2.444   1.046   3.669
 2711SOL    HW2 9033   2.473   1.171   3.569
 2712SOL     OW 9034   3.175   4.685   0.603
 2712SOL    HW1 9035   3.188   4.766   0.661
 2712SOL    HW2 9036   3.117   4.619   0.650
 2713SOL     OW 9037   2.405   2.001   5.044
 2713SOL    HW1 9038   2.393   2.089   4.998
 2713SOL    HW2 9039   2.317   1.953   5.048
 2714SOL     OW 9040   4.664   2.210   0.633
 2714SOL    HW1 9041   4.741   2.203   0.569
 2714SOL    HW2 9042   4.660   2.127   0.689
 2715SOL     OW 9043   5.085   1.198   0.577
 2715SOL    HW1 9044   5.130   1.175   0.491
 2715SOL    HW2 9045   5.006   1.137   0.591
 2716SOL     OW 9046   5.291   4.776   2.996
 2716SOL    HW1 9047   5.279   4.870   2.964
 2716SOL    HW2 9048   5.389   4.753   2.993
 2717SOL     OW 9049   2.470   4.820   2.027
 2717SOL    HW1 9050   2.547   4.758   2.036
 2717SOL    HW2 9051   2.391   4.771   1.991
 2718SOL     OW 9052   1.625   3.285   5.950
 2718SOL    HW1 9053   1.544   3.289   5.890
 2718SOL    HW2 9054   1.671   3.373   5.951
 2719SOL     OW 9055   6.520   5.656   1.403
 2719SOL    HW1 9056   6.437   5.700   1.369
 2719SOL    HW2 9057   6.597   5.682   1.346
 2720SOL     OW 9058   2.091   6.068   2.295
 2720SOL    HW1 9059   2.155   6.077   2.371
 2720SOL    HW2 9060   2.050   6.157   2.274
 2721SOL     OW 9061   3.021   0.672   4.193
 2721SOL    HW1 9062   2.937   0.645   4.240
 2721SOL    HW2 9063   3.077   0.728   4.254
 2722SOL     OW 9064   6.810   5.773   1.728
 2722SOL    HW1 9065   6.770   5.723   1.804
 2722SOL    HW2 9066   6.910   5.763   1.730
 2723SOL     OW 9067   0.820   6.477   5.501
 2723SOL    HW1 9068   0.804   6.413   5.427
 2723SOL    HW2 9069   0.749   6.467   5.571
 2724SOL     OW 9070   2.268   6.906   6.675
 2724SOL    HW1 9071   2.247   6.894   6.578
 2724SOL    HW2 9072   2.274   6.817   6.719
 2725SOL     OW 9073   6.294   4.740   4.092
 2725SOL    HW1 9074   6.288   4.648   4.053
 2725SOL    HW2 9075   6.279   4.736   4.191
 2726SOL     OW 9076   0.102   3.574   1.114
 2726SOL    HW1 9077   0.145   3.498   1.162
 2726SOL    HW2 9078   0.071   3.544   1.023
 2727SOL     OW 9079   0.484   5.387   3.870
 2727SOL    HW1 9080   0.523   5.478   3.887
 2727SOL    HW2 9081   0.432   5.389   3.785
 2728SOL     OW 9082   3.809   6.768   5.601
 2728SOL    HW1 9083   3.899   6.796   5.567
 2728SOL    HW2 9084   3.810   6.671   5.621
 2729SOL     OW 9085   6.486   5.350   1.409
 2729SOL    HW1 9086   6.525   5.295   1.483
 2729SOL    HW2 9087   6.509   5.446   1.424
 2730SOL     OW 9088   1.901   5.268   1.455
 2730SOL    HW1 9089   1.923   5.228   1.544
 2730SOL    HW2 9090   1.807   5.245   1.430
 2731SOL     OW 9091   4.133   3.570   2.003
 2731SOL    HW1 9092   4.034   3.552   2.006
 2731SOL    HW2 9093   4.160   3.621   2.084
 2732SOL     OW 9094   5.245   2.937   2.334
 2732SOL    HW1 9095   5.243   3.037   2.333
 2732SOL    HW2 9096   5.207   2.901   2.249
 2733SOL     OW 9097   0.176   6.953   5.238
 2733SOL    HW1 9098   0.253   6.977   5.295
 2733SOL    HW2 9099   0.209   6.919   5.150
 2734SOL     OW 9100   2.395   5.752   1.856
 2734SOL    HW1 9101   2.449   5.836   1.859
 2734SOL    HW2 9102   2.380   5.726   1.760
 2735SOL     OW 9103   1.108   2.826   2.610
 2735SOL    HW1 9104   1.167   2.751   2.641
 2735SOL    HW2 9105   1.110   2.830   2.510
 2736SOL     OW 9106   4.147   0.042   4.384
 2736SOL    HW1 9107   4.233   7.011   4.369
 2736SOL    HW2 9108   4.070   7.001   4.364
 2737SOL     OW 9109   3.853   3.780   5.947
 2737SOL    HW1 9110   3.820   3.715   6.016
 2737SOL    HW2 9111   3.792   3.859   5.944
 2738SOL     OW 9112   5.559   5.167   4.165
 2738SOL    HW1 9113   5.590   5.084   4.210
 2738SOL    HW2 9114   5.638   5.215   4.127
 2739SOL     OW 9115   6.657   5.132   0.866
 2739SOL    HW1 9116   6.753   5.136   0.891
 2739SOL    HW2 9117   6.605   5.194   0.925
 2740SOL     OW 9118   6.252   3.543   2.274
 2740SOL    HW1 9119   6.199   3.621   2.309
 2740SOL    HW2 9120   6.224   3.461   2.323
 2741SOL     OW 9121   6.427   0.943   5.502
 2741SOL    HW1 9122   6.344   0.981   5.543
 2741SOL    HW2 9123   6.452   0.997   5.422
 2742SOL     OW 9124   1.933   5.060   6.828
 2742SOL    HW1 9125   1.994   5.041   6.906
 2742SOL    HW2 9126   1.971   5.018   6.746
 2743SOL     OW 9127   6.777   5.279   2.463
 2743SOL    HW1 9128   6.835   5.260   2.542
 2743SOL    HW2 9129   6.693   5.224   2.469
 2744SOL     OW 9130   4.746   1.596   0.032
 2744SOL    HW1 9131   4.801   1.630   0.109
 2744SOL    HW2 9132   4.675   1.534   0.067
 2745SOL     OW 9133   0.783   6.772   6.729
 2745SOL    HW1 9134   0.789   6.696   6.665
 2745SOL    HW2 9135   0.690   6.810   6.729
 2746SOL     OW 9136   2.182   2.064   3.616
 2746SOL    HW1 9137   2.214   2.157   3.637
 2746SOL    HW2 9138   2.259   2.007   3.589
 2747SOL     OW 9139   5.722   3.642   5.886
 2747SOL    HW1 9140   5.639   3.593   5.861
 2747SOL    HW2 9141   5.706   3.740   5.880
 2748SOL     OW 9142   4.475   2.303   0.917
 2748SOL    HW1 9143   4.553   2.248   0.890
 2748SOL    HW2 9144   4.460   2.296   1.015
 2749SOL     OW 9145   6.178   4.704   3.594
 2749SOL    HW1 9146   6.254   4.766   3.613
 2749SOL    HW2 9147   6.093   4.755   3.594
 2750SOL     OW 9148   1.204   4.922   1.287
 2750SOL    HW1 9149   1.123   4.950   1.236
 2750SOL    HW2 9150   1.180   4.846   1.348
 2751SOL     OW 9151   0.330   6.128   0.764
 2751SOL    HW1 9152   0.241   6.082   0.765
 2751SOL    HW2 9153   0.339   6.186   0.845
 2752SOL     OW 9154   4.949   4.651   5.080
 2752SOL    HW1 9155   4.980   4.558   5.062
 2752SOL    HW2 9156   4.897   4.685   5.001
 2753SOL     OW 9157   1.040   6.530   5.730
 2753SOL    HW1 9158   0.957   6.530   5.674
 2753SOL    HW2 9159   1.089   6.444   5.716
 2754SOL     OW 9160   6.399   0.794   3.662
 2754SOL    HW1 9161   6.353   0.848   3.592
 2754SOL    HW2 9162   6.415   0.850   3.743
 2755SOL     OW 9163   2.568   6.706   3.881
 2755SOL    HW1 9164   2.541   6.728   3.787
 2755SOL    HW2 9165   2.548   6.610   3.900
 2756SOL     OW 9166   5.949   4.437   5.608
 2756SOL    HW1 9167   6.042   4.426   5.643
 2756SOL    HW2 9168   5.907   4.519   5.649
 2757SOL     OW 9169   2.198   1.678   6.158
 2757SOL    HW1 9170   2.117   1.727   6.124
 2757SOL    HW2 9171   2.174   1.628   6.241
 2758SOL     OW 9172   5.237   6.196   3.388
 2758SOL    HW1 9173   5.211   6.282   3.344
 2758SOL    HW2 9174   5.210   6.120   3.329
 2759SOL     OW 9175   4.285   5.694   5.754
 2759SOL    HW1 9176   4.360   5.652   5.805
 2759SOL    HW2 9177   4.323   5.755   5.684
 2760SOL     OW 9178   0.302   5.503   2.734
 2760SOL    HW1 9179   0.273   5.454   2.816
 2760SOL    HW2 9180   0.293   5.602   2.749
 2761SOL     OW 9181   2.230   4.075   4.630
 2761SOL    HW1 9182   2.294   4.139   4.588
 2761SOL    HW2 9183   2.222   4.095   4.727
 2762SOL     OW 9184   1.895   1.943   6.549
 2762SOL    HW1 9185   1.831   2.019   6.538
 2762SOL    HW2 9186   1.985   1.979   6.576
 2763SOL     OW 9187   5.010   2.019   4.935
 2763SOL    HW1 9188   4.936   2.073   4.974
 2763SOL    HW2 9189   5.003   2.020   4.835
 2764SOL     OW 9190   0.102   0.057   2.054
 2764SOL    HW1 9191   0.085   0.140   2.001
 2764SOL    HW2 9192   0.072   0.072   2.148
 2765SOL     OW 9193   6.503   0.036   0.883
 2765SOL    HW1 9194   6.482   6.972   0.935
 2765SOL    HW2 9195   6.476   0.023   0.787
 2766SOL     OW 9196   4.298   2.317   6.898
 2766SOL    HW1 9197   4.257   2.402   6.864
 2766SOL    HW2 9198   4.358   2.280   6.828
 2767SOL     OW 9199   6.541   5.477   6.759
 2767SOL    HW1 9200   6.464   5.417   6.780
 2767SOL    HW2 9201   6.526   5.567   6.800
 2768SOL     OW 9202   4.467   0.500   1.217
 2768SOL    HW1 9203   4.560   0.486   1.251
 2768SOL    HW2 9204   4.415   0.552   1.285
 2769SOL     OW 9205   2.594   3.932   6.441
 2769SOL    HW1 9206   2.578   3.838   6.472
 2769SOL    HW2 9207   2.559   3.944   6.349
 2770SOL     OW 9208   4.598   5.519   5.129
 2770SOL    HW1 9209   4.695   5.536   5.114
 2770SOL    HW2 9210   4.562   5.462   5.055
 2771SOL     OW 9211   5.614   1.100   4.432
 2771SOL    HW1 9212   5.533   1.158   4.427
 2771SOL    HW2 9213   5.665   1.107   4.346
 2772SOL     OW 9214   3.293   0.848   1.388
 2772SOL    HW1 9215   3.195   0.830   1.379
 2772SOL    HW2 9216   3.319   0.926   1.332
 2773SOL     OW 9217   6.638   2.948   3.920
 2773SOL    HW1 9218   6.617   3.036   3.962
 2773SOL    HW2 9219   6.602   2.947   3.826
 2774SOL     OW 9220   5.126   3.253   2.999
 2774SOL    HW1 9221   5.031   3.282   2.986
 2774SOL    HW2 9222   5.178   3.274   2.916
 2775SOL     OW 9223   6.609   3.421   4.706
 2775SOL    HW1 9224   6.552   3.494   4.668
 2775SOL    HW2 9225   6.616   3.346   4.640
 2776SOL     OW 9226   5.017   4.026   5.934
 2776SOL    HW1 9227   4.986   4.095   5.869
 2776SOL    HW2 9228   5.071   3.957   5.886
 2777SOL     OW 9229   2.631   2.001   1.108
 2777SOL    HW1 9230   2.706   2.059   1.139
 2777SOL    HW2 9231   2.562   1.995   1.180
 2778SOL     OW 9232   0.658   5.956   6.534
 2778SOL    HW1 9233   0.701   5.949   6.444
 2778SOL    HW2 9234   0.716   6.012   6.594
 2779SOL     OW 9235   5.672   6.497   2.088
 2779SOL    HW1 9236   5.619   6.542   2.016
 2779SOL    HW2 9237   5.634   6.521   2.177
 2780SOL     OW 9238   0.142   0.146   5.776
 2780SOL    HW1 9239   0.112   0.214   5.843
 2780SOL    HW2 9240   0.063   0.093   5.745
 2781SOL     OW 9241   5.975   0.842   3.293
 2781SOL    HW1 9242   6.037   0.802   3.361
 2781SOL    HW2 9243   5.888   0.792   3.294
 2782SOL     OW 9244   4.342   1.310   4.711
 2782SOL    HW1 9245   4.354   1.372   4.789
 2782SOL    HW2 9246   4.246   1.282   4.705
 2783SOL     OW 9247   6.648   4.111   2.124
 2783SOL    HW1 9248   6.592   4.104   2.041
 2783SOL    HW2 9249   6.681   4.205   2.135
 2784SOL     OW 9250   3.215   1.514   2.268
 2784SOL    HW1 9251   3.233   1.586   2.201
 2784SOL    HW2 9252   3.287   1.444   2.262
 2785SOL     OW 9253   5.035   2.390   0.487
 2785SOL    HW1 9254   5.099   2.398   0.411
 2785SOL    HW2 9255   5.084   2.362   0.570
 2786SOL     OW 9256   6.531   6.880   1.947
 2786SOL    HW1 9257   6.568   6.842   1.863
 2786SOL    HW2 9258   6.571   6.833   2.026
 2787SOL     OW 9259   6.137   6.807   5.722
 2787SOL    HW1 9260   6.177   6.719   5.696
 2787SOL    HW2 9261   6.065   6.831   5.657
 2788SOL     OW 9262   2.578   6.413   5.912
 2788SOL    HW1 9263   2.614   6.504   5.932
 2788SOL    HW2 9264   2.645   6.344   5.939
 2789SOL     OW 9265   1.827   1.722   3.808
 2789SOL    HW1 9266   1.895   1.794   3.820
 2789SOL    HW2 9267   1.760   1.750   3.739
 2790SOL     OW 9268   3.460   5.144   1.360
 2790SOL    HW1 9269   3.505   5.086   1.429
 2790SOL    HW2 9270   3.393   5.203   1.404
 2791SOL     OW 9271   0.919   3.750   2.203
 2791SOL    HW1 9272   0.889   3.830   2.153
 2791SOL    HW2 9273   1.019   3.742   2.197
 2792SOL     OW 9274   2.790   0.788   4.571
 2792SOL    HW1 9275   2.716   0.848   4.602
 2792SOL    HW2 9276   2.777   0.768   4.473
 2793SOL     OW 9277   5.081   3.617   1.663
 2793SOL    HW1 9278   5.023   3.630   1.582
 2793SOL    HW2 9279   5.093   3.704   1.710
 2794SOL     OW 9280   6.841   2.234   5.863
 2794SOL    HW1 9281   6.925   2.206   5.908
 2794SOL    HW2 9282   6.803   2.157   5.812
 2795SOL     OW 9283   0.501   4.100   1.119
 2795SOL    HW1 9284   0.553   4.022   1.154
 2795SOL    HW2 9285   0.478   4.161   1.195
 2796SOL     OW 9286   6.925   5.875   3.460
 2796SOL    HW1 9287   6.908   5.972   3.442
 2796SOL    HW2 9288   6.847   5.836   3.509
 2797SOL     OW 9289   5.173   5.074   5.673
 2797SOL    HW1 9290   5.257   5.128   5.673
 2797SOL    HW2 9291   5.096   5.133   5.651
 2798SOL     OW 9292   6.412   5.821   2.742
 2798SOL    HW1 9293   6.467   5.834   2.660
 2798SOL    HW2 9294   6.322   5.785   2.717
 2799SOL     OW 9295   5.538   6.070   6.204
 2799SOL    HW1 9296   5.609   6.115   6.258
 2799SOL    HW2 9297   5.461   6.132   6.193
 2800SOL     OW 9298   5.777   6.105   5.510
 2800SOL    HW1 9299   5.708   6.036   5.484
 2800SOL    HW2 9300   5.739   6.166   5.579
 2801SOL     OW 9301   0.398   5.557   5.986
 2801SOL    HW1 9302   0.429   5.609   6.066
 2801SOL    HW2 9303   0.299   5.541   5.993
 2802SOL     OW 9304   5.695   6.771   5.282
 2802SOL    HW1 9305   5.598   6.778   5.304
 2802SOL    HW2 9306   5.728   6.858   5.246
 2803SOL     OW 9307   3.873   5.153   5.982
 2803SOL    HW1 9308   3.905   5.181   5.891
 2803SOL    HW2 9309   3.773   5.154   5.984
 2804SOL     OW 9310   0.702   3.669   5.059
 2804SOL    HW1 9311   0.736   3.619   4.980
 2804SOL    HW2 9312   0.769   3.739   5.085
 2805SOL     OW 9313   5.731   3.299   3.018
 2805SOL    HW1 9314   5.755   3.202   3.011
 2805SOL    HW2 9315   5.654   3.310   3.080
 2806SOL     OW 9316   2.307   4.035   5.955
 2806SOL    HW1 9317   2.304   3.935   5.953
 2806SOL    HW2 9318   2.395   4.067   5.919
 2807SOL     OW 9319   4.391   0.091   3.211
 2807SOL    HW1 9320   4.342   0.013   3.249
 2807SOL    HW2 9321   4.367   0.101   3.114
 2808SOL     OW 9322   6.594   5.238   1.172
 2808SOL    HW1 9323   6.595   5.266   1.268
 2808SOL    HW2 9324   6.499   5.225   1.142
 2809SOL     OW 9325   5.048   2.286   1.759
 2809SOL    HW1 9326   5.058   2.339   1.675
 2809SOL    HW2 9327   4.988   2.334   1.823
 2810SOL     OW 9328   2.503   5.945   2.569
 2810SOL    HW1 9329   2.471   5.918   2.660
 2810SOL    HW2 9330   2.505   5.865   2.509
 2811SOL     OW 9331   0.855   1.803   2.962
 2811SOL    HW1 9332   0.954   1.808   2.952
 2811SOL    HW2 9333   0.811   1.850   2.886
 2812SOL     OW 9334   6.175   3.542   0.684
 2812SOL    HW1 9335   6.109   3.567   0.755
 2812SOL    HW2 9336   6.204   3.624   0.635
 2813SOL     OW 9337   0.530   1.892   6.805
 2813SOL    HW1 9338   0.606   1.955   6.790
 2813SOL    HW2 9339   0.445   1.934   6.774
 2814SOL     OW 9340   3.281   4.293   5.687
 2814SOL    HW1 9341   3.376   4.314   5.667
 2814SOL    HW2 9342   3.268   4.194   5.691
 2815SOL     OW 9343   6.480   5.236   6.346
 2815SOL    HW1 9344   6.569   5.254   6.303
 2815SOL    HW2 9345   6.494   5.210   6.442
 2816SOL     OW 9346   6.198   6.295   4.075
 2816SOL    HW1 9347   6.294   6.305   4.101
 2816SOL    HW2 9348   6.141   6.290   4.157
 2817SOL     OW 9349   3.287   0.653   2.940
 2817SOL    HW1 9350   3.192   0.639   2.969
 2817SOL    HW2 9351   3.335   0.706   3.010
 2818SOL     OW 9352   0.178   1.402   2.371
 2818SOL    HW1 9353   0.119   1.462   2.317
 2818SOL    HW2 9354   0.130   1.376   2.455
 2819SOL     OW 9355   1.509   0.416   1.843
 2819SOL    HW1 9356   1.604   0.387   1.845
 2819SOL    HW2 9357   1.470   0.409   1.935
 2820SOL     OW 9358   1.553   1.953   2.184
 2820SOL    HW1 9359   1.477   2.002   2.227
 2820SOL    HW2 9360   1.612   2.019   2.137
 2821SOL     OW 9361   3.083   5.080   6.016
 2821SOL    HW1 9362   3.095   4.988   6.051
 2821SOL    HW2 9363   2.987   5.095   5.991
 2822SOL     OW 9364   4.525   1.878   0.471
 2822SOL    HW1 9365   4.441   1.904   0.424
 2822SOL    HW2 9366   4.503   1.840   0.561
 2823SOL     OW 9367   6.065   0.921   0.226
 2823SOL    HW1 9368   6.080   0.964   0.315
 2823SOL    HW2 9369   6.049   0.823   0.239
 2824SOL     OW 9370   2.313   1.804   5.377
 2824SOL    HW1 9371   2.396   1.860   5.371
 2824SOL    HW2 9372   2.284   1.778   5.285
 2825SOL     OW 9373   5.579   0.003   5.455
 2825SOL    HW1 9374   5.618   6.931   5.465
 2825SOL    HW2 9375   5.649   0.072   5.473
 2826SOL     OW 9376   3.913   2.596   6.360
 2826SOL    HW1 9377   3.822   2.597   6.402
 2826SOL    HW2 9378   3.982   2.590   6.432
 2827SOL     OW 9379   0.239   0.547   6.672
 2827SOL    HW1 9380   0.269   0.560   6.767
 2827SOL    HW2 9381   0.145   0.515   6.671
 2828SOL     OW 9382   2.073   2.804   0.545
 2828SOL    HW1 9383   2.016   2.851   0.479
 2828SOL    HW2 9384   2.121   2.729   0.501
 2829SOL     OW 9385   3.487   3.001   3.687
 2829SOL    HW1 9386   3.573   2.950   3.688
 2829SOL    HW2 9387   3.443   2.989   3.599
 2830SOL     OW 9388   3.449   4.197   5.305
 2830SOL    HW1 9389   3.392   4.185   5.387
 2830SOL    HW2 9390   3.505   4.116   5.291
 2831SOL     OW 9391   1.213   3.044   2.767
 2831SOL    HW1 9392   1.266   3.082   2.692
 2831SOL    HW2 9393   1.172   2.958   2.738
 2832SOL     OW 9394   0.689   2.805   1.381
 2832SOL    HW1 9395   0.650   2.744   1.450
 2832SOL    HW2 9396   0.784   2.779   1.363
 2833SOL     OW 9397   2.741   1.654   2.280
 2833SOL    HW1 9398   2.645   1.662   2.305
 2833SOL    HW2 9399   2.769   1.736   2.230
 2834SOL     OW 9400   4.321   6.324   4.222
 2834SOL    HW1 9401   4.361   6.323   4.131
 2834SOL    HW2 9402   4.221   6.322   4.214
 2835SOL     OW 9403   0.722   6.639   0.744
 2835SOL    HW1 9404   0.740   6.729   0.784
 2835SOL    HW2 9405   0.638   6.643   0.690
 2836SOL     OW 9406   1.290   6.340   1.437
 2836SOL    HW1 9407   1.328   6.376   1.352
 2836SOL    HW2 9408   1.233   6.410   1.480
 2837SOL     OW 9409   5.422   4.547   2.362
 2837SOL    HW1 9410   5.442   4.533   2.265
 2837SOL    HW2 9411   5.465   4.631   2.393
 2838SOL     OW 9412   4.812   3.731   0.999
 2838SOL    HW1 9413   4.880   3.660   1.018
 2838SOL    HW2 9414   4.839   3.781   0.917
 2839SOL     OW 9415   0.095   2.673   2.558
 2839SOL    HW1 9416   0.177   2.616   2.561
 2839SOL    HW2 9417   0.088   2.717   2.468
 2840SOL     OW 9418   1.556   6.121   2.073
 2840SOL    HW1 9419   1.578   6.043   2.132
 2840SOL    HW2 9420   1.460   6.117   2.047
 2841SOL     OW 9421   6.348   2.446   6.584
 2841SOL    HW1 9422   6.326   2.351   6.563
 2841SOL    HW2 9423   6.265   2.501   6.581
 2842SOL     OW 9424   0.707   5.421   4.813
 2842SOL    HW1 9425   0.798   5.385   4.832
 2842SOL    HW2 9426   0.638   5.361   4.852
 2843SOL     OW 9427   2.522   1.857   2.345
 2843SOL    HW1 9428   2.479   1.768   2.356
 2843SOL    HW2 9429   2.479   1.906   2.269
 2844SOL     OW 9430   6.163   5.382   0.936
 2844SOL    HW1 9431   6.217   5.456   0.977
 2844SOL    HW2 9432   6.172   5.386   0.836
 2845SOL     OW 9433   5.174   3.385   2.763
 2845SOL    HW1 9434   5.224   3.347   2.685
 2845SOL    HW2 9435   5.150   3.480   2.745
 2846SOL     OW 9436   3.690   0.376   0.599
 2846SOL    HW1 9437   3.642   0.318   0.666
 2846SOL    HW2 9438   3.698   0.326   0.513
 2847SOL     OW 9439   5.166   3.959   3.121
 2847SOL    HW1 9440   5.186   4.012   3.039
 2847SOL    HW2 9441   5.104   4.011   3.180
 2848SOL     OW 9442   2.508   2.883   6.024
 2848SOL    HW1 9443   2.420   2.836   6.014
 2848SOL    HW2 9444   2.582   2.817   6.015
 2849SOL     OW 9445   3.403   0.727   1.626
 2849SOL    HW1 9446   3.385   0.631   1.605
 2849SOL    HW2 9447   3.392   0.781   1.542
 2850SOL     OW 9448   2.241   6.983   3.284
 2850SOL    HW1 9449   2.258   6.908   3.347
 2850SOL    HW2 9450   2.225   6.946   3.192
 2851SOL     OW 9451   4.623   3.057   6.820
 2851SOL    HW1 9452   4.640   3.118   6.897
 2851SOL    HW2 9453   4.564   3.103   6.754
 2852SOL     OW 9454   6.327   4.539   6.526
 2852SOL    HW1 9455   6.390   4.581   6.591
 2852SOL    HW2 9456   6.358   4.446   6.505
 2853SOL     OW 9457   1.098   2.530   6.873
 2853SOL    HW1 9458   1.053   2.619   6.865
 2853SOL    HW2 9459   1.172   2.536   6.940
 2854SOL     OW 9460   3.688   0.390   5.716
 2854SOL    HW1 9461   3.672   0.325   5.790
 2854SOL    HW2 9462   3.786   0.400   5.701
 2855SOL     OW 9463   1.483   2.423   5.746
 2855SOL    HW1 9464   1.455   2.329   5.725
 2855SOL    HW2 9465   1.533   2.460   5.667
 2856SOL     OW 9466   1.287   2.993   4.260
 2856SOL    HW1 9467   1.294   3.080   4.212
 2856SOL    HW2 9468   1.280   2.919   4.193
 2857SOL     OW 9469   0.267   2.696   1.387
 2857SOL    HW1 9470   0.260   2.611   1.333
 2857SOL    HW2 9471   0.177   2.719   1.424
 2858SOL     OW 9472   5.272   5.370   2.142
 2858SOL    HW1 9473   5.292   5.285   2.191
 2858SOL    HW2 9474   5.286   5.448   2.203
 2859SOL     OW 9475   6.133   6.695   0.152
 2859SOL    HW1 9476   6.101   6.762   0.219
 2859SOL    HW2 9477   6.055   6.651   0.109
 2860SOL     OW 9478   2.511   0.622   2.510
 2860SOL    HW1 9479   2.507   0.659   2.418
 2860SOL    HW2 9480   2.600   0.645   2.551
 2861SOL     OW 9481   3.595   5.588   5.666
 2861SOL    HW1 9482   3.562   5.666   5.613
 2861SOL    HW2 9483   3.623   5.515   5.604
 2862SOL     OW 9484   4.268   2.182   2.077
 2862SOL    HW1 9485   4.192   2.188   2.142
 2862SOL    HW2 9486   4.287   2.273   2.039
 2863SOL     OW 9487   4.935   1.523   6.323
 2863SOL    HW1 9488   4.868   1.455   6.350
 2863SOL    HW2 9489   4.960   1.509   6.227
 2864SOL     OW 9490   4.584   2.678   0.866
 2864SOL    HW1 9491   4.595   2.609   0.794
 2864SOL    HW2 9492   4.535   2.638   0.944
 2865SOL     OW 9493   4.259   6.646   3.511
 2865SOL    HW1 9494   4.216   6.736   3.500
 2865SOL    HW2 9495   4.195   6.576   3.479
 2866SOL     OW 9496   5.757   4.089   0.225
 2866SOL    HW1 9497   5.778   4.104   0.128
 2866SOL    HW2 9498   5.753   3.991   0.243
 2867SOL     OW 9499   6.083   6.366   3.015
 2867SOL    HW1 9500   6.011   6.297   3.016
 2867SOL    HW2 9501   6.044   6.455   2.992
 2868SOL     OW 9502   1.065   1.011   5.286
 2868SOL    HW1 9503   1.131   0.994   5.213
 2868SOL    HW2 9504   1.113   1.026   5.372
 2869SOL     OW 9505   6.121   0.974   3.632
 2869SOL    HW1 9506   6.108   1.022   3.546
 2869SOL    HW2 9507   6.031   0.954   3.673
 2870SOL     OW 9508   0.613   1.606   6.351
 2870SOL    HW1 9509   0.599   1.650   6.440
 2870SOL    HW2 9510   0.526   1.603   6.302
 2871SOL     OW 9511   6.077   0.709   0.448
 2871SOL    HW1 9512   6.008   0.644   0.480
 2871SOL    HW2 9513   6.093   0.778   0.519
 2872SOL     OW 9514   2.556   1.799   0.947
 2872SOL    HW1 9515   2.592   1.835   0.861
 2872SOL    HW2 9516   2.580   1.860   1.022
 2873SOL     OW 9517   6.978   6.909   2.565
 2873SOL    HW1 9518   6.985   6.930   2.662
 2873SOL    HW2 9519   6.949   6.815   2.552
 2874SOL     OW 9520   3.877   6.540   2.683
 2874SOL    HW1 9521   3.841   6.501   2.598
 2874SOL    HW2 9522   3.945   6.611   2.661
 2875SOL     OW 9523   4.458   0.063   2.203
 2875SOL    HW1 9524   4.473   0.038   2.108
 2875SOL    HW2 9525   4.360   0.075   2.220
 2876SOL     OW 9526   1.742   0.334   2.824
 2876SOL    HW1 9527   1.771   0.418   2.779
 2876SOL    HW2 9528   1.680   0.356   2.899
 2877SOL     OW 9529   2.424   0.955   6.151
 2877SOL    HW1 9530   2.504   0.948   6.091
 2877SOL    HW2 9531   2.452   0.993   6.239
 2878SOL     OW 9532   3.031   3.665   4.998
 2878SOL    HW1 9533   2.995   3.756   4.978
 2878SOL    HW2 9534   3.114   3.649   4.943
 2879SOL     OW 9535   5.530   5.519   5.382
 2879SOL    HW1 9536   5.484   5.539   5.296
 2879SOL    HW2 9537   5.587   5.597   5.408
 2880SOL     OW 9538   0.330   1.119   3.559
 2880SOL    HW1 9539   0.232   1.107   3.550
 2880SOL    HW2 9540   0.356   1.106   3.655
 2881SOL     OW 9541   3.475   5.731   6.959
 2881SOL    HW1 9542   3.501   5.648   6.909
 2881SOL    HW2 9543   3.381   5.722   6.993
 2882SOL     OW 9544   6.776   5.430   1.348
 2882SOL    HW1 9545   6.836   5.465   1.276
 2882SOL    HW2 9546   6.802   5.471   1.436
 2883SOL     OW 9547   5.803   0.234   3.497
 2883SOL    HW1 9548   5.744   0.153   3.496
 2883SOL    HW2 9549   5.764   0.304   3.438
 2884SOL     OW 9550   0.486   5.967   2.628
 2884SOL    HW1 9551   0.542   6.023   2.566
 2884SOL    HW2 9552   0.503   5.994   2.722
 2885SOL     OW 9553   1.710   2.274   4.580
 2885SOL    HW1 9554   1.779   2.207   4.606
 2885SOL    HW2 9555   1.638   2.229   4.527
 2886SOL     OW 9556   1.914   3.893   6.325
 2886SOL    HW1 9557   1.955   3.808   6.357
 2886SOL    HW2 9558   1.973   3.970   6.351
 2887SOL     OW 9559   0.369   6.272   4.907
 2887SOL    HW1 9560   0.322   6.299   4.991
 2887SOL    HW2 9561   0.466   6.257   4.926
 2888SOL     OW 9562   0.213   4.514   0.076
 2888SOL    HW1 9563   0.160   4.490   7.013
 2888SOL    HW2 9564   0.165   4.585   0.126
 2889SOL     OW 9565   3.135   6.227   2.697
 2889SOL    HW1 9566   3.040   6.197   2.690
 2889SOL    HW2 9567   3.139   6.315   2.744
 2890SOL     OW 9568   1.464   6.113   0.649
 2890SOL    HW1 9569   1.546   6.056   0.643
 2890SOL    HW2 9570   1.489   6.205   0.677
 2891SOL     OW 9571   1.005   3.599   3.300
 2891SOL    HW1 9572   0.990   3.669   3.231
 2891SOL    HW2 9573   0.955   3.622   3.384
 2892SOL     OW 9574   6.181   2.895   1.497
 2892SOL    HW1 9575   6.114   2.822   1.482
 2892SOL    HW2 9576   6.260   2.881   1.438
 2893SOL     OW 9577   1.060   4.921   4.096
 2893SOL    HW1 9578   1.108   4.881   4.175
 2893SOL    HW2 9579   0.988   4.982   4.129
 2894SOL     OW 9580   1.573   3.634   1.362
 2894SOL    HW1 9581   1.663   3.613   1.402
 2894SOL    HW2 9582   1.504   3.575   1.404
 2895SOL     OW 9583   4.960   0.724   6.244
 2895SOL    HW1 9584   4.947   0.709   6.146
 2895SOL    HW2 9585   4.872   0.724   6.290
 2896SOL     OW 9586   4.103   0.298   5.155
 2896SOL    HW1 9587   4.083   0.390   5.123
 2896SOL    HW2 9588   4.164   0.252   5.091
 2897SOL     OW 9589   3.790   4.838   2.277
 2897SOL    HW1 9590   3.711   4.820   2.336
 2897SOL    HW2 9591   3.874   4.813   2.326
 2898SOL     OW 9592   4.331   4.725   4.132
 2898SOL    HW1 9593   4.394   4.802   4.142
 2898SOL    HW2 9594   4.291   4.703   4.221
 2899SOL     OW 9595   6.992   1.724   0.188
 2899SOL    HW1 9596   6.970   1.743   0.284
 2899SOL    HW2 9597   0.002   1.629   0.178
 2900SOL     OW 9598   3.692   4.360   6.587
 2900SOL    HW1 9599   3.608   4.385   6.538
 2900SOL    HW2 9600   3.674   4.282   6.647
 2901SOL     OW 9601   2.070   4.770   3.391
 2901SOL    HW1 9602   2.002   4.763   3.318
 2901SOL    HW2 9603   2.059   4.693   3.454
 2902SOL     OW 9604   6.541   5.097   3.233
 2902SOL    HW1 9605   6.487   5.093   3.149
 2902SOL    HW2 9606   6.488   5.057   3.308
 2903SOL     OW 9607   3.986   6.420   0.491
 2903SOL    HW1 9608   3.886   6.426   0.494
 2903SOL    HW2 9609   4.025   6.511   0.509
 2904SOL     OW 9610   2.943   5.087   5.264
 2904SOL    HW1 9611   2.877   5.110   5.336
 2904SOL    HW2 9612   2.904   5.016   5.204
 2905SOL     OW 9613   1.123   3.866   3.966
 2905SOL    HW1 9614   1.083   3.846   4.055
 2905SOL    HW2 9615   1.148   3.963   3.961
 2906SOL     OW 9616   5.081   5.742   2.713
 2906SOL    HW1 9617   5.148   5.808   2.747
 2906SOL    HW2 9618   4.997   5.791   2.688
 2907SOL     OW 9619   0.560   1.623   3.836
 2907SOL    HW1 9620   0.574   1.525   3.822
 2907SOL    HW2 9621   0.562   1.670   3.748
 2908SOL     OW 9622   5.215   6.432   3.267
 2908SOL    HW1 9623   5.304   6.456   3.227
 2908SOL    HW2 9624   5.203   6.480   3.353
 2909SOL     OW 9625   2.302   5.657   4.037
 2909SOL    HW1 9626   2.352   5.719   4.097
 2909SOL    HW2 9627   2.217   5.629   4.082
 2910SOL     OW 9628   6.340   0.323   3.940
 2910SOL    HW1 9629   6.332   0.422   3.949
 2910SOL    HW2 9630   6.280   0.278   4.006
 2911SOL     OW 9631   1.760   4.969   3.798
 2911SOL    HW1 9632   1.833   4.949   3.732
 2911SOL    HW2 9633   1.697   5.036   3.758
 2912SOL     OW 9634   6.474   6.607   0.313
 2912SOL    HW1 9635   6.569   6.609   0.345
 2912SOL    HW2 9636   6.412   6.606   0.392
 2913SOL     OW 9637   3.573   5.137   2.011
 2913SOL    HW1 9638   3.602   5.108   1.920
 2913SOL    HW2 9639   3.653   5.165   2.064
 2914SOL     OW 9640   5.879   5.910   0.523
 2914SOL    HW1 9641   5.945   5.984   0.526
 2914SOL    HW2 9642   5.840   5.902   0.431
 2915SOL     OW 9643   2.972   1.966   3.451
 2915SOL    HW1 9644   2.995   1.875   3.485
 2915SOL    HW2 9645   2.983   1.969   3.352
 2916SOL     OW 9646   0.862   5.434   0.330
 2916SOL    HW1 9647   0.874   5.530   0.303
 2916SOL    HW2 9648   0.934   5.379   0.287
 2917SOL     OW 9649   2.900   0.414   4.442
 2917SOL    HW1 9650   2.841   0.438   4.518
 2917SOL    HW2 9651   2.996   0.434   4.466
 2918SOL     OW 9652   6.202   4.168   5.561
 2918SOL    HW1 9653   6.262   4.248   5.566
 2918SOL    HW2 9654   6.204   4.120   5.649
 2919SOL     OW 9655   6.351   0.776   3.222
 2919SOL    HW1 9656   6.447   0.749   3.226
 2919SOL    HW2 9657   6.300   0.729   3.294
 2920SOL     OW 9658   3.277   0.195   1.642
 2920SOL    HW1 9659   3.342   0.232   1.709
 2920SOL    HW2 9660   3.321   0.120   1.592
 2921SOL     OW 9661   0.475   0.206   5.459
 2921SOL    HW1 9662   0.535   0.287   5.460
 2921SOL    HW2 9663   0.525   0.128   5.423
 2922SOL     OW 9664   4.450   6.247   1.535
 2922SOL    HW1 9665   4.356   6.218   1.521
 2922SOL    HW2 9666   4.456   6.305   1.616
 2923SOL     OW 9667   6.818   5.412   4.468
 2923SOL    HW1 9668   6.837   5.431   4.372
 2923SOL    HW2 9669   6.791   5.497   4.514
 2924SOL     OW 9670   7.009   2.377   5.187
 2924SOL    HW1 9671   7.006   2.341   5.094
 2924SOL    HW2 9672   6.958   2.464   5.190
 2925SOL     OW 9673   5.839   2.220   0.826
 2925SOL    HW1 9674   5.838   2.125   0.794
 2925SOL    HW2 9675   5.838   2.281   0.748
 2926SOL     OW 9676   5.292   1.963   6.376
 2926SOL    HW1 9677   5.271   1.909   6.295
 2926SOL    HW2 9678   5.210   2.014   6.403
 2927SOL     OW 9679   1.937   3.701   0.997
 2927SOL    HW1 9680   1.943   3.601   1.006
 2927SOL    HW2 9681   1.867   3.735   1.060
 2928SOL     OW 9682   0.036   0.538   0.036
 2928SOL    HW1 9683   6.987   0.548   0.108
 2928SOL    HW2 9684   0.016   0.603   6.981
 2929SOL     OW 9685   1.471   2.799   5.724
 2929SOL    HW1 9686   1.458   2.894   5.696
 2929SOL    HW2 9687   1.566   2.771   5.707
 2930SOL     OW 9688   5.503   6.564   5.073
 2930SOL    HW1 9689   5.490   6.493   5.143
 2930SOL    HW2 9690   5.513   6.653   5.117
 2931SOL     OW 9691   5.159   5.257   6.840
 2931SOL    HW1 9692   5.127   5.211   6.756
 2931SOL    HW2 9693   5.085   5.257   6.907
 2932SOL     OW 9694   0.871   5.844   1.839
 2932SOL    HW1 9695   0.945   5.779   1.857
 2932SOL    HW2 9696   0.802   5.835   1.911
 2933SOL     OW 9697   1.861   6.588   2.068
 2933SOL    HW1 9698   1.954   6.555   2.052
 2933SOL    HW2 9699   1.797   6.533   2.014
 2934SOL     OW 9700   5.726   2.462   0.275
 2934SOL    HW1 9701   5.706   2.538   0.337
 2934SOL    HW2 9702   5.810   2.417   0.305
 2935SOL     OW 9703   6.706   2.429   6.049
 2935SOL    HW1 9704   6.748   2.355   5.997
 2935SOL    HW2 9705   6.742   2.517   6.017
 2936SOL     OW 9706   4.478   6.189   0.500
 2936SOL    HW1 9707   4.489   6.264   0.566
 2936SOL    HW2 9708   4.423   6.221   0.422
 2937SOL     OW 9709   5.551   5.119   1.108
 2937SOL    HW1 9710   5.545   5.166   1.195
 2937SOL    HW2 9711   5.613   5.169   1.047
 2938SOL     OW 9712   6.092   4.470   0.415
 2938SOL    HW1 9713   6.032   4.418   0.477
 2938SOL    HW2 9714   6.119   4.411   0.339
 2939SOL     OW 9715   1.988   0.868   1.216
 2939SOL    HW1 9716   1.950   0.948   1.169
 2939SOL    HW2 9717   2.083   0.855   1.188
 2940SOL     OW 9718   5.331   5.524   5.584
 2940SOL    HW1 9719   5.407   5.538   5.521
 2940SOL    HW2 9720   5.303   5.612   5.622
 2941SOL     OW 9721   1.789   2.027   3.960
 2941SOL    HW1 9722   1.711   2.006   4.019
 2941SOL    HW2 9723   1.874   2.014   4.012
 2942SOL     OW 9724   3.766   1.601   1.135
 2942SOL    HW1 9725   3.715   1.606   1.221
 2942SOL    HW2 9726   3.864   1.597   1.154
 2943SOL     OW 9727   5.527   4.142   3.719
 2943SOL    HW1 9728   5.453   4.185   3.770
 2943SOL    HW2 9729   5.590   4.098   3.783
 2944SOL     OW 9730   2.794   6.183   3.985
 2944SOL    HW1 9731   2.705   6.168   4.029
 2944SOL    HW2 9732   2.830   6.095   3.952
 2945SOL     OW 9733   4.560   2.512   1.851
 2945SOL    HW1 9734   4.630   2.574   1.888
 2945SOL    HW2 9735   4.526   2.549   1.765
 2946SOL     OW 9736   1.883   4.928   5.936
 2946SOL    HW1 9737   1.848   4.876   6.014
 2946SOL    HW2 9738   1.914   4.866   5.865
 2947SOL     OW 9739   1.031   5.767   1.273
 2947SOL    HW1 9740   0.972   5.688   1.259
 2947SOL    HW2 9741   0.977   5.843   1.309
 2948SOL     OW 9742   6.927   4.312   4.835
 2948SOL    HW1 9743   6.894   4.311   4.930
 2948SOL    HW2 9744   6.972   4.226   4.814
 2949SOL     OW 9745   0.889   5.570   0.735
 2949SOL    HW1 9746   0.820   5.499   0.718
 2949SOL    HW2 9747   0.844   5.658   0.749
 2950SOL     OW 9748   5.869   5.996   4.407
 2950SOL    HW1 9749   5.825   6.027   4.323
 2950SOL    HW2 9750   5.807   6.012   4.484
 2951SOL     OW 9751   5.718   2.090   1.706
 2951SOL    HW1 9752   5.677   2.064   1.619
 2951SOL    HW2 9753   5.792   2.027   1.729
 2952SOL     OW 9754   0.046   6.269   5.794
 2952SOL    HW1 9755   0.087   6.255   5.703
 2952SOL    HW2 9756   0.118   6.293   5.859
 2953SOL     OW 9757   6.588   4.492   3.256
 2953SOL    HW1 9758   6.504   4.545   3.265
 2953SOL    HW2 9759   6.565   4.394   3.254
 2954SOL     OW 9760   0.816   4.795   1.350
 2954SOL    HW1 9761   0.790   4.774   1.444
 2954SOL    HW2 9762   0.794   4.718   1.291
 2955SOL     OW 9763   0.895   4.117   0.904
 2955SOL    HW1 9764   0.827   4.182   0.871
 2955SOL    HW2 9765   0.885   4.104   1.002
 2956SOL     OW 9766   6.164   5.543   2.962
 2956SOL    HW1 9767   6.130   5.628   2.920
 2956SOL    HW2 9768   6.093   5.474   2.960
 2957SOL     OW 9769   5.017   4.591   1.649
 2957SOL    HW1 9770   5.117   4.593   1.653
 2957SOL    HW2 9771   4.984   4.501   1.678
 2958SOL     OW 9772   2.159   4.422   3.299
 2958SOL    HW1 9773   2.130   4.402   3.393
 2958SOL    HW2 9774   2.121   4.352   3.237
 2959SOL     OW 9775   5.216   3.564   2.173
 2959SOL    HW1 9776   5.311   3.550   2.203
 2959SOL    HW2 9777   5.197   3.662   2.166
 2960SOL     OW 9778   3.261   0.165   6.728
 2960SOL    HW1 9779   3.163   0.153   6.745
 2960SOL    HW2 9780   3.285   0.121   6.642
 2961SOL     OW 9781   5.851   4.763   3.304
 2961SOL    HW1 9782   5.771   4.792   3.252
 2961SOL    HW2 9783   5.888   4.841   3.355
 2962SOL     OW 9784   4.481   5.983   3.540
 2962SOL    HW1 9785   4.512   6.073   3.572
 2962SOL    HW2 9786   4.558   5.934   3.499
 2963SOL     OW 9787   0.763   0.886   0.123
 2963SOL    HW1 9788   0.704   0.961   0.095
 2963SOL    HW2 9789   0.807   0.909   0.210
 2964SOL     OW 9790   0.478   1.766   5.842
 2964SOL    HW1 9791   0.563   1.727   5.808
 2964SOL    HW2 9792   0.409   1.767   5.769
 2965SOL     OW 9793   0.418   0.991   4.997
 2965SOL    HW1 9794   0.436   1.082   5.036
 2965SOL    HW2 9795   0.352   1.000   4.922
 2966SOL     OW 9796   4.918   5.236   2.777
 2966SOL    HW1 9797   4.946   5.198   2.866
 2966SOL    HW2 9798   4.935   5.334   2.776
 2967SOL     OW 9799   6.153   0.871   5.772
 2967SOL    HW1 9800   6.177   0.831   5.860
 2967SOL    HW2 9801   6.054   0.873   5.762
 2968SOL     OW 9802   0.875   2.330   0.411
 2968SOL    HW1 9803   0.919   2.385   0.481
 2968SOL    HW2 9804   0.862   2.385   0.328
 2969SOL     OW 9805   4.614   2.674   3.961
 2969SOL    HW1 9806   4.572   2.584   3.966
 2969SOL    HW2 9807   4.663   2.694   4.046
 2970SOL     OW 9808   2.630   3.094   5.402
 2970SOL    HW1 9809   2.580   3.078   5.317
 2970SOL    HW2 9810   2.576   3.060   5.479
 2971SOL     OW 9811   5.056   3.776   0.860
 2971SOL    HW1 9812   5.109   3.709   0.808
 2971SOL    HW2 9813   5.077   3.868   0.827
 2972SOL     OW 9814   6.366   5.246   6.740
 2972SOL    HW1 9815   6.314   5.222   6.822
 2972SOL    HW2 9816   6.306   5.242   6.660
 2973SOL     OW 9817   5.168   6.269   2.222
 2973SOL    HW1 9818   5.193   6.220   2.305
 2973SOL    HW2 9819   5.222   6.353   2.215
 2974SOL     OW 9820   6.966   4.552   3.781
 2974SOL    HW1 9821   0.045   4.570   3.783
 2974SOL    HW2 9822   6.938   4.525   3.689
 2975SOL     OW 9823   4.675   4.554   4.143
 2975SOL    HW1 9824   4.591   4.540   4.091
 2975SOL    HW2 9825   4.652   4.571   4.239
 2976SOL     OW 9826   4.839   1.882   2.260
 2976SOL    HW1 9827   4.924   1.881   2.313
 2976SOL    HW2 9828   4.795   1.971   2.269
 2977SOL     OW 9829   0.936   0.515   2.648
 2977SOL    HW1 9830   0.987   0.462   2.580
 2977SOL    HW2 9831   0.999   0.572   2.700
 2978SOL     OW 9832   3.885   4.520   0.198
 2978SOL    HW1 9833   3.811   4.458   0.171
 2978SOL    HW2 9834   3.948   4.531   0.121
 2979SOL     OW 9835   3.176   1.552   4.152
 2979SOL    HW1 9836   3.167   1.548   4.252
 2979SOL    HW2 9837   3.142   1.639   4.119
 2980SOL     OW 9838   2.054   5.614   5.457
 2980SOL    HW1 9839   2.074   5.584   5.550
 2980SOL    HW2 9840   2.042   5.713   5.456
 2981SOL     OW 9841   2.232   0.748   0.046
 2981SOL    HW1 9842   2.173   0.724   6.988
 2981SOL    HW2 9843   2.228   0.677   0.116
 2982SOL     OW 9844   2.670   6.087   1.291
 2982SOL    HW1 9845   2.601   6.119   1.357
 2982SOL    HW2 9846   2.692   5.992   1.310
 2983SOL     OW 9847   6.751   2.477   1.947
 2983SOL    HW1 9848   6.743   2.378   1.960
 2983SOL    HW2 9849   6.676   2.522   1.995
 2984SOL     OW 9850   6.122   5.091   6.910
 2984SOL    HW1 9851   6.170   5.150   6.976
 2984SOL    HW2 9852   6.026   5.117   6.906
 2985SOL     OW 9853   1.992   1.517   4.471
 2985SOL    HW1 9854   1.976   1.419   4.467
 2985SOL    HW2 9855   2.088   1.534   4.494
 2986SOL     OW 9856   3.547   4.070   2.510
 2986SOL    HW1 9857   3.497   4.016   2.577
 2986SOL    HW2 9858   3.574   4.157   2.551
 2987SOL     OW 9859   1.482   1.141   4.683
 2987SOL    HW1 9860   1.389   1.148   4.718
 2987SOL    HW2 9861   1.542   1.200   4.737
 2988SOL     OW 9862   1.822   0.210   2.596
 2988SOL    HW1 9863   1.782   0.246   2.680
 2988SOL    HW2 9864   1.821   0.110   2.598
 2989SOL     OW 9865   5.035   4.852   5.477
 2989SOL    HW1 9866   5.041   4.949   5.455
 2989SOL    HW2 9867   5.127   4.813   5.480
 2990SOL     OW 9868   4.344   2.015   4.170
 2990SOL    HW1 9869   4.351   2.016   4.269
 2990SOL    HW2 9870   4.323   2.107   4.136
 2991SOL     OW 9871   6.455   3.114   6.029
 2991SOL    HW1 9872   6.407   3.187   5.980
 2991SOL    HW2 9873   6.540   3.092   5.983
 2992SOL     OW 9874   1.116   4.786   4.365
 2992SOL    HW1 9875   1.071   4.761   4.451
 2992SOL    HW2 9876   1.154   4.879   4.374
 2993SOL     OW 9877   1.159   5.124   1.460
 2993SOL    HW1 9878   1.066   5.117   1.495
 2993SOL    HW2 9879   1.183   5.040   1.410
 2994SOL     OW 9880   4.529   6.357   0.188
 2994SOL    HW1 9881   4.447   6.380   0.241
 2994SOL    HW2 9882   4.545   6.258   0.193
 2995SOL     OW 9883   4.026   0.900   6.999
 2995SOL    HW1 9884   4.070   0.834   0.042
 2995SOL    HW2 9885   3.931   0.913   0.007
 2996SOL     OW 9886   0.612   1.525   5.449
 2996SOL    HW1 9887   0.598   1.624   5.445
 2996SOL    HW2 9888   0.680   1.498   5.381
 2997SOL     OW 9889   4.746   0.506   3.048
 2997SOL    HW1 9890   4.709   0.421   3.009
 2997SOL    HW2 9891   4.840   0.519   3.016
 2998SOL     OW 9892   4.774   6.716   3.470
 2998SOL    HW1 9893   4.702   6.785   3.462
 2998SOL    HW2 9894   4.817   6.703   3.380
 2999SOL     OW 9895   2.386   4.985   5.299
 2999SOL    HW1 9896   2.462   4.956   5.241
 2999SOL    HW2 9897   2.422   5.022   5.385
 3000SOL     OW 9898   3.158   4.135   6.033
 3000SOL    HW1 9899   3.142   4.108   5.938
 3000SOL    HW2 9900   3.134   4.060   6.094
 3001SOL     OW 9901   6.445   1.658   6.694
 3001SOL    HW1 9902   6.370   1.723   6.692
 3001SOL    HW2 9903   6.409   1.565   6.684
 3002SOL     OW 9904   3.853   2.733   0.475
 3002SOL    HW1 9905   3.917   2.679   0.420
 3002SOL    HW2 9906   3.788   2.673   0.520
 3003SOL     OW 9907   0.999   6.593   0.670
 3003SOL    HW1 9908   0.973   6.668   0.610
 3003SOL    HW2 9909   0.938   6.589   0.749
 3004SOL     OW 9910   1.371   4.348   2.644
 3004SOL    HW1 9911   1.394   4.375   2.550
 3004SOL    HW2 9912   1.272   4.353   2.657
 3005SOL     OW 9913   1.527   2.387   0.406
 3005SOL    HW1 9914   1.572   2.317   0.461
 3005SOL    HW2 9915   1.543   2.477   0.448
 3006SOL     OW 9916   5.475   2.294   5.008
 3006SOL    HW1 9917   5.432   2.279   4.919
 3006SOL    HW2 9918   5.430   2.371   5.054
 3007SOL     OW 9919   5.189   4.674   0.931
 3007SOL    HW1 9920   5.255   4.724   0.876
 3007SOL    HW2 9921   5.218   4.674   1.027
 3008SOL     OW 9922   3.144   2.493   6.659
 3008SOL    HW1 9923   3.193   2.447   6.585
 3008SOL    HW2 9924   3.053   2.521   6.627
 3009SOL     OW 9925   6.632   2.854   2.642
 3009SOL    HW1 9926   6.539   2.820   2.631
 3009SOL    HW2 9927   6.659   2.847   2.738
 3010SOL     OW 9928   2.783   5.746   4.089
 3010SOL    HW1 9929   2.876   5.756   4.053
 3010SOL    HW2 9930   2.726   5.821   4.057
 3011SOL     OW 9931   5.805   0.845   2.073
 3011SOL    HW1 9932   5.744   0.777   2.032
 3011SOL    HW2 9933   5.874   0.873   2.007
 3012SOL     OW 9934   2.208   2.838   0.102
 3012SOL    HW1 9935   2.124   2.816   0.052
 3012SOL    HW2 9936   2.283   2.784   0.065
 3013SOL     OW 9937   5.553   5.528   3.927
 3013SOL    HW1 9938   5.567   5.484   4.016
 3013SOL    HW2 9939   5.460   5.511   3.896
 3014SOL     OW 9940   4.660   2.159   5.553
 3014SOL    HW1 9941   4.682   2.129   5.460
 3014SOL    HW2 9942   4.677   2.084   5.617
 3015SOL     OW 9943   1.655   1.676   0.120
 3015SOL    HW1 9944   1.682   1.642   0.031
 3015SOL    HW2 9945   1.725   1.655   0.188
 3016SOL     OW 9946   3.553   6.672   4.314
 3016SOL    HW1 9947   3.592   6.581   4.310
 3016SOL    HW2 9948   3.613   6.732   4.368
 3017SOL     OW 9949   6.272   5.842   2.296
 3017SOL    HW1 9950   6.281   5.827   2.197
 3017SOL    HW2 9951   6.181   5.814   2.326
 3018SOL     OW 9952   2.922   0.241   6.389
 3018SOL    HW1 9953   2.971   0.154   6.396
 3018SOL    HW2 9954   2.824   0.224   6.390
 3019SOL     OW 9955   0.451   0.228   6.805
 3019SOL    HW1 9956   0.397   0.210   6.887
 3019SOL    HW2 9957   0.539   0.268   6.831
 3020SOL     OW 9958   4.176   3.063   0.882
 3020SOL    HW1 9959   4.224   3.132   0.830
 3020SOL    HW2 9960   4.235   3.027   0.955
 3021SOL     OW 9961   2.801   0.496   4.998
 3021SOL    HW1 9962   2.718   0.477   5.051
 3021SOL    HW2 9963   2.812   0.594   4.986
 3022SOL     OW 9964   4.278   4.987   4.413
 3022SOL    HW1 9965   4.353   5.043   4.448
 3022SOL    HW2 9966   4.197   5.002   4.468
 3023SOL     OW 9967   4.223   6.538   2.880
 3023SOL    HW1 9968   4.275   6.556   2.797
 3023SOL    HW2 9969   4.272   6.472   2.937
 3024SOL     OW 9970   5.792   6.274   4.778
 3024SOL    HW1 9971   5.744   6.354   4.814
 3024SOL    HW2 9972   5.771   6.264   4.681
 3025SOL     OW 9973   4.431   6.144   1.868
 3025SOL    HW1 9974   4.526   6.140   1.838
 3025SOL    HW2 9975   4.408   6.239   1.890
 3026SOL     OW 9976   0.165   1.258   6.114
 3026SOL    HW1 9977   0.143   1.354   6.096
 3026SOL    HW2 9978   0.264   1.246   6.118
 3027SOL     OW 9979   3.971   1.903   2.997
 3027SOL    HW1 9980   3.970   1.901   2.897
 3027SOL    HW2 9981   3.977   1.810   3.033
 3028SOL     OW 9982   1.748   3.802   5.451
 3028SOL    HW1 9983   1.686   3.742   5.501
 3028SOL    HW2 9984   1.797   3.861   5.515
 3029SOL     OW 9985   1.520   3.249   4.567
 3029SOL    HW1 9986   1.490   3.166   4.613
 3029SOL    HW2 9987   1.525   3.232   4.468
 3030SOL     OW 9988   1.112   3.477   0.849
 3030SOL    HW1 9989   1.176   3.451   0.776
 3030SOL    HW2 9990   1.066   3.394   0.883
 3031SOL     OW 9991   0.587   4.937   0.985
 3031SOL    HW1 9992   0.604   4.969   0.892
 3031SOL    HW2 9993   0.668   4.890   1.020
 3032SOL     OW 9994   1.994   0.044   1.353
 3032SOL    HW1 9995   1.956   0.113   1.292
 3032SOL    HW2 9996   2.089   0.027   1.330
 3033SOL     OW 9997   5.444   0.864   2.201
 3033SOL    HW1 9998   5.496   0.889   2.120
 3033SOL    HW2 9999   5.405   0.946   2.243
 3034SOL     OW10000   0.843   6.917   3.354
 3034SOL    HW110001   0.869   7.013   3.369
 3034SOL    HW210002   0.761   6.913   3.297
 3035SOL     OW10003   0.764   2.998   5.977
 3035SOL    HW110004   0.711   2.976   5.896
 3035SOL    HW210005   0.852   3.037   5.949
 3036SOL     OW10006   1.405   1.941   5.238
 3036SOL    HW110007   1.470   2.002   5.282
 3036SOL    HW210008   1.412   1.850   5.279
 3037SOL     OW10009   6.177   4.994   5.738
 3037SOL    HW110010   6.221   4.910   5.767
 3037SOL    HW210011   6.242   5.051   5.689
 3038SOL     OW10012   4.847   4.734   5.316
 3038SOL    HW110013   4.907   4.758   5.392
 3038SOL    HW210014   4.903   4.701   5.239
 3039SOL     OW10015   0.756   2.847   0.707
 3039SOL    HW110016   0.680   2.834   0.772
 3039SOL    HW210017   0.734   2.800   0.622
 3040SOL     OW10018   3.492   4.682   5.540
 3040SOL    HW110019   3.435   4.629   5.603
 3040SOL    HW210020   3.452   4.680   5.449
 3041SOL     OW10021   2.233   4.440   5.327
 3041SOL    HW110022   2.271   4.391   5.249
 3041SOL    HW210023   2.213   4.535   5.301
 3042SOL     OW10024   5.974   6.634   3.029
 3042SOL    HW110025   6.059   6.686   3.032
 3042SOL    HW210026   5.907   6.682   2.973
 3043SOL     OW10027   3.086   4.106   1.771
 3043SOL    HW110028   3.078   4.185   1.710
 3043SOL    HW210029   3.041   4.126   1.858
 3044SOL     OW10030   3.450   5.765   5.419
 3044SOL    HW110031   3.373   5.818   5.382
 3044SOL    HW210032   3.516   5.827   5.460
 3045SOL     OW10033   4.875   6.643   3.214
 3045SOL    HW110034   4.967   6.665   3.183
 3045SOL    HW210035   4.870   6.547   3.240
 3046SOL     OW10036   3.533   0.438   6.557
 3046SOL    HW110037   3.607   0.493   6.594
 3046SOL    HW210038   3.563   0.393   6.473
 3047SOL     OW10039   6.006   0.403   1.544
 3047SOL    HW110040   6.076   0.455   1.495
 3047SOL    HW210041   5.922   0.457   1.550
 3048SOL     OW10042   4.300   2.347   0.696
 3048SOL    HW110043   4.341   2.365   0.785
 3048SOL    HW210044   4.371   2.350   0.626
 3049SOL     OW10045   1.393   0.299   3.259
 3049SOL    HW110046   1.492   0.303   3.244
 3049SOL    HW210047   1.362   0.205   3.252
 3050SOL     OW10048   3.370   1.922   1.747
 3050SOL    HW110049   3.298   1.854   1.732
 3050SOL    HW210050   3.338   1.991   1.812
 3051SOL     OW10051   1.950   6.756   0.025
 3051SOL    HW110052   1.990   6.795   6.961
 3051SOL    HW210053   2.021   6.706   0.075
 3052SOL     OW10054   5.216   5.604   2.324
 3052SOL    HW110055   5.149   5.660   2.275
 3052SOL    HW210056   5.244   5.651   2.408
 3053SOL     OW10057   6.848   3.501   1.388
 3053SOL    HW110058   6.947   3.513   1.379
 3053SOL    HW210059   6.821   3.515   1.483
 3054SOL     OW10060   6.039   2.349   2.033
 3054SOL    HW110061   6.072   2.305   1.950
 3054SOL    HW210062   6.076   2.442   2.039
 3055SOL     OW10063   4.925   0.228   5.147
 3055SOL    HW110064   4.924   0.170   5.066
 3055SOL    HW210065   4.860   0.194   5.214
 3056SOL     OW10066   6.671   0.905   5.594
 3056SOL    HW110067   6.685   0.807   5.579
 3056SOL    HW210068   6.581   0.932   5.557
 3057SOL     OW10069   4.406   4.968   3.957
 3057SOL    HW110070   4.472   4.949   3.885
 3057SOL    HW210071   4.445   4.945   4.046
 3058SOL     OW10072   6.611   4.476   0.812
 3058SOL    HW110073   6.614   4.386   0.768
 3058SOL    HW210074   6.695   4.491   0.864
 3059SOL     OW10075   2.714   1.267   3.828
 3059SOL    HW110076   2.736   1.195   3.894
 3059SOL    HW210077   2.767   1.349   3.851
 3060SOL     OW10078   1.825   5.354   0.437
 3060SOL    HW110079   1.851   5.430   0.377
 3060SOL    HW210080   1.890   5.347   0.513
 3061SOL     OW10081   6.142   5.523   5.446
 3061SOL    HW110082   6.127   5.510   5.545
 3061SOL    HW210083   6.213   5.592   5.432
 3062SOL     OW10084   1.865   6.983   1.089
 3062SOL    HW110085   1.772   6.980   1.126
 3062SOL    HW210086   1.884   6.898   1.040
 3063SOL     OW10087   2.296   4.540   1.208
 3063SOL    HW110088   2.205   4.499   1.204
 3063SOL    HW210089   2.354   4.499   1.137
 3064SOL     OW10090   5.409   3.355   0.602
 3064SOL    HW110091   5.318   3.314   0.603
 3064SOL    HW210092   5.454   3.334   0.515
 3065SOL     OW10093   1.521   2.352   6.415
 3065SOL    HW110094   1.493   2.358   6.511
 3065SOL    HW210095   1.544   2.444   6.382
 3066SOL     OW10096   5.310   5.177   0.859
 3066SOL    HW110097   5.232   5.240   0.850
 3066SOL    HW210098   5.303   5.128   0.946
 3067SOL     OW10099   3.731   0.792   6.438
 3067SOL    HW110100   3.791   0.872   6.441
 3067SOL    HW210101   3.655   0.810   6.376
 3068SOL     OW10102   6.954   6.038   1.561
 3068SOL    HW110103   7.007   6.068   1.482
 3068SOL    HW210104   6.930   6.118   1.617
 3069SOL     OW10105   6.798   6.593   2.465
 3069SOL    HW110106   6.734   6.611   2.540
 3069SOL    HW210107   6.891   6.587   2.502
 3070SOL     OW10108   2.735   0.475   6.509
 3070SOL    HW110109   2.782   0.563   6.518
 3070SOL    HW210110   2.709   0.460   6.414
 3071SOL     OW10111   6.773   6.269   4.124
 3071SOL    HW110112   6.685   6.318   4.124
 3071SOL    HW210113   6.757   6.173   4.148
 3072SOL     OW10114   2.059   5.493   5.746
 3072SOL    HW110115   1.989   5.469   5.813
 3072SOL    HW210116   2.148   5.500   5.792
 3073SOL     OW10117   6.838   3.518   3.082
 3073SOL    HW110118   6.904   3.593   3.078
 3073SOL    HW210119   6.885   3.431   3.070
 3074SOL     OW10120   0.171   4.197   1.073
 3074SOL    HW110121   0.071   4.203   1.077
 3074SOL    HW210122   0.198   4.108   1.034
 3075SOL     OW10123   2.690   5.778   2.981
 3075SOL    HW110124   2.638   5.778   2.896
 3075SOL    HW210125   2.631   5.748   3.056
 3076SOL     OW10126   6.625   1.461   3.862
 3076SOL    HW110127   6.556   1.459   3.790
 3076SOL    HW210128   6.581   1.463   3.951
 3077SOL     OW10129   5.963   4.366   1.878
 3077SOL    HW110130   5.884   4.404   1.926
 3077SOL    HW210131   6.007   4.297   1.935
 3078SOL     OW10132   0.123   3.395   2.408
 3078SOL    HW110133   0.186   3.330   2.450
 3078SOL    HW210134   0.168   3.440   2.331
 3079SOL     OW10135   2.605   2.284   2.867
 3079SOL    HW110136   2.580   2.339   2.787
 3079SOL    HW210137   2.697   2.246   2.854
 3080SOL     OW10138   6.164   5.081   2.512
 3080SOL    HW110139   6.229   5.145   2.553
 3080SOL    HW210140   6.205   5.041   2.430
 3081SOL     OW10141   1.115   4.144   5.847
 3081SOL    HW110142   1.169   4.207   5.791
 3081SOL    HW210143   1.170   4.064   5.870
 3082SOL     OW10144   1.824   5.902   4.004
 3082SOL    HW110145   1.866   5.988   3.974
 3082SOL    HW210146   1.867   5.871   4.088
 3083SOL     OW10147   3.120   6.424   3.874
 3083SOL    HW110148   3.079   6.468   3.954
 3083SOL    HW210149   3.155   6.494   3.812
 3084SOL     OW10150   6.390   4.694   3.266
 3084SOL    HW110151   6.323   4.648   3.325
 3084SOL    HW210152   6.343   4.754   3.202
 3085SOL     OW10153   6.435   4.423   0.577
 3085SOL    HW110154   6.447   4.518   0.607
 3085SOL    HW210155   6.365   4.379   0.633
 3086SOL     OW10156   5.060   1.464   0.528
 3086SOL    HW110157   5.071   1.480   0.430
 3086SOL    HW210158   5.079   1.368   0.549
 3087SOL     OW10159   2.232   6.760   3.477
 3087SOL    HW110160   2.224   6.664   3.452
 3087SOL    HW210161   2.141   6.797   3.497
 3088SOL     OW10162   1.847   3.538   5.144
 3088SOL    HW110163   1.919   3.515   5.079
 3088SOL    HW210164   1.791   3.612   5.108
 3089SOL     OW10165   4.245   2.109   4.576
 3089SOL    HW110166   4.313   2.037   4.559
 3089SOL    HW210167   4.249   2.137   4.672
 3090SOL     OW10168   2.361   1.201   1.431
 3090SOL    HW110169   2.322   1.141   1.501
 3090SOL    HW210170   2.291   1.221   1.363
 3091SOL     OW10171   1.200   1.316   0.368
 3091SOL    HW110172   1.172   1.321   0.463
 3091SOL    HW210173   1.300   1.307   0.363
 3092SOL     OW10174   5.271   6.924   0.484
 3092SOL    HW110175   5.176   6.954   0.493
 3092SOL    HW210176   5.310   6.963   0.401
 3093SOL     OW10177   5.394   5.712   6.483
 3093SOL    HW110178   5.302   5.747   6.466
 3093SOL    HW210179   5.389   5.617   6.515
 3094SOL     OW10180   2.421   0.041   4.178
 3094SOL    HW110181   2.367   7.015   4.107
 3094SOL    HW210182   2.392   0.008   4.268
 3095SOL     OW10183   2.379   4.304   5.115
 3095SOL    HW110184   2.455   4.337   5.172
 3095SOL    HW210185   2.347   4.216   5.149
 3096SOL     OW10186   0.907   5.169   5.597
 3096SOL    HW110187   0.848   5.145   5.521
 3096SOL    HW210188   0.984   5.105   5.601
 3097SOL     OW10189   5.936   3.605   6.837
 3097SOL    HW110190   5.854   3.551   6.851
 3097SOL    HW210191   5.996   3.596   6.917
 3098SOL     OW10192   1.621   3.148   1.513
 3098SOL    HW110193   1.671   3.065   1.540
 3098SOL    HW210194   1.670   3.192   1.438
 3099SOL     OW10195   1.088   6.100   3.863
 3099SOL    HW110196   1.083   6.090   3.963
 3099SOL    HW210197   1.051   6.189   3.836
 3100SOL     OW10198   6.625   6.076   3.755
 3100SOL    HW110199   6.696   6.145   3.771
 3100SOL    HW210200   6.562   6.109   3.685
 3101SOL     OW10201   5.029   5.517   5.866
 3101SOL    HW110202   5.087   5.453   5.814
 3101SOL    HW210203   5.018   5.483   5.959
 3102SOL     OW10204   6.149   0.161   1.362
 3102SOL    HW110205   6.188   0.134   1.274
 3102SOL    HW210206   6.119   0.080   1.412
 3103SOL     OW10207   4.339   1.394   1.710
 3103SOL    HW110208   4.433   1.411   1.740
 3103SOL    HW210209   4.325   1.435   1.620
 3104SOL     OW10210   4.413   0.615   6.131
 3104SOL    HW110211   4.476   0.670   6.185
 3104SOL    HW210212   4.429   0.518   6.149
 3105SOL     OW10213   5.698   3.880   1.205
 3105SOL    HW110214   5.657   3.907   1.292
 3105SOL    HW210215   5.778   3.936   1.186
 3106SOL     OW10216   4.873   7.014   4.979
 3106SOL    HW110217   4.926   6.957   5.043
 3106SOL    HW210218   4.912   7.006   4.888
 3107SOL     OW10219   3.490   1.073   4.719
 3107SOL    HW110220   3.531   1.134   4.651
 3107SOL    HW210221   3.466   1.126   4.801
 3108SOL     OW10222   2.101   5.445   4.749
 3108SOL    HW110223   2.089   5.373   4.680
 3108SOL    HW210224   2.074   5.409   4.838
 3109SOL     OW10225   5.890   0.266   3.758
 3109SOL    HW110226   5.972   0.318   3.784
 3109SOL    HW210227   5.879   0.271   3.658
 3110SOL     OW10228   1.614   3.656   2.946
 3110SOL    HW110229   1.641   3.725   2.880
 3110SOL    HW210230   1.521   3.674   2.978
 3111SOL     OW10231   0.100   5.176   3.471
 3111SOL    HW110232   0.111   5.165   3.570
 3111SOL    HW210233   0.021   5.122   3.440
 3112SOL     OW10234   3.507   3.280   0.451
 3112SOL    HW110235   3.537   3.195   0.408
 3112SOL    HW210236   3.565   3.356   0.421
 3113SOL     OW10237   3.469   5.538   2.739
 3113SOL    HW110238   3.439   5.562   2.831
 3113SOL    HW210239   3.391   5.506   2.686
 3114SOL     OW10240   3.594   1.894   0.760
 3114SOL    HW110241   3.517   1.958   0.755
 3114SOL    HW210242   3.597   1.840   0.676
 3115SOL     OW10243   3.976   4.726   6.440
 3115SOL    HW110244   3.955   4.671   6.520
 3115SOL    HW210245   4.065   4.698   6.403
 3116SOL     OW10246   6.653   1.942   6.650
 3116SOL    HW110247   6.581   1.901   6.707
 3116SOL    HW210248   6.738   1.947   6.702
 3117SOL     OW10249   4.408   3.921   5.500
 3117SOL    HW110250   4.460   3.907   5.416
 3117SOL    HW210251   4.401   3.835   5.551
 3118SOL     OW10252   0.904   5.014   2.523
 3118SOL    HW110253   0.804   5.010   2.517
 3118SOL    HW210254   0.931   5.081   2.592
 3119SOL     OW10255   2.229   2.141   7.012
 3119SOL    HW110256   2.320   2.158   6.973
 3119SOL    HW210257   2.239   2.112   0.088
 3120SOL     OW10258   2.519   0.491   5.596
 3120SOL    HW110259   2.468   0.495   5.510
 3120SOL    HW210260   2.586   0.565   5.598
 3121SOL     OW10261   6.365   1.318   4.865
 3121SOL    HW110262   6.357   1.361   4.775
 3121SOL    HW210263   6.316   1.231   4.865
 3122SOL     OW10264   4.780   5.613   5.360
 3122SOL    HW110265   4.681   5.619   5.374
 3122SOL    HW210266   4.802   5.521   5.327
 3123SOL     OW10267   2.150   1.709   2.412
 3123SOL    HW110268   2.093   1.633   2.444
 3123SOL    HW210269   2.092   1.790   2.399
 3124SOL     OW10270   4.717   6.889   4.268
 3124SOL    HW110271   4.627   6.856   4.238
 3124SOL    HW210272   4.760   6.940   4.194
 3125SOL     OW10273   1.325   3.044   5.352
 3125SOL    HW110274   1.237   3.062   5.396
 3125SOL    HW210275   1.367   3.130   5.324
 3126SOL     OW10276   5.228   4.235   5.416
 3126SOL    HW110277   5.216   4.204   5.511
 3126SOL    HW210278   5.156   4.301   5.393
 3127SOL     OW10279   2.198   2.290   6.486
 3127SOL    HW110280   2.195   2.362   6.556
 3127SOL    HW210281   2.153   2.208   6.521
 3128SOL     OW10282   3.480   1.089   6.565
 3128SOL    HW110283   3.515   1.017   6.625
 3128SOL    HW210284   3.390   1.119   6.599
 3129SOL     OW10285   6.256   3.820   0.320
 3129SOL    HW110286   6.272   3.725   0.347
 3129SOL    HW210287   6.263   3.828   0.221
 3130SOL     OW10288   2.071   4.403   2.106
 3130SOL    HW110289   2.036   4.435   2.019
 3130SOL    HW210290   2.015   4.438   2.181
 3131SOL     OW10291   1.214   3.556   1.990
 3131SOL    HW110292   1.304   3.517   2.012
 3131SOL    HW210293   1.147   3.482   1.981
 3132SOL     OW10294   5.007   5.141   6.637
 3132SOL    HW110295   4.923   5.160   6.688
 3132SOL    HW210296   5.010   5.199   6.556
 3133SOL     OW10297   3.165   0.814   3.269
 3133SOL    HW110298   3.231   0.817   3.194
 3133SOL    HW210299   3.077   0.849   3.237
 3134SOL     OW10300   4.137   4.382   1.097
 3134SOL    HW110301   4.128   4.452   1.027
 3134SOL    HW210302   4.091   4.298   1.068
 3135SOL     OW10303   4.295   0.217   5.574
 3135SOL    HW110304   4.288   0.171   5.485
 3135SOL    HW210305   4.206   0.255   5.599
 3136SOL     OW10306   5.213   6.777   2.699
 3136SOL    HW110307   5.162   6.811   2.619
 3136SOL    HW210308   5.311   6.779   2.680
 3137SOL     OW10309   6.862   6.591   3.259
 3137SOL    HW110310   6.926   6.522   3.294
 3137SOL    HW210311   6.796   6.615   3.331
 3138SOL     OW10312   6.743   5.778   3.633
 3138SOL    HW110313   6.657   5.829   3.638
 3138SOL    HW210314   6.730   5.686   3.668
 3139SOL     OW10315   3.522   4.944   0.520
 3139SOL    HW110316   3.494   5.029   0.478
 3139SOL    HW210317   3.622   4.942   0.529
 3140SOL     OW10318   6.348   6.655   6.019
 3140SOL    HW110319   6.260   6.627   5.979
 3140SOL    HW210320   6.397   6.712   5.954
 3141SOL     OW10321   0.899   0.168   6.722
 3141SOL    HW110322   0.843   0.243   6.757
 3141SOL    HW210323   0.949   0.199   6.641
 3142SOL     OW10324   2.947   0.105   2.491
 3142SOL    HW110325   2.925   0.161   2.570
 3142SOL    HW210326   2.975   0.164   2.415
 3143SOL     OW10327   6.293   1.456   6.916
 3143SOL    HW110328   6.323   1.388   6.982
 3143SOL    HW210329   6.293   1.416   6.824
 3144SOL     OW10330   4.540   3.745   0.954
 3144SOL    HW110331   4.638   3.749   0.970
 3144SOL    HW210332   4.512   3.650   0.939
 3145SOL     OW10333   2.012   6.296   2.199
 3145SOL    HW110334   2.043   6.351   2.121
 3145SOL    HW210335   1.913   6.283   2.194
 3146SOL     OW10336   0.863   1.378   4.399
 3146SOL    HW110337   0.873   1.286   4.437
 3146SOL    HW210338   0.922   1.387   4.318
 3147SOL     OW10339   3.290   5.210   0.208
 3147SOL    HW110340   3.321   5.295   0.163
 3147SOL    HW210341   3.323   5.209   0.302
 3148SOL     OW10342   6.972   6.617   3.928
 3148SOL    HW110343   0.043   6.659   3.916
 3148SOL    HW210344   6.975   6.550   4.001
 3149SOL     OW10345   3.141   0.762   6.419
 3149SOL    HW110346   3.191   0.732   6.339
 3149SOL    HW210347   3.109   0.683   6.471
 3150SOL     OW10348   6.978   5.918   5.362
 3150SOL    HW110349   0.045   5.877   5.332
 3150SOL    HW210350   6.928   5.953   5.283
 3151SOL     OW10351   0.516   1.187   5.315
 3151SOL    HW110352   0.423   1.220   5.331
 3151SOL    HW210353   0.524   1.093   5.348
 3152SOL     OW10354   0.892   5.093   0.523
 3152SOL    HW110355   0.860   5.047   0.440
 3152SOL    HW210356   0.987   5.119   0.513
 3153SOL     OW10357   6.237   5.435   0.442
 3153SOL    HW110358   6.186   5.354   0.415
 3153SOL    HW210359   6.335   5.413   0.447
 3154SOL     OW10360   7.008   2.492   6.763
 3154SOL    HW110361   7.000   2.549   6.845
 3154SOL    HW210362   6.929   2.506   6.704
 3155SOL     OW10363   6.671   5.071   0.590
 3155SOL    HW110364   6.727   4.989   0.596
 3155SOL    HW210365   6.680   5.124   0.675
 3156SOL     OW10366   2.797   3.530   1.970
 3156SOL    HW110367   2.768   3.483   1.887
 3156SOL    HW210368   2.722   3.528   2.037
 3157SOL     OW10369   2.403   1.689   5.997
 3157SOL    HW110370   2.325   1.721   6.050
 3157SOL    HW210371   2.486   1.738   6.026
 3158SOL     OW10372   3.004   1.389   4.023
 3158SOL    HW110373   3.067   1.433   4.087
 3158SOL    HW210374   3.011   1.290   4.032
 3159SOL     OW10375   5.573   0.408   6.367
 3159SOL    HW110376   5.499   0.341   6.373
 3159SOL    HW210377   5.583   0.454   6.455
 3160SOL     OW10378   1.231   5.980   5.632
 3160SOL    HW110379   1.144   6.020   5.660
 3160SOL    HW210380   1.255   6.014   5.541
 3161SOL     OW10381   2.446   2.690   3.130
 3161SOL    HW110382   2.448   2.731   3.221
 3161SOL    HW210383   2.391   2.606   3.133
 3162SOL     OW10384   1.566   5.533   1.700
 3162SOL    HW110385   1.588   5.628   1.724
 3162SOL    HW210386   1.559   5.478   1.783
 3163SOL     OW10387   4.408   4.129   6.515
 3163SOL    HW110388   4.356   4.165   6.437
 3163SOL    HW210389   4.421   4.031   6.504
 3164SOL     OW10390   3.951   5.593   1.024
 3164SOL    HW110391   4.042   5.635   1.020
 3164SOL    HW210392   3.909   5.598   0.933
 3165SOL     OW10393   1.478   6.882   1.544
 3165SOL    HW110394   1.491   6.895   1.642
 3165SOL    HW210395   1.558   6.914   1.495
 3166SOL     OW10396   4.255   1.948   3.208
 3166SOL    HW110397   4.218   2.033   3.246
 3166SOL    HW210398   4.323   1.971   3.138
 3167SOL     OW10399   5.556   4.364   1.124
 3167SOL    HW110400   5.498   4.307   1.065
 3167SOL    HW210401   5.545   4.460   1.098
 3168SOL     OW10402   5.210   2.608   0.131
 3168SOL    HW110403   5.116   2.606   0.098
 3168SOL    HW210404   5.272   2.620   0.054
 3169SOL     OW10405   2.147   4.331   4.048
 3169SOL    HW110406   2.061   4.382   4.057
 3169SOL    HW210407   2.220   4.395   4.025
 3170SOL     OW10408   4.171   6.011   1.743
 3170SOL    HW110409   4.200   6.080   1.677
 3170SOL    HW210410   4.221   6.023   1.828
 3171SOL     OW10411   6.950   1.414   2.135
 3171SOL    HW110412   6.913   1.450   2.221
 3171SOL    HW210413   6.875   1.394   2.073
 3172SOL     OW10414   6.821   5.675   6.895
 3172SOL    HW110415   6.726   5.704   6.906
 3172SOL    HW210416   6.855   5.708   6.806
 3173SOL     OW10417   3.552   3.088   0.247
 3173SOL    HW110418   3.531   2.990   0.246
 3173SOL    HW210419   3.503   3.134   0.174
 3174SOL     OW10420   3.412   2.836   0.260
 3174SOL    HW110421   3.344   2.886   0.314
 3174SOL    HW210422   3.366   2.788   0.186
 3175SOL     OW10423   5.843   1.180   1.453
 3175SOL    HW110424   5.826   1.277   1.470
 3175SOL    HW210425   5.756   1.132   1.441
 3176SOL     OW10426   1.202   3.740   5.626
 3176SOL    HW110427   1.272   3.804   5.657
 3176SOL    HW210428   1.230   3.697   5.541
 3177SOL     OW10429   4.680   4.675   3.665
 3177SOL    HW110430   4.738   4.678   3.746
 3177SOL    HW210431   4.601   4.617   3.683
 3178SOL     OW10432   6.655   2.474   0.850
 3178SOL    HW110433   6.558   2.493   0.840
 3178SOL    HW210434   6.708   2.557   0.836
 3179SOL     OW10435   0.812   2.283   1.873
 3179SOL    HW110436   0.912   2.280   1.870
 3179SOL    HW210437   0.781   2.262   1.966
 3180SOL     OW10438   5.717   0.350   0.328
 3180SOL    HW110439   5.678   0.355   0.419
 3180SOL    HW210440   5.665   0.285   0.272
 3181SOL     OW10441   6.382   1.950   3.137
 3181SOL    HW110442   6.473   1.977   3.105
 3181SOL    HW210443   6.321   1.938   3.058
 3182SOL     OW10444   2.559   0.181   6.755
 3182SOL    HW110445   2.498   0.254   6.784
 3182SOL    HW210446   2.578   0.190   6.657
 3183SOL     OW10447   4.715   4.180   2.245
 3183SOL    HW110448   4.647   4.229   2.190
 3183SOL    HW210449   4.721   4.085   2.213
 3184SOL     OW10450   0.942   2.771   2.837
 3184SOL    HW110451   0.970   2.842   2.902
 3184SOL    HW210452   1.010   2.766   2.763
 3185SOL     OW10453   4.886   5.709   6.641
 3185SOL    HW110454   4.961   5.749   6.589
 3185SOL    HW210455   4.921   5.664   6.723
 3186SOL     OW10456   3.149   1.864   0.721
 3186SOL    HW110457   3.219   1.891   0.787
 3186SOL    HW210458   3.179   1.783   0.671
 3187SOL     OW10459   4.816   5.512   0.762
 3187SOL    HW110460   4.752   5.559   0.822
 3187SOL    HW210461   4.892   5.573   0.740
 3188SOL     OW10462   1.165   0.005   4.585
 3188SOL    HW110463   1.154   0.001   4.684
 3188SOL    HW210464   1.244   6.970   4.557
 3189SOL     OW10465   1.167   1.914   1.074
 3189SOL    HW110466   1.219   1.989   1.034
 3189SOL    HW210467   1.135   1.853   1.002
 3190SOL     OW10468   0.436   5.380   0.509
 3190SOL    HW110469   0.421   5.449   0.438
 3190SOL    HW210470   0.506   5.316   0.479
 3191SOL     OW10471   4.988   5.540   1.127
 3191SOL    HW110472   5.032   5.538   1.038
 3191SOL    HW210473   5.056   5.554   1.198
 3192SOL     OW10474   0.548   3.436   1.053
 3192SOL    HW110475   0.621   3.403   1.111
 3192SOL    HW210476   0.576   3.522   1.009
 3193SOL     OW10477   4.442   0.988   6.272
 3193SOL    HW110478   4.367   1.032   6.222
 3193SOL    HW210479   4.411   0.965   6.365
 3194SOL     OW10480   1.418   1.782   6.292
 3194SOL    HW110481   1.427   1.693   6.338
 3194SOL    HW210482   1.410   1.854   6.361
 3195SOL     OW10483   2.034   0.852   3.256
 3195SOL    HW110484   2.112   0.901   3.295
 3195SOL    HW210485   1.996   0.790   3.324
 3196SOL     OW10486   0.617   0.775   6.749
 3196SOL    HW110487   0.680   0.714   6.797
 3196SOL    HW210488   0.562   0.825   6.815
 3197SOL     OW10489   3.054   6.503   4.256
 3197SOL    HW110490   3.142   6.510   4.207
 3197SOL    HW210491   3.057   6.561   4.337
 3198SOL     OW10492   6.246   3.054   3.799
 3198SOL    HW110493   6.153   3.039   3.764
 3198SOL    HW210494   6.270   2.981   3.863
 3199SOL     OW10495   5.307   3.963   2.739
 3199SOL    HW110496   5.350   4.016   2.812
 3199SOL    HW210497   5.300   3.867   2.767
 3200SOL     OW10498   5.400   3.137   2.994
 3200SOL    HW110499   5.324   3.098   3.047
 3200SOL    HW210500   5.380   3.129   2.897
 3201SOL     OW10501   6.598   4.361   4.012
 3201SOL    HW110502   6.571   4.436   3.952
 3201SOL    HW210503   6.691   4.377   4.045
 3202SOL     OW10504   1.566   4.770   1.253
 3202SOL    HW110505   1.494   4.780   1.322
 3202SOL    HW210506   1.635   4.706   1.286
 3203SOL     OW10507   5.959   2.379   0.375
 3203SOL    HW110508   5.999   2.291   0.352
 3203SOL    HW210509   6.030   2.450   0.374
 3204SOL     OW10510   4.582   6.263   2.872
 3204SOL    HW110511   4.610   6.334   2.808
 3204SOL    HW210512   4.504   6.213   2.835
 3205SOL     OW10513   5.380   2.778   5.713
 3205SOL    HW110514   5.468   2.825   5.702
 3205SOL    HW210515   5.386   2.712   5.788
 3206SOL     OW10516   1.954   4.728   0.196
 3206SOL    HW110517   2.026   4.658   0.199
 3206SOL    HW210518   1.984   4.809   0.246
 3207SOL     OW10519   1.354   0.903   6.533
 3207SOL    HW110520   1.441   0.878   6.492
 3207SOL    HW210521   1.346   1.003   6.536
 3208SOL     OW10522   4.484   6.449   6.068
 3208SOL    HW110523   4.426   6.434   6.148
 3208SOL    HW210524   4.436   6.420   5.986
 3209SOL     OW10525   3.654   5.208   3.625
 3209SOL    HW110526   3.744   5.197   3.583
 3209SOL    HW210527   3.589   5.239   3.556
 3210SOL     OW10528   1.250   3.917   0.618
 3210SOL    HW110529   1.201   3.856   0.681
 3210SOL    HW210530   1.192   3.939   0.540
 3211SOL     OW10531   1.754   3.737   0.605
 3211SOL    HW110532   1.727   3.699   0.693
 3211SOL    HW210533   1.678   3.730   0.540
 3212SOL     OW10534   3.181   6.824   1.474
 3212SOL    HW110535   3.139   6.829   1.564
 3212SOL    HW210536   3.269   6.872   1.475
 3213SOL     OW10537   1.343   0.257   0.546
 3213SOL    HW110538   1.286   0.235   0.467
 3213SOL    HW210539   1.294   0.319   0.607
 3214SOL     OW10540   4.296   5.765   0.477
 3214SOL    HW110541   4.211   5.716   0.460
 3214SOL    HW210542   4.373   5.707   0.450
 3215SOL     OW10543   0.662   3.651   0.903
 3215SOL    HW110544   0.748   3.700   0.918
 3215SOL    HW210545   0.620   3.684   0.819
 3216SOL     OW10546   6.043   5.717   0.242
 3216SOL    HW110547   6.105   5.722   0.320
 3216SOL    HW210548   5.950   5.736   0.272
 3217SOL     OW10549   0.505   5.206   2.211
 3217SOL    HW110550   0.562   5.258   2.147
 3217SOL    HW210551   0.512   5.108   2.190
 3218SOL     OW10552   4.655   2.664   3.675
 3218SOL    HW110553   4.730   2.603   3.702
 3218SOL    HW210554   4.598   2.683   3.755
 3219SOL     OW10555   0.629   1.797   3.410
 3219SOL    HW110556   0.707   1.750   3.369
 3219SOL    HW210557   0.655   1.890   3.434
 3220SOL     OW10558   6.919   5.324   5.945
 3220SOL    HW110559   6.832   5.342   5.900
 3220SOL    HW210560   6.907   5.250   6.011
 3221SOL     OW10561   4.060   0.240   1.876
 3221SOL    HW110562   3.962   0.251   1.863
 3221SOL    HW210563   4.092   0.163   1.821
 3222SOL     OW10564   3.400   0.874   3.097
 3222SOL    HW110565   3.424   0.935   3.173
 3222SOL    HW210566   3.432   0.915   3.011
 3223SOL     OW10567   2.180   6.830   6.411
 3223SOL    HW110568   2.126   6.882   6.345
 3223SOL    HW210569   2.201   6.740   6.373
 3224SOL     OW10570   4.997   3.301   5.767
 3224SOL    HW110571   5.028   3.220   5.818
 3224SOL    HW210572   5.054   3.313   5.686
 3225SOL     OW10573   5.192   2.725   5.504
 3225SOL    HW110574   5.092   2.722   5.506
 3225SOL    HW210575   5.224   2.805   5.555
 3226SOL     OW10576   2.455   1.466   2.619
 3226SOL    HW110577   2.427   1.543   2.676
 3226SOL    HW210578   2.552   1.449   2.631
 3227SOL     OW10579   3.291   3.135   0.065
 3227SOL    HW110580   3.209   3.086   0.097
 3227SOL    HW210581   3.263   3.209   0.005
 3228SOL     OW10582   0.027   3.783   1.282
 3228SOL    HW110583   0.069   3.873   1.271
 3228SOL    HW210584   0.080   3.715   1.231
 3229SOL     OW10585   4.073   0.232   4.750
 3229SOL    HW110586   4.038   0.233   4.656
 3229SOL    HW210587   4.003   0.194   4.811
 3230SOL     OW10588   2.626   4.414   5.245
 3230SOL    HW110589   2.717   4.428   5.207
 3230SOL    HW210590   2.594   4.499   5.287
 3231SOL     OW10591   2.822   6.772   1.598
 3231SOL    HW110592   2.883   6.834   1.550
 3231SOL    HW210593   2.823   6.793   1.696
 3232SOL     OW10594   4.965   6.627   4.526
 3232SOL    HW110595   4.982   6.692   4.600
 3232SOL    HW210596   4.945   6.537   4.565
 3233SOL     OW10597   0.300   2.696   1.012
 3233SOL    HW110598   0.372   2.675   1.079
 3233SOL    HW210599   0.279   2.793   1.015
 3234SOL     OW10600   0.522   2.305   6.635
 3234SOL    HW110601   0.600   2.300   6.697
 3234SOL    HW210602   0.443   2.344   6.683
 3235SOL     OW10603   6.369   0.758   2.185
 3235SOL    HW110604   6.312   0.809   2.250
 3235SOL    HW210605   6.434   0.701   2.234
 3236SOL     OW10606   1.572   3.483   0.394
 3236SOL    HW110607   1.669   3.501   0.379
 3236SOL    HW210608   1.561   3.395   0.441
 3237SOL     OW10609   5.655   1.469   3.705
 3237SOL    HW110610   5.570   1.518   3.721
 3237SOL    HW210611   5.727   1.533   3.680
 3238SOL     OW10612   0.236   5.188   0.628
 3238SOL    HW110613   0.255   5.150   0.538
 3238SOL    HW210614   0.284   5.275   0.639
 3239SOL     OW10615   6.218   1.600   2.230
 3239SOL    HW110616   6.261   1.528   2.176
 3239SOL    HW210617   6.288   1.654   2.276
 3240SOL     OW10618   0.155   6.678   5.890
 3240SOL    HW110619   0.103   6.638   5.966
 3240SOL    HW210620   0.156   6.778   5.899
 3241SOL     OW10621   4.941   0.763   4.560
 3241SOL    HW110622   4.929   0.666   4.581
 3241SOL    HW210623   5.023   0.797   4.606
 3242SOL     OW10624   4.589   4.203   6.978
 3242SOL    HW110625   4.598   4.176   6.882
 3242SOL    HW210626   4.590   4.121   0.017
 3243SOL     OW10627   4.683   4.769   0.262
 3243SOL    HW110628   4.672   4.843   0.195
 3243SOL    HW210629   4.689   4.682   0.214
 3244SOL     OW10630   4.545   5.619   0.407
 3244SOL    HW110631   4.518   5.662   0.321
 3244SOL    HW210632   4.502   5.529   0.415
 3245SOL     OW10633   5.293   3.659   4.709
 3245SOL    HW110634   5.237   3.705   4.640
 3245SOL    HW210635   5.247   3.664   4.797
 3246SOL     OW10636   5.768   0.558   3.091
 3246SOL    HW110637   5.788   0.519   3.001
 3246SOL    HW210638   5.759   0.657   3.084
 3247SOL     OW10639   6.381   4.323   2.743
 3247SOL    HW110640   6.351   4.295   2.651
 3247SOL    HW210641   6.307   4.305   2.808
 3248SOL     OW10642   5.697   3.835   1.521
 3248SOL    HW110643   5.779   3.815   1.468
 3248SOL    HW210644   5.650   3.750   1.545
 3249SOL     OW10645   3.807   4.050   4.195
 3249SOL    HW110646   3.719   4.097   4.187
 3249SOL    HW210647   3.845   4.067   4.286
 3250SOL     OW10648   5.632   0.023   2.717
 3250SOL    HW110649   5.604   0.119   2.726
 3250SOL    HW210650   5.688   0.012   2.635
 3251SOL     OW10651   3.099   0.816   3.933
 3251SOL    HW110652   3.069   0.764   4.013
 3251SOL    HW210653   3.104   0.755   3.854
 3252SOL     OW10654   2.259   1.277   2.767
 3252SOL    HW110655   2.329   1.341   2.734
 3252SOL    HW210656   2.278   1.186   2.732
 3253SOL     OW10657   4.677   4.208   1.790
 3253SOL    HW110658   4.594   4.243   1.833
 3253SOL    HW210659   4.711   4.130   1.842
 3254SOL     OW10660   5.546   5.972   5.621
 3254SOL    HW110661   5.591   6.030   5.690
 3254SOL    HW210662   5.453   6.005   5.606
 3255SOL     OW10663   5.038   6.510   0.406
 3255SOL    HW110664   4.986   6.429   0.433
 3255SOL    HW210665   5.044   6.514   0.306
 3256SOL     OW10666   3.569   1.128   0.712
 3256SOL    HW110667   3.482   1.082   0.729
 3256SOL    HW210668   3.609   1.094   0.627
 3257SOL     OW10669   1.485   1.669   2.135
 3257SOL    HW110670   1.486   1.768   2.132
 3257SOL    HW210671   1.487   1.632   2.042
 3258SOL     OW10672   4.880   5.732   2.440
 3258SOL    HW110673   4.784   5.758   2.431
 3258SOL    HW210674   4.904   5.669   2.367
 3259SOL     OW10675   4.798   5.160   4.884
 3259SOL    HW110676   4.717   5.102   4.887
 3259SOL    HW210677   4.879   5.104   4.901
 3260SOL     OW10678   1.247   2.026   0.792
 3260SOL    HW110679   1.151   2.049   0.810
 3260SOL    HW210680   1.257   1.928   0.782
 3261SOL     OW10681   5.379   0.703   1.558
 3261SOL    HW110682   5.330   0.689   1.472
 3261SOL    HW210683   5.375   0.620   1.613
 3262SOL     OW10684   3.156   2.157   2.626
 3262SOL    HW110685   3.138   2.171   2.724
 3262SOL    HW210686   3.110   2.228   2.574
 3263SOL     OW10687   2.244   1.192   3.200
 3263SOL    HW110688   2.274   1.136   3.122
 3263SOL    HW210689   2.233   1.135   3.281
 3264SOL     OW10690   1.302   4.573   0.969
 3264SOL    HW110691   1.328   4.483   1.005
 3264SOL    HW210692   1.384   4.627   0.951
 3265SOL     OW10693   5.330   0.941   6.499
 3265SOL    HW110694   5.330   0.994   6.584
 3265SOL    HW210695   5.377   0.992   6.427
 3266SOL     OW10696   1.770   4.341   6.895
 3266SOL    HW110697   1.836   4.350   6.820
 3266SOL    HW210698   1.721   4.254   6.886
 3267SOL     OW10699   3.256   6.392   1.167
 3267SOL    HW110700   3.280   6.460   1.236
 3267SOL    HW210701   3.186   6.429   1.106
 3268SOL     OW10702   1.801   3.546   1.484
 3268SOL    HW110703   1.748   3.510   1.560
 3268SOL    HW210704   1.847   3.631   1.512
 3269SOL     OW10705   4.929   5.614   2.201
 3269SOL    HW110706   4.894   5.527   2.167
 3269SOL    HW210707   4.967   5.668   2.126
 3270SOL     OW10708   1.542   4.274   6.215
 3270SOL    HW110709   1.464   4.335   6.200
 3270SOL    HW210710   1.536   4.196   6.152
 3271SOL     OW10711   5.808   3.560   2.339
 3271SOL    HW110712   5.715   3.594   2.330
 3271SOL    HW210713   5.855   3.568   2.252
 3272SOL     OW10714   2.930   4.390   6.051
 3272SOL    HW110715   2.987   4.445   6.113
 3272SOL    HW210716   2.967   4.397   5.958
 3273SOL     OW10717   6.718   5.956   0.725
 3273SOL    HW110718   6.639   6.018   0.731
 3273SOL    HW210719   6.801   6.010   0.714
 3274SOL     OW10720   5.562   1.075   0.948
 3274SOL    HW110721   5.580   1.109   1.041
 3274SOL    HW210722   5.594   1.142   0.881
 3275SOL     OW10723   5.439   1.336   6.976
 3275SOL    HW110724   5.517   1.293   0.002
 3275SOL    HW210725   5.449   1.435   6.979
 3276SOL     OW10726   2.973   5.742   6.636
 3276SOL    HW110727   2.923   5.820   6.673
 3276SOL    HW210728   2.992   5.758   6.539
 3277SOL     OW10729   4.013   6.622   6.846
 3277SOL    HW110730   4.024   6.678   6.928
 3277SOL    HW210731   3.971   6.677   6.773
 3278SOL     OW10732   0.781   0.764   5.862
 3278SOL    HW110733   0.825   0.674   5.867
 3278SOL    HW210734   0.685   0.755   5.889
 3279SOL     OW10735   4.962   0.372   0.645
 3279SOL    HW110736   4.927   0.379   0.739
 3279SOL    HW210737   5.035   0.438   0.631
 3280SOL     OW10738   4.233   4.711   4.414
 3280SOL    HW110739   4.277   4.642   4.472
 3280SOL    HW210740   4.272   4.801   4.435
 3281SOL     OW10741   1.778   4.993   1.941
 3281SOL    HW110742   1.768   4.894   1.939
 3281SOL    HW210743   1.855   5.019   1.882
 3282SOL     OW10744   6.831   5.619   5.363
 3282SOL    HW110745   6.873   5.699   5.405
 3282SOL    HW210746   6.878   5.598   5.277
 3283SOL     OW10747   3.624   0.226   0.836
 3283SOL    HW110748   3.560   0.162   0.878
 3283SOL    HW210749   3.680   0.268   0.907
 3284SOL     OW10750   0.473   4.812   6.795
 3284SOL    HW110751   0.382   4.786   6.764
 3284SOL    HW210752   0.541   4.752   6.752
 3285SOL     OW10753   4.508   2.170   3.231
 3285SOL    HW110754   4.427   2.209   3.274
 3285SOL    HW210755   4.533   2.225   3.151
 3286SOL     OW10756   3.476   2.938   2.380
 3286SOL    HW110757   3.463   2.882   2.462
 3286SOL    HW210758   3.572   2.966   2.374
 3287SOL     OW10759   0.979   0.561   0.084
 3287SOL    HW110760   0.956   0.541   0.179
 3287SOL    HW210761   1.046   0.495   0.051
 3288SOL     OW10762   1.094   5.796   6.627
 3288SOL    HW110763   1.084   5.895   6.613
 3288SOL    HW210764   1.155   5.759   6.558
 3289SOL     OW10765   2.566   0.456   5.115
 3289SOL    HW110766   2.550   0.516   5.194
 3289SOL    HW210767   2.501   0.381   5.117
 3290SOL     OW10768   0.080   6.156   1.337
 3290SOL    HW110769   0.033   6.151   1.249
 3290SOL    HW210770   0.117   6.248   1.350
 3291SOL     OW10771   1.762   0.198   0.141
 3291SOL    HW110772   1.856   0.208   0.109
 3291SOL    HW210773   1.760   0.213   0.240
 3292SOL     OW10774   6.813   0.578   0.642
 3292SOL    HW110775   6.870   0.525   0.705
 3292SOL    HW210776   6.735   0.523   0.613
 3293SOL     OW10777   0.389   4.205   1.366
 3293SOL    HW110778   0.389   4.147   1.448
 3293SOL    HW210779   0.337   4.288   1.384
 3294SOL     OW10780   6.038   1.643   6.303
 3294SOL    HW110781   6.082   1.716   6.355
 3294SOL    HW210782   5.952   1.675   6.266
 3295SOL     OW10783   1.414   2.287   2.122
 3295SOL    HW110784   1.493   2.335   2.161
 3295SOL    HW210785   1.433   2.265   2.026
 3296SOL     OW10786   1.588   6.846   2.789
 3296SOL    HW110787   1.597   6.759   2.836
 3296SOL    HW210788   1.526   6.905   2.840
 3297SOL     OW10789   3.155   0.947   5.844
 3297SOL    HW110790   3.067   0.955   5.890
 3297SOL    HW210791   3.224   0.999   5.894
 3298SOL     OW10792   5.979   2.317   5.502
 3298SOL    HW110793   6.033   2.276   5.575
 3298SOL    HW210794   5.882   2.300   5.518
 3299SOL     OW10795   3.493   5.598   3.419
 3299SOL    HW110796   3.491   5.651   3.334
 3299SOL    HW210797   3.418   5.533   3.420
 3300SOL     OW10798   0.164   1.119   5.176
 3300SOL    HW110799   0.193   1.024   5.177
 3300SOL    HW210800   0.098   1.135   5.250
 3301SOL     OW10801   1.907   3.324   3.483
 3301SOL    HW110802   1.867   3.291   3.398
 3301SOL    HW210803   1.867   3.274   3.560
 3302SOL     OW10804   0.856   4.824   5.484
 3302SOL    HW110805   0.944   4.831   5.438
 3302SOL    HW210806   0.867   4.781   5.573
 3303SOL     OW10807   3.859   3.630   1.139
 3303SOL    HW110808   3.944   3.626   1.192
 3303SOL    HW210809   3.781   3.635   1.202
 3304SOL     OW10810   1.085   5.302   4.286
 3304SOL    HW110811   1.035   5.372   4.234
 3304SOL    HW210812   1.021   5.232   4.318
 3305SOL     OW10813   2.043   1.181   2.418
 3305SOL    HW110814   2.065   1.094   2.462
 3305SOL    HW210815   1.974   1.167   2.347
 3306SOL     OW10816   2.253   5.469   5.041
 3306SOL    HW110817   2.345   5.502   5.065
 3306SOL    HW210818   2.192   5.547   5.029
 3307SOL     OW10819   6.988   5.470   0.005
 3307SOL    HW110820   0.064   5.500   0.013
 3307SOL    HW210821   6.935   5.540   6.975
 3308SOL     OW10822   2.826   6.356   0.837
 3308SOL    HW110823   2.834   6.324   0.742
 3308SOL    HW210824   2.733   6.341   0.869
 3309SOL     OW10825   0.135   5.842   3.591
 3309SOL    HW110826   0.048   5.841   3.542
 3309SOL    HW210827   0.179   5.753   3.581
 3310SOL     OW10828   0.135   3.615   5.994
 3310SOL    HW110829   0.185   3.553   5.933
 3310SOL    HW210830   0.038   3.611   5.973
 3311SOL     OW10831   2.901   3.516   1.309
 3311SOL    HW110832   2.891   3.615   1.319
 3311SOL    HW210833   2.910   3.474   1.399
 3312SOL     OW10834   4.437   4.620   6.135
 3312SOL    HW110835   4.401   4.677   6.061
 3312SOL    HW210836   4.498   4.675   6.192
 3313SOL     OW10837   0.711   6.353   3.724
 3313SOL    HW110838   0.616   6.385   3.720
 3313SOL    HW210839   0.762   6.391   3.646
 3314SOL     OW10840   2.736   1.343   2.647
 3314SOL    HW110841   2.748   1.389   2.559
 3314SOL    HW210842   2.797   1.383   2.715
 3315SOL     OW10843   6.416   4.329   4.228
 3315SOL    HW110844   6.442   4.255   4.290
 3315SOL    HW210845   6.489   4.341   4.160
 3316SOL     OW10846   4.832   1.100   5.849
 3316SOL    HW110847   4.914   1.085   5.906
 3316SOL    HW210848   4.766   1.155   5.900
 3317SOL     OW10849   4.353   3.094   1.748
 3317SOL    HW110850   4.316   3.167   1.806
 3317SOL    HW210851   4.444   3.069   1.780
 3318SOL     OW10852   2.062   1.520   0.785
 3318SOL    HW110853   2.101   1.431   0.764
 3318SOL    HW210854   2.131   1.577   0.831
 3319SOL     OW10855   6.584   1.430   4.183
 3319SOL    HW110856   6.591   1.525   4.150
 3319SOL    HW210857   6.511   1.383   4.132
 3320SOL     OW10858   6.542   0.808   4.891
 3320SOL    HW110859   6.512   0.714   4.876
 3320SOL    HW210860   6.535   0.830   4.989
 3321SOL     OW10861   4.836   1.674   0.282
 3321SOL    HW110862   4.801   1.586   0.314
 3321SOL    HW210863   4.833   1.740   0.356
 3322SOL     OW10864   6.628   2.825   1.174
 3322SOL    HW110865   6.597   2.893   1.108
 3322SOL    HW210866   6.694   2.764   1.131
 3323SOL     OW10867   3.176   2.914   0.397
 3323SOL    HW110868   3.151   3.011   0.390
 3323SOL    HW210869   3.117   2.860   0.338
 3324SOL     OW10870   4.162   5.120   0.045
 3324SOL    HW110871   4.106   5.202   0.040
 3324SOL    HW210872   4.180   5.086   6.972
 3325SOL     OW10873   0.697   3.063   6.855
 3325SOL    HW110874   0.733   3.043   6.946
 3325SOL    HW210875   0.618   3.123   6.863
 3326SOL     OW10876   5.295   1.826   1.660
 3326SOL    HW110877   5.228   1.786   1.598
 3326SOL    HW210878   5.252   1.843   1.749
 3327SOL     OW10879   3.318   5.593   1.529
 3327SOL    HW110880   3.292   5.670   1.471
 3327SOL    HW210881   3.316   5.622   1.625
 3328SOL     OW10882   4.357   2.049   0.722
 3328SOL    HW110883   4.291   2.003   0.664
 3328SOL    HW210884   4.355   2.147   0.703
 3329SOL     OW10885   5.127   0.169   4.627
 3329SOL    HW110886   5.200   0.232   4.651
 3329SOL    HW210887   5.149   0.077   4.661
 3330SOL     OW10888   6.356   4.959   1.799
 3330SOL    HW110889   6.310   4.874   1.773
 3330SOL    HW210890   6.442   4.938   1.846
 3331SOL     OW10891   2.353   2.823   1.250
 3331SOL    HW110892   2.348   2.912   1.294
 3331SOL    HW210893   2.447   2.804   1.223
 3332SOL     OW10894   5.779   5.088   6.906
 3332SOL    HW110895   5.736   5.014   6.855
 3332SOL    HW210896   5.788   5.062   7.002
 3333SOL     OW10897   4.183   4.458   6.481
 3333SOL    HW110898   4.212   4.471   6.386
 3333SOL    HW210899   4.108   4.393   6.485
 3334SOL     OW10900   2.960   3.715   1.882
 3334SOL    HW110901   2.995   3.665   1.802
 3334SOL    HW210902   2.909   3.651   1.940
 3335SOL     OW10903   4.790   0.257   5.498
 3335SOL    HW110904   4.743   0.177   5.459
 3335SOL    HW210905   4.723   0.330   5.514
 3336SOL     OW10906   2.583   5.764   4.792
 3336SOL    HW110907   2.605   5.776   4.889
 3336SOL    HW210908   2.509   5.698   4.783
 3337SOL     OW10909   3.055   3.756   3.136
 3337SOL    HW110910   3.056   3.658   3.118
 3337SOL    HW210911   3.058   3.806   3.049
 3338SOL     OW10912   5.633   2.718   1.521
 3338SOL    HW110913   5.699   2.651   1.555
 3338SOL    HW210914   5.571   2.674   1.456
 3339SOL     OW10915   6.643   0.530   6.508
 3339SOL    HW110916   6.607   0.543   6.416
 3339SOL    HW210917   6.581   0.471   6.560
 3340SOL     OW10918   3.540   1.250   2.493
 3340SOL    HW110919   3.458   1.287   2.450
 3340SOL    HW210920   3.621   1.296   2.456
 3341SOL     OW10921   1.456   5.165   3.313
 3341SOL    HW110922   1.473   5.227   3.236
 3341SOL    HW210923   1.397   5.210   3.380
 3342SOL     OW10924   2.179   0.286   4.118
 3342SOL    HW110925   2.254   0.289   4.184
 3342SOL    HW210926   2.156   0.190   4.097
 3343SOL     OW10927   5.552   3.049   0.612
 3343SOL    HW110928   5.513   3.039   0.704
 3343SOL    HW210929   5.521   3.136   0.572
 3344SOL     OW10930   5.822   3.238   4.455
 3344SOL    HW110931   5.855   3.315   4.402
 3344SOL    HW210932   5.876   3.156   4.433
 3345SOL     OW10933   1.567   3.863   5.843
 3345SOL    HW110934   1.629   3.785   5.851
 3345SOL    HW210935   1.590   3.931   5.912
 3346SOL     OW10936   1.666   0.718   1.035
 3346SOL    HW110937   1.701   0.683   1.121
 3346SOL    HW210938   1.742   0.735   0.972
 3347SOL     OW10939   0.818   3.497   4.875
 3347SOL    HW110940   0.809   3.403   4.910
 3347SOL    HW210941   0.821   3.495   4.775
 3348SOL     OW10942   3.236   3.383   4.078
 3348SOL    HW110943   3.282   3.472   4.082
 3348SOL    HW210944   3.277   3.322   4.145
 3349SOL     OW10945   1.208   6.100   2.966
 3349SOL    HW110946   1.251   6.057   2.887
 3349SOL    HW210947   1.156   6.031   3.017
 3350SOL     OW10948   1.144   2.449   5.726
 3350SOL    HW110949   1.166   2.358   5.691
 3350SOL    HW210950   1.178   2.519   5.662
 3351SOL     OW10951   4.902   0.782   2.482
 3351SOL    HW110952   4.869   0.784   2.387
 3351SOL    HW210953   4.864   0.702   2.529
 3352SOL     OW10954   6.805   2.360   0.314
 3352SOL    HW110955   6.876   2.347   0.383
 3352SOL    HW210956   6.717   2.375   0.360
 3353SOL     OW10957   1.701   5.755   1.873
 3353SOL    HW110958   1.770   5.736   1.943
 3353SOL    HW210959   1.681   5.853   1.872
 3354SOL     OW10960   4.931   2.453   5.191
 3354SOL    HW110961   5.004   2.395   5.228
 3354SOL    HW210962   4.952   2.477   5.097
 3355SOL     OW10963   2.071   1.541   0.018
 3355SOL    HW110964   2.108   1.558   0.109
 3355SOL    HW210965   2.103   1.613   6.974
 3356SOL     OW10966   1.279   4.578   5.874
 3356SOL    HW110967   1.341   4.500   5.865
 3356SOL    HW210968   1.317   4.643   5.940
 3357SOL     OW10969   2.593   4.574   1.771
 3357SOL    HW110970   2.650   4.599   1.693
 3357SOL    HW210971   2.647   4.578   1.855
 3358SOL     OW10972   4.503   1.321   1.056
 3358SOL    HW110973   4.444   1.382   1.109
 3358SOL    HW210974   4.579   1.373   1.017
 3359SOL     OW10975   6.766   0.121   3.563
 3359SOL    HW110976   6.850   0.086   3.604
 3359SOL    HW210977   6.692   0.116   3.630
 3360SOL     OW10978   0.510   0.983   6.915
 3360SOL    HW110979   0.568   1.055   6.954
 3360SOL    HW210980   0.474   1.012   6.827
 3361SOL     OW10981   1.222   4.462   3.960
 3361SOL    HW110982   1.140   4.466   3.903
 3361SOL    HW210983   1.214   4.529   4.034
 3362SOL     OW10984   3.485   1.577   3.213
 3362SOL    HW110985   3.516   1.668   3.185
 3362SOL    HW210986   3.387   1.581   3.235
 3363SOL     OW10987   6.103   6.490   1.544
 3363SOL    HW110988   6.134   6.396   1.558
 3363SOL    HW210989   6.003   6.492   1.546
 3364SOL     OW10990   1.635   4.464   4.021
 3364SOL    HW110991   1.599   4.548   4.061
 3364SOL    HW210992   1.563   4.394   4.019
 3365SOL     OW10993   6.829   1.888   5.233
 3365SOL    HW110994   6.915   1.856   5.272
 3365SOL    HW210995   6.825   1.988   5.239
 3366SOL     OW10996   5.914   6.568   5.082
 3366SOL    HW110997   5.823   6.610   5.083
 3366SOL    HW210998   5.977   6.623   5.136
 3367SOL     OW10999   3.430   2.685   1.439
 3367SOL    HW111000   3.499   2.615   1.461
 3367SOL    HW211001   3.411   2.739   1.521
 3368SOL     OW11002   0.297   4.973   5.667
 3368SOL    HW111003   0.287   5.072   5.679
 3368SOL    HW211004   0.233   4.942   5.596
 3369SOL     OW11005   3.742   2.648   5.903
 3369SOL    HW111006   3.805   2.676   5.830
 3369SOL    HW211007   3.791   2.594   5.971
 3370SOL     OW11008   6.814   5.961   6.469
 3370SOL    HW111009   6.718   5.954   6.440
 3370SOL    HW211010   6.872   5.910   6.406
 3371SOL     OW11011   1.648   2.953   2.105
 3371SOL    HW111012   1.643   2.996   2.015
 3371SOL    HW211013   1.621   2.857   2.097
 3372SOL     OW11014   0.613   1.713   0.916
 3372SOL    HW111015   0.609   1.729   0.817
 3372SOL    HW211016   0.569   1.625   0.937
 3373SOL     OW11017   6.656   1.745   3.102
 3373SOL    HW111018   6.737   1.694   3.072
 3373SOL    HW211019   6.575   1.687   3.093
 3374SOL     OW11020   1.279   5.978   4.548
 3374SOL    HW111021   1.197   6.029   4.526
 3374SOL    HW211022   1.297   5.910   4.477
 3375SOL     OW11023   6.176   6.052   6.120
 3375SOL    HW111024   6.256   6.059   6.060
 3375SOL    HW211025   6.094   6.038   6.064
 3376SOL     OW11026   3.939   3.070   3.414
 3376SOL    HW111027   3.904   3.161   3.388
 3376SOL    HW211028   4.021   3.080   3.469
 3377SOL     OW11029   6.848   6.364   5.632
 3377SOL    HW111030   6.876   6.458   5.654
 3377SOL    HW211031   6.895   6.300   5.692
 3378SOL     OW11032   6.780   0.882   0.670
 3378SOL    HW111033   6.809   0.908   0.762
 3378SOL    HW211034   6.772   0.783   0.664
 3379SOL     OW11035   6.943   6.886   6.244
 3379SOL    HW111036   6.984   6.889   6.335
 3379SOL    HW211037   6.852   6.844   6.251
 3380SOL     OW11038   6.111   6.674   5.219
 3380SOL    HW111039   6.203   6.707   5.200
 3380SOL    HW211040   6.112   6.621   5.304
 3381SOL     OW11041   0.838   2.671   1.073
 3381SOL    HW111042   0.807   2.602   1.138
 3381SOL    HW211043   0.785   2.755   1.086
 3382SOL     OW11044   0.510   2.154   0.701
 3382SOL    HW111045   0.420   2.141   0.742
 3382SOL    HW211046   0.552   2.064   0.684
 3383SOL     OW11047   4.503   5.903   1.673
 3383SOL    HW111048   4.596   5.890   1.706
 3383SOL    HW211049   4.461   5.979   1.722
 3384SOL     OW11050   3.138   3.226   6.216
 3384SOL    HW111051   3.203   3.298   6.190
 3384SOL    HW211052   3.105   3.180   6.133
 3385SOL     OW11053   6.869   2.839   4.526
 3385SOL    HW111054   6.842   2.863   4.432
 3385SOL    HW211055   6.895   2.742   4.529
 3386SOL     OW11056   5.778   4.327   6.527
 3386SOL    HW111057   5.817   4.394   6.464
 3386SOL    HW211058   5.693   4.364   6.566
 3387SOL     OW11059   3.139   0.853   3.533
 3387SOL    HW111060   3.045   0.884   3.538
 3387SOL    HW211061   3.167   0.845   3.437
 3388SOL     OW11062   5.097   3.261   1.601
 3388SOL    HW111063   5.097   3.191   1.529
 3388SOL    HW211064   5.187   3.304   1.605
 3389SOL     OW11065   5.441   5.213   5.693
 3389SOL    HW111066   5.498   5.290   5.725
 3389SOL    HW211067   5.499   5.148   5.644
 3390SOL     OW11068   4.889   5.743   6.036
 3390SOL    HW111069   4.954   5.710   5.968
 3390SOL    HW211070   4.903   5.840   6.053
 3391SOL     OW11071   5.345   2.992   4.892
 3391SOL    HW111072   5.304   3.072   4.935
 3391SOL    HW211073   5.274   2.924   4.873
 3392SOL     OW11074   2.902   6.648   3.757
 3392SOL    HW111075   2.940   6.722   3.813
 3392SOL    HW211076   2.854   6.583   3.816
 3393SOL     OW11077   0.429   6.314   6.962
 3393SOL    HW111078   0.446   6.216   6.948
 3393SOL    HW211079   0.411   6.330   0.040
 3394SOL     OW11080   5.880   3.493   2.012
 3394SOL    HW111081   5.851   3.497   1.916
 3394SOL    HW211082   5.864   3.401   2.048
 3395SOL     OW11083   5.524   3.313   3.468
 3395SOL    HW111084   5.481   3.322   3.378
 3395SOL    HW211085   5.599   3.247   3.462
 3396SOL     OW11086   4.574   1.767   3.740
 3396SOL    HW111087   4.664   1.783   3.700
 3396SOL    HW211088   4.572   1.803   3.833
 3397SOL     OW11089   2.256   0.679   5.571
 3397SOL    HW111090   2.213   0.622   5.640
 3397SOL    HW211091   2.200   0.761   5.556
 3398SOL     OW11092   0.720   6.525   4.781
 3398SOL    HW111093   0.622   6.513   4.795
 3398SOL    HW211094   0.753   6.601   4.837
 3399SOL     OW11095   5.305   4.498   4.046
 3399SOL    HW111096   5.339   4.589   4.069
 3399SOL    HW211097   5.245   4.465   4.119
 3400SOL     OW11098   4.884   2.933   5.759
 3400SOL    HW111099   4.919   3.010   5.812
 3400SOL    HW211100   4.934   2.926   5.673
 3401SOL     OW11101   0.125   3.171   1.001
 3401SOL    HW111102   0.181   3.191   1.081
 3401SOL    HW211103   0.136   3.244   0.934
 3402SOL     OW11104   3.952   6.078   6.759
 3402SOL    HW111105   3.904   6.034   6.835
 3402SOL    HW211106   3.907   6.164   6.735
 3403SOL     OW11107   3.668   5.682   4.761
 3403SOL    HW111108   3.697   5.638   4.846
 3403SOL    HW211109   3.580   5.644   4.732
 3404SOL     OW11110   5.060   1.512   6.870
 3404SOL    HW111111   4.993   1.523   6.944
 3404SOL    HW211112   5.106   1.424   6.879
 3405SOL     OW11113   6.960   3.738   4.345
 3405SOL    HW111114   6.972   3.834   4.317
 3405SOL    HW211115   6.937   3.735   4.442
 3406SOL     OW11116   0.612   4.180   1.643
 3406SOL    HW111117   0.615   4.220   1.735
 3406SOL    HW211118   0.701   4.142   1.620
 3407SOL     OW11119   1.320   5.155   5.941
 3407SOL    HW111120   1.285   5.182   6.030
 3407SOL    HW211121   1.384   5.225   5.908
 3408SOL     OW11122   4.604   3.876   5.310
 3408SOL    HW111123   4.586   3.782   5.284
 3408SOL    HW211124   4.703   3.891   5.315
 3409SOL     OW11125   3.345   6.116   6.787
 3409SOL    HW111126   3.268   6.178   6.804
 3409SOL    HW211127   3.355   6.053   6.863
 3410SOL     OW11128   6.959   6.081   0.602
 3410SOL    HW111129   6.871   6.128   0.605
 3410SOL    HW211130   7.017   6.122   0.532
 3411SOL     OW11131   0.634   3.232   1.933
 3411SOL    HW111132   0.684   3.218   1.848
 3411SOL    HW211133   0.536   3.219   1.917
 3412SOL     OW11134   4.141   2.729   0.065
 3412SOL    HW111135   4.105   2.637   0.080
 3412SOL    HW211136   4.200   2.730   7.003
 3413SOL     OW11137   5.928   1.149   0.921
 3413SOL    HW111138   5.861   1.220   0.942
 3413SOL    HW211139   5.895   1.092   0.845
 3414SOL     OW11140   2.513   0.300   5.794
 3414SOL    HW111141   2.509   0.355   5.711
 3414SOL    HW211142   2.575   0.223   5.780
 3415SOL     OW11143   1.747   3.769   4.991
 3415SOL    HW111144   1.751   3.850   4.932
 3415SOL    HW211145   1.729   3.688   4.935
 3416SOL     OW11146   0.160   5.714   0.791
 3416SOL    HW111147   0.117   5.631   0.828
 3416SOL    HW211148   0.119   5.736   0.703
 3417SOL     OW11149   0.765   6.194   2.760
 3417SOL    HW111150   0.818   6.170   2.678
 3417SOL    HW211151   0.719   6.112   2.794
 3418SOL     OW11152   3.758   0.825   4.388
 3418SOL    HW111153   3.752   0.725   4.385
 3418SOL    HW211154   3.787   0.854   4.479
 3419SOL     OW11155   3.169   5.521   4.955
 3419SOL    HW111156   3.218   5.436   4.972
 3419SOL    HW211157   3.228   5.599   4.975
 3420SOL     OW11158   5.064   2.846   4.333
 3420SOL    HW111159   4.989   2.848   4.266
 3420SOL    HW211160   5.091   2.940   4.354
 3421SOL     OW11161   5.174   0.930   5.184
 3421SOL    HW111162   5.271   0.913   5.165
 3421SOL    HW211163   5.127   0.843   5.200
 3422SOL     OW11164   1.828   0.397   0.658
 3422SOL    HW111165   1.729   0.408   0.667
 3422SOL    HW211166   1.874   0.457   0.723
 3423SOL     OW11167   0.864   4.676   6.420
 3423SOL    HW111168   0.864   4.577   6.414
 3423SOL    HW211169   0.910   4.704   6.505
 3424SOL     OW11170   2.961   6.340   1.662
 3424SOL    HW111171   3.025   6.347   1.585
 3424SOL    HW211172   2.877   6.389   1.639
 3425SOL     OW11173   5.452   4.994   2.555
 3425SOL    HW111174   5.492   4.935   2.625
 3425SOL    HW211175   5.359   4.964   2.535
 3426SOL     OW11176   4.322   2.889   0.667
 3426SOL    HW111177   4.266   2.936   0.735
 3426SOL    HW211178   4.316   2.938   0.580
 3427SOL     OW11179   6.106   0.028   0.060
 3427SOL    HW111180   6.188   6.995   0.084
 3427SOL    HW211181   6.132   0.118   0.026
 3428SOL     OW11182   2.692   5.242   0.676
 3428SOL    HW111183   2.619   5.271   0.614
 3428SOL    HW211184   2.663   5.255   0.771
 3429SOL     OW11185   0.480   2.204   0.151
 3429SOL    HW111186   0.412   2.130   0.149
 3429SOL    HW211187   0.538   2.193   0.232
 3430SOL     OW11188   0.625   6.330   5.153
 3430SOL    HW111189   0.648   6.264   5.081
 3430SOL    HW211190   0.533   6.309   5.188
 3431SOL     OW11191   0.819   0.011   1.372
 3431SOL    HW111192   0.736   6.981   1.347
 3431SOL    HW211193   0.799   0.075   1.447
 3432SOL     OW11194   1.613   2.350   6.929
 3432SOL    HW111195   1.613   2.384   0.005
 3432SOL    HW211196   1.616   2.250   6.930
 3433SOL     OW11197   1.171   0.486   6.331
 3433SOL    HW111198   1.218   0.443   6.407
 3433SOL    HW211199   1.072   0.488   6.349
 3434SOL     OW11200   4.353   1.803   1.191
 3434SOL    HW111201   4.277   1.813   1.256
 3434SOL    HW211202   4.354   1.709   1.157
 3435SOL     OW11203   0.458   1.619   0.408
 3435SOL    HW111204   0.406   1.535   0.393
 3435SOL    HW211205   0.456   1.674   0.325
 3436SOL     OW11206   4.131   5.647   6.570
 3436SOL    HW111207   4.157   5.724   6.512
 3436SOL    HW211208   4.111   5.681   6.662
 3437SOL     OW11209   1.821   1.231   5.698
 3437SOL    HW111210   1.731   1.236   5.656
 3437SOL    HW211211   1.859   1.323   5.708
 3438SOL     OW11212   1.017   2.791   6.841
 3438SOL    HW111213   0.949   2.770   6.771
 3438SOL    HW211214   1.087   2.852   6.803
 3439SOL     OW11215   2.009   6.076   4.901
 3439SOL    HW111216   2.107   6.069   4.883
 3439SOL    HW211217   1.971   6.152   4.849
 3440SOL     OW11218   3.643   3.609   1.332
 3440SOL    HW111219   3.636   3.644   1.425
 3440SOL    HW211220   3.584   3.530   1.321
 3441SOL     OW11221   5.330   6.975   4.448
 3441SOL    HW111222   5.246   6.966   4.395
 3441SOL    HW211223   5.364   0.049   4.441
 3442SOL     OW11224   2.756   5.069   2.069
 3442SOL    HW111225   2.659   5.064   2.093
 3442SOL    HW211226   2.781   4.986   2.019
 3443SOL     OW11227   5.307   5.849   1.660
 3443SOL    HW111228   5.255   5.925   1.697
 3443SOL    HW211229   5.403   5.857   1.689
 3444SOL     OW11230   5.035   5.428   0.488
 3444SOL    HW111231   5.105   5.460   0.552
 3444SOL    HW211232   5.057   5.336   0.457
 3445SOL     OW11233   6.525   5.304   4.376
 3445SOL    HW111234   6.443   5.252   4.351
 3445SOL    HW211235   6.606   5.253   4.345
 3446SOL     OW11236   6.047   0.404   2.729
 3446SOL    HW111237   6.058   0.378   2.633
 3446SOL    HW211238   6.101   0.485   2.748
 3447SOL     OW11239   5.676   5.854   0.851
 3447SOL    HW111240   5.668   5.816   0.759
 3447SOL    HW211241   5.753   5.918   0.854
 3448SOL     OW11242   3.396   0.334   1.074
 3448SOL    HW111243   3.446   0.407   1.028
 3448SOL    HW211244   3.306   0.369   1.102
 3449SOL     OW11245   6.051   6.397   3.875
 3449SOL    HW111246   6.059   6.332   3.799
 3449SOL    HW211247   6.096   6.359   3.956
 3450SOL     OW11248   0.103   2.509   6.409
 3450SOL    HW111249   0.055   2.574   6.351
 3450SOL    HW211250   0.066   2.417   6.395
 3451SOL     OW11251   1.662   6.386   1.577
 3451SOL    HW111252   1.758   6.393   1.548
 3451SOL    HW211253   1.613   6.468   1.549
 3452SOL     OW11254   6.030   0.627   5.969
 3452SOL    HW111255   5.967   0.660   5.899
 3452SOL    HW211256   6.014   0.530   5.985
 3453SOL     OW11257   6.379   6.083   5.956
 3453SOL    HW111258   6.437   6.157   5.989
 3453SOL    HW211259   6.407   6.056   5.864
 3454SOL     OW11260   1.268   2.405   6.060
 3454SOL    HW111261   1.219   2.332   6.109
 3454SOL    HW211262   1.255   2.393   5.962
 3455SOL     OW11263   2.588   2.019   4.386
 3455SOL    HW111264   2.666   2.012   4.450
 3455SOL    HW211265   2.552   2.112   4.388
 3456SOL     OW11266   6.121   5.878   2.597
 3456SOL    HW111267   6.081   5.844   2.512
 3456SOL    HW211268   6.097   5.974   2.610
 3457SOL     OW11269   2.890   5.215   3.209
 3457SOL    HW111270   2.936   5.210   3.297
 3457SOL    HW211271   2.944   5.165   3.141
 3458SOL     OW11272   4.747   0.618   1.518
 3458SOL    HW111273   4.735   0.621   1.618
 3458SOL    HW211274   4.678   0.677   1.476
 3459SOL     OW11275   5.821   3.502   3.176
 3459SOL    HW111276   5.892   3.483   3.244
 3459SOL    HW211277   5.821   3.431   3.106
 3460SOL     OW11278   2.391   3.337   0.072
 3460SOL    HW111279   2.450   3.380   0.140
 3460SOL    HW211280   2.376   3.241   0.096
 3461SOL     OW11281   4.266   6.172   5.025
 3461SOL    HW111282   4.203   6.096   5.039
 3461SOL    HW211283   4.240   6.248   5.085
 3462SOL     OW11284   0.514   3.651   2.224
 3462SOL    HW111285   0.496   3.602   2.309
 3462SOL    HW211286   0.554   3.741   2.246
 3463SOL     OW11287   0.754   4.059   2.967
 3463SOL    HW111288   0.693   4.044   3.045
 3463SOL    HW211289   0.798   3.973   2.943
 3464SOL     OW11290   6.487   4.055   6.482
 3464SOL    HW111291   6.412   4.010   6.433
 3464SOL    HW211292   6.572   4.003   6.467
 3465SOL     OW11293   1.805   2.342   2.538
 3465SOL    HW111294   1.711   2.328   2.508
 3465SOL    HW211295   1.852   2.402   2.474
 3466SOL     OW11296   0.118   4.763   0.216
 3466SOL    HW111297   0.035   4.809   0.183
 3466SOL    HW211298   0.148   4.805   0.302
 3467SOL     OW11299   1.808   2.400   0.726
 3467SOL    HW111300   1.748   2.325   0.700
 3467SOL    HW211301   1.867   2.371   0.801
 3468SOL     OW11302   5.410   6.488   2.645
 3468SOL    HW111303   5.492   6.522   2.691
 3468SOL    HW211304   5.361   6.425   2.705
 3469SOL     OW11305   4.795   0.160   3.168
 3469SOL    HW111306   4.888   0.189   3.144
 3469SOL    HW211307   4.752   0.229   3.225
 3470SOL     OW11308   6.430   3.608   1.313
 3470SOL    HW111309   6.335   3.579   1.297
 3470SOL    HW211310   6.457   3.583   1.405
 3471SOL     OW11311   4.417   5.283   4.236
 3471SOL    HW111312   4.446   5.201   4.285
 3471SOL    HW211313   4.475   5.360   4.262
 3472SOL     OW11314   2.664   0.998   3.177
 3472SOL    HW111315   2.644   1.020   3.082
 3472SOL    HW211316   2.638   1.076   3.235
 3473SOL     OW11317   6.962   2.073   1.424
 3473SOL    HW111318   0.001   2.133   1.479
 3473SOL    HW211319   6.899   2.128   1.370
 3474SOL     OW11320   1.051   4.764   2.053
 3474SOL    HW111321   0.981   4.753   1.983
 3474SOL    HW211322   1.044   4.855   2.094
 3475SOL     OW11323   1.354   4.479   4.212
 3475SOL    HW111324   1.411   4.561   4.202
 3475SOL    HW211325   1.409   4.398   4.197
 3476SOL     OW11326   2.374   1.416   3.030
 3476SOL    HW111327   2.319   1.366   3.097
 3476SOL    HW211328   2.315   1.448   2.956
 3477SOL     OW11329   1.811   5.486   1.146
 3477SOL    HW111330   1.733   5.443   1.190
 3477SOL    HW211331   1.783   5.576   1.110
 3478SOL     OW11332   2.610   5.595   5.363
 3478SOL    HW111333   2.585   5.554   5.275
 3478SOL    HW211334   2.694   5.552   5.397
 3479SOL     OW11335   1.160   0.441   3.245
 3479SOL    HW111336   1.239   0.381   3.255
 3479SOL    HW211337   1.143   0.459   3.149
 3480SOL     OW11338   0.460   6.478   4.731
 3480SOL    HW111339   0.404   6.427   4.796
 3480SOL    HW211340   0.420   6.568   4.716
 3481SOL     OW11341   4.806   0.447   0.338
 3481SOL    HW111342   4.820   0.404   0.249
 3481SOL    HW211343   4.848   0.391   0.410
 3482SOL     OW11344   5.791   1.510   1.797
 3482SOL    HW111345   5.841   1.463   1.870
 3482SOL    HW211346   5.716   1.452   1.765
 3483SOL     OW11347   4.690   2.270   1.897
 3483SOL    HW111348   4.666   2.364   1.924
 3483SOL    HW211349   4.614   2.209   1.917
 3484SOL     OW11350   1.104   3.195   6.714
 3484SOL    HW111351   1.128   3.239   6.627
 3484SOL    HW211352   1.050   3.113   6.695
 3485SOL     OW11353   2.208   1.422   4.734
 3485SOL    HW111354   2.147   1.490   4.774
 3485SOL    HW211355   2.178   1.330   4.761
 3486SOL     OW11356   2.618   0.325   3.488
 3486SOL    HW111357   2.541   0.263   3.478
 3486SOL    HW211358   2.700   0.272   3.511
 3487SOL     OW11359   5.667   2.533   5.635
 3487SOL    HW111360   5.635   2.543   5.541
 3487SOL    HW211361   5.600   2.479   5.688
 3488SOL     OW11362   6.129   1.326   4.485
 3488SOL    HW111363   6.170   1.240   4.456
 3488SOL    HW211364   6.044   1.341   4.435
 3489SOL     OW11365   3.738   0.191   1.253
 3489SOL    HW111366   3.793   0.212   1.334
 3489SOL    HW211367   3.757   0.259   1.182
 3490SOL     OW11368   4.459   4.509   0.304
 3490SOL    HW111369   4.479   4.438   0.373
 3490SOL    HW211370   4.365   4.541   0.316
 3491SOL     OW11371   4.665   2.532   5.223
 3491SOL    HW111372   4.634   2.589   5.148
 3491SOL    HW211373   4.764   2.518   5.216
 3492SOL     OW11374   0.210   5.318   1.284
 3492SOL    HW111375   0.166   5.399   1.322
 3492SOL    HW211376   0.307   5.318   1.308
 3493SOL     OW11377   5.408   4.314   6.020
 3493SOL    HW111378   5.493   4.301   6.071
 3493SOL    HW211379   5.335   4.262   6.065
 3494SOL     OW11380   3.518   0.362   1.348
 3494SOL    HW111381   3.503   0.307   1.266
 3494SOL    HW211382   3.598   0.327   1.398
 3495SOL     OW11383   5.637   5.045   2.101
 3495SOL    HW111384   5.704   5.119   2.105
 3495SOL    HW211385   5.671   4.967   2.153
 3496SOL     OW11386   6.005   4.434   0.890
 3496SOL    HW111387   5.928   4.467   0.835
 3496SOL    HW211388   6.027   4.501   0.961
 3497SOL     OW11389   3.375   1.454   3.959
 3497SOL    HW111390   3.322   1.473   4.042
 3497SOL    HW211391   3.472   1.450   3.983
 3498SOL     OW11392   3.056   2.443   0.657
 3498SOL    HW111393   3.043   2.386   0.737
 3498SOL    HW211394   3.007   2.403   0.579
 3499SOL     OW11395   4.988   3.254   4.095
 3499SOL    HW111396   4.944   3.164   4.088
 3499SOL    HW211397   4.995   3.296   4.005
 3500SOL     OW11398   1.625   3.508   5.282
 3500SOL    HW111399   1.636   3.423   5.333
 3500SOL    HW211400   1.704   3.522   5.222
 3501SOL     OW11401   1.855   5.755   4.766
 3501SOL    HW111402   1.792   5.777   4.691
 3501SOL    HW211403   1.803   5.729   4.847
 3502SOL     OW11404   6.251   2.997   2.784
 3502SOL    HW111405   6.222   2.906   2.754
 3502SOL    HW211406   6.209   3.019   2.872
 3503SOL     OW11407   6.224   6.621   4.599
 3503SOL    HW111408   6.199   6.589   4.507
 3503SOL    HW211409   6.306   6.677   4.593
 3504SOL     OW11410   2.056   1.986   1.247
 3504SOL    HW111411   2.114   1.911   1.217
 3504SOL    HW211412   2.042   1.980   1.346
 3505SOL     OW11413   5.722   4.763   5.189
 3505SOL    HW111414   5.638   4.721   5.223
 3505SOL    HW211415   5.749   4.837   5.250
 3506SOL     OW11416   4.952   5.235   5.537
 3506SOL    HW111417   4.964   5.179   5.455
 3506SOL    HW211418   4.866   5.285   5.531
 3507SOL     OW11419   1.501   0.901   0.809
 3507SOL    HW111420   1.560   0.885   0.730
 3507SOL    HW211421   1.513   0.995   0.841
 3508SOL     OW11422   2.836   2.520   5.722
 3508SOL    HW111423   2.827   2.446   5.656
 3508SOL    HW211424   2.917   2.575   5.700
 3509SOL     OW11425   5.873   0.448   5.664
 3509SOL    HW111426   5.881   0.531   5.720
 3509SOL    HW211427   5.959   0.398   5.666
 3510SOL     OW11428   1.420   2.430   1.804
 3510SOL    HW111429   1.483   2.358   1.773
 3510SOL    HW211430   1.458   2.476   1.883
 3511SOL     OW11431   3.593   5.323   0.226
 3511SOL    HW111432   3.525   5.365   0.167
 3511SOL    HW211433   3.617   5.386   0.300
 3512SOL     OW11434   0.586   4.803   0.679
 3512SOL    HW111435   0.559   4.765   0.768
 3512SOL    HW211436   0.648   4.879   0.693
 3513SOL     OW11437   6.425   2.956   0.658
 3513SOL    HW111438   6.488   3.020   0.700
 3513SOL    HW211439   6.344   3.005   0.624
 3514SOL     OW11440   0.592   1.655   2.103
 3514SOL    HW111441   0.655   1.638   2.028
 3514SOL    HW211442   0.523   1.582   2.105
 3515SOL     OW11443   5.114   5.964   3.215
 3515SOL    HW111444   5.033   5.978   3.273
 3515SOL    HW211445   5.103   5.879   3.163
 3516SOL     OW11446   4.622   0.267   0.685
 3516SOL    HW111447   4.607   0.179   0.640
 3516SOL    HW211448   4.718   0.277   0.709
 3517SOL     OW11449   1.437   1.955   0.536
 3517SOL    HW111450   1.352   2.007   0.534
 3517SOL    HW211451   1.418   1.860   0.511
 3518SOL     OW11452   5.811   2.779   4.568
 3518SOL    HW111453   5.721   2.807   4.602
 3518SOL    HW211454   5.799   2.720   4.488
 3519SOL     OW11455   1.589   0.849   6.403
 3519SOL    HW111456   1.685   0.866   6.381
 3519SOL    HW211457   1.573   0.750   6.407
 3520SOL     OW11458   3.016   4.827   6.111
 3520SOL    HW111459   3.038   4.744   6.162
 3520SOL    HW211460   2.950   4.806   6.039
 3521SOL     OW11461   4.956   2.316   0.151
 3521SOL    HW111462   5.046   2.352   0.176
 3521SOL    HW211463   4.967   2.223   0.115
 3522SOL     OW11464   6.824   4.488   2.035
 3522SOL    HW111465   6.767   4.414   2.071
 3522SOL    HW211466   6.902   4.501   2.096
 3523SOL     OW11467   2.206   5.153   6.119
 3523SOL    HW111468   2.249   5.065   6.142
 3523SOL    HW211469   2.145   5.140   6.041
 3524SOL     OW11470   3.876   1.557   1.619
 3524SOL    HW111471   3.777   1.558   1.638
 3524SOL    HW211472   3.893   1.500   1.539
 3525SOL     OW11473   1.231   4.067   2.866
 3525SOL    HW111474   1.252   4.015   2.783
 3525SOL    HW211475   1.204   4.160   2.840
 3526SOL     OW11476   2.292   6.075   4.299
 3526SOL    HW111477   2.321   6.137   4.372
 3526SOL    HW211478   2.243   5.998   4.338
 3527SOL     OW11479   5.919   2.507   6.314
 3527SOL    HW111480   5.868   2.593   6.318
 3527SOL    HW211481   6.003   2.519   6.261
 3528SOL     OW11482   0.603   5.493   4.371
 3528SOL    HW111483   0.701   5.502   4.385
 3528SOL    HW211484   0.556   5.567   4.420
 3529SOL     OW11485   3.897   0.007   0.280
 3529SOL    HW111486   3.991   0.022   0.248
 3529SOL    HW211487   3.839   7.002   0.202
 3530SOL     OW11488   0.728   5.573   2.857
 3530SOL    HW111489   0.817   5.558   2.900
 3530SOL    HW211490   0.673   5.490   2.862
 3531SOL     OW11491   5.283   2.788   0.804
 3531SOL    HW111492   5.204   2.752   0.754
 3531SOL    HW211493   5.357   2.807   0.741
 3532SOL     OW11494   2.951   0.865   1.679
 3532SOL    HW111495   2.999   0.939   1.725
 3532SOL    HW211496   3.013   0.787   1.669
 3533SOL     OW11497   1.944   1.903   2.377
 3533SOL    HW111498   1.895   1.990   2.373
 3533SOL    HW211499   1.910   1.843   2.305
 3534SOL     OW11500   5.607   0.982   5.832
 3534SOL    HW111501   5.557   0.897   5.817
 3534SOL    HW211502   5.602   1.008   5.928
 3535SOL     OW11503   1.236   5.530   0.175
 3535SOL    HW111504   1.332   5.528   0.201
 3535SOL    HW211505   1.189   5.451   0.213
 3536SOL     OW11506   2.300   2.294   3.672
 3536SOL    HW111507   2.283   2.347   3.589
 3536SOL    HW211508   2.397   2.270   3.678
 3537SOL     OW11509   3.077   5.823   1.196
 3537SOL    HW111510   3.145   5.801   1.126
 3537SOL    HW211511   3.034   5.911   1.174
 3538SOL     OW11512   1.229   0.368   6.093
 3538SOL    HW111513   1.146   0.317   6.071
 3538SOL    HW211514   1.215   0.419   6.178
 3539SOL     OW11515   5.917   3.440   5.994
 3539SOL    HW111516   5.948   3.498   6.071
 3539SOL    HW211517   5.841   3.485   5.947
 3540SOL     OW11518   2.350   2.587   6.396
 3540SOL    HW111519   2.295   2.526   6.453
 3540SOL    HW211520   2.329   2.571   6.300
 3541SOL     OW11521   1.939   2.423   6.327
 3541SOL    HW111522   1.902   2.490   6.391
 3541SOL    HW211523   1.973   2.343   6.377
 3542SOL     OW11524   1.248   4.586   2.113
 3542SOL    HW111525   1.315   4.604   2.041
 3542SOL    HW211526   1.168   4.644   2.100
 3543SOL     OW11527   0.859   2.671   5.057
 3543SOL    HW111528   0.952   2.634   5.055
 3543SOL    HW211529   0.802   2.621   4.991
 3544SOL     OW11530   2.722   4.466   6.217
 3544SOL    HW111531   2.756   4.447   6.309
 3544SOL    HW211532   2.786   4.430   6.149
 3545SOL     OW11533   4.338   5.109   0.267
 3545SOL    HW111534   4.291   5.128   0.181
 3545SOL    HW211535   4.294   5.032   0.313
 3546SOL     OW11536   0.067   4.051   3.429
 3546SOL    HW111537   0.054   3.957   3.397
 3546SOL    HW211538   7.008   4.106   3.400
 3547SOL     OW11539   6.576   5.138   5.321
 3547SOL    HW111540   6.549   5.223   5.367
 3547SOL    HW211541   6.569   5.151   5.222
 3548SOL     OW11542   5.502   0.520   5.464
 3548SOL    HW111543   5.582   0.487   5.414
 3548SOL    HW211544   5.509   0.619   5.479
 3549SOL     OW11545   6.721   4.806   6.197
 3549SOL    HW111546   6.674   4.798   6.108
 3549SOL    HW211547   6.652   4.808   6.270
 3550SOL     OW11548   6.061   2.959   3.280
 3550SOL    HW111549   6.005   2.887   3.239
 3550SOL    HW211550   6.150   2.962   3.234
 3551SOL     OW11551   3.392   2.057   2.966
 3551SOL    HW111552   3.392   1.957   2.964
 3551SOL    HW211553   3.379   2.092   2.874
 3552SOL     OW11554   6.444   6.578   1.796
 3552SOL    HW111555   6.459   6.663   1.747
 3552SOL    HW211556   6.367   6.588   1.859
 3553SOL     OW11557   4.754   5.414   1.097
 3553SOL    HW111558   4.702   5.460   1.025
 3553SOL    HW211559   4.840   5.464   1.113
 3554SOL     OW11560   4.119   2.013   1.091
 3554SOL    HW111561   4.106   2.072   1.171
 3554SOL    HW211562   4.178   1.936   1.115
 3555SOL     OW11563   0.577   4.590   3.733
 3555SOL    HW111564   0.544   4.654   3.803
 3555SOL    HW211565   0.669   4.615   3.705
 3556SOL     OW11566   3.823   1.357   4.408
 3556SOL    HW111567   3.838   1.455   4.406
 3556SOL    HW211568   3.872   1.313   4.333
 3557SOL     OW11569   0.879   1.091   4.431
 3557SOL    HW111570   0.867   1.120   4.526
 3557SOL    HW211571   0.867   0.992   4.425
 3558SOL     OW11572   1.567   5.943   2.302
 3558SOL    HW111573   1.632   5.967   2.375
 3558SOL    HW211574   1.486   5.902   2.343
 3559SOL     OW11575   0.347   5.978   5.332
 3559SOL    HW111576   0.422   5.917   5.357
 3559SOL    HW211577   0.276   5.927   5.284
 3560SOL     OW11578   1.318   5.451   2.854
 3560SOL    HW111579   1.294   5.365   2.809
 3560SOL    HW211580   1.286   5.449   2.949
 3561SOL     OW11581   4.611   4.443   4.915
 3561SOL    HW111582   4.519   4.481   4.901
 3561SOL    HW211583   4.653   4.424   4.826
 3562SOL     OW11584   3.628   1.373   3.088
 3562SOL    HW111585   3.606   1.358   2.991
 3562SOL    HW211586   3.565   1.441   3.125
 3563SOL     OW11587   6.113   2.155   0.356
 3563SOL    HW111588   6.136   2.115   0.267
 3563SOL    HW211589   6.153   2.099   0.429
 3564SOL     OW11590   0.865   4.559   3.397
 3564SOL    HW111591   0.819   4.629   3.342
 3564SOL    HW211592   0.829   4.469   3.372
 3565SOL     OW11593   3.165   5.231   5.144
 3565SOL    HW111594   3.099   5.172   5.191
 3565SOL    HW211595   3.147   5.326   5.167
 3566SOL     OW11596   6.879   3.573   5.944
 3566SOL    HW111597   6.884   3.579   5.844
 3566SOL    HW211598   6.800   3.624   5.977
 3567SOL     OW11599   0.358   2.748   6.347
 3567SOL    HW111600   0.341   2.693   6.429
 3567SOL    HW211601   0.273   2.759   6.297
 3568SOL     OW11602   4.249   4.907   3.713
 3568SOL    HW111603   4.343   4.932   3.690
 3568SOL    HW211604   4.214   4.969   3.783
 3569SOL     OW11605   2.626   1.545   5.872
 3569SOL    HW111606   2.614   1.577   5.778
 3569SOL    HW211607   2.549   1.576   5.928
 3570SOL     OW11608   5.411   0.806   5.180
 3570SOL    HW111609   5.458   0.832   5.265
 3570SOL    HW211610   5.359   0.722   5.195
 3571SOL     OW11611   0.727   4.999   5.027
 3571SOL    HW111612   0.798   5.015   4.958
 3571SOL    HW211613   0.701   4.902   5.025
 3572SOL     OW11614   6.177   3.605   3.042
 3572SOL    HW111615   6.253   3.630   3.102
 3572SOL    HW211616   6.157   3.508   3.052
 3573SOL     OW11617   0.823   5.790   3.154
 3573SOL    HW111618   0.789   5.818   3.244
 3573SOL    HW211619   0.780   5.705   3.126
 3574SOL     OW11620   0.794   3.502   0.341
 3574SOL    HW111621   0.861   3.510   0.414
 3574SOL    HW211622   0.749   3.413   0.347
 3575SOL     OW11623   5.344   5.024   2.084
 3575SOL    HW111624   5.373   5.001   2.177
 3575SOL    HW211625   5.410   5.086   2.043
 3576SOL     OW11626   0.487   2.468   6.168
 3576SOL    HW111627   0.430   2.516   6.101
 3576SOL    HW211628   0.444   2.474   6.258
 3577SOL     OW11629   1.516   1.976   6.113
 3577SOL    HW111630   1.484   1.894   6.160
 3577SOL    HW211631   1.449   2.049   6.123
 3578SOL     OW11632   4.139   1.963   0.540
 3578SOL    HW111633   4.209   2.000   0.478
 3578SOL    HW211634   4.067   1.919   0.486
 3579SOL     OW11635   0.400   2.171   3.356
 3579SOL    HW111636   0.458   2.242   3.316
 3579SOL    HW211637   0.343   2.210   3.427
 3580SOL     OW11638   5.912   3.202   1.304
 3580SOL    HW111639   5.910   3.104   1.326
 3580SOL    HW211640   5.964   3.250   1.374
 3581SOL     OW11641   1.473   5.726   3.723
 3581SOL    HW111642   1.427   5.748   3.809
 3581SOL    HW211643   1.568   5.756   3.727
 3582SOL     OW11644   0.967   3.729   6.326
 3582SOL    HW111645   0.957   3.785   6.243
 3582SOL    HW211646   1.063   3.704   6.337
 3583SOL     OW11647   0.937   4.181   6.055
 3583SOL    HW111648   1.009   4.178   5.985
 3583SOL    HW211649   0.879   4.260   6.039
 3584SOL     OW11650   5.832   5.393   6.539
 3584SOL    HW111651   5.831   5.298   6.571
 3584SOL    HW211652   5.795   5.398   6.446
 3585SOL     OW11653   3.129   0.912   4.743
 3585SOL    HW111654   3.095   0.821   4.718
 3585SOL    HW211655   3.152   0.963   4.660
 3586SOL     OW11656   6.348   2.089   4.566
 3586SOL    HW111657   6.272   2.071   4.629
 3586SOL    HW211658   6.317   2.149   4.493
 3587SOL     OW11659   2.178   4.677   5.551
 3587SOL    HW111660   2.214   4.712   5.465
 3587SOL    HW211661   2.214   4.585   5.567
 3588SOL     OW11662   1.577   2.733   5.445
 3588SOL    HW111663   1.479   2.737   5.421
 3588SOL    HW211664   1.628   2.790   5.380
 3589SOL     OW11665   5.038   1.295   4.829
 3589SOL    HW111666   5.090   1.303   4.914
 3589SOL    HW211667   4.943   1.272   4.850
 3590SOL     OW11668   0.876   3.150   0.572
 3590SOL    HW111669   0.809   3.076   0.566
 3590SOL    HW211670   0.953   3.120   0.629
 3591SOL     OW11671   5.223   4.164   6.829
 3591SOL    HW111672   5.258   4.120   6.745
 3591SOL    HW211673   5.127   4.188   6.816
 3592SOL     OW11674   1.094   5.052   1.829
 3592SOL    HW111675   1.164   5.119   1.804
 3592SOL    HW211676   1.012   5.066   1.773
 3593SOL     OW11677   0.710   5.493   5.413
 3593SOL    HW111678   0.638   5.435   5.375
 3593SOL    HW211679   0.791   5.486   5.355
 3594SOL     OW11680   4.797   6.773   2.943
 3594SOL    HW111681   4.824   6.731   3.029
 3594SOL    HW211682   4.701   6.801   2.947
 3595SOL     OW11683   4.113   5.521   5.916
 3595SOL    HW111684   4.191   5.547   5.859
 3595SOL    HW211685   4.040   5.589   5.906
 3596SOL     OW11686   6.526   3.268   3.235
 3596SOL    HW111687   6.430   3.279   3.262
 3596SOL    HW211688   6.574   3.356   3.244
 3597SOL     OW11689   2.118   2.290   5.648
 3597SOL    HW111690   2.096   2.297   5.745
 3597SOL    HW211691   2.079   2.205   5.611
 3598SOL     OW11692   1.116   5.453   6.363
 3598SOL    HW111693   1.017   5.453   6.378
 3598SOL    HW211694   1.144   5.365   6.325
 3599SOL     OW11695   5.976   2.465   6.669
 3599SOL    HW111696   6.026   2.539   6.625
 3599SOL    HW211697   5.879   2.488   6.674
 3600SOL     OW11698   0.596   3.022   1.515
 3600SOL    HW111699   0.500   3.021   1.488
 3600SOL    HW211700   0.647   2.953   1.464
 3601SOL     OW11701   5.458   3.462   6.588
 3601SOL    HW111702   5.480   3.510   6.673
 3601SOL    HW211703   5.385   3.512   6.541
 3602SOL     OW11704   1.532   3.242   0.543
 3602SOL    HW111705   1.459   3.182   0.510
 3602SOL    HW211706   1.621   3.203   0.518
 3603SOL     OW11707   3.450   0.948   4.217
 3603SOL    HW111708   3.489   0.926   4.307
 3603SOL    HW211709   3.422   0.864   4.172
 3604SOL     OW11710   6.729   6.234   3.020
 3604SOL    HW111711   6.701   6.229   3.116
 3604SOL    HW211712   6.758   6.327   2.999
 3605SOL     OW11713   6.520   3.980   4.384
 3605SOL    HW111714   6.444   3.971   4.319
 3605SOL    HW211715   6.485   4.006   4.474
 3606SOL     OW11716   0.087   0.292   4.540
 3606SOL    HW111717   0.136   0.363   4.591
 3606SOL    HW211718   0.036   0.335   4.465
 3607SOL     OW11719   5.898   5.159   1.911
 3607SOL    HW111720   5.916   5.064   1.886
 3607SOL    HW211721   5.905   5.217   1.829
 3608SOL     OW11722   5.080   2.710   4.586
 3608SOL    HW111723   5.022   2.630   4.604
 3608SOL    HW211724   5.056   2.750   4.497
 3609SOL     OW11725   1.046   0.223   4.454
 3609SOL    HW111726   1.064   0.286   4.530
 3609SOL    HW211727   1.083   0.133   4.476
 3610SOL     OW11728   1.865   6.869   5.798
 3610SOL    HW111729   1.805   6.841   5.723
 3610SOL    HW211730   1.953   6.897   5.761
 3611SOL     OW11731   4.530   5.053   4.598
 3611SOL    HW111732   4.597   5.097   4.539
 3611SOL    HW211733   4.576   5.007   4.674
 3612SOL     OW11734   6.824   6.710   0.653
 3612SOL    HW111735   6.825   6.810   0.651
 3612SOL    HW211736   6.904   6.677   0.703
 3613SOL     OW11737   4.797   4.368   2.051
 3613SOL    HW111738   4.708   4.355   2.007
 3613SOL    HW211739   4.801   4.314   2.135
 3614SOL     OW11740   4.105   3.636   1.275
 3614SOL    HW111741   4.074   3.573   1.346
 3614SOL    HW211742   4.204   3.626   1.263
 3615SOL     OW11743   5.323   4.360   6.557
 3615SOL    HW111744   5.373   4.276   6.580
 3615SOL    HW211745   5.388   4.432   6.533
 3616SOL     OW11746   0.388   1.639   6.199
 3616SOL    HW111747   0.442   1.592   6.130
 3616SOL    HW211748   0.379   1.736   6.175
 3617SOL     OW11749   4.388   0.543   6.761
 3617SOL    HW111750   4.327   0.615   6.730
 3617SOL    HW211751   4.344   0.454   6.747
 3618SOL     OW11752   2.787   3.002   5.959
 3618SOL    HW111753   2.870   2.982   5.907
 3618SOL    HW211754   2.715   3.032   5.896
 3619SOL     OW11755   5.675   3.019   4.745
 3619SOL    HW111756   5.599   3.082   4.757
 3619SOL    HW211757   5.760   3.070   4.733
 3620SOL     OW11758   6.093   6.330   5.735
 3620SOL    HW111759   6.098   6.417   5.784
 3620SOL    HW211760   6.162   6.328   5.663
 3621SOL     OW11761   3.204   2.872   5.202
 3621SOL    HW111762   3.198   2.773   5.209
 3621SOL    HW211763   3.141   2.914   5.267
 3622SOL     OW11764   1.294   1.428   6.210
 3622SOL    HW111765   1.301   1.449   6.308
 3622SOL    HW211766   1.200   1.443   6.180
 3623SOL     OW11767   0.139   6.419   4.503
 3623SOL    HW111768   0.073   6.371   4.561
 3623SOL    HW211769   0.156   6.510   4.539
 3624SOL     OW11770   2.101   0.140   2.568
 3624SOL    HW111771   2.118   0.047   2.536
 3624SOL    HW211772   2.009   0.168   2.542
 3625SOL     OW11773   6.719   2.947   6.667
 3625SOL    HW111774   6.724   2.878   6.740
 3625SOL    HW211775   6.709   2.902   6.579
 3626SOL     OW11776   1.784   2.248   5.959
 3626SOL    HW111777   1.869   2.200   5.976
 3626SOL    HW211778   1.720   2.188   5.911
 3627SOL     OW11779   3.109   3.313   1.898
 3627SOL    HW111780   3.101   3.256   1.816
 3627SOL    HW211781   3.021   3.315   1.946
 3628SOL     OW11782   1.485   1.064   2.421
 3628SOL    HW111783   1.391   1.099   2.422
 3628SOL    HW211784   1.502   1.012   2.504
 3629SOL     OW11785   6.850   1.125   5.544
 3629SOL    HW111786   6.777   1.178   5.586
 3629SOL    HW211787   6.843   1.029   5.573
 3630SOL     OW11788   5.182   2.471   4.249
 3630SOL    HW111789   5.213   2.566   4.252
 3630SOL    HW211790   5.227   2.419   4.322
 3631SOL     OW11791   2.257   0.943   3.428
 3631SOL    HW111792   2.308   0.864   3.393
 3631SOL    HW211793   2.313   0.993   3.494
 3632SOL     OW11794   5.703   5.259   0.950
 3632SOL    HW111795   5.800   5.251   0.975
 3632SOL    HW211796   5.682   5.353   0.924
 3633SOL     OW11797   4.205   2.066   5.689
 3633SOL    HW111798   4.148   2.128   5.742
 3633SOL    HW211799   4.146   2.007   5.633
 3634SOL     OW11800   1.711   5.044   5.387
 3634SOL    HW111801   1.650   4.978   5.344
 3634SOL    HW211802   1.675   5.072   5.476
 3635SOL     OW11803   3.043   0.163   1.085
 3635SOL    HW111804   2.982   0.228   1.130
 3635SOL    HW211805   3.095   0.113   1.154
 3636SOL     OW11806   0.054   5.504   0.950
 3636SOL    HW111807   0.112   5.442   1.002
 3636SOL    HW211808   6.987   5.458   0.926
 3637SOL     OW11809   7.008   2.448   2.063
 3637SOL    HW111810   6.936   2.447   1.993
 3637SOL    HW211811   6.966   2.467   2.152
 3638SOL     OW11812   0.657   4.202   3.385
 3638SOL    HW111813   0.705   4.283   3.352
 3638SOL    HW211814   0.559   4.212   3.366
 3639SOL     OW11815   3.596   5.231   0.620
 3639SOL    HW111816   3.629   5.247   0.527
 3639SOL    HW211817   3.498   5.208   0.617
 3640SOL     OW11818   4.381   0.544   0.551
 3640SOL    HW111819   4.364   0.515   0.457
 3640SOL    HW211820   4.479   0.546   0.569
 3641SOL     OW11821   6.050   3.691   2.432
 3641SOL    HW111822   6.011   3.780   2.456
 3641SOL    HW211823   5.978   3.622   2.434
 3642SOL     OW11824   5.288   1.919   0.351
 3642SOL    HW111825   5.214   1.937   0.416
 3642SOL    HW211826   5.376   1.930   0.396
 3643SOL     OW11827   2.896   5.500   4.674
 3643SOL    HW111828   2.960   5.436   4.632
 3643SOL    HW211829   2.815   5.510   4.616
 3644SOL     OW11830   0.910   1.223   1.670
 3644SOL    HW111831   0.852   1.151   1.708
 3644SOL    HW211832   0.991   1.182   1.627
 3645SOL     OW11833   1.754   2.292   3.884
 3645SOL    HW111834   1.779   2.197   3.905
 3645SOL    HW211835   1.654   2.301   3.884
 3646SOL     OW11836   1.786   4.392   6.182
 3646SOL    HW111837   1.792   4.360   6.087
 3646SOL    HW211838   1.690   4.399   6.209
 3647SOL     OW11839   2.223   6.238   6.653
 3647SOL    HW111840   2.185   6.196   6.735
 3647SOL    HW211841   2.323   6.235   6.657
 3648SOL     OW11842   4.463   5.807   2.107
 3648SOL    HW111843   4.380   5.840   2.062
 3648SOL    HW211844   4.454   5.818   2.206
 3649SOL     OW11845   6.362   2.940   1.303
 3649SOL    HW111846   6.296   2.908   1.235
 3649SOL    HW211847   6.452   2.901   1.283
 3650SOL     OW11848   6.679   5.571   2.368
 3650SOL    HW111849   6.765   5.546   2.324
 3650SOL    HW211850   6.605   5.514   2.332
 3651SOL     OW11851   0.352   0.587   4.474
 3651SOL    HW111852   0.451   0.594   4.484
 3651SOL    HW211853   0.331   0.533   4.392
 3652SOL     OW11854   6.414   0.195   3.380
 3652SOL    HW111855   6.320   0.217   3.356
 3652SOL    HW211856   6.426   0.095   3.383
 3653SOL     OW11857   1.473   1.177   3.380
 3653SOL    HW111858   1.457   1.264   3.333
 3653SOL    HW211859   1.393   1.156   3.437
 3654SOL     OW11860   4.165   4.547   0.329
 3654SOL    HW111861   4.160   4.458   0.375
 3654SOL    HW211862   4.072   4.581   0.315
 3655SOL     OW11863   3.086   6.937   4.173
 3655SOL    HW111864   3.035   6.924   4.088
 3655SOL    HW211865   3.159   6.869   4.179
 3656SOL     OW11866   0.503   5.367   1.586
 3656SOL    HW111867   0.485   5.358   1.488
 3656SOL    HW211868   0.428   5.417   1.629
 3657SOL     OW11869   5.404   5.596   5.115
 3657SOL    HW111870   5.370   5.510   5.078
 3657SOL    HW211871   5.492   5.618   5.074
 3658SOL     OW11872   2.413   4.406   6.784
 3658SOL    HW111873   2.412   4.390   6.883
 3658SOL    HW211874   2.350   4.342   6.740
 3659SOL     OW11875   2.249   3.135   6.027
 3659SOL    HW111876   2.262   3.036   6.030
 3659SOL    HW211877   2.151   3.156   6.033
 3660SOL     OW11878   5.502   6.023   4.574
 3660SOL    HW111879   5.417   5.971   4.567
 3660SOL    HW211880   5.531   6.027   4.669
 3661SOL     OW11881   6.443   1.138   5.310
 3661SOL    HW111882   6.482   1.183   5.229
 3661SOL    HW211883   6.374   1.197   5.352
 3662SOL     OW11884   4.233   0.876   4.298
 3662SOL    HW111885   4.182   0.912   4.221
 3662SOL    HW211886   4.325   0.850   4.267
 3663SOL     OW11887   1.899   2.009   0.079
 3663SOL    HW111888   1.900   2.087   0.142
 3663SOL    HW211889   1.943   1.931   0.123
 3664SOL     OW11890   4.736   2.218   1.638
 3664SOL    HW111891   4.714   2.260   1.727
 3664SOL    HW211892   4.738   2.289   1.568
 3665SOL     OW11893   0.612   6.163   4.942
 3665SOL    HW111894   0.640   6.077   4.986
 3665SOL    HW211895   0.688   6.198   4.886
 3666SOL     OW11896   1.128   3.660   2.717
 3666SOL    HW111897   1.183   3.723   2.662
 3666SOL    HW211898   1.073   3.603   2.656
 3667SOL     OW11899   0.432   1.126   3.907
 3667SOL    HW111900   0.385   1.052   3.956
 3667SOL    HW211901   0.517   1.092   3.868
 3668SOL     OW11902   1.251   1.060   0.697
 3668SOL    HW111903   1.326   1.013   0.650
 3668SOL    HW211904   1.231   1.146   0.651
 3669SOL     OW11905   5.460   1.872   3.970
 3669SOL    HW111906   5.535   1.851   3.907
 3669SOL    HW211907   5.393   1.930   3.924
 3670SOL     OW11908   2.046   5.530   6.850
 3670SOL    HW111909   2.008   5.622   6.838
 3670SOL    HW211910   2.104   5.507   6.772
 3671SOL     OW11911   0.172   2.082   3.859
 3671SOL    HW111912   0.260   2.055   3.820
 3671SOL    HW211913   0.120   2.134   3.792
 3672SOL     OW11914   4.597   2.089   2.355
 3672SOL    HW111915   4.605   2.121   2.449
 3672SOL    HW211916   4.669   2.131   2.300
 3673SOL     OW11917   4.268   6.098   0.101
 3673SOL    HW111918   4.367   6.086   0.092
 3673SOL    HW211919   4.221   6.040   0.034
 3674SOL     OW11920   1.367   5.753   5.442
 3674SOL    HW111921   1.306   5.728   5.367
 3674SOL    HW211922   1.324   5.823   5.498
 3675SOL     OW11923   1.753   2.915   4.133
 3675SOL    HW111924   1.808   2.834   4.112
 3675SOL    HW211925   1.750   2.929   4.232
 3676SOL     OW11926   6.576   4.447   2.889
 3676SOL    HW111927   6.627   4.381   2.945
 3676SOL    HW211928   6.526   4.398   2.817
 3677SOL     OW11929   3.123   6.227   4.261
 3677SOL    HW111930   3.086   6.312   4.225
 3677SOL    HW211931   3.158   6.171   4.186
 3678SOL     OW11932   1.368   1.235   4.244
 3678SOL    HW111933   1.270   1.221   4.224
 3678SOL    HW211934   1.396   1.172   4.317
 3679SOL     OW11935   6.704   0.333   3.248
 3679SOL    HW111936   6.706   0.233   3.261
 3679SOL    HW211937   6.795   0.364   3.221
 3680SOL     OW11938   5.069   2.912   4.046
 3680SOL    HW111939   5.150   2.970   4.048
 3680SOL    HW211940   5.084   2.834   3.985
 3681SOL     OW11941   0.211   1.288   6.524
 3681SOL    HW111942   0.178   1.200   6.491
 3681SOL    HW211943   0.310   1.285   6.538
 3682SOL     OW11944   5.889   3.039   0.047
 3682SOL    HW111945   5.879   3.116   0.110
 3682SOL    HW211946   5.964   2.981   0.078
 3683SOL     OW11947   0.217   1.543   4.356
 3683SOL    HW111948   0.303   1.515   4.311
 3683SOL    HW211949   0.174   1.463   4.398
 3684SOL     OW11950   1.004   5.517   7.009
 3684SOL    HW111951   1.084   5.530   0.049
 3684SOL    HW211952   0.961   5.430   0.011
 3685SOL     OW11953   2.003   5.926   6.523
 3685SOL    HW111954   2.003   5.887   6.432
 3685SOL    HW211955   1.930   5.994   6.531
 3686SOL     OW11956   6.003   5.106   4.639
 3686SOL    HW111957   6.038   5.012   4.635
 3686SOL    HW211958   5.914   5.110   4.595
 3687SOL     OW11959   3.865   6.256   4.079
 3687SOL    HW111960   3.770   6.285   4.091
 3687SOL    HW211961   3.880   6.172   4.129
 3688SOL     OW11962   0.074   3.111   6.852
 3688SOL    HW111963   7.006   3.078   6.889
 3688SOL    HW211964   0.090   3.206   6.881
 3689SOL     OW11965   1.842   0.195   5.583
 3689SOL    HW111966   1.754   0.190   5.630
 3689SOL    HW211967   1.846   0.122   5.514
 3690SOL     OW11968   3.958   5.830   0.162
 3690SOL    HW111969   3.903   5.908   0.193
 3690SOL    HW211970   3.899   5.767   0.111
 3691SOL     OW11971   2.684   1.591   6.849
 3691SOL    HW111972   2.665   1.522   6.778
 3691SOL    HW211973   2.734   1.547   6.925
 3692SOL     OW11974   6.632   5.448   5.472
 3692SOL    HW111975   6.548   5.503   5.463
 3692SOL    HW211976   6.709   5.499   5.433
 3693SOL     OW11977   2.035   3.248   2.892
 3693SOL    HW111978   2.052   3.314   2.966
 3693SOL    HW211979   2.115   3.245   2.833
 3694SOL     OW11980   0.673   6.388   2.151
 3694SOL    HW111981   0.601   6.333   2.108
 3694SOL    HW211982   0.754   6.387   2.093
 3695SOL     OW11983   4.750   3.268   1.453
 3695SOL    HW111984   4.846   3.285   1.476
 3695SOL    HW211985   4.692   3.319   1.516
 3696SOL     OW11986   3.629   0.202   3.973
 3696SOL    HW111987   3.716   0.166   4.006
 3696SOL    HW211988   3.556   0.175   4.036
 3697SOL     OW11989   0.560   6.334   2.994
 3697SOL    HW111990   0.526   6.354   2.902
 3697SOL    HW211991   0.484   6.314   3.055
 3698SOL     OW11992   2.725   0.889   3.909
 3698SOL    HW111993   2.792   0.908   3.838
 3698SOL    HW211994   2.734   0.794   3.939
 3699SOL     OW11995   1.771   1.229   3.723
 3699SOL    HW111996   1.755   1.228   3.625
 3699SOL    HW211997   1.869   1.237   3.741
 3700SOL     OW11998   1.496   5.466   4.707
 3700SOL    HW111999   1.440   5.454   4.625
 3700SOL    HW212000   1.537   5.379   4.733
 3701SOL     OW12001   1.490   0.285   3.873
 3701SOL    HW112002   1.589   0.281   3.883
 3701SOL    HW212003   1.464   0.260   3.780
 3702SOL     OW12004   5.430   6.407   3.665
 3702SOL    HW112005   5.440   6.318   3.620
 3702SOL    HW212006   5.402   6.393   3.760
 3703SOL     OW12007   6.861   0.716   6.574
 3703SOL    HW112008   6.818   0.799   6.609
 3703SOL    HW212009   6.792   0.646   6.561
 3704SOL     OW12010   3.835   2.200   1.235
 3704SOL    HW112011   3.877   2.260   1.166
 3704SOL    HW212012   3.738   2.224   1.245
 3705SOL     OW12013   5.197   4.315   4.826
 3705SOL    HW112014   5.248   4.280   4.747
 3705SOL    HW212015   5.210   4.252   4.903
 3706SOL     OW12016   0.901   3.582   6.919
 3706SOL    HW112017   0.956   3.657   6.883
 3706SOL    HW212018   0.805   3.607   6.918
 3707SOL     OW12019   5.367   5.137   4.634
 3707SOL    HW112020   5.399   5.062   4.691
 3707SOL    HW212021   5.322   5.206   4.692
 3708SOL     OW12022   5.981   0.329   0.237
 3708SOL    HW112023   5.887   0.322   0.271
 3708SOL    HW212024   6.045   0.326   0.314
 3709SOL     OW12025   3.732   0.227   1.635
 3709SOL    HW112026   3.657   0.281   1.673
 3709SOL    HW212027   3.736   0.138   1.681
 3710SOL     OW12028   6.711   5.653   5.070
 3710SOL    HW112029   6.790   5.591   5.067
 3710SOL    HW212030   6.628   5.601   5.089
 3711SOL     OW12031   1.266   5.307   4.810
 3711SOL    HW112032   1.323   5.271   4.736
 3711SOL    HW212033   1.323   5.330   4.888
 3712SOL     OW12034   1.207   5.184   6.197
 3712SOL    HW112035   1.227   5.092   6.229
 3712SOL    HW212036   1.108   5.196   6.189
 3713SOL     OW12037   0.409   6.560   5.039
 3713SOL    HW112038   0.501   6.521   5.047
 3713SOL    HW212039   0.362   6.552   5.127
 3714SOL     OW12040   5.980   6.135   6.484
 3714SOL    HW112041   5.895   6.129   6.537
 3714SOL    HW212042   5.960   6.115   6.388
 3715SOL     OW12043   0.755   3.956   2.702
 3715SOL    HW112044   0.722   3.879   2.758
 3715SOL    HW212045   0.839   3.992   2.741
 3716SOL     OW12046   5.929   6.500   4.189
 3716SOL    HW112047   5.913   6.487   4.091
 3716SOL    HW212048   5.862   6.565   4.226
 3717SOL     OW12049   5.850   0.271   6.706
 3717SOL    HW112050   5.816   0.253   6.799
 3717SOL    HW212051   5.839   0.368   6.685
 3718SOL     OW12052   6.532   0.385   0.604
 3718SOL    HW112053   6.434   0.404   0.607
 3718SOL    HW212054   6.555   0.316   0.673
 3719SOL     OW12055   5.012   3.487   1.247
 3719SOL    HW112056   5.072   3.564   1.229
 3719SOL    HW212057   5.057   3.402   1.221
 3720SOL     OW12058   5.957   3.334   0.429
 3720SOL    HW112059   6.057   3.336   0.431
 3720SOL    HW212060   5.926   3.240   0.423
 3721SOL     OW12061   0.222   5.189   1.878
 3721SOL    HW112062   0.318   5.178   1.852
 3721SOL    HW212063   0.213   5.178   1.976
 3722SOL     OW12064   5.508   6.052   0.997
 3722SOL    HW112065   5.424   6.084   0.953
 3722SOL    HW212066   5.546   5.976   0.945
 3723SOL     OW12067   5.485   4.622   0.998
 3723SOL    HW112068   5.545   4.698   1.026
 3723SOL    HW212069   5.465   4.630   0.901
 3724SOL     OW12070   1.775   4.522   4.792
 3724SOL    HW112071   1.845   4.569   4.846
 3724SOL    HW212072   1.684   4.549   4.825
 3725SOL     OW12073   0.424   5.197   7.011
 3725SOL    HW112074   0.337   5.199   0.040
 3725SOL    HW212075   0.435   5.109   6.964
 3726SOL     OW12076   5.813   3.078   6.326
 3726SOL    HW112077   5.797   2.982   6.306
 3726SOL    HW212078   5.805   3.132   6.242
 3727SOL     OW12079   6.228   2.140   5.404
 3727SOL    HW112080   6.233   2.043   5.429
 3727SOL    HW212081   6.197   2.193   5.482
 3728SOL     OW12082   0.754   3.727   6.499
 3728SOL    HW112083   0.791   3.680   6.578
 3728SOL    HW212084   0.827   3.745   6.433
 3729SOL     OW12085   1.742   1.734   4.111
 3729SOL    HW112086   1.835   1.758   4.139
 3729SOL    HW212087   1.741   1.712   4.014
 3730SOL     OW12088   3.221   5.899   5.289
 3730SOL    HW112089   3.265   5.861   5.208
 3730SOL    HW212090   3.180   5.987   5.267
 3731SOL     OW12091   0.152   1.256   0.573
 3731SOL    HW112092   0.062   1.215   0.584
 3731SOL    HW212093   0.184   1.291   0.662
 3732SOL     OW12094   2.760   2.083   0.238
 3732SOL    HW112095   2.752   2.134   0.152
 3732SOL    HW212096   2.786   1.989   0.219
 3733SOL     OW12097   2.143   3.306   2.635
 3733SOL    HW112098   2.185   3.391   2.665
 3733SOL    HW212099   2.066   3.327   2.573
 3734SOL     OW12100   5.420   0.162   1.085
 3734SOL    HW112101   5.409   0.129   1.178
 3734SOL    HW212102   5.492   0.111   1.039
 3735SOL     OW12103   2.745   0.737   2.552
 3735SOL    HW112104   2.778   0.825   2.587
 3735SOL    HW212105   2.818   0.670   2.556
 3736SOL     OW12106   0.140   1.328   1.123
 3736SOL    HW112107   0.168   1.412   1.077
 3736SOL    HW212108   0.042   1.333   1.145
 3737SOL     OW12109   5.032   0.961   4.113
 3737SOL    HW112110   4.994   0.991   4.200
 3737SOL    HW212111   4.978   1.000   4.038
 3738SOL     OW12112   6.410   0.421   1.605
 3738SOL    HW112113   6.419   0.389   1.511
 3738SOL    HW212114   6.328   0.381   1.646
 3739SOL     OW12115   2.488   5.379   0.843
 3739SOL    HW112116   2.389   5.371   0.853
 3739SOL    HW212117   2.513   5.476   0.846
 3740SOL     OW12118   6.245   6.625   0.560
 3740SOL    HW112119   6.338   6.642   0.592
 3740SOL    HW212120   6.189   6.594   0.636
 3741SOL     OW12121   4.831   2.948   6.131
 3741SOL    HW112122   4.734   2.943   6.156
 3741SOL    HW212123   4.887   2.923   6.210
 3742SOL     OW12124   3.524   1.538   6.922
 3742SOL    HW112125   3.566   1.452   6.953
 3742SOL    HW212126   3.594   1.594   6.878
 3743SOL     OW12127   5.858   3.073   0.381
 3743SOL    HW112128   5.915   2.992   0.393
 3743SOL    HW212129   5.762   3.047   0.380
 3744SOL     OW12130   1.490   6.663   1.888
 3744SOL    HW112131   1.484   6.578   1.941
 3744SOL    HW212132   1.401   6.683   1.847
 3745SOL     OW12133   4.476   4.564   2.607
 3745SOL    HW112134   4.468   4.487   2.670
 3745SOL    HW212135   4.570   4.598   2.607
 3746SOL     OW12136   6.630   0.510   3.942
 3746SOL    HW112137   6.612   0.460   3.857
 3746SOL    HW212138   6.568   0.589   3.946
 3747SOL     OW12139   3.714   5.537   5.229
 3747SOL    HW112140   3.720   5.491   5.140
 3747SOL    HW212141   3.706   5.468   5.301
 3748SOL     OW12142   5.505   1.290   1.641
 3748SOL    HW112143   5.440   1.280   1.716
 3748SOL    HW212144   5.540   1.200   1.615
 3749SOL     OW12145   2.076   5.063   2.955
 3749SOL    HW112146   1.984   5.037   2.927
 3749SOL    HW212147   2.142   5.034   2.885
 3750SOL     OW12148   6.684   4.989   1.422
 3750SOL    HW112149   6.672   4.927   1.344
 3750SOL    HW212150   6.759   5.052   1.404
 3751SOL     OW12151   6.493   3.461   1.542
 3751SOL    HW112152   6.579   3.485   1.586
 3751SOL    HW212153   6.493   3.364   1.519
 3752SOL     OW12154   0.178   6.510   0.442
 3752SOL    HW112155   0.162   6.575   0.368
 3752SOL    HW212156   0.192   6.560   0.528
 3753SOL     OW12157   0.082   0.744   3.952
 3753SOL    HW112158   7.012   0.783   3.978
 3753SOL    HW212159   0.091   0.653   3.993
 3754SOL     OW12160   3.967   6.996   1.284
 3754SOL    HW112161   3.895   6.933   1.312
 3754SOL    HW212162   3.977   6.993   1.184
 3755SOL     OW12163   5.111   5.590   4.502
 3755SOL    HW112164   5.047   5.637   4.563
 3755SOL    HW212165   5.204   5.625   4.517
 3756SOL     OW12166   2.230   6.124   6.351
 3756SOL    HW112167   2.168   6.131   6.429
 3756SOL    HW212168   2.208   6.041   6.299
 3757SOL     OW12169   3.935   6.482   6.587
 3757SOL    HW112170   3.861   6.432   6.632
 3757SOL    HW212171   3.920   6.581   6.598
 3758SOL     OW12172   2.233   1.428   5.201
 3758SOL    HW112173   2.316   1.385   5.165
 3758SOL    HW212174   2.224   1.407   5.298
 3759SOL     OW12175   4.678   5.576   6.030
 3759SOL    HW112176   4.664   5.544   6.124
 3759SOL    HW212177   4.762   5.630   6.026
 3760SOL     OW12178   2.091   1.943   5.000
 3760SOL    HW112179   2.019   1.927   5.067
 3760SOL    HW212180   2.099   2.042   4.983
 3761SOL     OW12181   0.959   0.896   4.718
 3761SOL    HW112182   0.954   0.900   4.817
 3761SOL    HW212183   1.044   0.939   4.687
 3762SOL     OW12184   1.333   4.203   0.361
 3762SOL    HW112185   1.364   4.126   0.306
 3762SOL    HW212186   1.398   4.279   0.351
 3763SOL     OW12187   0.243   4.355   0.869
 3763SOL    HW112188   0.161   4.395   0.828
 3763SOL    HW212189   0.217   4.298   0.946
 3764SOL     OW12190   1.872   6.835   4.327
 3764SOL    HW112191   1.956   6.876   4.362
 3764SOL    HW212192   1.850   6.876   4.238
 3765SOL     OW12193   4.441   1.070   1.062
 3765SOL    HW112194   4.399   1.050   0.973
 3765SOL    HW212195   4.472   1.165   1.063
 3766SOL     OW12196   0.929   0.993   3.896
 3766SOL    HW112197   0.985   0.913   3.919
 3766SOL    HW212198   0.899   1.038   3.981
 3767SOL     OW12199   2.458   4.388   0.473
 3767SOL    HW112200   2.558   4.384   0.471
 3767SOL    HW212201   2.422   4.295   0.475
 3768SOL     OW12202   1.841   5.906   5.014
 3768SOL    HW112203   1.888   5.975   4.959
 3768SOL    HW212204   1.905   5.867   5.080
 3769SOL     OW12205   5.909   6.341   5.470
 3769SOL    HW112206   5.877   6.397   5.546
 3769SOL    HW212207   5.851   6.261   5.460
 3770SOL     OW12208   1.861   0.466   6.769
 3770SOL    HW112209   1.946   0.423   6.741
 3770SOL    HW212210   1.800   0.397   6.810
 3771SOL     OW12211   6.179   3.262   0.275
 3771SOL    HW112212   6.234   3.188   0.315
 3771SOL    HW212213   6.159   3.240   0.180
 3772SOL     OW12214   6.986   0.643   0.440
 3772SOL    HW112215   6.997   0.742   0.441
 3772SOL    HW212216   6.925   0.616   0.515
 3773SOL     OW12217   6.056   2.912   6.138
 3773SOL    HW112218   6.148   2.874   6.154
 3773SOL    HW212219   6.061   3.012   6.139
 3774SOL     OW12220   0.015   5.716   0.267
 3774SOL    HW112221   0.096   5.664   0.238
 3774SOL    HW212222   7.011   5.784   0.197
 3775SOL     OW12223   5.086   5.190   2.368
 3775SOL    HW112224   5.018   5.227   2.305
 3775SOL    HW212225   5.040   5.145   2.444
 3776SOL     OW12226   4.007   1.361   1.168
 3776SOL    HW112227   4.012   1.412   1.082
 3776SOL    HW212228   4.097   1.321   1.188
 3777SOL     OW12229   3.414   4.977   4.148
 3777SOL    HW112230   3.316   4.958   4.143
 3777SOL    HW212231   3.446   4.967   4.242
 3778SOL     OW12232   3.544   5.072   2.310
 3778SOL    HW112233   3.514   5.001   2.246
 3778SOL    HW212234   3.624   5.119   2.272
 3779SOL     OW12235   1.807   4.818   0.932
 3779SOL    HW112236   1.869   4.740   0.938
 3779SOL    HW212237   1.846   4.897   0.980
 3780SOL     OW12238   5.284   6.100   5.476
 3780SOL    HW112239   5.335   6.070   5.396
 3780SOL    HW212240   5.300   6.197   5.492
 3781SOL     OW12241   1.104   7.001   4.846
 3781SOL    HW112242   1.187   6.970   4.892
 3781SOL    HW212243   1.024   6.973   4.898
 3782SOL     OW12244   2.510   0.828   4.282
 3782SOL    HW112245   2.447   0.892   4.326
 3782SOL    HW212246   2.464   0.741   4.266
 3783SOL     OW12247   5.809   5.536   4.141
 3783SOL    HW112248   5.724   5.516   4.189
 3783SOL    HW212249   5.820   5.635   4.132
 3784SOL     OW12250   4.827   2.836   2.257
 3784SOL    HW112251   4.774   2.897   2.198
 3784SOL    HW212252   4.764   2.777   2.308
 3785SOL     OW12253   1.671   1.563   6.186
 3785SOL    HW112254   1.597   1.628   6.204
 3785SOL    HW212255   1.655   1.479   6.237
 3786SOL     OW12256   2.310   6.252   3.083
 3786SOL    HW112257   2.374   6.228   3.010
 3786SOL    HW212258   2.222   6.278   3.043
 3787SOL     OW12259   5.840   0.481   2.443
 3787SOL    HW112260   5.938   0.494   2.452
 3787SOL    HW212261   5.822   0.401   2.387
 3788SOL     OW12262   0.847   4.128   4.527
 3788SOL    HW112263   0.791   4.065   4.580
 3788SOL    HW212264   0.935   4.140   4.573
 3789SOL     OW12265   0.312   3.249   5.578
 3789SOL    HW112266   0.364   3.329   5.547
 3789SOL    HW212267   0.375   3.172   5.592
 3790SOL     OW12268   1.598   4.789   5.074
 3790SOL    HW112269   1.656   4.869   5.061
 3790SOL    HW212270   1.642   4.726   5.138
 3791SOL     OW12271   5.558   0.529   0.485
 3791SOL    HW112272   5.575   0.586   0.566
 3791SOL    HW212273   5.464   0.494   0.488
 3792SOL     OW12274   0.908   1.917   4.819
 3792SOL    HW112275   0.817   1.877   4.831
 3792SOL    HW212276   0.977   1.858   4.861
 3793SOL     OW12277   4.322   6.995   2.960
 3793SOL    HW112278   4.330   6.948   3.048
 3793SOL    HW212279   4.234   6.971   2.917
 3794SOL     OW12280   2.413   4.135   0.525
 3794SOL    HW112281   2.355   4.074   0.579
 3794SOL    HW212282   2.505   4.137   0.563
 3795SOL     OW12283   4.797   6.340   6.820
 3795SOL    HW112284   4.781   6.262   6.760
 3795SOL    HW212285   4.715   6.358   6.873
 3796SOL     OW12286   3.049   1.553   1.871
 3796SOL    HW112287   2.994   1.627   1.909
 3796SOL    HW212288   2.990   1.475   1.849
 3797SOL     OW12289   0.190   4.220   2.540
 3797SOL    HW112290   0.178   4.212   2.639
 3797SOL    HW212291   0.119   4.167   2.494
 3798SOL     OW12292   2.958   5.695   2.584
 3798SOL    HW112293   2.944   5.620   2.519
 3798SOL    HW212294   3.056   5.701   2.607
 3799SOL     OW12295   0.855   2.620   4.767
 3799SOL    HW112296   0.828   2.526   4.746
 3799SOL    HW212297   0.894   2.662   4.685
 3800SOL     OW12298   5.153   3.129   4.359
 3800SOL    HW112299   5.148   3.198   4.431
 3800SOL    HW212300   5.086   3.151   4.287
 3801SOL     OW12301   6.234   6.746   2.948
 3801SOL    HW112302   6.257   6.664   3.000
 3801SOL    HW212303   6.288   6.823   2.982
 3802SOL     OW12304   1.296   2.115   2.315
 3802SOL    HW112305   1.222   2.132   2.379
 3802SOL    HW212306   1.303   2.192   2.251
 3803SOL     OW12307   3.205   2.281   0.953
 3803SOL    HW112308   3.240   2.203   1.004
 3803SOL    HW212309   3.266   2.303   0.877
 3804SOL     OW12310   5.289   1.086   3.995
 3804SOL    HW112311   5.288   0.996   3.952
 3804SOL    HW212312   5.211   1.093   4.058
 3805SOL     OW12313   2.509   3.023   1.622
 3805SOL    HW112314   2.606   3.002   1.639
 3805SOL    HW212315   2.484   3.106   1.671
 3806SOL     OW12316   3.697   4.064   6.564
 3806SOL    HW112317   3.769   4.070   6.633
 3806SOL    HW212318   3.730   4.105   6.479
 3807SOL     OW12319   1.642   5.997   3.225
 3807SOL    HW112320   1.548   6.022   3.203
 3807SOL    HW212321   1.698   6.001   3.143
 3808SOL     OW12322   4.400   0.290   0.899
 3808SOL    HW112323   4.376   0.193   0.905
 3808SOL    HW212324   4.488   0.298   0.853
 3809SOL     OW12325   6.092   3.046   0.702
 3809SOL    HW112326   6.127   3.136   0.677
 3809SOL    HW212327   6.065   2.996   0.620
 3810SOL     OW12328   4.775   2.375   4.381
 3810SOL    HW112329   4.712   2.449   4.358
 3810SOL    HW212330   4.804   2.329   4.297
 3811SOL     OW12331   0.921   4.260   4.165
 3811SOL    HW112332   0.878   4.289   4.079
 3811SOL    HW212333   0.879   4.176   4.197
 3812SOL     OW12334   5.458   0.802   4.863
 3812SOL    HW112335   5.409   0.834   4.944
 3812SOL    HW212336   5.537   0.747   4.891
 3813SOL     OW12337   4.830   4.812   0.501
 3813SOL    HW112338   4.876   4.900   0.504
 3813SOL    HW212339   4.793   4.798   0.409
 3814SOL     OW12340   0.278   6.650   0.674
 3814SOL    HW112341   0.268   6.747   0.693
 3814SOL    HW212342   0.321   6.605   0.752
 3815SOL     OW12343   4.758   3.177   0.026
 3815SOL    HW112344   4.802   3.151   0.112
 3815SOL    HW212345   4.822   3.161   6.969
 3816SOL     OW12346   0.618   5.697   6.978
 3816SOL    HW112347   0.590   5.602   6.989
 3816SOL    HW212348   0.628   5.718   6.881
 3817SOL     OW12349   4.878   3.914   2.334
 3817SOL    HW112350   4.975   3.910   2.360
 3817SOL    HW212351   4.828   3.972   2.398
 3818SOL     OW12352   5.624   0.684   0.246
 3818SOL    HW112353   5.604   0.615   0.316
 3818SOL    HW212354   5.557   0.757   0.252
 3819SOL     OW12355   5.450   5.776   1.403
 3819SOL    HW112356   5.550   5.779   1.405
 3819SOL    HW212357   5.414   5.806   1.491
 3820SOL     OW12358   5.967   6.972   3.160
 3820SOL    HW112359   5.925   6.996   3.072
 3820SOL    HW212360   5.998   0.037   3.205
 3821SOL     OW12361   2.819   1.411   0.680
 3821SOL    HW112362   2.793   1.489   0.622
 3821SOL    HW212363   2.740   1.352   0.694
 3822SOL     OW12364   1.395   6.847   2.583
 3822SOL    HW112365   1.444   6.917   2.531
 3822SOL    HW212366   1.452   6.816   2.659
 3823SOL     OW12367   3.131   2.842   6.260
 3823SOL    HW112368   3.147   2.747   6.288
 3823SOL    HW212369   3.034   2.855   6.240
 3824SOL     OW12370   5.796   2.360   0.598
 3824SOL    HW112371   5.701   2.333   0.585
 3824SOL    HW212372   5.843   2.361   0.510
 3825SOL     OW12373   0.747   6.207   0.685
 3825SOL    HW112374   0.665   6.221   0.630
 3825SOL    HW212375   0.767   6.109   0.690
 3826SOL     OW12376   0.632   2.638   6.860
 3826SOL    HW112377   0.648   2.722   6.911
 3826SOL    HW212378   0.552   2.591   6.898
 3827SOL     OW12379   2.735   2.531   1.133
 3827SOL    HW112380   2.712   2.561   1.040
 3827SOL    HW212381   2.798   2.453   1.128
 3828SOL     OW12382   3.711   2.527   1.751
 3828SOL    HW112383   3.696   2.438   1.794
 3828SOL    HW212384   3.809   2.548   1.750
 3829SOL     OW12385   2.017   4.601   4.536
 3829SOL    HW112386   2.020   4.649   4.623
 3829SOL    HW212387   1.977   4.510   4.549
 3830SOL     OW12388   0.608   0.263   4.430
 3830SOL    HW112389   0.571   0.226   4.515
 3830SOL    HW212390   0.695   0.309   4.449
 3831SOL     OW12391   4.078   2.192   2.504
 3831SOL    HW112392   3.996   2.148   2.542
 3831SOL    HW212393   4.069   2.199   2.405
 3832SOL     OW12394   5.724   0.837   3.053
 3832SOL    HW112395   5.668   0.858   2.973
 3832SOL    HW212396   5.817   0.870   3.037
 3833SOL     OW12397   0.562   5.708   6.164
 3833SOL    HW112398   0.565   5.808   6.157
 3833SOL    HW212399   0.646   5.669   6.126
 3834SOL     OW12400   4.365   3.411   1.716
 3834SOL    HW112401   4.462   3.386   1.712
 3834SOL    HW212402   4.319   3.354   1.784
 3835SOL     OW12403   3.143   5.484   5.245
 3835SOL    HW112404   3.232   5.526   5.263
 3835SOL    HW212405   3.070   5.551   5.259
 3836SOL     OW12406   1.818   4.023   5.636
 3836SOL    HW112407   1.863   4.113   5.629
 3836SOL    HW212408   1.870   3.965   5.699
 3837SOL     OW12409   4.972   4.166   6.962
 3837SOL    HW112410   4.954   4.247   7.018
 3837SOL    HW212411   4.915   4.090   6.994
 3838SOL     OW12412   0.259   3.172   4.933
 3838SOL    HW112413   0.339   3.230   4.921
 3838SOL    HW212414   0.177   3.221   4.904
 3839SOL     OW12415   4.015   0.909   4.100
 3839SOL    HW112416   3.972   0.912   4.190
 3839SOL    HW212417   3.953   0.951   4.033
 3840SOL     OW12418   1.888   1.576   5.469
 3840SOL    HW112419   1.977   1.616   5.449
 3840SOL    HW212420   1.821   1.649   5.482
 3841SOL     OW12421   0.098   3.163   5.439
 3841SOL    HW112422   0.044   3.084   5.470
 3841SOL    HW212423   0.151   3.198   5.516
 3842SOL     OW12424   0.951   4.020   6.680
 3842SOL    HW112425   0.978   4.115   6.694
 3842SOL    HW212426   0.857   4.017   6.645
 3843SOL     OW12427   6.897   4.467   2.489
 3843SOL    HW112428   6.933   4.555   2.458
 3843SOL    HW212429   6.973   4.409   2.519
 3844SOL     OW12430   0.114   3.085   6.370
 3844SOL    HW112431   0.197   3.048   6.411
 3844SOL    HW212432   0.043   3.092   6.440
 3845SOL     OW12433   3.805   2.965   3.094
 3845SOL    HW112434   3.892   3.013   3.102
 3845SOL    HW212435   3.791   2.907   3.174
 3846SOL     OW12436   1.429   4.892   3.919
 3846SOL    HW112437   1.405   4.802   3.885
 3846SOL    HW212438   1.509   4.926   3.870
 3847SOL     OW12439   6.229   0.589   4.638
 3847SOL    HW112440   6.226   0.688   4.620
 3847SOL    HW212441   6.171   0.568   4.717
 3848SOL     OW12442   3.236   5.682   2.613
 3848SOL    HW112443   3.288   5.682   2.698
 3848SOL    HW212444   3.280   5.744   2.548
 3849SOL     OW12445   0.914   1.463   4.861
 3849SOL    HW112446   0.827   1.486   4.904
 3849SOL    HW212447   0.915   1.496   4.767
 3850SOL     OW12448   2.564   3.512   1.318
 3850SOL    HW112449   2.628   3.455   1.266
 3850SOL    HW212450   2.586   3.509   1.415
 3851SOL     OW12451   1.559   4.554   2.824
 3851SOL    HW112452   1.524   4.464   2.850
 3851SOL    HW212453   1.514   4.585   2.740
 3852SOL     OW12454   4.468   6.524   4.004
 3852SOL    HW112455   4.426   6.594   3.946
 3852SOL    HW212456   4.464   6.554   4.099
 3853SOL     OW12457   1.474   2.777   3.010
 3853SOL    HW112458   1.485   2.857   2.951
 3853SOL    HW212459   1.564   2.747   3.042
 3854SOL     OW12460   1.356   3.155   2.600
 3854SOL    HW112461   1.318   3.196   2.517
 3854SOL    HW212462   1.438   3.204   2.628
 3855SOL     OW12463   5.002   6.022   6.383
 3855SOL    HW112464   5.027   6.096   6.445
 3855SOL    HW212465   5.027   5.934   6.424
 3856SOL     OW12466   6.336   6.258   5.629
 3856SOL    HW112467   6.349   6.165   5.662
 3856SOL    HW212468   6.336   6.259   5.529
 3857SOL     OW12469   1.073   5.897   6.206
 3857SOL    HW112470   1.169   5.896   6.232
 3857SOL    HW212471   1.065   5.896   6.106
 3858SOL     OW12472   1.259   6.047   5.352
 3858SOL    HW112473   1.306   6.041   5.264
 3858SOL    HW212474   1.172   6.095   5.339
 3859SOL     OW12475   6.826   2.234   3.193
 3859SOL    HW112476   6.909   2.203   3.239
 3859SOL    HW212477   6.783   2.157   3.146
 3860SOL     OW12478   1.323   0.732   5.422
 3860SOL    HW112479   1.343   0.634   5.431
 3860SOL    HW212480   1.264   0.761   5.497
 3861SOL     OW12481   5.321   4.691   1.698
 3861SOL    HW112482   5.402   4.638   1.670
 3861SOL    HW212483   5.323   4.780   1.653
 3862SOL     OW12484   0.294   6.818   4.987
 3862SOL    HW112485   0.314   6.722   5.007
 3862SOL    HW212486   0.318   6.838   4.892
 3863SOL     OW12487   4.314   2.910   6.427
 3863SOL    HW112488   4.280   3.000   6.400
 3863SOL    HW212489   4.389   2.922   6.492
 3864SOL     OW12490   3.344   1.309   5.193
 3864SOL    HW112491   3.329   1.394   5.244
 3864SOL    HW212492   3.255   1.267   5.173
 3865SOL     OW12493   3.681   6.958   0.664
 3865SOL    HW112494   3.669   6.999   0.754
 3865SOL    HW212495   3.646   0.001   0.593
 3866SOL     OW12496   3.919   0.972   1.066
 3866SOL    HW112497   3.974   1.032   1.008
 3866SOL    HW212498   3.859   0.916   1.008
 3867SOL     OW12499   2.112   3.493   3.606
 3867SOL    HW112500   2.040   3.432   3.638
 3867SOL    HW212501   2.158   3.452   3.527
 3868SOL     OW12502   3.016   6.469   1.061
 3868SOL    HW112503   2.974   6.544   1.113
 3868SOL    HW212504   2.948   6.398   1.045
 3869SOL     OW12505   7.016   3.061   4.578
 3869SOL    HW112506   6.973   3.140   4.534
 3869SOL    HW212507   6.964   2.979   4.556
 3870SOL     OW12508   4.969   5.294   0.827
 3870SOL    HW112509   4.898   5.352   0.787
 3870SOL    HW212510   4.945   5.198   0.814
 3871SOL     OW12511   3.940   0.454   2.794
 3871SOL    HW112512   3.910   0.549   2.786
 3871SOL    HW212513   4.030   0.444   2.752
 3872SOL     OW12514   3.213   2.869   2.124
 3872SOL    HW112515   3.213   2.931   2.202
 3872SOL    HW212516   3.131   2.811   2.127
 3873SOL     OW12517   6.697   5.783   1.251
 3873SOL    HW112518   6.695   5.734   1.165
 3873SOL    HW212519   6.748   5.869   1.240
 3874SOL     OW12520   4.119   5.908   6.969
 3874SOL    HW112521   4.057   5.865   6.903
 3874SOL    HW212522   4.087   5.889   0.043
 3875SOL     OW12523   1.076   2.775   2.297
 3875SOL    HW112524   1.070   2.709   2.221
 3875SOL    HW212525   1.090   2.867   2.259
 3876SOL     OW12526   6.279   5.261   0.013
 3876SOL    HW112527   6.376   5.285   0.013
 3876SOL    HW212528   6.233   5.309   0.087
 3877SOL     OW12529   0.172   2.248   0.015
 3877SOL    HW112530   0.073   2.240   0.032
 3877SOL    HW212531   0.219   2.170   0.056
 3878SOL     OW12532   2.024   6.138   5.322
 3878SOL    HW112533   2.060   6.049   5.350
 3878SOL    HW212534   2.093   6.209   5.339
 3879SOL     OW12535   4.461   6.909   1.169
 3879SOL    HW112536   4.459   6.989   1.229
 3879SOL    HW212537   4.552   6.868   1.171
 3880SOL     OW12538   5.723   4.083   3.531
 3880SOL    HW112539   5.804   4.053   3.581
 3880SOL    HW212540   5.658   4.125   3.595
 3881SOL     OW12541   1.180   5.165   0.464
 3881SOL    HW112542   1.178   5.201   0.557
 3881SOL    HW212543   1.250   5.093   0.459
 3882SOL     OW12544   6.247   1.412   5.086
 3882SOL    HW112545   6.252   1.509   5.111
 3882SOL    HW212546   6.297   1.397   5.001
 3883SOL     OW12547   4.260   1.297   3.387
 3883SOL    HW112548   4.356   1.323   3.374
 3883SOL    HW212549   4.241   1.214   3.335
 3884SOL     OW12550   1.458   5.489   4.075
 3884SOL    HW112551   1.497   5.578   4.053
 3884SOL    HW212552   1.510   5.446   4.149
 3885SOL     OW12553   6.329   1.446   4.627
 3885SOL    HW112554   6.330   1.545   4.623
 3885SOL    HW212555   6.269   1.409   4.556
 3886SOL     OW12556   6.259   6.955   4.939
 3886SOL    HW112557   6.303   6.887   4.998
 3886SOL    HW212558   6.326   6.994   4.876
 3887SOL     OW12559   5.263   1.603   5.773
 3887SOL    HW112560   5.300   1.684   5.728
 3887SOL    HW212561   5.174   1.581   5.733
 3888SOL     OW12562   0.789   0.474   6.612
 3888SOL    HW112563   0.813   0.464   6.516
 3888SOL    HW212564   0.704   0.424   6.631
 3889SOL     OW12565   0.064   3.319   6.200
 3889SOL    HW112566   0.062   3.235   6.254
 3889SOL    HW212567   0.123   3.306   6.120
 3890SOL     OW12568   6.226   6.893   3.251
 3890SOL    HW112569   6.280   6.886   3.167
 3890SOL    HW212570   6.137   6.934   3.230
 3891SOL     OW12571   5.023   4.529   4.663
 3891SOL    HW112572   5.054   4.477   4.742
 3891SOL    HW212573   5.100   4.546   4.601
 3892SOL     OW12574   0.637   0.448   2.125
 3892SOL    HW112575   0.662   0.422   2.032
 3892SOL    HW212576   0.669   0.541   2.144
 3893SOL     OW12577   3.094   5.524   2.202
 3893SOL    HW112578   3.000   5.498   2.183
 3893SOL    HW212579   3.116   5.506   2.298
 3894SOL     OW12580   3.606   2.537   1.086
 3894SOL    HW112581   3.513   2.572   1.070
 3894SOL    HW212582   3.602   2.462   1.152
 3895SOL     OW12583   1.021   1.061   5.610
 3895SOL    HW112584   0.967   1.055   5.694
 3895SOL    HW212585   0.987   1.136   5.554
 3896SOL     OW12586   0.702   2.369   5.961
 3896SOL    HW112587   0.694   2.270   5.973
 3896SOL    HW212588   0.777   2.389   5.898
 3897SOL     OW12589   2.908   6.845   1.889
 3897SOL    HW112590   2.950   6.795   1.965
 3897SOL    HW212591   2.980   6.883   1.831
 3898SOL     OW12592   3.722   2.884   3.355
 3898SOL    HW112593   3.690   2.865   3.448
 3898SOL    HW212594   3.789   2.959   3.357
 3899SOL     OW12595   4.869   1.363   4.403
 3899SOL    HW112596   4.812   1.286   4.372
 3899SOL    HW212597   4.956   1.361   4.353
 3900SOL     OW12598   5.671   3.278   3.917
 3900SOL    HW112599   5.583   3.236   3.897
 3900SOL    HW212600   5.661   3.345   3.991
 3901SOL     OW12601   2.110   6.331   6.145
 3901SOL    HW112602   2.153   6.361   6.060
 3901SOL    HW212603   2.010   6.329   6.133
 3902SOL     OW12604   4.628   4.489   2.268
 3902SOL    HW112605   4.623   4.439   2.354
 3902SOL    HW212606   4.582   4.438   2.196
 3903SOL     OW12607   3.902   4.119   6.741
 3903SOL    HW112608   3.879   4.030   6.780
 3903SOL    HW212609   3.929   4.182   6.814
 3904SOL     OW12610   1.065   0.535   6.619
 3904SOL    HW112611   0.966   0.542   6.630
 3904SOL    HW212612   1.109   0.620   6.650
 3905SOL     OW12613   6.356   6.938   6.512
 3905SOL    HW112614   6.394   0.010   6.528
 3905SOL    HW212615   6.376   6.879   6.591
 3906SOL     OW12616   2.147   4.938   5.002
 3906SOL    HW112617   2.194   5.014   5.046
 3906SOL    HW212618   2.055   4.929   5.040
 3907SOL     OW12619   0.484   1.452   4.775
 3907SOL    HW112620   0.538   1.382   4.728
 3907SOL    HW212621   0.415   1.408   4.833
 3908SOL     OW12622   0.354   0.993   6.664
 3908SOL    HW112623   0.369   0.910   6.610
 3908SOL    HW212624   0.353   1.072   6.603
 3909SOL     OW12625   5.586   4.246   6.235
 3909SOL    HW112626   5.572   4.151   6.264
 3909SOL    HW212627   5.683   4.262   6.219
 3910SOL     OW12628   3.778   4.039   2.113
 3910SOL    HW112629   3.683   4.008   2.121
 3910SOL    HW212630   3.794   4.076   2.022
 3911SOL     OW12631   5.328   1.183   0.710
 3911SOL    HW112632   5.239   1.181   0.666
 3911SOL    HW212633   5.321   1.232   0.797
 3912SOL     OW12634   3.537   0.619   6.153
 3912SOL    HW112635   3.510   0.635   6.058
 3912SOL    HW212636   3.520   0.702   6.206
 3913SOL     OW12637   3.942   5.735   6.811
 3913SOL    HW112638   3.872   5.804   6.793
 3913SOL    HW212639   3.910   5.673   6.883
 3914SOL     OW12640   5.137   1.022   2.000
 3914SOL    HW112641   5.232   0.993   1.987
 3914SOL    HW212642   5.134   1.097   2.067
 3915SOL     OW12643   3.899   6.394   6.995
 3915SOL    HW112644   3.947   6.474   6.961
 3915SOL    HW212645   3.956   6.346   0.042
 3916SOL     OW12646   2.484   6.834   2.982
 3916SOL    HW112647   2.554   6.836   2.911
 3916SOL    HW212648   2.397   6.865   2.943
 3917SOL     OW12649   3.029   4.921   6.985
 3917SOL    HW112650   2.947   4.978   6.984
 3917SOL    HW212651   3.104   4.972   0.009
 3918SOL     OW12652   4.378   0.826   0.589
 3918SOL    HW112653   4.328   0.887   0.528
 3918SOL    HW212654   4.357   0.731   0.567
 3919SOL     OW12655   4.144   0.451   0.652
 3919SOL    HW112656   4.234   0.481   0.621
 3919SOL    HW212657   4.125   0.489   0.742
 3920SOL     OW12658   2.258   0.900   6.589
 3920SOL    HW112659   2.239   0.908   6.687
 3920SOL    HW212660   2.343   0.849   6.575
 3921SOL     OW12661   0.044   2.679   6.970
 3921SOL    HW112662   0.099   2.738   6.911
 3921SOL    HW212663   6.967   2.709   6.966
 3922SOL     OW12664   5.014   5.341   1.380
 3922SOL    HW112665   5.008   5.288   1.464
 3922SOL    HW212666   4.924   5.346   1.336
 3923SOL     OW12667   5.661   1.684   1.509
 3923SOL    HW112668   5.597   1.670   1.434
 3923SOL    HW212669   5.611   1.676   1.596
 3924SOL     OW12670   0.757   4.360   3.184
 3924SOL    HW112671   0.678   4.342   3.126
 3924SOL    HW212672   0.819   4.424   3.138
 3925SOL     OW12673   4.642   4.637   1.464
 3925SOL    HW112674   4.638   4.576   1.543
 3925SOL    HW212675   4.590   4.596   1.389
 3926SOL     OW12676   0.872   6.994   5.620
 3926SOL    HW112677   0.782   6.974   5.659
 3926SOL    HW212678   0.928   6.911   5.623
 3927SOL     OW12679   0.854   2.982   3.670
 3927SOL    HW112680   0.947   2.998   3.704
 3927SOL    HW212681   0.789   2.989   3.746
 3928SOL     OW12682   2.422   6.589   2.462
 3928SOL    HW112683   2.417   6.650   2.383
 3928SOL    HW212684   2.481   6.510   2.440
 3929SOL     OW12685   0.137   1.033   0.068
 3929SOL    HW112686   0.052   0.998   0.109
 3929SOL    HW212687   0.181   1.096   0.132
 3930SOL     OW12688   1.383   2.139   4.250
 3930SOL    HW112689   1.389   2.218   4.188
 3930SOL    HW212690   1.437   2.063   4.212
 3931SOL     OW12691   2.008   2.101   1.946
 3931SOL    HW112692   2.072   2.032   1.980
 3931SOL    HW212693   2.044   2.192   1.966
 3932SOL     OW12694   2.540   5.204   3.795
 3932SOL    HW112695   2.450   5.219   3.755
 3932SOL    HW212696   2.599   5.158   3.728
 3933SOL     OW12697   0.973   6.404   0.275
 3933SOL    HW112698   1.061   6.452   0.279
 3933SOL    HW212699   0.989   6.305   0.274
 3934SOL     OW12700   0.423   1.706   2.943
 3934SOL    HW112701   0.352   1.658   2.891
 3934SOL    HW212702   0.399   1.704   3.040
 3935SOL     OW12703   6.604   2.421   6.287
 3935SOL    HW112704   6.642   2.434   6.195
 3935SOL    HW212705   6.646   2.342   6.330
 3936SOL     OW12706   6.387   5.996   5.673
 3936SOL    HW112707   6.458   5.935   5.638
 3936SOL    HW212708   6.301   5.945   5.682
 3937SOL     OW12709   0.912   6.037   2.607
 3937SOL    HW112710   0.840   5.972   2.633
 3937SOL    HW212711   0.998   6.011   2.652
 3938SOL     OW12712   6.988   3.300   4.378
 3938SOL    HW112713   6.978   3.386   4.329
 3938SOL    HW212714   6.949   3.225   4.324
 3939SOL     OW12715   2.039   1.258   3.780
 3939SOL    HW112716   2.087   1.299   3.702
 3939SOL    HW212717   2.089   1.178   3.812
 3940SOL     OW12718   3.103   4.894   1.945
 3940SOL    HW112719   3.014   4.850   1.941
 3940SOL    HW212720   3.175   4.824   1.939
 3941SOL     OW12721   5.756   6.831   3.947
 3941SOL    HW112722   5.786   6.910   3.895
 3941SOL    HW212723   5.833   6.769   3.962
 3942SOL     OW12724   0.983   6.094   5.652
 3942SOL    HW112725   0.969   6.150   5.733
 3942SOL    HW212726   0.907   6.030   5.642
 3943SOL     OW12727   1.191   3.696   1.765
 3943SOL    HW112728   1.188   3.796   1.771
 3943SOL    HW212729   1.187   3.656   1.856
 3944SOL     OW12730   5.473   3.115   5.946
 3944SOL    HW112731   5.501   3.191   6.005
 3944SOL    HW212732   5.543   3.043   5.949
 3945SOL     OW12733   1.086   2.464   3.299
 3945SOL    HW112734   1.090   2.509   3.388
 3945SOL    HW212735   1.178   2.436   3.271
 3946SOL     OW12736   6.957   3.720   6.596
 3946SOL    HW112737   6.889   3.708   6.668
 3946SOL    HW212738   6.950   3.644   6.531
 3947SOL     OW12739   5.996   5.258   0.155
 3947SOL    HW112740   5.952   5.347   0.161
 3947SOL    HW212741   6.051   5.242   0.237
 3948SOL     OW12742   1.682   3.212   6.965
 3948SOL    HW112743   1.702   3.233   6.870
 3948SOL    HW212744   1.646   3.120   6.973
 3949SOL     OW12745   6.518   0.129   3.151
 3949SOL    HW112746   6.576   0.049   3.164
 3949SOL    HW212747   6.493   0.167   3.240
 3950SOL     OW12748   4.280   4.148   1.659
 3950SOL    HW112749   4.245   4.067   1.706
 3950SOL    HW212750   4.369   4.173   1.697
 3951SOL     OW12751   0.622   2.124   6.463
 3951SOL    HW112752   0.615   2.183   6.383
 3951SOL    HW212753   0.559   2.156   6.534
 3952SOL     OW12754   5.935   2.662   3.797
 3952SOL    HW112755   5.882   2.586   3.757
 3952SOL    HW212756   5.941   2.736   3.731
 3953SOL     OW12757   3.124   4.715   5.802
 3953SOL    HW112758   3.177   4.794   5.772
 3953SOL    HW212759   3.054   4.745   5.867
 3954SOL     OW12760   6.444   4.439   5.872
 3954SOL    HW112761   6.484   4.504   5.807
 3954SOL    HW212762   6.344   4.440   5.863
 3955SOL     OW12763   4.811   6.473   0.192
 3955SOL    HW112764   4.737   6.441   0.133
 3955SOL    HW212765   4.773   6.509   0.278
 3956SOL     OW12766   0.974   2.839   5.634
 3956SOL    HW112767   0.911   2.762   5.624
 3956SOL    HW212768   1.064   2.805   5.662
 3957SOL     OW12769   3.454   6.410   4.132
 3957SOL    HW112770   3.463   6.320   4.090
 3957SOL    HW212771   3.542   6.439   4.170
 3958SOL     OW12772   5.531   6.683   0.186
 3958SOL    HW112773   5.609   6.720   0.236
 3958SOL    HW212774   5.480   6.621   0.246
 3959SOL     OW12775   3.495   5.996   1.371
 3959SOL    HW112776   3.533   6.087   1.359
 3959SOL    HW212777   3.542   5.950   1.446
 3960SOL     OW12778   4.814   2.802   6.688
 3960SOL    HW112779   4.847   2.726   6.744
 3960SOL    HW212780   4.760   2.864   6.744
 3961SOL     OW12781   5.067   1.922   1.950
 3961SOL    HW112782   5.032   2.000   1.898
 3961SOL    HW212783   4.991   1.865   1.979
 3962SOL     OW12784   0.830   6.126   6.776
 3962SOL    HW112785   0.916   6.100   6.733
 3962SOL    HW212786   0.844   6.136   6.875
 3963SOL     OW12787   5.786   5.534   3.113
 3963SOL    HW112788   5.812   5.539   3.209
 3963SOL    HW212789   5.843   5.466   3.067
 3964SOL     OW12790   4.212   5.894   5.095
 3964SOL    HW112791   4.292   5.884   5.153
 3964SOL    HW212792   4.198   5.811   5.041
 3965SOL     OW12793   3.497   4.589   6.282
 3965SOL    HW112794   3.479   4.518   6.349
 3965SOL    HW212795   3.485   4.552   6.190
 3966SOL     OW12796   6.602   4.862   6.575
 3966SOL    HW112797   6.550   4.806   6.639
 3966SOL    HW212798   6.577   4.958   6.587
 3967SOL     OW12799   0.773   4.911   3.931
 3967SOL    HW112800   0.746   4.956   3.846
 3967SOL    HW212801   0.824   4.975   3.988
 3968SOL     OW12802   5.340   0.331   2.874
 3968SOL    HW112803   5.361   0.364   2.966
 3968SOL    HW212804   5.308   0.236   2.879
 3969SOL     OW12805   1.121   4.552   2.833
 3969SOL    HW112806   1.112   4.636   2.780
 3969SOL    HW212807   1.125   4.474   2.771
 3970SOL     OW12808   4.621   4.959   3.674
 3970SOL    HW112809   4.661   4.870   3.654
 3970SOL    HW212810   4.643   5.023   3.601
 3971SOL     OW12811   2.949   5.587   3.018
 3971SOL    HW112812   2.952   5.626   2.926
 3971SOL    HW212813   2.854   5.566   3.043
 3972SOL     OW12814   0.103   5.992   0.804
 3972SOL    HW112815   0.029   6.013   0.740
 3972SOL    HW212816   0.107   5.894   0.819
 3973SOL     OW12817   3.083   3.166   5.494
 3973SOL    HW112818   3.096   3.260   5.462
 3973SOL    HW212819   3.033   3.113   5.425
 3974SOL     OW12820   0.712   1.097   6.421
 3974SOL    HW112821   0.773   1.049   6.484
 3974SOL    HW212822   0.753   1.185   6.396
 3975SOL     OW12823   6.523   0.465   5.754
 3975SOL    HW112824   6.552   0.547   5.705
 3975SOL    HW212825   6.460   0.490   5.827
 3976SOL     OW12826   1.078   4.794   1.552
 3976SOL    HW112827   0.980   4.815   1.547
 3976SOL    HW212828   1.090   4.698   1.576
 3977SOL     OW12829   2.734   5.690   6.257
 3977SOL    HW112830   2.762   5.651   6.169
 3977SOL    HW212831   2.790   5.770   6.277
 3978SOL     OW12832   5.505   1.200   5.212
 3978SOL    HW112833   5.462   1.236   5.129
 3978SOL    HW212834   5.602   1.182   5.195
 3979SOL     OW12835   1.691   0.162   1.610
 3979SOL    HW112836   1.604   0.145   1.656
 3979SOL    HW212837   1.708   0.089   1.543
 3980SOL     OW12838   6.207   3.653   5.231
 3980SOL    HW112839   6.238   3.693   5.318
 3980SOL    HW212840   6.285   3.614   5.183
 3981SOL     OW12841   0.100   1.731   6.052
 3981SOL    HW112842   0.109   1.795   5.976
 3981SOL    HW212843   0.006   1.733   6.087
 3982SOL     OW12844   2.558   0.885   4.982
 3982SOL    HW112845   2.574   0.893   5.081
 3982SOL    HW212846   2.471   0.928   4.959
 3983SOL     OW12847   3.428   6.152   4.508
 3983SOL    HW112848   3.498   6.153   4.580
 3983SOL    HW212849   3.371   6.233   4.516
 3984SOL     OW12850   1.701   0.483   1.565
 3984SOL    HW112851   1.618   0.430   1.584
 3984SOL    HW212852   1.775   0.420   1.538
 3985SOL     OW12853   2.055   3.893   0.058
 3985SOL    HW112854   2.077   3.831   0.133
 3985SOL    HW212855   2.062   3.988   0.090
 3986SOL     OW12856   0.009   1.814   2.738
 3986SOL    HW112857   6.949   1.868   2.708
 3986SOL    HW212858   0.092   1.868   2.727
 3987SOL     OW12859   1.775   5.545   4.968
 3987SOL    HW112860   1.850   5.486   4.999
 3987SOL    HW212861   1.715   5.493   4.907
 3988SOL     OW12862   3.547   1.728   5.759
 3988SOL    HW112863   3.510   1.652   5.706
 3988SOL    HW212864   3.621   1.772   5.708
 3989SOL     OW12865   5.966   0.344   5.970
 3989SOL    HW112866   5.986   0.339   5.872
 3989SOL    HW212867   5.992   0.259   6.014
 3990SOL     OW12868   5.662   2.769   4.865
 3990SOL    HW112869   5.747   2.740   4.911
 3990SOL    HW212870   5.665   2.867   4.847
 3991SOL     OW12871   6.950   2.461   3.332
 3991SOL    HW112872   0.001   2.532   3.325
 3991SOL    HW212873   6.918   2.437   3.241
 3992SOL     OW12874   4.316   3.008   6.920
 3992SOL    HW112875   4.358   3.049   6.840
 3992SOL    HW212876   4.238   3.064   6.949
 3993SOL     OW12877   2.694   1.988   3.084
 3993SOL    HW112878   2.634   1.943   3.018
 3993SOL    HW212879   2.640   2.027   3.158
 3994SOL     OW12880   2.231   2.764   5.123
 3994SOL    HW112881   2.146   2.806   5.154
 3994SOL    HW212882   2.291   2.835   5.085
 3995SOL     OW12883   2.466   4.447   3.570
 3995SOL    HW112884   2.458   4.411   3.476
 3995SOL    HW212885   2.536   4.518   3.572
 3996SOL     OW12886   2.045   1.221   4.834
 3996SOL    HW112887   2.054   1.269   4.921
 3996SOL    HW212888   1.959   1.171   4.832
 3997SOL     OW12889   4.955   3.746   3.341
 3997SOL    HW112890   5.053   3.759   3.332
 3997SOL    HW212891   4.908   3.834   3.333
 3998SOL     OW12892   5.748   2.186   2.034
 3998SOL    HW112893   5.834   2.228   2.063
 3998SOL    HW212894   5.766   2.121   1.960
 3999SOL     OW12895   6.401   3.904   3.404
 3999SOL    HW112896   6.431   3.904   3.500
 3999SOL    HW212897   6.312   3.950   3.397
 4000SOL     OW12898   3.251   5.610   2.895
 4000SOL    HW112899   3.235   5.529   2.951
 4000SOL    HW212900   3.190   5.684   2.925
 4001SOL     OW12901   2.885   3.840   5.439
 4001SOL    HW112902   2.874   3.741   5.454
 4001SOL    HW212903   2.822   3.870   5.367
 4002SOL     OW12904   3.578   3.281   4.732
 4002SOL    HW112905   3.585   3.246   4.638
 4002SOL    HW212906   3.642   3.357   4.744
 4003SOL     OW12907   2.188   1.273   6.515
 4003SOL    HW112908   2.150   1.192   6.471
 4003SOL    HW212909   2.152   1.280   6.608
 4004SOL     OW12910   6.516   3.393   4.309
 4004SOL    HW112911   6.572   3.459   4.259
 4004SOL    HW212912   6.573   3.346   4.376
 4005SOL     OW12913   5.006   4.939   1.315
 4005SOL    HW112914   4.955   4.983   1.240
 4005SOL    HW212915   4.948   4.872   1.360
 4006SOL     OW12916   5.752   4.833   2.231
 4006SOL    HW112917   5.802   4.871   2.309
 4006SOL    HW212918   5.772   4.736   2.223
 4007SOL     OW12919   0.597   2.412   2.767
 4007SOL    HW112920   0.520   2.446   2.822
 4007SOL    HW212921   0.607   2.313   2.783
 4008SOL     OW12922   3.123   0.948   6.187
 4008SOL    HW112923   3.058   0.907   6.123
 4008SOL    HW212924   3.138   0.887   6.264
 4009SOL     OW12925   4.395   1.972   1.424
 4009SOL    HW112926   4.462   1.964   1.498
 4009SOL    HW212927   4.435   1.938   1.339
 4010SOL     OW12928   3.043   3.562   1.678
 4010SOL    HW112929   2.994   3.498   1.619
 4010SOL    HW212930   3.129   3.521   1.708
 4011SOL     OW12931   0.096   6.633   1.946
 4011SOL    HW112932   0.020   6.689   1.912
 4011SOL    HW212933   0.133   6.675   2.029
 4012SOL     OW12934   4.227   6.588   2.453
 4012SOL    HW112935   4.323   6.613   2.439
 4012SOL    HW212936   4.221   6.491   2.477
 4013SOL     OW12937   2.397   0.630   1.060
 4013SOL    HW112938   2.438   0.545   1.092
 4013SOL    HW212939   2.396   0.631   0.960
 4014SOL     OW12940   3.553   5.543   3.940
 4014SOL    HW112941   3.461   5.564   3.972
 4014SOL    HW212942   3.548   5.474   3.867
 4015SOL     OW12943   5.129   4.828   6.793
 4015SOL    HW112944   5.112   4.925   6.811
 4015SOL    HW212945   5.226   4.813   6.777
 4016SOL     OW12946   2.796   5.921   6.808
 4016SOL    HW112947   2.737   5.940   6.729
 4016SOL    HW212948   2.741   5.924   6.892
 4017SOL     OW12949   0.747   6.056   5.891
 4017SOL    HW112950   0.839   6.064   5.930
 4017SOL    HW212951   0.751   5.998   5.809
 4018SOL     OW12952   4.757   6.380   1.709
 4018SOL    HW112953   4.786   6.400   1.615
 4018SOL    HW212954   4.661   6.405   1.720
 4019SOL     OW12955   6.164   4.303   2.899
 4019SOL    HW112956   6.155   4.397   2.930
 4019SOL    HW212957   6.079   4.253   2.917
 4020SOL     OW12958   6.539   3.160   5.676
 4020SOL    HW112959   6.624   3.198   5.641
 4020SOL    HW212960   6.486   3.121   5.600
 4021SOL     OW12961   3.662   4.040   5.251
 4021SOL    HW112962   3.660   4.108   5.179
 4021SOL    HW212963   3.708   4.077   5.331
 4022SOL     OW12964   3.866   6.740   6.623
 4022SOL    HW112965   3.776   6.696   6.619
 4022SOL    HW212966   3.855   6.838   6.637
 4023SOL     OW12967   0.171   0.275   5.018
 4023SOL    HW112968   0.243   0.206   5.007
 4023SOL    HW212969   0.092   0.249   4.962
 4024SOL     OW12970   2.413   5.128   4.153
 4024SOL    HW112971   2.354   5.067   4.100
 4024SOL    HW212972   2.484   5.166   4.094
 4025SOL     OW12973   0.709   6.127   4.026
 4025SOL    HW112974   0.697   6.214   4.073
 4025SOL    HW212975   0.631   6.068   4.044
 4026SOL     OW12976   6.027   6.812   3.759
 4026SOL    HW112977   5.968   6.825   3.680
 4026SOL    HW212978   5.992   6.736   3.815
 4027SOL     OW12979   2.939   2.327   0.425
 4027SOL    HW112980   2.848   2.293   0.402
 4027SOL    HW212981   2.963   2.403   0.365
 4028SOL     OW12982   3.966   1.673   3.782
 4028SOL    HW112983   3.938   1.735   3.709
 4028SOL    HW212984   3.978   1.581   3.744
 4029SOL     OW12985   2.874   4.758   5.877
 4029SOL    HW112986   2.806   4.686   5.892
 4029SOL    HW212987   2.870   4.788   5.782
 4030SOL     OW12988   6.545   1.511   2.119
 4030SOL    HW112989   6.527   1.420   2.080
 4030SOL    HW212990   6.624   1.552   2.073
 4031SOL     OW12991   5.473   5.560   3.434
 4031SOL    HW112992   5.482   5.615   3.517
 4031SOL    HW212993   5.416   5.607   3.368
 4032SOL     OW12994   6.884   0.099   1.665
 4032SOL    HW112995   6.948   0.168   1.697
 4032SOL    HW212996   6.808   0.142   1.616
 4033SOL     OW12997   2.281   3.083   1.433
 4033SOL    HW112998   2.225   3.166   1.437
 4033SOL    HW212999   2.345   3.083   1.511
 4034SOL     OW13000   6.239   1.678   5.107
 4034SOL    HW113001   6.276   1.742   5.040
 4034SOL    HW213002   6.285   1.690   5.195
 4035SOL     OW13003   6.218   1.873   1.018
 4035SOL    HW113004   6.133   1.923   1.002
 4035SOL    HW213005   6.217   1.834   1.111
 4036SOL     OW13006   3.982   5.246   2.016
 4036SOL    HW113007   3.909   5.313   2.020
 4036SOL    HW213008   3.971   5.180   2.091
 4037SOL     OW13009   2.094   1.823   6.870
 4037SOL    HW113010   2.179   1.873   6.889
 4037SOL    HW213011   2.035   1.826   6.951
 4038SOL     OW13012   4.505   2.584   1.570
 4038SOL    HW113013   4.564   2.657   1.534
 4038SOL    HW213014   4.437   2.559   1.501
 4039SOL     OW13015   5.852   5.873   1.151
 4039SOL    HW113016   5.947   5.902   1.162
 4039SOL    HW213017   5.792   5.940   1.194
 4040SOL     OW13018   3.332   6.966   5.322
 4040SOL    HW113019   3.342   6.869   5.344
 4040SOL    HW213020   3.420   7.012   5.337
 4041SOL     OW13021   0.952   5.478   1.244
 4041SOL    HW113022   0.992   5.440   1.160
 4041SOL    HW213023   0.893   5.409   1.286
 4042SOL     OW13024   6.289   5.693   3.605
 4042SOL    HW113025   6.298   5.597   3.576
 4042SOL    HW213026   6.253   5.695   3.699
 4043SOL     OW13027   6.613   2.729   5.073
 4043SOL    HW113028   6.603   2.633   5.048
 4043SOL    HW213029   6.710   2.752   5.077
 4044SOL     OW13030   4.387   7.007   3.625
 4044SOL    HW113031   4.423   0.012   3.715
 4044SOL    HW213032   4.287   6.994   3.631
 4045SOL     OW13033   3.895   6.253   5.214
 4045SOL    HW113034   3.848   6.178   5.168
 4045SOL    HW213035   3.928   6.223   5.303
 4046SOL     OW13036   1.600   1.940   4.200
 4046SOL    HW113037   1.665   1.969   4.271
 4046SOL    HW213038   1.621   1.846   4.173
 4047SOL     OW13039   2.239   2.367   0.595
 4047SOL    HW113040   2.154   2.412   0.570
 4047SOL    HW213041   2.236   2.341   0.691
 4048SOL     OW13042   5.241   1.288   1.825
 4048SOL    HW113043   5.171   1.300   1.895
 4048SOL    HW213044   5.202   1.240   1.746
 4049SOL     OW13045   5.513   5.046   6.828
 4049SOL    HW113046   5.568   4.968   6.801
 4049SOL    HW213047   5.443   5.063   6.759
 4050SOL     OW13048   1.029   6.823   1.867
 4050SOL    HW113049   1.000   6.738   1.911
 4050SOL    HW213050   1.118   6.809   1.823
 4051SOL     OW13051   4.175   1.902   6.500
 4051SOL    HW113052   4.248   1.855   6.451
 4051SOL    HW213053   4.091   1.847   6.494
 4052SOL     OW13054   6.691   1.204   2.202
 4052SOL    HW113055   6.725   1.110   2.214
 4052SOL    HW213056   6.720   1.238   2.113
 4053SOL     OW13057   3.156   6.014   3.767
 4053SOL    HW113058   3.147   5.933   3.710
 4053SOL    HW213059   3.069   6.062   3.771
 4054SOL     OW13060   6.369   4.113   1.677
 4054SOL    HW113061   6.405   4.020   1.671
 4054SOL    HW213062   6.424   4.173   1.619
 4055SOL     OW13063   2.887   3.484   0.139
 4055SOL    HW113064   2.849   3.546   0.071
 4055SOL    HW213065   2.824   3.477   0.216
 4056SOL     OW13066   4.803   3.957   0.550
 4056SOL    HW113067   4.801   3.869   0.599
 4056SOL    HW213068   4.754   4.026   0.603
 4057SOL     OW13069   6.802   2.656   1.051
 4057SOL    HW113070   6.818   2.687   0.958
 4057SOL    HW213071   6.770   2.561   1.049
 4058SOL     OW13072   2.032   0.334   4.922
 4058SOL    HW113073   2.106   0.388   4.881
 4058SOL    HW213074   1.952   0.336   4.862
 4059SOL     OW13075   0.640   1.692   2.756
 4059SOL    HW113076   0.668   1.596   2.759
 4059SOL    HW213077   0.569   1.709   2.824
 4060SOL     OW13078   5.158   5.760   4.931
 4060SOL    HW113079   5.119   5.830   4.992
 4060SOL    HW213080   5.145   5.670   4.972
 4061SOL     OW13081   2.741   4.776   2.350
 4061SOL    HW113082   2.838   4.766   2.374
 4061SOL    HW213083   2.685   4.739   2.424
 4062SOL     OW13084   2.166   1.866   1.972
 4062SOL    HW113085   2.137   1.770   1.976
 4062SOL    HW213086   2.204   1.885   1.881
 4063SOL     OW13087   6.239   6.714   6.879
 4063SOL    HW113088   6.256   6.616   6.867
 4063SOL    HW213089   6.141   6.732   6.873
 4064SOL     OW13090   2.448   0.362   3.951
 4064SOL    HW113091   2.524   0.298   3.950
 4064SOL    HW213092   2.387   0.343   3.874
 4065SOL     OW13093   1.287   6.514   1.130
 4065SOL    HW113094   1.191   6.543   1.137
 4065SOL    HW213095   1.298   6.453   1.051
 4066SOL     OW13096   5.723   5.040   3.837
 4066SOL    HW113097   5.659   4.980   3.790
 4066SOL    HW213098   5.680   5.128   3.856
 4067SOL     OW13099   6.641   3.267   2.755
 4067SOL    HW113100   6.568   3.202   2.731
 4067SOL    HW213101   6.626   3.353   2.706
 4068SOL     OW13102   2.075   1.197   4.473
 4068SOL    HW113103   2.113   1.207   4.382
 4068SOL    HW213104   2.140   1.150   4.532
 4069SOL     OW13105   2.291   5.315   6.668
 4069SOL    HW113106   2.367   5.252   6.686
 4069SOL    HW213107   2.229   5.275   6.601
 4070SOL     OW13108   0.654   3.525   1.977
 4070SOL    HW113109   0.673   3.427   1.978
 4070SOL    HW213110   0.610   3.551   2.063
 4071SOL     OW13111   1.566   0.822   5.283
 4071SOL    HW113112   1.560   0.922   5.288
 4071SOL    HW213113   1.483   0.782   5.320
 4072SOL     OW13114   0.474   5.256   4.525
 4072SOL    HW113115   0.521   5.186   4.580
 4072SOL    HW213116   0.542   5.317   4.484
 4073SOL     OW13117   2.408   6.203   6.003
 4073SOL    HW113118   2.450   6.292   5.986
 4073SOL    HW213119   2.418   6.179   6.100
 4074SOL     OW13120   0.216   3.815   1.750
 4074SOL    HW113121   0.176   3.845   1.837
 4074SOL    HW213122   0.279   3.739   1.767
 4075SOL     OW13123   4.153   1.903   2.031
 4075SOL    HW113124   4.063   1.911   2.072
 4075SOL    HW213125   4.193   1.994   2.020
 4076SOL     OW13126   2.553   2.772   5.632
 4076SOL    HW113127   2.512   2.724   5.554
 4076SOL    HW213128   2.557   2.711   5.711
 4077SOL     OW13129   3.177   1.036   0.048
 4077SOL    HW113130   3.250   1.074   7.010
 4077SOL    HW213131   3.126   0.968   7.014
 4078SOL     OW13132   0.718   6.015   1.397
 4078SOL    HW113133   0.814   5.989   1.400
 4078SOL    HW213134   0.691   6.032   1.302
 4079SOL     OW13135   1.256   1.355   3.668
 4079SOL    HW113136   1.322   1.290   3.706
 4079SOL    HW213137   1.292   1.394   3.584
 4080SOL     OW13138   3.390   4.151   6.314
 4080SOL    HW113139   3.358   4.220   6.249
 4080SOL    HW213140   3.369   4.060   6.280
 4081SOL     OW13141   1.963   2.600   4.772
 4081SOL    HW113142   1.963   2.647   4.684
 4081SOL    HW213143   2.055   2.604   4.812
 4082SOL     OW13144   1.304   3.358   0.686
 4082SOL    HW113145   1.321   3.435   0.624
 4082SOL    HW213146   1.391   3.315   0.710
 4083SOL     OW13147   6.728   4.341   2.239
 4083SOL    HW113148   6.812   4.336   2.292
 4083SOL    HW213149   6.684   4.429   2.255
 4084SOL     OW13150   4.916   1.976   3.292
 4084SOL    HW113151   4.942   2.001   3.199
 4084SOL    HW213152   4.867   1.889   3.290
 4085SOL     OW13153   2.081   5.941   1.275
 4085SOL    HW113154   2.072   5.849   1.236
 4085SOL    HW213155   2.173   5.975   1.259
 4086SOL     OW13156   1.269   5.487   1.891
 4086SOL    HW113157   1.354   5.540   1.897
 4086SOL    HW213158   1.289   5.395   1.858
 4087SOL     OW13159   1.443   1.662   2.958
 4087SOL    HW113160   1.366   1.646   3.020
 4087SOL    HW213161   1.446   1.758   2.933
 4088SOL     OW13162   6.605   0.817   6.398
 4088SOL    HW113163   6.506   0.808   6.408
 4088SOL    HW213164   6.639   0.884   6.463
 4089SOL     OW13165   5.929   5.788   4.214
 4089SOL    HW113166   5.894   5.850   4.285
 4089SOL    HW213167   6.013   5.825   4.176
 4090SOL     OW13168   1.655   5.342   5.181
 4090SOL    HW113169   1.696   5.425   5.219
 4090SOL    HW213170   1.702   5.262   5.218
 4091SOL     OW13171   6.431   6.644   6.542
 4091SOL    HW113172   6.506   6.603   6.490
 4091SOL    HW213173   6.389   6.717   6.487
 4092SOL     OW13174   6.252   2.692   5.425
 4092SOL    HW113175   6.163   2.686   5.470
 4092SOL    HW213176   6.242   2.739   5.337
 4093SOL     OW13177   4.886   6.117   2.467
 4093SOL    HW113178   4.983   6.117   2.490
 4093SOL    HW213179   4.860   6.026   2.432
 4094SOL     OW13180   2.161   5.367   5.358
 4094SOL    HW113181   2.250   5.390   5.397
 4094SOL    HW213182   2.105   5.449   5.353
 4095SOL     OW13183   1.185   3.441   0.292
 4095SOL    HW113184   1.135   3.518   0.252
 4095SOL    HW213185   1.215   3.379   0.220
 4096SOL     OW13186   4.779   6.523   6.124
 4096SOL    HW113187   4.745   6.466   6.048
 4096SOL    HW213188   4.704   6.542   6.187
 4097SOL     OW13189   4.227   4.685   5.233
 4097SOL    HW113190   4.261   4.602   5.188
 4097SOL    HW213191   4.211   4.756   5.164
 4098SOL     OW13192   6.733   2.477   1.441
 4098SOL    HW113193   6.748   2.494   1.538
 4098SOL    HW213194   6.798   2.531   1.388
 4099SOL     OW13195   2.894   5.411   1.462
 4099SOL    HW113196   2.871   5.412   1.365
 4099SOL    HW213197   2.924   5.319   1.488
 4100SOL     OW13198   6.713   6.915   4.756
 4100SOL    HW113199   6.800   6.933   4.802
 4100SOL    HW213200   6.685   6.821   4.772
 4101SOL     OW13201   6.335   1.260   0.108
 4101SOL    HW113202   6.246   1.255   0.154
 4101SOL    HW213203   6.338   1.191   0.036
 4102SOL     OW13204   6.993   0.700   0.857
 4102SOL    HW113205   6.948   0.638   0.922
 4102SOL    HW213206   6.960   0.793   0.871
 4103SOL     OW13207   6.883   0.154   0.270
 4103SOL    HW113208   6.937   0.236   0.290
 4103SOL    HW213209   6.787   0.179   0.257
 4104SOL     OW13210   0.446   4.664   2.941
 4104SOL    HW113211   0.543   4.638   2.941
 4104SOL    HW213212   0.392   4.594   2.986
 4105SOL     OW13213   5.167   6.967   1.510
 4105SOL    HW113214   5.240   7.009   1.456
 4105SOL    HW213215   5.119   6.898   1.455
 4106SOL     OW13216   6.310   3.313   2.812
 4106SOL    HW113217   6.226   3.323   2.865
 4106SOL    HW213218   6.306   3.375   2.733
 4107SOL     OW13219   1.243   5.343   1.134
 4107SOL    HW113220   1.204   5.353   1.225
 4107SOL    HW213221   1.314   5.412   1.120
 4108SOL     OW13222   6.167   4.366   5.799
 4108SOL    HW113223   6.150   4.272   5.772
 4108SOL    HW213224   6.129   4.383   5.890
 4109SOL     OW13225   5.889   0.198   4.943
 4109SOL    HW113226   5.806   0.218   4.996
 4109SOL    HW213227   5.879   0.233   4.850
 4110SOL     OW13228   4.218   3.513   5.665
 4110SOL    HW113229   4.266   3.475   5.744
 4110SOL    HW213230   4.129   3.548   5.694
 4111SOL     OW13231   5.194   3.288   6.981
 4111SOL    HW113232   5.186   3.300   6.882
 4111SOL    HW213233   5.205   3.191   7.002
 4112SOL     OW13234   5.184   5.919   4.334
 4112SOL    HW113235   5.225   5.859   4.265
 4112SOL    HW213236   5.086   5.901   4.339
 4113SOL     OW13237   4.916   6.151   4.825
 4113SOL    HW113238   4.853   6.224   4.851
 4113SOL    HW213239   5.001   6.191   4.790
 4114SOL     OW13240   3.151   2.029   4.078
 4114SOL    HW113241   3.074   2.090   4.057
 4114SOL    HW213242   3.233   2.061   4.032
 4115SOL     OW13243   3.335   5.134   1.691
 4115SOL    HW113244   3.340   5.041   1.654
 4115SOL    HW213245   3.281   5.134   1.775
 4116SOL     OW13246   3.019   1.196   2.503
 4116SOL    HW113247   3.098   1.257   2.496
 4116SOL    HW213248   3.009   1.164   2.597
 4117SOL     OW13249   1.604   4.106   2.637
 4117SOL    HW113250   1.535   4.177   2.647
 4117SOL    HW213251   1.592   4.060   2.549
 4118SOL     OW13252   3.393   6.628   0.023
 4118SOL    HW113253   3.309   6.675   7.014
 4118SOL    HW213254   3.386   6.531   7.017
 4119SOL     OW13255   2.587   1.958   3.791
 4119SOL    HW113256   2.677   1.946   3.751
 4119SOL    HW213257   2.596   1.990   3.885
 4120SOL     OW13258   3.668   0.864   6.692
 4120SOL    HW113259   3.681   0.812   6.607
 4120SOL    HW213260   3.577   0.847   6.728
 4121SOL     OW13261   5.881   1.341   4.361
 4121SOL    HW113262   5.840   1.280   4.293
 4121SOL    HW213263   5.813   1.362   4.432
 4122SOL     OW13264   1.311   5.318   4.434
 4122SOL    HW113265   1.225   5.316   4.384
 4122SOL    HW213266   1.342   5.225   4.451
 4123SOL     OW13267   4.520   4.775   5.638
 4123SOL    HW113268   4.440   4.716   5.633
 4123SOL    HW213269   4.599   4.722   5.667
 4124SOL     OW13270   6.530   5.744   6.877
 4124SOL    HW113271   6.548   5.841   6.892
 4124SOL    HW213272   6.432   5.726   6.890
 4125SOL     OW13273   5.127   1.317   2.100
 4125SOL    HW113274   5.173   1.330   2.187
 4125SOL    HW213275   5.030   1.341   2.110
 4126SOL     OW13276   1.208   3.752   4.252
 4126SOL    HW113277   1.122   3.716   4.216
 4126SOL    HW213278   1.191   3.801   4.337
 4127SOL     OW13279   4.808   4.798   4.885
 4127SOL    HW113280   4.874   4.873   4.874
 4127SOL    HW213281   4.748   4.818   4.962
 4128SOL     OW13282   1.053   2.956   1.620
 4128SOL    HW113283   1.018   2.999   1.703
 4128SOL    HW213284   1.153   2.950   1.624
 4129SOL     OW13285   3.600   1.309   6.428
 4129SOL    HW113286   3.540   1.333   6.351
 4129SOL    HW213287   3.547   1.262   6.498
 4130SOL     OW13288   6.391   3.285   6.765
 4130SOL    HW113289   6.431   3.261   6.677
 4130SOL    HW213290   6.300   3.324   6.750
 4131SOL     OW13291   0.756   0.764   3.995
 4131SOL    HW113292   0.854   0.780   3.978
 4131SOL    HW213293   0.704   0.784   3.913
 4132SOL     OW13294   4.770   4.395   3.383
 4132SOL    HW113295   4.811   4.304   3.371
 4132SOL    HW213296   4.715   4.396   3.466
 4133SOL     OW13297   2.562   5.951   0.669
 4133SOL    HW113298   2.506   5.957   0.752
 4133SOL    HW213299   2.579   6.043   0.634
 4134SOL     OW13300   2.607   3.531   0.680
 4134SOL    HW113301   2.556   3.603   0.633
 4134SOL    HW213302   2.614   3.553   0.777
 4135SOL     OW13303   0.587   1.454   2.474
 4135SOL    HW113304   0.624   1.453   2.567
 4135SOL    HW213305   0.501   1.506   2.473
 4136SOL     OW13306   1.264   2.083   3.338
 4136SOL    HW113307   1.235   2.037   3.423
 4136SOL    HW213308   1.197   2.153   3.315
 4137SOL     OW13309   1.319   4.226   0.757
 4137SOL    HW113310   1.345   4.210   0.852
 4137SOL    HW213311   1.296   4.139   0.714
 4138SOL     OW13312   4.705   5.443   3.027
 4138SOL    HW113313   4.789   5.403   3.063
 4138SOL    HW213314   4.726   5.524   2.973
 4139SOL     OW13315   1.814   1.721   5.785
 4139SOL    HW113316   1.873   1.802   5.788
 4139SOL    HW213317   1.870   1.641   5.762
 4140SOL     OW13318   3.044   0.353   5.197
 4140SOL    HW113319   3.012   0.436   5.150
 4140SOL    HW213320   3.094   0.295   5.133
 4141SOL     OW13321   6.198   6.058   0.936
 4141SOL    HW113322   6.274   5.995   0.917
 4141SOL    HW213323   6.172   6.105   0.852
 4142SOL     OW13324   6.974   5.242   1.146
 4142SOL    HW113325   0.051   5.256   1.123
 4142SOL    HW213326   6.968   5.186   1.229
 4143SOL     OW13327   5.878   1.374   0.617
 4143SOL    HW113328   5.926   1.404   0.700
 4143SOL    HW213329   5.897   1.438   0.543
 4144SOL     OW13330   4.865   3.350   6.704
 4144SOL    HW113331   4.874   3.279   6.774
 4144SOL    HW213332   4.884   3.439   6.744
 4145SOL     OW13333   6.360   6.294   1.675
 4145SOL    HW113334   6.355   6.373   1.736
 4145SOL    HW213335   6.435   6.307   1.609
 4146SOL     OW13336   6.437   0.602   4.310
 4146SOL    HW113337   6.438   0.539   4.388
 4146SOL    HW213338   6.456   0.550   4.226
 4147SOL     OW13339   5.026   4.010   6.609
 4147SOL    HW113340   4.940   4.020   6.559
 4147SOL    HW213341   5.099   4.058   6.560
 4148SOL     OW13342   1.266   0.568   5.154
 4148SOL    HW113343   1.293   0.596   5.062
 4148SOL    HW213344   1.297   0.635   5.221
 4149SOL     OW13345   6.929   3.000   0.338
 4149SOL    HW113346   6.994   3.014   0.413
 4149SOL    HW213347   6.861   2.931   0.366
 4150SOL     OW13348   1.178   0.656   5.785
 4150SOL    HW113349   1.128   0.719   5.726
 4150SOL    HW213350   1.144   0.663   5.878
 4151SOL     OW13351   2.182   5.862   6.283
 4151SOL    HW113352   2.091   5.841   6.248
 4151SOL    HW213353   2.249   5.803   6.239
 4152SOL     OW13354   4.637   5.707   1.441
 4152SOL    HW113355   4.725   5.727   1.486
 4152SOL    HW213356   4.630   5.609   1.424
 4153SOL     OW13357   4.553   5.337   6.935
 4153SOL    HW113358   4.642   5.369   6.969
 4153SOL    HW213359   4.555   5.333   6.835
 4154SOL     OW13360   0.086   5.290   4.193
 4154SOL    HW113361   0.183   5.309   4.208
 4154SOL    HW213362   0.032   5.329   4.268
 4155SOL     OW13363   0.915   0.908   2.514
 4155SOL    HW113364   0.869   0.822   2.490
 4155SOL    HW213365   0.893   0.978   2.446
 4156SOL     OW13366   5.184   6.121   5.136
 4156SOL    HW113367   5.118   6.130   5.211
 4156SOL    HW213368   5.136   6.127   5.049
 4157SOL     OW13369   4.794   5.158   4.120
 4157SOL    HW113370   4.894   5.147   4.113
 4157SOL    HW213371   4.749   5.104   4.049
 4158SOL     OW13372   0.853   4.288   2.143
 4158SOL    HW113373   0.796   4.315   2.065
 4158SOL    HW213374   0.940   4.338   2.139
 4159SOL     OW13375   2.156   3.639   3.854
 4159SOL    HW113376   2.135   3.586   3.772
 4159SOL    HW213377   2.143   3.582   3.935
 4160SOL     OW13378   6.459   1.175   1.437
 4160SOL    HW113379   6.359   1.175   1.439
 4160SOL    HW213380   6.493   1.267   1.417
 4161SOL     OW13381   0.914   1.089   0.723
 4161SOL    HW113382   0.902   1.137   0.810
 4161SOL    HW213383   0.986   1.020   0.732
 4162SOL     OW13384   6.636   6.577   6.329
 4162SOL    HW113385   6.622   6.508   6.257
 4162SOL    HW213386   6.731   6.572   6.361
 4163SOL     OW13387   5.689   6.440   3.379
 4163SOL    HW113388   5.668   6.391   3.464
 4163SOL    HW213389   5.636   6.524   3.374
 4164SOL     OW13390   1.613   6.510   6.295
 4164SOL    HW113391   1.701   6.514   6.342
 4164SOL    HW213392   1.541   6.547   6.354
 4165SOL     OW13393   4.254   6.596   6.721
 4165SOL    HW113394   4.176   6.594   6.783
 4165SOL    HW213395   4.307   6.512   6.732
 4166SOL     OW13396   6.358   3.389   0.889
 4166SOL    HW113397   6.334   3.356   0.798
 4166SOL    HW213398   6.283   3.447   0.924
 4167SOL     OW13399   1.621   4.222   1.069
 4167SOL    HW113400   1.692   4.151   1.072
 4167SOL    HW213401   1.611   4.254   0.974
 4168SOL     OW13402   6.840   4.591   0.943
 4168SOL    HW113403   6.921   4.603   1.000
 4168SOL    HW213404   6.795   4.679   0.929
 4169SOL     OW13405   5.774   4.120   3.913
 4169SOL    HW113406   5.836   4.090   3.840
 4169SOL    HW213407   5.757   4.218   3.905
 4170SOL     OW13408   4.700   4.384   5.818
 4170SOL    HW113409   4.625   4.323   5.843
 4170SOL    HW213410   4.667   4.478   5.818
 4171SOL     OW13411   6.496   5.294   0.502
 4171SOL    HW113412   6.490   5.214   0.561
 4171SOL    HW213413   6.566   5.357   0.537
 4172SOL     OW13414   0.583   2.203   6.184
 4172SOL    HW113415   0.526   2.285   6.176
 4172SOL    HW213416   0.538   2.126   6.139
 4173SOL     OW13417   5.499   3.480   5.823
 4173SOL    HW113418   5.577   3.424   5.794
 4173SOL    HW213419   5.448   3.509   5.742
 4174SOL     OW13420   5.241   0.837   3.156
 4174SOL    HW113421   5.147   0.804   3.161
 4174SOL    HW213422   5.271   0.866   3.246
 4175SOL     OW13423   2.579   5.885   3.966
 4175SOL    HW113424   2.622   5.975   3.968
 4175SOL    HW213425   2.544   5.863   4.057
 4176SOL     OW13426   3.090   6.418   1.882
 4176SOL    HW113427   3.107   6.516   1.866
 4176SOL    HW213428   3.016   6.387   1.823
 4177SOL     OW13429   5.872   4.453   4.612
 4177SOL    HW113430   5.933   4.522   4.651
 4177SOL    HW213431   5.823   4.406   4.686
 4178SOL     OW13432   4.620   0.649   4.407
 4178SOL    HW113433   4.686   0.675   4.337
 4178SOL    HW213434   4.603   0.727   4.468
 4179SOL     OW13435   5.282   2.558   3.665
 4179SOL    HW113436   5.201   2.582   3.612
 4179SOL    HW213437   5.260   2.483   3.728
 4180SOL     OW13438   4.910   4.363   1.407
 4180SOL    HW113439   4.853   4.286   1.377
 4180SOL    HW213440   4.916   4.363   1.506
 4181SOL     OW13441   2.457   1.488   0.834
 4181SOL    HW113442   2.486   1.498   0.739
 4181SOL    HW213443   2.538   1.475   0.892
 4182SOL     OW13444   0.320   6.949   3.178
 4182SOL    HW113445   0.398   6.960   3.117
 4182SOL    HW213446   0.351   6.960   3.273
 4183SOL     OW13447   4.681   0.732   0.112
 4183SOL    HW113448   4.648   0.777   0.195
 4183SOL    HW213449   4.781   0.736   0.110
 4184SOL     OW13450   4.811   5.160   1.125
 4184SOL    HW113451   4.825   5.111   1.038
 4184SOL    HW213452   4.792   5.256   1.106
 4185SOL     OW13453   0.709   5.799   2.425
 4185SOL    HW113454   0.763   5.841   2.498
 4185SOL    HW213455   0.613   5.824   2.435
 4186SOL     OW13456   2.226   5.403   0.751
 4186SOL    HW113457   2.162   5.406   0.827
 4186SOL    HW213458   2.201   5.330   0.688
 4187SOL     OW13459   3.676   3.988   5.930
 4187SOL    HW113460   3.720   4.037   5.855
 4187SOL    HW213461   3.611   4.049   5.975
 4188SOL     OW13462   4.412   7.007   4.318
 4188SOL    HW113463   4.474   6.960   4.381
 4188SOL    HW213464   4.430   0.087   4.321
 4189SOL     OW13465   3.750   0.409   5.409
 4189SOL    HW113466   3.817   0.335   5.411
 4189SOL    HW213467   3.709   0.419   5.499
 4190SOL     OW13468   0.569   0.432   0.321
 4190SOL    HW113469   0.588   0.464   0.414
 4190SOL    HW213470   0.552   0.510   0.261
 4191SOL     OW13471   5.219   3.755   3.298
 4191SOL    HW113472   5.303   3.769   3.351
 4191SOL    HW213473   5.222   3.813   3.216
 4192SOL     OW13474   0.639   1.139   4.290
 4192SOL    HW113475   0.726   1.132   4.339
 4192SOL    HW213476   0.617   1.050   4.249
 4193SOL     OW13477   1.512   0.630   2.550
 4193SOL    HW113478   1.522   0.573   2.632
 4193SOL    HW213479   1.550   0.721   2.568
 4194SOL     OW13480   5.712   0.281   5.115
 4194SOL    HW113481   5.636   0.301   5.177
 4194SOL    HW213482   5.748   0.366   5.078
 4195SOL     OW13483   4.055   6.741   2.624
 4195SOL    HW113484   4.071   6.836   2.598
 4195SOL    HW213485   4.119   6.682   2.575
 4196SOL     OW13486   5.616   2.122   3.426
 4196SOL    HW113487   5.562   2.201   3.455
 4196SOL    HW213488   5.562   2.039   3.436
 4197SOL     OW13489   4.898   6.227   5.514
 4197SOL    HW113490   4.939   6.153   5.461
 4197SOL    HW213491   4.926   6.219   5.610
 4198SOL     OW13492   5.782   3.400   6.913
 4198SOL    HW113493   5.797   3.306   6.944
 4198SOL    HW213494   5.690   3.430   6.938
 4199SOL     OW13495   2.379   3.096   6.553
 4199SOL    HW113496   2.362   3.062   6.645
 4199SOL    HW213497   2.337   3.033   6.486
 4200SOL     OW13498   2.871   6.466   5.765
 4200SOL    HW113499   2.835   6.389   5.818
 4200SOL    HW213500   2.971   6.463   5.766
 4201SOL     OW13501   6.453   6.429   3.664
 4201SOL    HW113502   6.397   6.451   3.744
 4201SOL    HW213503   6.442   6.333   3.641
 4202SOL     OW13504   4.287   5.333   5.540
 4202SOL    HW113505   4.370   5.350   5.486
 4202SOL    HW213506   4.219   5.288   5.483
 4203SOL     OW13507   4.876   5.109   0.530
 4203SOL    HW113508   4.877   5.158   0.617
 4203SOL    HW213509   4.818   5.158   0.465
 4204SOL     OW13510   4.101   3.372   2.603
 4204SOL    HW113511   4.119   3.470   2.614
 4204SOL    HW213512   4.059   3.337   2.686
 4205SOL     OW13513   3.453   5.438   3.709
 4205SOL    HW113514   3.510   5.420   3.628
 4205SOL    HW213515   3.391   5.361   3.723
 4206SOL     OW13516   5.981   0.705   5.315
 4206SOL    HW113517   5.984   0.794   5.270
 4206SOL    HW213518   6.060   0.650   5.285
 4207SOL     OW13519   1.475   1.417   1.551
 4207SOL    HW113520   1.495   1.338   1.609
 4207SOL    HW213521   1.394   1.464   1.586
 4208SOL     OW13522   0.688   3.985   6.549
 4208SOL    HW113523   0.725   3.898   6.515
 4208SOL    HW213524   0.645   3.970   6.638
 4209SOL     OW13525   0.297   0.993   5.930
 4209SOL    HW113526   0.243   0.910   5.917
 4209SOL    HW213527   0.357   1.007   5.851
 4210SOL     OW13528   3.212   3.265   2.156
 4210SOL    HW113529   3.175   3.174   2.172
 4210SOL    HW213530   3.176   3.301   2.069
 4211SOL     OW13531   3.778   5.034   5.563
 4211SOL    HW113532   3.808   4.994   5.649
 4211SOL    HW213533   3.707   5.102   5.581
 4212SOL     OW13534   5.904   2.732   2.536
 4212SOL    HW113535   5.998   2.753   2.563
 4212SOL    HW213536   5.898   2.731   2.437
 4213SOL     OW13537   2.526   1.033   2.424
 4213SOL    HW113538   2.493   0.946   2.388
 4213SOL    HW213539   2.453   1.101   2.420
 4214SOL     OW13540   1.698   4.153   4.979
 4214SOL    HW113541   1.759   4.086   4.935
 4214SOL    HW213542   1.641   4.196   4.909
 4215SOL     OW13543   6.813   6.418   4.724
 4215SOL    HW113544   6.717   6.428   4.749
 4215SOL    HW213545   6.857   6.508   4.726
 4216SOL     OW13546   1.103   1.327   3.323
 4216SOL    HW113547   1.160   1.275   3.259
 4216SOL    HW213548   1.141   1.418   3.336
 4217SOL     OW13549   6.732   0.298   2.535
 4217SOL    HW113550   6.735   0.226   2.605
 4217SOL    HW213551   6.638   0.330   2.525
 4218SOL     OW13552   4.927   0.859   1.910
 4218SOL    HW113553   4.997   0.923   1.943
 4218SOL    HW213554   4.844   0.870   1.963
 4219SOL     OW13555   2.529   5.231   3.390
 4219SOL    HW113556   2.571   5.316   3.422
 4219SOL    HW213557   2.527   5.231   3.290
 4220SOL     OW13558   5.631   2.857   3.443
 4220SOL    HW113559   5.564   2.903   3.386
 4220SOL    HW213560   5.601   2.763   3.462
 4221SOL     OW13561   5.990   5.676   6.281
 4221SOL    HW113562   5.890   5.680   6.284
 4221SOL    HW213563   6.028   5.767   6.301
 4222SOL     OW13564   6.157   2.445   2.802
 4222SOL    HW113565   6.077   2.474   2.748
 4222SOL    HW213566   6.126   2.411   2.891
 4223SOL     OW13567   3.102   3.435   5.430
 4223SOL    HW113568   3.041   3.506   5.397
 4223SOL    HW213569   3.191   3.445   5.385
 4224SOL     OW13570   4.810   2.942   3.573
 4224SOL    HW113571   4.894   2.996   3.574
 4224SOL    HW213572   4.735   2.997   3.536
 4225SOL     OW13573   4.071   0.574   5.461
 4225SOL    HW113574   4.008   0.621   5.400
 4225SOL    HW213575   4.165   0.600   5.438
 4226SOL     OW13576   0.667   0.569   2.713
 4226SOL    HW113577   0.654   0.668   2.716
 4226SOL    HW213578   0.760   0.549   2.684
 4227SOL     OW13579   3.624   4.815   6.549
 4227SOL    HW113580   3.549   4.787   6.488
 4227SOL    HW213581   3.666   4.898   6.512
 4228SOL     OW13582   0.720   3.695   3.809
 4228SOL    HW113583   0.815   3.726   3.802
 4228SOL    HW213584   0.718   3.600   3.838
 4229SOL     OW13585   4.838   5.093   5.326
 4229SOL    HW113586   4.828   5.045   5.239
 4229SOL    HW213587   4.772   5.058   5.391
 4230SOL     OW13588   2.174   0.603   4.208
 4230SOL    HW113589   2.144   0.509   4.195
 4230SOL    HW213590   2.268   0.614   4.179
 4231SOL     OW13591   5.382   6.143   4.890
 4231SOL    HW113592   5.388   6.044   4.881
 4231SOL    HW213593   5.432   6.172   4.972
 4232SOL     OW13594   0.014   4.559   2.173
 4232SOL    HW113595   0.094   4.558   2.112
 4232SOL    HW213596   0.010   4.646   2.221
 4233SOL     OW13597   6.785   0.840   6.983
 4233SOL    HW113598   6.698   0.877   6.949
 4233SOL    HW213599   6.850   0.833   6.908
 4234SOL     OW13600   1.291   0.047   5.684
 4234SOL    HW113601   1.286   0.131   5.738
 4234SOL    HW213602   1.351   7.001   5.729
 4235SOL     OW13603   5.268   3.816   5.624
 4235SOL    HW113604   5.216   3.789   5.543
 4235SOL    HW213605   5.365   3.798   5.608
 4236SOL     OW13606   0.269   3.643   2.818
 4236SOL    HW113607   0.174   3.625   2.793
 4236SOL    HW213608   0.305   3.717   2.761
 4237SOL     OW13609   6.579   5.454   3.618
 4237SOL    HW113610   6.616   5.362   3.632
 4237SOL    HW213611   6.542   5.462   3.526
 4238SOL     OW13612   3.486   4.958   2.747
 4238SOL    HW113613   3.462   5.055   2.750
 4238SOL    HW213614   3.403   4.903   2.752
 4239SOL     OW13615   6.004   1.391   3.971
 4239SOL    HW113616   6.072   1.446   3.922
 4239SOL    HW213617   5.940   1.451   4.017
 4240SOL     OW13618   2.201   6.980   0.176
 4240SOL    HW113619   2.204   6.997   0.077
 4240SOL    HW213620   2.225   6.885   0.194
 4241SOL     OW13621   6.016   1.034   1.146
 4241SOL    HW113622   5.981   1.061   1.056
 4241SOL    HW213623   5.939   1.027   1.210
 4242SOL     OW13624   1.928   0.514   3.560
 4242SOL    HW113625   2.007   0.490   3.616
 4242SOL    HW213626   1.945   0.487   3.465
 4243SOL     OW13627   0.448   3.641   3.860
 4243SOL    HW113628   0.456   3.611   3.955
 4243SOL    HW213629   0.538   3.662   3.824
 4244SOL     OW13630   5.341   5.481   1.086
 4244SOL    HW113631   5.333   5.537   1.169
 4244SOL    HW213632   5.260   5.493   1.030
 4245SOL     OW13633   6.183   1.026   6.524
 4245SOL    HW113634   6.110   1.051   6.459
 4245SOL    HW213635   6.215   0.934   6.502
 4246SOL     OW13636   5.969   2.847   3.581
 4246SOL    HW113637   5.913   2.927   3.602
 4246SOL    HW213638   5.991   2.846   3.484
 4247SOL     OW13639   2.179   5.217   3.416
 4247SOL    HW113640   2.221   5.160   3.487
 4247SOL    HW213641   2.207   5.312   3.428
 4248SOL     OW13642   1.750   1.219   3.450
 4248SOL    HW113643   1.650   1.215   3.438
 4248SOL    HW213644   1.795   1.212   3.361
 4249SOL     OW13645   5.152   1.499   3.878
 4249SOL    HW113646   5.131   1.413   3.831
 4249SOL    HW213647   5.067   1.540   3.912
 4250SOL     OW13648   6.115   6.000   4.578
 4250SOL    HW113649   6.188   5.940   4.544
 4250SOL    HW213650   6.035   5.993   4.519
 4251SOL     OW13651   6.201   3.197   1.192
 4251SOL    HW113652   6.240   3.186   1.283
 4251SOL    HW213653   6.223   3.116   1.137
 4252SOL     OW13654   5.194   6.085   6.023
 4252SOL    HW113655   5.095   6.085   6.036
 4252SOL    HW213656   5.235   6.153   6.083
 4253SOL     OW13657   3.285   6.582   1.391
 4253SOL    HW113658   3.247   6.675   1.397
 4253SOL    HW213659   3.358   6.572   1.459
 4254SOL     OW13660   2.061   3.852   2.022
 4254SOL    HW113661   2.021   3.760   2.018
 4254SOL    HW213662   2.000   3.917   1.977
 4255SOL     OW13663   6.884   4.375   4.047
 4255SOL    HW113664   6.973   4.333   4.029
 4255SOL    HW213665   6.866   4.446   3.978
 4256SOL     OW13666   0.837   6.015   1.042
 4256SOL    HW113667   0.890   6.022   0.958
 4256SOL    HW213668   0.788   5.928   1.045
 4257SOL     OW13669   3.955   1.595   4.362
 4257SOL    HW113670   4.043   1.637   4.339
 4257SOL    HW213671   3.881   1.661   4.346
 4258SOL     OW13672   3.097   6.181   0.782
 4258SOL    HW113673   3.094   6.268   0.732
 4258SOL    HW213674   3.076   6.197   0.878
 4259SOL     OW13675   1.420   6.723   0.846
 4259SOL    HW113676   1.466   6.731   0.757
 4259SOL    HW213677   1.470   6.659   0.904
 4260SOL     OW13678   5.709   1.014   3.517
 4260SOL    HW113679   5.655   0.938   3.480
 4260SOL    HW213680   5.753   1.063   3.441
 4261SOL     OW13681   1.885   0.877   3.036
 4261SOL    HW113682   1.925   0.814   2.970
 4261SOL    HW213683   1.928   0.864   3.125
 4262SOL     OW13684   1.141   4.011   6.210
 4262SOL    HW113685   1.057   4.061   6.187
 4262SOL    HW213686   1.185   3.979   6.126
 4263SOL     OW13687   2.229   0.469   3.438
 4263SOL    HW113688   2.254   0.375   3.414
 4263SOL    HW213689   2.310   0.517   3.472
 4264SOL     OW13690   6.782   2.323   4.600
 4264SOL    HW113691   6.784   2.276   4.512
 4264SOL    HW213692   6.799   2.257   4.673
 4265SOL     OW13693   4.009   0.910   0.777
 4265SOL    HW113694   4.041   0.873   0.689
 4265SOL    HW213695   3.917   0.877   0.795
 4266SOL     OW13696   2.133   6.391   6.444
 4266SOL    HW113697   2.144   6.331   6.523
 4266SOL    HW213698   2.128   6.336   6.361
 4267SOL     OW13699   2.324   4.274   4.371
 4267SOL    HW113700   2.299   4.191   4.322
 4267SOL    HW213701   2.390   4.326   4.316
 4268SOL     OW13702   1.497   5.580   6.901
 4268SOL    HW113703   1.525   5.488   6.931
 4268SOL    HW213704   1.478   5.636   6.982
 4269SOL     OW13705   2.944   0.210   3.386
 4269SOL    HW113706   2.934   0.212   3.486
 4269SOL    HW213707   2.857   0.236   3.343
 4270SOL     OW13708   3.472   2.871   2.078
 4270SOL    HW113709   3.500   2.908   2.167
 4270SOL    HW213710   3.372   2.869   2.074
 4271SOL     OW13711   0.225   0.635   0.810
 4271SOL    HW113712   0.221   0.541   0.844
 4271SOL    HW213713   0.136   0.679   0.821
 4272SOL     OW13714   6.440   2.648   4.690
 4272SOL    HW113715   6.345   2.677   4.681
 4272SOL    HW213716   6.463   2.587   4.614
 4273SOL     OW13717   4.895   6.387   4.622
 4273SOL    HW113718   4.933   6.398   4.714
 4273SOL    HW213719   4.921   6.298   4.586
 4274SOL     OW13720   1.552   6.920   2.257
 4274SOL    HW113721   1.489   6.885   2.187
 4274SOL    HW213722   1.500   6.972   2.325
 4275SOL     OW13723   6.897   1.990   3.905
 4275SOL    HW113724   6.984   2.018   3.865
 4275SOL    HW213725   6.833   1.966   3.832
 4276SOL     OW13726   2.729   5.157   4.001
 4276SOL    HW113727   2.752   5.212   4.081
 4276SOL    HW213728   2.693   5.216   3.929
 4277SOL     OW13729   6.839   4.589   2.879
 4277SOL    HW113730   6.766   4.530   2.844
 4277SOL    HW213731   6.812   4.684   2.868
 4278SOL     OW13732   6.956   6.867   4.913
 4278SOL    HW113733   0.022   6.896   4.869
 4278SOL    HW213734   6.977   6.826   5.002
 4279SOL     OW13735   1.897   1.412   2.973
 4279SOL    HW113736   1.828   1.484   2.972
 4279SOL    HW213737   1.939   1.407   3.064
 4280SOL     OW13738   5.969   0.300   5.317
 4280SOL    HW113739   6.027   0.242   5.260
 4280SOL    HW213740   6.026   0.354   5.379
 4281SOL     OW13741   5.718   5.116   3.439
 4281SOL    HW113742   5.716   5.216   3.450
 4281SOL    HW213743   5.813   5.086   3.430
 4282SOL     OW13744   3.341   4.142   0.519
 4282SOL    HW113745   3.406   4.086   0.571
 4282SOL    HW213746   3.384   4.229   0.495
 4283SOL     OW13747   2.594   1.307   3.553
 4283SOL    HW113748   2.660   1.310   3.477
 4283SOL    HW213749   2.643   1.301   3.640
 4284SOL     OW13750   4.073   4.523   0.873
 4284SOL    HW113751   4.039   4.448   0.817
 4284SOL    HW213752   4.127   4.586   0.816
 4285SOL     OW13753   2.475   1.314   5.938
 4285SOL    HW113754   2.527   1.388   5.896
 4285SOL    HW213755   2.529   1.230   5.937
 4286SOL     OW13756   5.785   6.646   5.890
 4286SOL    HW113757   5.775   6.708   5.812
 4286SOL    HW213758   5.812   6.698   5.971
 4287SOL     OW13759   4.505   0.981   5.839
 4287SOL    HW113760   4.559   0.931   5.772
 4287SOL    HW213761   4.410   0.951   5.834
 4288SOL     OW13762   0.711   5.586   3.821
 4288SOL    HW113763   0.750   5.570   3.912
 4288SOL    HW213764   0.697   5.684   3.808
 4289SOL     OW13765   0.958   2.079   5.759
 4289SOL    HW113766   0.933   2.176   5.747
 4289SOL    HW213767   0.914   2.025   5.687
 4290SOL     OW13768   1.119   6.293   4.767
 4290SOL    HW113769   1.083   6.235   4.840
 4290SOL    HW213770   1.077   6.267   4.680
 4291SOL     OW13771   4.911   3.619   6.782
 4291SOL    HW113772   4.976   3.683   6.824
 4291SOL    HW213773   4.819   3.656   6.791
 4292SOL     OW13774   6.295   3.030   0.332
 4292SOL    HW113775   6.363   3.050   0.261
 4292SOL    HW213776   6.277   2.931   0.333
 4293SOL     OW13777   3.612   4.693   0.130
 4293SOL    HW113778   3.613   4.763   0.058
 4293SOL    HW213779   3.518   4.666   0.150
 4294SOL     OW13780   2.096   1.016   6.409
 4294SOL    HW113781   2.133   1.000   6.317
 4294SOL    HW213782   2.145   0.958   6.475
 4295SOL     OW13783   5.580   5.785   3.954
 4295SOL    HW113784   5.577   5.685   3.955
 4295SOL    HW213785   5.672   5.815   3.928
 4296SOL     OW13786   3.143   6.763   6.974
 4296SOL    HW113787   3.046   6.747   6.990
 4296SOL    HW213788   3.177   6.832   0.019
 4297SOL     OW13789   5.806   0.269   2.274
 4297SOL    HW113790   5.791   0.344   2.210
 4297SOL    HW213791   5.900   0.238   2.268
 4298SOL     OW13792   3.507   5.781   1.146
 4298SOL    HW113793   3.520   5.859   1.207
 4298SOL    HW213794   3.503   5.697   1.200
 4299SOL     OW13795   1.419   2.759   6.937
 4299SOL    HW113796   1.356   2.786   6.864
 4299SOL    HW213797   1.383   2.678   6.983
 4300SOL     OW13798   2.774   6.889   0.333
 4300SOL    HW113799   2.862   6.844   0.319
 4300SOL    HW213800   2.721   6.888   0.248
 4301SOL     OW13801   4.508   0.123   1.281
 4301SOL    HW113802   4.547   0.129   1.372
 4301SOL    HW213803   4.461   0.208   1.259
 4302SOL     OW13804   6.867   0.493   6.221
 4302SOL    HW113805   6.823   0.404   6.210
 4302SOL    HW213806   6.800   0.565   6.202
 4303SOL     OW13807   0.179   4.435   4.086
 4303SOL    HW113808   0.254   4.372   4.107
 4303SOL    HW213809   0.132   4.460   4.170
 4304SOL     OW13810   3.386   3.484   2.541
 4304SOL    HW113811   3.478   3.506   2.509
 4304SOL    HW213812   3.334   3.569   2.553
 4305SOL     OW13813   0.725   6.909   5.947
 4305SOL    HW113814   0.679   6.958   5.872
 4305SOL    HW213815   0.819   6.942   5.955
 4306SOL     OW13816   4.566   4.906   4.180
 4306SOL    HW113817   4.648   4.897   4.123
 4306SOL    HW213818   4.587   4.873   4.272
 4307SOL     OW13819   5.831   3.550   5.371
 4307SOL    HW113820   5.813   3.648   5.376
 4307SOL    HW213821   5.887   3.532   5.290
 4308SOL     OW13822   6.121   5.958   1.213
 4308SOL    HW113823   6.162   5.885   1.268
 4308SOL    HW213824   6.188   5.991   1.146
 4309SOL     OW13825   1.125   1.326   0.647
 4309SOL    HW113826   1.059   1.400   0.661
 4309SOL    HW213827   1.094   1.244   0.696
 4310SOL     OW13828   1.331   2.685   1.426
 4310SOL    HW113829   1.282   2.746   1.363
 4310SOL    HW213830   1.302   2.590   1.409
 4311SOL     OW13831   0.150   6.042   2.868
 4311SOL    HW113832   0.159   6.124   2.811
 4311SOL    HW213833   0.087   6.062   2.943
 4312SOL     OW13834   1.564   5.593   2.864
 4312SOL    HW113835   1.472   5.556   2.851
 4312SOL    HW213836   1.582   5.662   2.793
 4313SOL     OW13837   4.588   2.031   0.850
 4313SOL    HW113838   4.495   2.037   0.813
 4313SOL    HW213839   4.584   2.002   0.946
 4314SOL     OW13840   5.739   2.014   5.271
 4314SOL    HW113841   5.754   1.992   5.368
 4314SOL    HW213842   5.677   1.946   5.232
 4315SOL     OW13843   2.047   0.156   3.649
 4315SOL    HW113844   1.950   0.179   3.651
 4315SOL    HW213845   2.081   0.163   3.556
 4316SOL     OW13846   4.378   0.444   1.944
 4316SOL    HW113847   4.331   0.407   2.024
 4316SOL    HW213848   4.335   0.409   1.861
 4317SOL     OW13849   5.358   1.381   5.635
 4317SOL    HW113850   5.325   1.469   5.668
 4317SOL    HW213851   5.283   1.314   5.639
 4318SOL     OW13852   1.479   1.987   4.799
 4318SOL    HW113853   1.461   1.913   4.864
 4318SOL    HW213854   1.419   1.975   4.719
 4319SOL     OW13855   2.172   1.888   0.864
 4319SOL    HW113856   2.226   1.969   0.840
 4319SOL    HW213857   2.233   1.809   0.869
 4320SOL     OW13858   3.770   5.158   0.822
 4320SOL    HW113859   3.809   5.069   0.801
 4320SOL    HW213860   3.719   5.192   0.743
 4321SOL     OW13861   0.122   4.537   4.742
 4321SOL    HW113862   0.080   4.465   4.797
 4321SOL    HW213863   0.050   4.594   4.702
 4322SOL     OW13864   6.150   3.203   6.987
 4322SOL    HW113865   6.085   3.141   0.013
 4322SOL    HW213866   6.102   3.257   6.918
 4323SOL     OW13867   5.016   4.651   0.337
 4323SOL    HW113868   4.993   4.732   0.391
 4323SOL    HW213869   5.057   4.678   0.250
 4324SOL     OW13870   6.164   4.656   6.353
 4324SOL    HW113871   6.223   4.627   6.428
 4324SOL    HW213872   6.154   4.756   6.354
 4325SOL     OW13873   2.937   1.448   2.203
 4325SOL    HW113874   2.881   1.527   2.228
 4325SOL    HW213875   3.033   1.475   2.198
 4326SOL     OW13876   5.021   4.531   2.028
 4326SOL    HW113877   5.044   4.541   2.125
 4326SOL    HW213878   4.936   4.480   2.019
 4327SOL     OW13879   5.100   5.778   2.009
 4327SOL    HW113880   5.044   5.860   1.996
 4327SOL    HW213881   5.182   5.803   2.062
 4328SOL     OW13882   5.751   4.759   5.569
 4328SOL    HW113883   5.823   4.802   5.514
 4328SOL    HW213884   5.792   4.707   5.643
 4329SOL     OW13885   4.693   2.867   5.462
 4329SOL    HW113886   4.719   2.940   5.399
 4329SOL    HW213887   4.612   2.894   5.514
 4330SOL     OW13888   1.994   6.167   4.407
 4330SOL    HW113889   2.071   6.230   4.418
 4330SOL    HW213890   2.014   6.081   4.455
 4331SOL     OW13891   5.682   0.751   1.699
 4331SOL    HW113892   5.591   0.793   1.702
 4331SOL    HW213893   5.743   0.808   1.644
 4332SOL     OW13894   5.578   3.272   2.685
 4332SOL    HW113895   5.506   3.213   2.647
 4332SOL    HW213896   5.662   3.219   2.694
 4333SOL     OW13897   4.618   1.616   5.079
 4333SOL    HW113898   4.599   1.594   4.983
 4333SOL    HW213899   4.708   1.582   5.104
 4334SOL     OW13900   1.968   2.727   2.127
 4334SOL    HW113901   2.008   2.754   2.039
 4334SOL    HW213902   2.028   2.756   2.202
 4335SOL     OW13903   3.796   3.234   1.858
 4335SOL    HW113904   3.731   3.159   1.845
 4335SOL    HW213905   3.881   3.198   1.899
 4336SOL     OW13906   2.808   6.281   5.970
 4336SOL    HW113907   2.847   6.202   5.922
 4336SOL    HW213908   2.823   6.272   6.068
 4337SOL     OW13909   2.350   4.704   1.694
 4337SOL    HW113910   2.345   4.729   1.597
 4337SOL    HW213911   2.440   4.665   1.714
 4338SOL     OW13912   6.495   6.779   5.785
 4338SOL    HW113913   6.454   6.799   5.697
 4338SOL    HW213914   6.524   6.864   5.829
 4339SOL     OW13915   4.117   2.649   6.558
 4339SOL    HW113916   4.200   2.633   6.504
 4339SOL    HW213917   4.085   2.743   6.545
 4340SOL     OW13918   6.448   3.842   1.726
 4340SOL    HW113919   6.504   3.840   1.809
 4340SOL    HW213920   6.351   3.841   1.751
 4341SOL     OW13921   1.494   5.503   1.026
 4341SOL    HW113922   1.518   5.430   1.089
 4341SOL    HW213923   1.576   5.553   0.999
 4342SOL     OW13924   5.561   3.837   3.077
 4342SOL    HW113925   5.543   3.746   3.114
 4342SOL    HW213926   5.634   3.881   3.129
 4343SOL     OW13927   3.132   5.978   4.598
 4343SOL    HW113928   3.096   5.901   4.650
 4343SOL    HW213929   3.206   5.947   4.539
 4344SOL     OW13930   1.338   3.696   2.944
 4344SOL    HW113931   1.286   3.656   2.868
 4344SOL    HW213932   1.289   3.775   2.980
 4345SOL     OW13933   3.523   4.195   4.800
 4345SOL    HW113934   3.517   4.219   4.703
 4345SOL    HW213935   3.437   4.154   4.830
 4346SOL     OW13936   2.261   3.005   2.948
 4346SOL    HW113937   2.248   3.000   2.849
 4346SOL    HW213938   2.275   2.913   2.985
 4347SOL     OW13939   5.684   6.307   2.902
 4347SOL    HW113940   5.607   6.253   2.935
 4347SOL    HW213941   5.762   6.294   2.963
 4348SOL     OW13942   0.130   5.734   4.328
 4348SOL    HW113943   0.194   5.665   4.293
 4348SOL    HW213944   0.063   5.755   4.258
 4349SOL     OW13945   6.528   1.885   3.348
 4349SOL    HW113946   6.467   1.885   3.269
 4349SOL    HW213947   6.608   1.828   3.328
 4350SOL     OW13948   4.105   1.784   3.974
 4350SOL    HW113949   4.048   1.732   3.910
 4350SOL    HW213950   4.067   1.876   3.985
 4351SOL     OW13951   1.274   6.064   1.372
 4351SOL    HW113952   1.291   6.003   1.449
 4351SOL    HW213953   1.270   6.159   1.404
 4352SOL     OW13954   6.429   4.349   2.383
 4352SOL    HW113955   6.485   4.370   2.304
 4352SOL    HW213956   6.336   4.382   2.367
 4353SOL     OW13957   3.489   3.182   6.812
 4353SOL    HW113958   3.414   3.232   6.855
 4353SOL    HW213959   3.464   3.158   6.719
 4354SOL     OW13960   2.056   1.246   6.088
 4354SOL    HW113961   1.986   1.315   6.068
 4354SOL    HW213962   2.135   1.290   6.130
 4355SOL     OW13963   1.887   0.242   3.063
 4355SOL    HW113964   1.822   0.278   2.997
 4355SOL    HW213965   1.980   0.252   3.026
 4356SOL     OW13966   4.676   3.630   6.325
 4356SOL    HW113967   4.771   3.646   6.297
 4356SOL    HW213968   4.618   3.706   6.294
 4357SOL     OW13969   7.008   0.821   1.502
 4357SOL    HW113970   7.011   0.913   1.465
 4357SOL    HW213971   6.924   0.808   1.554
 4358SOL     OW13972   6.459   0.821   0.612
 4358SOL    HW113973   6.362   0.843   0.623
 4358SOL    HW213974   6.471   0.754   0.538
 4359SOL     OW13975   1.472   1.107   6.815
 4359SOL    HW113976   1.483   1.206   6.802
 4359SOL    HW213977   1.550   1.059   6.775
 4360SOL     OW13978   0.533   3.254   3.928
 4360SOL    HW113979   0.516   3.250   3.829
 4360SOL    HW213980   0.457   3.303   3.972
 4361SOL     OW13981   2.362   4.089   1.525
 4361SOL    HW113982   2.388   4.164   1.465
 4361SOL    HW213983   2.328   4.126   1.612
 4362SOL     OW13984   6.735   5.716   4.377
 4362SOL    HW113985   6.776   5.763   4.299
 4362SOL    HW213986   6.764   5.761   4.462
 4363SOL     OW13987   4.598   1.492   1.728
 4363SOL    HW113988   4.555   1.582   1.727
 4363SOL    HW213989   4.697   1.503   1.731
 4364SOL     OW13990   3.013   3.957   3.691
 4364SOL    HW113991   3.034   3.907   3.608
 4364SOL    HW213992   2.920   3.934   3.721
 4365SOL     OW13993   2.408   0.787   2.272
 4365SOL    HW113994   2.448   0.840   2.197
 4365SOL    HW213995   2.318   0.754   2.246
 4366SOL     OW13996   6.117   6.902   6.402
 4366SOL    HW113997   6.217   6.911   6.402
 4366SOL    HW213998   6.078   6.975   6.459
 4367SOL     OW13999   2.500   4.837   3.653
 4367SOL    HW114000   2.541   4.764   3.599
 4367SOL    HW214001   2.451   4.900   3.593
 4368SOL     OW14002   3.561   5.602   2.058
 4368SOL    HW114003   3.463   5.618   2.062
 4368SOL    HW214004   3.599   5.606   2.151
 4369SOL     OW14005   4.761   4.945   2.919
 4369SOL    HW114006   4.761   4.933   3.018
 4369SOL    HW214007   4.711   5.029   2.896
 4370SOL     OW14008   3.847   4.678   1.275
 4370SOL    HW114009   3.778   4.750   1.268
 4370SOL    HW214010   3.831   4.623   1.357
 4371SOL     OW14011   2.041   2.052   2.881
 4371SOL    HW114012   2.013   1.996   2.804
 4371SOL    HW214013   1.990   2.138   2.880
 4372SOL     OW14014   2.364   2.756   4.343
 4372SOL    HW114015   2.341   2.853   4.343
 4372SOL    HW214016   2.339   2.716   4.431
 4373SOL     OW14017   4.390   1.032   0.105
 4373SOL    HW114018   4.381   1.032   0.006
 4373SOL    HW214019   4.366   0.942   0.141
 4374SOL     OW14020   1.281   1.595   1.597
 4374SOL    HW114021   1.261   1.693   1.586
 4374SOL    HW214022   1.236   1.544   1.525
 4375SOL     OW14023   4.112   5.823   2.702
 4375SOL    HW114024   4.098   5.919   2.725
 4375SOL    HW214025   4.041   5.793   2.639
 4376SOL     OW14026   6.101   0.389   2.458
 4376SOL    HW114027   6.147   0.478   2.462
 4376SOL    HW214028   6.152   0.327   2.399
 4377SOL     OW14029   5.722   5.342   6.969
 4377SOL    HW114030   5.624   5.348   6.950
 4377SOL    HW214031   5.749   5.247   6.982
 4378SOL     OW14032   1.862   3.183   2.624
 4378SOL    HW114033   1.786   3.142   2.573
 4378SOL    HW214034   1.856   3.157   2.720
 4379SOL     OW14035   2.062   1.683   1.634
 4379SOL    HW114036   2.068   1.611   1.564
 4379SOL    HW214037   2.050   1.641   1.724
 4380SOL     OW14038   1.949   6.244   4.119
 4380SOL    HW114039   1.951   6.175   4.191
 4380SOL    HW214040   1.956   6.335   4.160
 4381SOL     OW14041   2.261   4.238   4.859
 4381SOL    HW114042   2.311   4.323   4.873
 4381SOL    HW214043   2.281   4.175   4.933
 4382SOL     OW14044   5.958   3.303   6.458
 4382SOL    HW114045   5.921   3.222   6.414
 4382SOL    HW214046   6.021   3.276   6.531
 4383SOL     OW14047   0.706   2.992   5.662
 4383SOL    HW114048   0.648   2.919   5.698
 4383SOL    HW214049   0.801   2.964   5.667
 4384SOL     OW14050   5.671   1.172   6.559
 4384SOL    HW114051   5.737   1.097   6.557
 4384SOL    HW214052   5.713   1.255   6.524
 4385SOL     OW14053   6.907   2.578   4.554
 4385SOL    HW114054   6.846   2.499   4.565
 4385SOL    HW214055   6.995   2.559   4.597
 4386SOL     OW14056   1.771   3.600   6.627
 4386SOL    HW114057   1.678   3.625   6.652
 4386SOL    HW214058   1.836   3.652   6.684
 4387SOL     OW14059   0.669   1.303   1.534
 4387SOL    HW114060   0.758   1.266   1.561
 4387SOL    HW214061   0.625   1.240   1.469
 4388SOL     OW14062   4.692   1.073   6.243
 4388SOL    HW114063   4.596   1.048   6.252
 4388SOL    HW214064   4.710   1.102   6.148
 4389SOL     OW14065   5.912   1.893   0.494
 4389SOL    HW114066   5.841   1.853   0.436
 4389SOL    HW214067   5.983   1.933   0.436
 4390SOL     OW14068   4.057   1.498   2.284
 4390SOL    HW114069   4.105   1.422   2.240
 4390SOL    HW214070   4.106   1.583   2.267
 4391SOL     OW14071   1.619   5.693   5.595
 4391SOL    HW114072   1.561   5.734   5.525
 4391SOL    HW214073   1.663   5.611   5.558
 4392SOL     OW14074   6.613   3.723   5.406
 4392SOL    HW114075   6.619   3.772   5.319
 4392SOL    HW214076   6.678   3.647   5.406
 4393SOL     OW14077   5.443   6.551   3.144
 4393SOL    HW114078   5.444   6.620   3.071
 4393SOL    HW214079   5.458   6.595   3.232
 4394SOL     OW14080   6.471   5.416   2.813
 4394SOL    HW114081   6.558   5.438   2.769
 4394SOL    HW214082   6.413   5.497   2.815
 4395SOL     OW14083   3.921   0.952   2.054
 4395SOL    HW114084   3.835   0.964   2.005
 4395SOL    HW214085   3.996   0.945   1.989
 4396SOL     OW14086   2.492   2.288   4.398
 4396SOL    HW114087   2.480   2.360   4.467
 4396SOL    HW214088   2.409   2.283   4.342
 4397SOL     OW14089   0.664   1.529   4.978
 4397SOL    HW114090   0.608   1.547   4.897
 4397SOL    HW214091   0.613   1.471   5.041
 4398SOL     OW14092   0.944   4.475   4.868
 4398SOL    HW114093   0.876   4.407   4.898
 4398SOL    HW214094   0.937   4.489   4.770
 4399SOL     OW14095   1.345   0.872   1.971
 4399SOL    HW114096   1.267   0.811   1.962
 4399SOL    HW214097   1.357   0.896   2.067
 4400SOL     OW14098   2.447   0.167   4.983
 4400SOL    HW114099   2.451   0.195   4.887
 4400SOL    HW214100   2.392   0.233   5.035
 4401SOL     OW14101   5.164   0.098   6.729
 4401SOL    HW114102   5.173   0.000   6.749
 4401SOL    HW214103   5.254   0.140   6.723
 4402SOL     OW14104   2.090   6.823   1.890
 4402SOL    HW114105   2.068   6.730   1.862
 4402SOL    HW214106   2.024   6.855   1.957
 4403SOL     OW14107   0.491   6.962   4.364
 4403SOL    HW114108   0.473   0.041   4.354
 4403SOL    HW214109   0.583   6.941   4.331
 4404SOL     OW14110   0.824   4.236   5.724
 4404SOL    HW114111   0.817   4.288   5.809
 4404SOL    HW214112   0.852   4.142   5.743
 4405SOL     OW14113   2.977   4.273   0.800
 4405SOL    HW114114   3.028   4.187   0.800
 4405SOL    HW214115   2.879   4.253   0.790
 4406SOL     OW14116   6.729   4.527   1.255
 4406SOL    HW114117   6.677   4.524   1.340
 4406SOL    HW214118   6.758   4.621   1.236
 4407SOL     OW14119   0.597   4.116   0.375
 4407SOL    HW114120   0.533   4.128   0.299
 4407SOL    HW214121   0.690   4.134   0.343
 4408SOL     OW14122   4.113   1.168   1.474
 4408SOL    HW114123   4.085   1.076   1.446
 4408SOL    HW214124   4.144   1.166   1.569
 4409SOL     OW14125   4.248   6.915   1.918
 4409SOL    HW114126   4.326   6.977   1.923
 4409SOL    HW214127   4.277   6.827   1.880
 4410SOL     OW14128   1.507   5.481   0.232
 4410SOL    HW114129   1.529   5.453   0.325
 4410SOL    HW214130   1.527   5.406   0.169
 4411SOL     OW14131   3.276   3.112   4.007
 4411SOL    HW114132   3.335   3.188   3.978
 4411SOL    HW214133   3.184   3.125   3.971
 4412SOL     OW14134   3.256   0.948   4.988
 4412SOL    HW114135   3.208   0.919   4.905
 4412SOL    HW214136   3.353   0.962   4.968
 4413SOL     OW14137   4.665   5.537   4.776
 4413SOL    HW114138   4.650   5.538   4.678
 4413SOL    HW214139   4.600   5.598   4.821
 4414SOL     OW14140   3.887   4.936   1.579
 4414SOL    HW114141   3.977   4.893   1.589
 4414SOL    HW214142   3.884   4.988   1.494
 4415SOL     OW14143   4.249   3.643   6.351
 4415SOL    HW114144   4.327   3.696   6.383
 4415SOL    HW214145   4.229   3.668   6.256
 4416SOL     OW14146   2.728   0.410   4.154
 4416SOL    HW114147   2.669   0.356   4.214
 4416SOL    HW214148   2.749   0.497   4.197
 4417SOL     OW14149   5.917   4.346   3.169
 4417SOL    HW114150   5.970   4.331   3.252
 4417SOL    HW214151   5.853   4.270   3.157
 4418SOL     OW14152   4.962   0.905   3.355
 4418SOL    HW114153   4.952   0.857   3.268
 4418SOL    HW214154   5.059   0.909   3.380
 4419SOL     OW14155   5.315   5.992   0.405
 4419SOL    HW114156   5.362   6.080   0.402
 4419SOL    HW214157   5.344   5.935   0.328
 4420SOL     OW14158   5.130   1.649   1.505
 4420SOL    HW114159   5.042   1.606   1.521
 4420SOL    HW214160   5.202   1.580   1.509
 4421SOL     OW14161   1.981   1.410   4.023
 4421SOL    HW114162   1.998   1.372   3.932
 4421SOL    HW214163   1.899   1.467   4.021
 4422SOL     OW14164   2.491   4.255   5.861
 4422SOL    HW114165   2.577   4.244   5.911
 4422SOL    HW214166   2.441   4.334   5.898
 4423SOL     OW14167   1.334   2.748   5.338
 4423SOL    HW114168   1.337   2.848   5.347
 4423SOL    HW214169   1.367   2.721   5.248
 4424SOL     OW14170   5.250   0.133   4.122
 4424SOL    HW114171   5.233   0.182   4.207
 4424SOL    HW214172   5.339   0.160   4.085
 4425SOL     OW14173   3.873   5.773   6.333
 4425SOL    HW114174   3.805   5.775   6.259
 4425SOL    HW214175   3.960   5.739   6.298
 4426SOL     OW14176   0.272   2.096   4.534
 4426SOL    HW114177   0.300   2.074   4.440
 4426SOL    HW214178   0.184   2.054   4.553
 4427SOL     OW14179   6.810   6.793   2.821
 4427SOL    HW114180   6.864   6.876   2.810
 4427SOL    HW214181   6.860   6.727   2.878
 4428SOL     OW14182   3.305   5.687   2.085
 4428SOL    HW114183   3.294   5.786   2.099
 4428SOL    HW214184   3.222   5.640   2.114
 4429SOL     OW14185   2.784   0.183   3.151
 4429SOL    HW114186   2.691   0.153   3.172
 4429SOL    HW214187   2.782   0.244   3.072
 4430SOL     OW14188   4.973   3.372   5.042
 4430SOL    HW114189   4.978   3.364   5.141
 4430SOL    HW214190   4.907   3.444   5.017
 4431SOL     OW14191   1.503   0.909   2.200
 4431SOL    HW114192   1.523   0.813   2.215
 4431SOL    HW214193   1.507   0.958   2.287
 4432SOL     OW14194   3.302   3.994   4.231
 4432SOL    HW114195   3.378   4.042   4.188
 4432SOL    HW214196   3.239   3.961   4.160
 4433SOL     OW14197   5.764   0.406   4.764
 4433SOL    HW114198   5.696   0.334   4.752
 4433SOL    HW214199   5.725   0.480   4.819
 4434SOL     OW14200   3.692   1.780   3.514
 4434SOL    HW114201   3.602   1.772   3.472
 4434SOL    HW214202   3.682   1.790   3.613
 4435SOL     OW14203   4.151   3.884   1.055
 4435SOL    HW114204   4.244   3.921   1.052
 4435SOL    HW214205   4.153   3.796   1.103
 4436SOL     OW14206   4.224   1.376   1.313
 4436SOL    HW114207   4.179   1.305   1.367
 4436SOL    HW214208   4.239   1.456   1.371
 4437SOL     OW14209   5.492   1.581   4.273
 4437SOL    HW114210   5.588   1.564   4.249
 4437SOL    HW214211   5.464   1.668   4.233
 4438SOL     OW14212   4.882   0.993   0.569
 4438SOL    HW114213   4.938   0.910   0.562
 4438SOL    HW214214   4.793   0.970   0.609
 4439SOL     OW14215   0.720   6.197   1.633
 4439SOL    HW114216   0.695   6.206   1.536
 4439SOL    HW214217   0.637   6.200   1.689
 4440SOL     OW14218   1.879   4.858   0.678
 4440SOL    HW114219   1.834   4.861   0.590
 4440SOL    HW214220   1.816   4.824   0.748
 4441SOL     OW14221   6.735   1.805   2.582
 4441SOL    HW114222   6.749   1.831   2.487
 4441SOL    HW214223   6.684   1.877   2.629
 4442SOL     OW14224   2.630   5.807   5.047
 4442SOL    HW114225   2.716   5.856   5.063
 4442SOL    HW214226   2.553   5.869   5.060
 4443SOL     OW14227   6.715   3.251   1.293
 4443SOL    HW114228   6.631   3.294   1.258
 4443SOL    HW214229   6.745   3.300   1.375
 4444SOL     OW14230   4.083   5.340   6.104
 4444SOL    HW114231   4.044   5.258   6.062
 4444SOL    HW214232   4.083   5.414   6.037
 4445SOL     OW14233   6.427   0.254   1.040
 4445SOL    HW114234   6.449   0.167   0.997
 4445SOL    HW214235   6.329   0.272   1.034
 4446SOL     OW14236   6.118   1.727   2.010
 4446SOL    HW114237   6.136   1.678   2.095
 4446SOL    HW214238   6.137   1.824   2.023
 4447SOL     OW14239   6.025   3.575   6.226
 4447SOL    HW114240   6.037   3.665   6.266
 4447SOL    HW214241   5.942   3.533   6.264
 4448SOL     OW14242   3.062   4.390   1.051
 4448SOL    HW114243   3.000   4.380   0.974
 4448SOL    HW214244   3.146   4.339   1.034
 4449SOL     OW14245   4.638   0.736   6.240
 4449SOL    HW114246   4.586   0.821   6.246
 4449SOL    HW214247   4.668   0.708   6.331
 4450SOL     OW14248   3.940   3.468   4.127
 4450SOL    HW114249   3.950   3.567   4.140
 4450SOL    HW214250   3.843   3.445   4.124
 4451SOL     OW14251   5.965   4.089   3.717
 4451SOL    HW114252   6.022   4.007   3.720
 4451SOL    HW214253   6.024   4.170   3.708
 4452SOL     OW14254   5.574   6.733   4.106
 4452SOL    HW114255   5.633   6.755   4.029
 4452SOL    HW214256   5.528   6.646   4.089
 4453SOL     OW14257   6.939   2.866   1.281
 4453SOL    HW114258   6.905   2.930   1.212
 4453SOL    HW214259   6.977   2.917   1.358
 4454SOL     OW14260   6.378   2.132   6.910
 4454SOL    HW114261   6.349   2.147   6.816
 4454SOL    HW214262   6.474   2.102   6.911
 4455SOL     OW14263   3.879   7.001   6.687
 4455SOL    HW114264   3.934   7.019   6.769
 4455SOL    HW214265   3.884   0.062   6.626
 4456SOL     OW14266   2.888   5.304   2.119
 4456SOL    HW114267   2.921   5.346   2.034
 4456SOL    HW214268   2.815   5.239   2.098
 4457SOL     OW14269   4.240   2.631   0.762
 4457SOL    HW114270   4.273   2.711   0.713
 4457SOL    HW214271   4.249   2.550   0.704
 4458SOL     OW14272   1.063   3.869   6.911
 4458SOL    HW114273   1.004   3.905   6.839
 4458SOL    HW214274   1.158   3.869   6.879
 4459SOL     OW14275   4.525   0.614   3.771
 4459SOL    HW114276   4.576   0.699   3.784
 4459SOL    HW214277   4.481   0.588   3.857
 4460SOL     OW14278   2.999   2.992   5.298
 4460SOL    HW114279   2.912   2.944   5.314
 4460SOL    HW214280   2.997   3.035   5.208
 4461SOL     OW14281   1.346   0.419   2.466
 4461SOL    HW114282   1.406   0.358   2.517
 4461SOL    HW214283   1.392   0.507   2.452
 4462SOL     OW14284   6.582   4.010   1.442
 4462SOL    HW114285   6.626   4.048   1.523
 4462SOL    HW214286   6.516   3.940   1.469
 4463SOL     OW14287   4.358   2.891   0.154
 4463SOL    HW114288   4.374   2.945   0.071
 4463SOL    HW214289   4.276   2.835   0.142
 4464SOL     OW14290   6.897   4.948   0.125
 4464SOL    HW114291   6.826   4.881   0.104
 4464SOL    HW214292   6.868   5.005   0.202
 4465SOL     OW14293   2.648   5.702   2.418
 4465SOL    HW114294   2.652   5.785   2.362
 4465SOL    HW214295   2.715   5.636   2.384
 4466SOL     OW14296   1.476   1.392   2.958
 4466SOL    HW114297   1.524   1.348   2.882
 4466SOL    HW214298   1.474   1.491   2.943
 4467SOL     OW14299   1.482   0.041   3.478
 4467SOL    HW114300   1.438   7.011   3.554
 4467SOL    HW214301   1.517   6.994   3.411
 4468SOL     OW14302   1.838   2.770   0.894
 4468SOL    HW114303   1.919   2.739   0.944
 4468SOL    HW214304   1.776   2.817   0.957
 4469SOL     OW14305   3.920   0.396   1.494
 4469SOL    HW114306   3.964   0.344   1.420
 4469SOL    HW214307   3.867   0.334   1.551
 4470SOL     OW14308   6.008   3.166   1.922
 4470SOL    HW114309   5.959   3.129   1.843
 4470SOL    HW214310   5.942   3.194   1.992
 4471SOL     OW14311   0.071   2.233   6.723
 4471SOL    HW114312   0.142   2.236   6.793
 4471SOL    HW214313   0.016   2.316   6.727
 4472SOL     OW14314   1.748   3.133   3.685
 4472SOL    HW114315   1.715   3.228   3.691
 4472SOL    HW214316   1.759   3.096   3.777
 4473SOL     OW14317   6.961   2.617   3.930
 4473SOL    HW114318   0.001   2.675   3.875
 4473SOL    HW214319   6.973   2.640   4.027
 4474SOL     OW14320   3.773   0.442   2.070
 4474SOL    HW114321   3.792   0.357   2.118
 4474SOL    HW214322   3.859   0.486   2.044
 4475SOL     OW14323   1.732   3.622   2.479
 4475SOL    HW114324   1.737   3.524   2.458
 4475SOL    HW214325   1.787   3.641   2.560
 4476SOL     OW14326   4.823   6.496   4.072
 4476SOL    HW114327   4.749   6.487   4.006
 4476SOL    HW214328   4.787   6.531   4.158
 4477SOL     OW14329   1.298   0.266   5.859
 4477SOL    HW114330   1.396   0.254   5.846
 4477SOL    HW214331   1.280   0.299   5.951
 4478SOL     OW14332   3.429   6.431   2.668
 4478SOL    HW114333   3.449   6.338   2.699
 4478SOL    HW214334   3.500   6.494   2.699
 4479SOL     OW14335   0.748   0.895   1.269
 4479SOL    HW114336   0.835   0.847   1.271
 4479SOL    HW214337   0.703   0.878   1.181
 4480SOL     OW14338   2.237   3.604   5.506
 4480SOL    HW114339   2.156   3.547   5.498
 4480SOL    HW214340   2.241   3.668   5.429
 4481SOL     OW14341   2.363   6.594   5.057
 4481SOL    HW114342   2.446   6.556   5.096
 4481SOL    HW214343   2.303   6.627   5.130
 4482SOL     OW14344   0.509   4.093   4.134
 4482SOL    HW114345   0.594   4.071   4.182
 4482SOL    HW214346   0.477   4.183   4.162
 4483SOL     OW14347   4.963   3.430   2.385
 4483SOL    HW114348   4.874   3.393   2.359
 4483SOL    HW214349   4.979   3.516   2.337
 4484SOL     OW14350   3.282   2.765   5.579
 4484SOL    HW114351   3.371   2.738   5.616
 4484SOL    HW214352   3.290   2.779   5.480
 4485SOL     OW14353   5.164   1.578   5.133
 4485SOL    HW114354   5.213   1.602   5.049
 4485SOL    HW214355   5.154   1.660   5.190
 4486SOL     OW14356   4.932   4.288   4.602
 4486SOL    HW114357   4.999   4.223   4.564
 4486SOL    HW214358   4.970   4.381   4.597
 4487SOL     OW14359   2.913   2.957   6.448
 4487SOL    HW114360   2.879   2.913   6.365
 4487SOL    HW214361   2.925   3.055   6.431
 4488SOL     OW14362   6.260   3.698   5.694
 4488SOL    HW114363   6.305   3.665   5.777
 4488SOL    HW214364   6.163   3.674   5.696
 4489SOL     OW14365   6.164   5.284   4.333
 4489SOL    HW114366   6.161   5.369   4.281
 4489SOL    HW214367   6.091   5.223   4.301
 4490SOL     OW14368   6.316   2.484   3.205
 4490SOL    HW114369   6.289   2.409   3.144
 4490SOL    HW214370   6.412   2.474   3.229
 4491SOL     OW14371   0.256   3.040   4.661
 4491SOL    HW114372   0.246   3.064   4.757
 4491SOL    HW214373   0.173   3.065   4.611
 4492SOL     OW14374   5.361   4.194   1.554
 4492SOL    HW114375   5.269   4.162   1.532
 4492SOL    HW214376   5.375   4.285   1.516
 4493SOL     OW14377   4.424   6.430   5.303
 4493SOL    HW114378   4.468   6.488   5.235
 4493SOL    HW214379   4.490   6.402   5.372
 4494SOL     OW14380   6.783   1.514   5.713
 4494SOL    HW114381   6.729   1.591   5.747
 4494SOL    HW214382   6.723   1.444   5.676
 4495SOL     OW14383   4.627   5.877   4.324
 4495SOL    HW114384   4.539   5.835   4.348
 4495SOL    HW214385   4.611   5.961   4.272
 4496SOL     OW14386   5.175   5.580   1.329
 4496SOL    HW114387   5.115   5.514   1.374
 4496SOL    HW214388   5.216   5.640   1.399
 4497SOL     OW14389   4.606   0.833   6.586
 4497SOL    HW114390   4.620   0.863   6.680
 4497SOL    HW214391   4.534   0.888   6.544
 4498SOL     OW14392   6.593   3.232   6.289
 4498SOL    HW114393   6.664   3.300   6.272
 4498SOL    HW214394   6.531   3.228   6.211
 4499SOL     OW14395   7.008   3.767   3.731
 4499SOL    HW114396   6.981   3.670   3.730
 4499SOL    HW214397   0.015   3.795   3.639
 4500SOL     OW14398   3.018   3.215   3.663
 4500SOL    HW114399   2.999   3.218   3.762
 4500SOL    HW214400   3.065   3.130   3.641
 4501SOL     OW14401   6.913   2.963   5.511
 4501SOL    HW114402   6.964   2.883   5.476
 4501SOL    HW214403   6.819   2.960   5.477
 4502SOL     OW14404   1.139   1.928   6.558
 4502SOL    HW114405   1.165   1.854   6.621
 4502SOL    HW214406   1.045   1.957   6.576
 4503SOL     OW14407   3.308   0.225   2.380
 4503SOL    HW114408   3.283   0.250   2.473
 4503SOL    HW214409   3.380   0.286   2.347
 4504SOL     OW14410   6.598   1.742   4.684
 4504SOL    HW114411   6.605   1.768   4.780
 4504SOL    HW214412   6.620   1.645   4.674
 4505SOL     OW14413   6.319   5.905   3.043
 4505SOL    HW114414   6.333   5.997   3.078
 4505SOL    HW214415   6.371   5.893   2.959
 4506SOL     OW14416   4.493   2.343   3.507
 4506SOL    HW114417   4.517   2.295   3.423
 4506SOL    HW214418   4.408   2.306   3.544
 4507SOL     OW14419   5.689   5.118   2.640
 4507SOL    HW114420   5.675   5.119   2.739
 4507SOL    HW214421   5.601   5.110   2.594
 4508SOL     OW14422   1.048   4.710   5.903
 4508SOL    HW114423   1.073   4.800   5.868
 4508SOL    HW214424   1.121   4.645   5.881
 4509SOL     OW14425   5.266   2.997   2.794
 4509SOL    HW114426   5.308   2.916   2.835
 4509SOL    HW214427   5.179   2.971   2.752
 4510SOL     OW14428   4.604   0.602   4.969
 4510SOL    HW114429   4.608   0.699   4.993
 4510SOL    HW214430   4.669   0.551   5.026
 4511SOL     OW14431   6.488   3.133   6.538
 4511SOL    HW114432   6.520   3.165   6.450
 4511SOL    HW214433   6.562   3.138   6.605
 4512SOL     OW14434   2.614   6.906   5.544
 4512SOL    HW114435   2.586   6.823   5.495
 4512SOL    HW214436   2.558   6.982   5.513
 4513SOL     OW14437   5.088   6.339   0.638
 4513SOL    HW114438   5.178   6.296   0.646
 4513SOL    HW214439   5.027   6.304   0.708
 4514SOL     OW14440   4.656   1.233   5.446
 4514SOL    HW114441   4.701   1.321   5.462
 4514SOL    HW214442   4.721   1.159   5.464
 4515SOL     OW14443   0.486   3.134   5.951
 4515SOL    HW114444   0.491   3.198   5.874
 4515SOL    HW214445   0.550   3.162   6.023
 4516SOL     OW14446   1.595   0.080   6.715
 4516SOL    HW114447   1.670   0.021   6.746
 4516SOL    HW214448   1.541   0.109   6.794
 4517SOL     OW14449   2.807   0.999   6.499
 4517SOL    HW114450   2.832   1.052   6.581
 4517SOL    HW214451   2.832   1.051   6.418
 4518SOL     OW14452   6.648   1.002   3.459
 4518SOL    HW114453   6.592   0.942   3.517
 4518SOL    HW214454   6.685   1.076   3.515
 4519SOL     OW14455   5.453   0.318   2.108
 4519SOL    HW114456   5.528   0.253   2.100
 4519SOL    HW214457   5.412   0.311   2.199
 4520SOL     OW14458   4.988   6.025   3.497
 4520SOL    HW114459   5.029   6.081   3.570
 4520SOL    HW214460   4.919   6.078   3.448
 4521SOL     OW14461   5.957   2.058   3.759
 4521SOL    HW114462   5.944   1.964   3.729
 4521SOL    HW214463   6.054   2.073   3.778
 4522SOL     OW14464   5.631   0.033   3.402
 4522SOL    HW114465   5.593   0.015   3.311
 4522SOL    HW214466   5.686   6.974   3.432
 4523SOL     OW14467   1.528   4.362   0.234
 4523SOL    HW114468   1.552   4.432   0.301
 4523SOL    HW214469   1.611   4.330   0.188
 4524SOL     OW14470   5.537   2.449   3.846
 4524SOL    HW114471   5.549   2.515   3.921
 4524SOL    HW214472   5.439   2.431   3.833
 4525SOL     OW14473   5.328   1.455   3.494
 4525SOL    HW114474   5.299   1.520   3.424
 4525SOL    HW214475   5.350   1.505   3.578
 4526SOL     OW14476   5.231   0.911   1.161
 4526SOL    HW114477   5.265   0.999   1.194
 4526SOL    HW214478   5.250   0.902   1.063
 4527SOL     OW14479   3.965   1.418   3.645
 4527SOL    HW114480   4.013   1.473   3.578
 4527SOL    HW214481   3.893   1.365   3.600
 4528SOL     OW14482   4.690   6.686   0.003
 4528SOL    HW114483   4.664   6.618   6.953
 4528SOL    HW214484   4.730   6.640   0.082
 4529SOL     OW14485   3.576   1.749   5.012
 4529SOL    HW114486   3.575   1.679   4.941
 4529SOL    HW214487   3.610   1.835   4.974
 4530SOL     OW14488   0.353   3.484   6.249
 4530SOL    HW114489   0.350   3.495   6.150
 4530SOL    HW214490   0.260   3.490   6.286
 4531SOL     OW14491   0.743   3.411   3.909
 4531SOL    HW114492   0.672   3.342   3.919
 4531SOL    HW214493   0.812   3.379   3.844
 4532SOL     OW14494   6.167   2.098   3.508
 4532SOL    HW114495   6.256   2.108   3.464
 4532SOL    HW214496   6.177   2.105   3.607
 4533SOL     OW14497   1.588   0.651   2.285
 4533SOL    HW114498   1.563   0.652   2.382
 4533SOL    HW214499   1.661   0.585   2.269
 4534SOL     OW14500   5.031   4.391   5.014
 4534SOL    HW114501   5.092   4.363   4.940
 4534SOL    HW214502   4.951   4.330   5.017
 4535SOL     OW14503   4.747   1.497   2.487
 4535SOL    HW114504   4.688   1.464   2.560
 4535SOL    HW214505   4.842   1.473   2.507
 4536SOL     OW14506   3.685   1.925   4.053
 4536SOL    HW114507   3.769   1.922   4.108
 4536SOL    HW214508   3.708   1.915   3.956
 4537SOL     OW14509   3.664   3.202   5.715
 4537SOL    HW114510   3.738   3.258   5.753
 4537SOL    HW214511   3.609   3.259   5.654
 4538SOL     OW14512   2.740   0.518   4.661
 4538SOL    HW114513   2.659   0.572   4.641
 4538SOL    HW214514   2.785   0.555   4.743
 4539SOL     OW14515   2.325   1.051   4.332
 4539SOL    HW114516   2.369   1.056   4.242
 4539SOL    HW214517   2.375   1.108   4.397
 4540SOL     OW14518   3.056   3.438   4.721
 4540SOL    HW114519   3.138   3.478   4.762
 4540SOL    HW214520   2.987   3.509   4.709
 4541SOL     OW14521   6.049   1.680   0.659
 4541SOL    HW114522   6.012   1.772   0.647
 4541SOL    HW214523   6.014   1.640   0.744
 4542SOL     OW14524   6.252   0.822   2.969
 4542SOL    HW114525   6.317   0.855   2.901
 4542SOL    HW214526   6.300   0.766   3.037
 4543SOL     OW14527   5.185   1.843   1.311
 4543SOL    HW114528   5.162   1.763   1.366
 4543SOL    HW214529   5.118   1.852   1.237
 4544SOL     OW14530   3.093   6.370   6.364
 4544SOL    HW114531   3.010   6.410   6.325
 4544SOL    HW214532   3.147   6.327   6.292
 4545SOL     OW14533   5.549   3.272   4.831
 4545SOL    HW114534   5.470   3.302   4.778
 4545SOL    HW214535   5.519   3.209   4.903
 4546SOL     OW14536   2.158   1.579   6.421
 4546SOL    HW114537   2.121   1.494   6.458
 4546SOL    HW214538   2.171   1.645   6.495
 4547SOL     OW14539   6.274   2.687   2.870
 4547SOL    HW114540   6.370   2.705   2.846
 4547SOL    HW214541   6.251   2.592   2.848
 4548SOL     OW14542   1.195   4.262   4.828
 4548SOL    HW114543   1.114   4.272   4.885
 4548SOL    HW214544   1.171   4.217   4.742
 4549SOL     OW14545   5.833   3.998   2.533
 4549SOL    HW114546   5.800   3.962   2.621
 4549SOL    HW214547   5.933   4.002   2.534
 4550SOL     OW14548   1.504   6.417   3.068
 4550SOL    HW114549   1.585   6.358   3.063
 4550SOL    HW214550   1.449   6.404   2.985
 4551SOL     OW14551   6.160   1.280   6.101
 4551SOL    HW114552   6.235   1.215   6.092
 4551SOL    HW214553   6.081   1.248   6.048
 4552SOL     OW14554   6.470   2.382   1.047
 4552SOL    HW114555   6.527   2.364   0.967
 4552SOL    HW214556   6.412   2.461   1.030
 4553SOL     OW14557   3.942   4.260   6.966
 4553SOL    HW114558   4.012   4.314   7.012
 4553SOL    HW214559   3.865   4.246   0.009
 4554SOL     OW14560   4.488   0.391   1.657
 4554SOL    HW114561   4.533   0.481   1.651
 4554SOL    HW214562   4.431   0.378   1.576
 4555SOL     OW14563   3.501   1.439   5.890
 4555SOL    HW114564   3.567   1.430   5.815
 4555SOL    HW214565   3.550   1.464   5.973
 4556SOL     OW14566   4.509   2.441   4.065
 4556SOL    HW114567   4.442   2.392   4.120
 4556SOL    HW214568   4.550   2.378   3.998
 4557SOL     OW14569   4.541   6.809   4.488
 4557SOL    HW114570   4.633   6.775   4.467
 4557SOL    HW214571   4.475   6.735   4.477
 4558SOL     OW14572   0.158   3.553   5.600
 4558SOL    HW114573   0.114   3.638   5.627
 4558SOL    HW214574   0.115   3.516   5.518
 4559SOL     OW14575   1.143   4.121   1.531
 4559SOL    HW114576   1.155   4.091   1.436
 4559SOL    HW214577   1.157   4.220   1.536
 4560SOL     OW14578   5.086   4.937   2.796
 4560SOL    HW114579   4.997   4.895   2.776
 4560SOL    HW214580   5.074   5.007   2.866
 4561SOL     OW14581   2.721   0.721   1.297
 4561SOL    HW114582   2.731   0.639   1.354
 4561SOL    HW214583   2.714   0.802   1.355
 4562SOL     OW14584   3.124   6.497   5.098
 4562SOL    HW114585   3.106   6.498   4.999
 4562SOL    HW214586   3.205   6.552   5.118
 4563SOL     OW14587   0.972   4.079   0.643
 4563SOL    HW114588   0.947   4.088   0.740
 4563SOL    HW214589   0.901   4.028   0.595
 4564SOL     OW14590   0.358   6.842   0.923
 4564SOL    HW114591   0.355   6.890   0.835
 4564SOL    HW214592   0.449   6.852   0.963
 4565SOL     OW14593   6.985   0.856   5.769
 4565SOL    HW114594   6.964   0.836   5.865
 4565SOL    HW214595   6.940   0.941   5.743
 4566SOL     OW14596   6.646   1.749   0.462
 4566SOL    HW114597   6.720   1.681   0.470
 4566SOL    HW214598   6.660   1.821   0.530
 4567SOL     OW14599   0.021   0.373   0.335
 4567SOL    HW114600   6.951   0.418   0.324
 4567SOL    HW214601   0.089   0.441   0.362
 4568SOL     OW14602   1.318   4.171   5.537
 4568SOL    HW114603   1.255   4.164   5.459
 4568SOL    HW214604   1.410   4.188   5.503
 4569SOL     OW14605   1.901   1.126   3.245
 4569SOL    HW114606   1.913   1.027   3.256
 4569SOL    HW214607   1.952   1.157   3.165
 4570SOL     OW14608   1.171   6.595   2.959
 4570SOL    HW114609   1.094   6.590   3.023
 4570SOL    HW214610   1.250   6.635   3.005
 4571SOL     OW14611   3.208   3.059   6.413
 4571SOL    HW114612   3.168   3.118   6.342
 4571SOL    HW214613   3.215   2.966   6.379
 4572SOL     OW14614   1.385   6.797   6.894
 4572SOL    HW114615   1.393   6.736   6.815
 4572SOL    HW214616   1.305   6.773   6.947
 4573SOL     OW14617   6.301   6.289   7.005
 4573SOL    HW114618   6.370   6.224   0.018
 4573SOL    HW214619   6.345   6.359   6.948
 4574SOL     OW14620   6.728   3.597   1.620
 4574SOL    HW114621   6.704   3.694   1.628
 4574SOL    HW214622   6.738   3.558   1.711
 4575SOL     OW14623   5.691   2.006   6.184
 4575SOL    HW114624   5.751   2.063   6.128
 4575SOL    HW214625   5.596   2.019   6.154
 4576SOL     OW14626   2.368   5.935   6.528
 4576SOL    HW114627   2.309   5.998   6.477
 4576SOL    HW214628   2.353   5.842   6.495
 4577SOL     OW14629   1.068   2.079   4.067
 4577SOL    HW114630   1.110   2.089   4.158
 4577SOL    HW214631   1.126   2.019   4.011
 4578SOL     OW14632   1.238   3.283   4.270
 4578SOL    HW114633   1.261   3.295   4.367
 4578SOL    HW214634   1.257   3.368   4.221
 4579SOL     OW14635   4.599   2.197   2.631
 4579SOL    HW114636   4.529   2.155   2.689
 4579SOL    HW214637   4.594   2.297   2.641
 4580SOL     OW14638   4.738   5.156   6.692
 4580SOL    HW114639   4.671   5.230   6.693
 4580SOL    HW214640   4.709   5.083   6.753
 4581SOL     OW14641   3.266   4.920   3.019
 4581SOL    HW114642   3.361   4.950   3.014
 4581SOL    HW214643   3.263   4.824   3.050
 4582SOL     OW14644   5.643   6.539   4.852
 4582SOL    HW114645   5.579   6.490   4.793
 4582SOL    HW214646   5.604   6.550   4.943
 4583SOL     OW14647   3.041   1.626   5.453
 4583SOL    HW114648   3.037   1.720   5.417
 4583SOL    HW214649   3.064   1.629   5.550
 4584SOL     OW14650   0.054   5.055   5.929
 4584SOL    HW114651   0.149   5.077   5.949
 4584SOL    HW214652   0.030   5.090   5.839
 4585SOL     OW14653   2.706   6.578   3.381
 4585SOL    HW114654   2.801   6.558   3.408
 4585SOL    HW214655   2.673   6.506   3.320
 4586SOL     OW14656   3.803   4.834   0.265
 4586SOL    HW114657   3.749   4.773   0.208
 4586SOL    HW214658   3.899   4.828   0.239
 4587SOL     OW14659   4.051   3.913   2.067
 4587SOL    HW114660   4.112   3.860   2.126
 4587SOL    HW214661   3.971   3.943   2.119
 4588SOL     OW14662   4.237   4.173   5.567
 4588SOL    HW114663   4.192   4.262   5.571
 4588SOL    HW214664   4.332   4.184   5.538
 4589SOL     OW14665   5.358   1.028   2.673
 4589SOL    HW114666   5.299   1.019   2.593
 4589SOL    HW214667   5.305   1.011   2.756
 4590SOL     OW14668   4.842   5.565   0.319
 4590SOL    HW114669   4.747   5.562   0.350
 4590SOL    HW214670   4.901   5.520   0.385
 4591SOL     OW14671   0.720   6.045   4.631
 4591SOL    HW114672   0.629   6.024   4.668
 4591SOL    HW214673   0.713   6.064   4.533
 4592SOL     OW14674   3.484   1.766   2.069
 4592SOL    HW114675   3.539   1.768   2.152
 4592SOL    HW214676   3.519   1.833   2.004
 4593SOL     OW14677   4.305   5.811   3.664
 4593SOL    HW114678   4.268   5.763   3.584
 4593SOL    HW214679   4.355   5.892   3.633
 4594SOL     OW14680   3.252   0.817   1.836
 4594SOL    HW114681   3.339   0.815   1.786
 4594SOL    HW214682   3.217   0.911   1.836
 4595SOL     OW14683   3.379   2.291   6.070
 4595SOL    HW114684   3.452   2.251   6.125
 4595SOL    HW214685   3.409   2.380   6.035
 4596SOL     OW14686   5.553   6.668   3.374
 4596SOL    HW114687   5.600   6.723   3.304
 4596SOL    HW214688   5.484   6.724   3.419
 4597SOL     OW14689   4.714   4.431   6.689
 4597SOL    HW114690   4.779   4.389   6.625
 4597SOL    HW214691   4.624   4.437   6.646
 4598SOL     OW14692   2.185   5.244   0.298
 4598SOL    HW114693   2.185   5.343   0.286
 4598SOL    HW214694   2.263   5.204   0.250
 4599SOL     OW14695   1.439   5.150   0.167
 4599SOL    HW114696   1.530   5.189   0.182
 4599SOL    HW214697   1.419   5.084   0.239
 4600SOL     OW14698   1.101   4.879   5.073
 4600SOL    HW114699   1.128   4.799   5.019
 4600SOL    HW214700   1.175   4.946   5.072
 4601SOL     OW14701   1.655   6.804   5.619
 4601SOL    HW114702   1.647   6.832   5.523
 4601SOL    HW214703   1.610   6.716   5.631
 4602SOL     OW14704   0.920   5.769   1.557
 4602SOL    HW114705   1.016   5.744   1.562
 4602SOL    HW214706   0.888   5.800   1.646
 4603SOL     OW14707   3.509   6.354   0.954
 4603SOL    HW114708   3.447   6.343   1.031
 4603SOL    HW214709   3.600   6.380   0.988
 4604SOL     OW14710   4.654   0.182   1.825
 4604SOL    HW114711   4.722   0.211   1.892
 4604SOL    HW214712   4.621   0.261   1.774
 4605SOL     OW14713   3.249   1.047   3.862
 4605SOL    HW114714   3.300   1.076   3.943
 4605SOL    HW214715   3.210   0.957   3.877
 4606SOL     OW14716   1.017   6.892   1.569
 4606SOL    HW114717   1.016   6.905   1.668
 4606SOL    HW214718   0.928   6.916   1.531
 4607SOL     OW14719   2.603   2.579   0.868
 4607SOL    HW114720   2.567   2.576   0.775
 4607SOL    HW214721   2.671   2.652   0.875
 4608SOL     OW14722   0.992   5.809   3.516
 4608SOL    HW114723   1.091   5.813   3.531
 4608SOL    HW214724   0.945   5.814   3.604
 4609SOL     OW14725   4.296   5.035   6.003
 4609SOL    HW114726   4.352   5.098   5.950
 4609SOL    HW214727   4.283   5.071   6.095
 4610SOL     OW14728   5.022   2.108   0.715
 4610SOL    HW114729   5.021   2.088   0.617
 4610SOL    HW214730   5.098   2.169   0.736
 4611SOL     OW14731   0.045   5.817   5.894
 4611SOL    HW114732   0.002   5.810   5.803
 4611SOL    HW214733   0.010   5.744   5.952
 4612SOL     OW14734   0.607   5.355   0.256
 4612SOL    HW114735   0.600   5.362   0.157
 4612SOL    HW214736   0.699   5.381   0.285
 4613SOL     OW14737   2.461   6.025   2.169
 4613SOL    HW114738   2.393   5.954   2.153
 4613SOL    HW214739   2.552   5.984   2.178
 4614SOL     OW14740   0.556   3.740   4.620
 4614SOL    HW114741   0.519   3.734   4.713
 4614SOL    HW214742   0.547   3.651   4.574
 4615SOL     OW14743   2.272   1.241   6.889
 4615SOL    HW114744   2.353   1.231   6.947
 4615SOL    HW214745   2.232   1.331   6.903
 4616SOL     OW14746   5.830   0.694   5.805
 4616SOL    HW114747   5.847   0.730   5.713
 4616SOL    HW214748   5.735   0.666   5.813
 4617SOL     OW14749   0.817   2.861   1.911
 4617SOL    HW114750   0.826   2.768   1.946
 4617SOL    HW214751   0.739   2.865   1.848
 4618SOL     OW14752   2.013   2.771   5.460
 4618SOL    HW114753   2.001   2.684   5.411
 4618SOL    HW214754   2.101   2.810   5.436
 4619SOL     OW14755   3.302   6.188   3.148
 4619SOL    HW114756   3.210   6.208   3.113
 4619SOL    HW214757   3.335   6.103   3.107
 4620SOL     OW14758   3.066   4.580   0.156
 4620SOL    HW114759   3.165   4.599   0.155
 4620SOL    HW214760   3.029   4.600   0.246
 4621SOL     OW14761   4.664   1.487   2.787
 4621SOL    HW114762   4.572   1.481   2.827
 4621SOL    HW214763   4.704   1.576   2.806
 4622SOL     OW14764   2.051   4.190   0.149
 4622SOL    HW114765   2.068   4.287   0.131
 4622SOL    HW214766   2.081   4.167   0.241
 4623SOL     OW14767   6.621   6.213   1.006
 4623SOL    HW114768   6.586   6.202   1.099
 4623SOL    HW214769   6.544   6.217   0.942
 4624SOL     OW14770   5.767   0.349   3.248
 4624SOL    HW114771   5.786   0.418   3.179
 4624SOL    HW214772   5.739   0.264   3.203
 4625SOL     OW14773   1.806   4.369   0.141
 4625SOL    HW114774   1.865   4.448   0.159
 4625SOL    HW214775   1.795   4.358   0.042
 4626SOL     OW14776   5.744   5.685   2.853
 4626SOL    HW114777   5.829   5.664   2.805
 4626SOL    HW214778   5.748   5.645   2.945
 4627SOL     OW14779   2.974   5.124   3.847
 4627SOL    HW114780   2.972   5.187   3.770
 4627SOL    HW214781   2.881   5.099   3.874
 4628SOL     OW14782   5.553   3.986   4.027
 4628SOL    HW114783   5.553   3.889   4.004
 4628SOL    HW214784   5.648   4.017   4.039
 4629SOL     OW14785   2.400   5.300   5.639
 4629SOL    HW114786   2.305   5.270   5.647
 4629SOL    HW214787   2.404   5.385   5.586
 4630SOL     OW14788   3.687   5.571   2.300
 4630SOL    HW114789   3.665   5.668   2.297
 4630SOL    HW214790   3.713   5.545   2.393
 4631SOL     OW14791   2.162   6.386   3.760
 4631SOL    HW114792   2.155   6.437   3.675
 4631SOL    HW214793   2.072   6.381   3.804
 4632SOL     OW14794   3.837   5.091   2.533
 4632SOL    HW114795   3.894   5.105   2.451
 4632SOL    HW214796   3.771   5.019   2.515
 4633SOL     OW14797   5.622   1.503   4.026
 4633SOL    HW114798   5.659   1.459   3.944
 4633SOL    HW214799   5.531   1.466   4.046
 4634SOL     OW14800   2.578   4.850   6.119
 4634SOL    HW114801   2.560   4.791   6.040
 4634SOL    HW214802   2.635   4.801   6.185
 4635SOL     OW14803   5.442   3.712   1.817
 4635SOL    HW114804   5.502   3.766   1.876
 4635SOL    HW214805   5.405   3.771   1.745
 4636SOL     OW14806   2.106   4.457   0.079
 4636SOL    HW114807   2.204   4.437   0.068
 4636SOL    HW214808   2.074   4.510   0.000
 4637SOL     OW14809   0.943   0.115   0.108
 4637SOL    HW114810   1.012   0.158   0.050
 4637SOL    HW214811   0.891   0.049   0.054
 4638SOL     OW14812   4.768   3.091   0.284
 4638SOL    HW114813   4.820   3.054   0.361
 4638SOL    HW214814   4.697   3.026   0.257
 4639SOL     OW14815   2.357   4.514   4.808
 4639SOL    HW114816   2.452   4.543   4.810
 4639SOL    HW214817   2.332   4.486   4.716
 4640SOL     OW14818   4.874   4.726   3.455
 4640SOL    HW114819   4.939   4.791   3.493
 4640SOL    HW214820   4.816   4.690   3.527
 4641SOL     OW14821   2.960   6.193   4.500
 4641SOL    HW114822   3.028   6.120   4.507
 4641SOL    HW214823   2.967   6.236   4.410
 4642SOL     OW14824   0.336   5.574   4.213
 4642SOL    HW114825   0.430   5.606   4.223
 4642SOL    HW214826   0.332   5.476   4.232
 4643SOL     OW14827   5.916   2.944   1.308
 4643SOL    HW114828   5.999   2.922   1.257
 4643SOL    HW214829   5.887   2.864   1.361
 4644SOL     OW14830   0.168   4.475   5.291
 4644SOL    HW114831   0.179   4.375   5.290
 4644SOL    HW214832   0.113   4.503   5.212
 4645SOL     OW14833   0.710   1.161   4.952
 4645SOL    HW114834   0.731   1.072   4.912
 4645SOL    HW214835   0.778   1.183   5.022
 4646SOL     OW14836   2.375   5.865   3.221
 4646SOL    HW114837   2.298   5.886   3.161
 4646SOL    HW214838   2.433   5.796   3.177
 4647SOL     OW14839   1.419   0.753   3.786
 4647SOL    HW114840   1.374   0.679   3.837
 4647SOL    HW214841   1.491   0.715   3.728
 4648SOL     OW14842   4.171   0.736   2.267
 4648SOL    HW114843   4.081   0.761   2.231
 4648SOL    HW214844   4.235   0.811   2.252
 4649SOL     OW14845   5.404   0.567   6.158
 4649SOL    HW114846   5.384   0.645   6.098
 4649SOL    HW214847   5.482   0.589   6.216
 4650SOL     OW14848   4.987   5.553   3.526
 4650SOL    HW114849   4.971   5.576   3.622
 4650SOL    HW214850   5.054   5.616   3.487
 4651SOL     OW14851   6.752   1.764   0.798
 4651SOL    HW114852   6.783   1.858   0.781
 4651SOL    HW214853   6.729   1.753   0.895
 4652SOL     OW14854   0.237   0.076   4.586
 4652SOL    HW114855   0.173   0.146   4.555
 4652SOL    HW214856   0.325   0.118   4.607
 4653SOL     OW14857   6.066   4.818   6.999
 4653SOL    HW114858   6.096   4.913   6.990
 4653SOL    HW214859   6.050   4.798   0.077
 4654SOL     OW14860   0.469   6.211   0.286
 4654SOL    HW114861   0.378   6.252   0.296
 4654SOL    HW214862   0.460   6.122   0.239
 4655SOL     OW14863   6.745   5.344   1.727
 4655SOL    HW114864   6.695   5.266   1.689
 4655SOL    HW214865   6.722   5.427   1.677
 4656SOL     OW14866   1.004   0.459   3.860
 4656SOL    HW114867   0.989   0.406   3.943
 4656SOL    HW214868   1.045   0.401   3.790
 4657SOL     OW14869   5.172   6.446   1.535
 4657SOL    HW114870   5.122   6.437   1.448
 4657SOL    HW214871   5.138   6.378   1.599
 4658SOL     OW14872   4.238   1.283   2.693
 4658SOL    HW114873   4.193   1.194   2.688
 4658SOL    HW214874   4.252   1.319   2.600
 4659SOL     OW14875   3.038   4.296   5.342
 4659SOL    HW114876   3.002   4.363   5.277
 4659SOL    HW214877   2.966   4.271   5.407
 4660SOL     OW14878   1.039   3.266   5.445
 4660SOL    HW114879   1.048   3.271   5.346
 4660SOL    HW214880   0.944   3.282   5.471
 4661SOL     OW14881   3.415   3.868   5.881
 4661SOL    HW114882   3.508   3.898   5.905
 4661SOL    HW214883   3.387   3.795   5.943
 4662SOL     OW14884   3.809   6.843   4.913
 4662SOL    HW114885   3.722   6.891   4.908
 4662SOL    HW214886   3.884   6.907   4.894
 4663SOL     OW14887   0.269   1.947   3.133
 4663SOL    HW114888   0.196   1.902   3.083
 4663SOL    HW214889   0.309   1.884   3.199
 4664SOL     OW14890   1.822   1.318   0.542
 4664SOL    HW114891   1.788   1.279   0.627
 4664SOL    HW214892   1.875   1.250   0.492
 4665SOL     OW14893   3.191   6.747   0.342
 4665SOL    HW114894   3.144   6.740   0.430
 4665SOL    HW214895   3.285   6.778   0.357
 4666SOL     OW14896   1.374   2.120   1.023
 4666SOL    HW114897   1.336   2.122   0.931
 4666SOL    HW214898   1.472   2.101   1.018
 4667SOL     OW14899   6.477   4.161   1.905
 4667SOL    HW114900   6.422   4.186   1.984
 4667SOL    HW214901   6.416   4.144   1.827
 4668SOL     OW14902   5.290   1.769   3.150
 4668SOL    HW114903   5.263   1.681   3.188
 4668SOL    HW214904   5.389   1.770   3.136
 4669SOL     OW14905   4.449   6.263   6.766
 4669SOL    HW114906   4.359   6.221   6.754
 4669SOL    HW214907   4.515   6.193   6.791
 4670SOL     OW14908   3.135   2.265   5.426
 4670SOL    HW114909   3.152   2.300   5.334
 4670SOL    HW214910   3.165   2.333   5.493
 4671SOL     OW14911   6.501   2.397   2.372
 4671SOL    HW114912   6.426   2.342   2.335
 4671SOL    HW214913   6.526   2.468   2.307
 4672SOL     OW14914   2.734   4.198   5.985
 4672SOL    HW114915   2.780   4.169   5.901
 4672SOL    HW214916   2.798   4.251   6.041
 4673SOL     OW14917   5.050   6.804   1.326
 4673SOL    HW114918   4.963   6.758   1.346
 4673SOL    HW214919   5.110   6.741   1.277
 4674SOL     OW14920   5.031   6.809   6.518
 4674SOL    HW114921   5.060   6.875   6.448
 4674SOL    HW214922   4.933   6.791   6.509
 4675SOL     OW14923   0.187   2.100   6.200
 4675SOL    HW114924   0.219   2.080   6.292
 4675SOL    HW214925   0.126   2.179   6.202
 4676SOL     OW14926   6.831   6.252   3.688
 4676SOL    HW114927   6.803   6.223   3.597
 4676SOL    HW214928   6.887   6.181   3.730
 4677SOL     OW14929   2.738   1.174   0.056
 4677SOL    HW114930   2.668   1.246   0.053
 4677SOL    HW214931   2.697   1.087   0.030
 4678SOL     OW14932   1.980   4.649   2.924
 4678SOL    HW114933   1.945   4.577   2.865
 4678SOL    HW214934   2.079   4.653   2.917
 4679SOL     OW14935   3.549   6.997   1.281
 4679SOL    HW114936   3.491   7.004   1.200
 4679SOL    HW214937   3.633   0.031   1.266
 4680SOL     OW14938   3.914   1.254   6.807
 4680SOL    HW114939   4.004   1.230   6.843
 4680SOL    HW214940   3.846   1.192   6.847
 4681SOL     OW14941   5.708   4.865   6.757
 4681SOL    HW114942   5.650   4.846   6.678
 4681SOL    HW214943   5.738   4.779   6.798
 4682SOL     OW14944   5.002   4.426   5.345
 4682SOL    HW114945   4.990   4.335   5.305
 4682SOL    HW214946   4.918   4.453   5.392
 4683SOL     OW14947   4.947   5.061   2.567
 4683SOL    HW114948   4.889   4.980   2.555
 4683SOL    HW214949   4.904   5.124   2.632
 4684SOL     OW14950   5.467   0.369   5.242
 4684SOL    HW114951   5.432   0.453   5.284
 4684SOL    HW214952   5.405   0.342   5.168
 4685SOL     OW14953   1.645   5.366   5.721
 4685SOL    HW114954   1.690   5.409   5.643
 4685SOL    HW214955   1.630   5.269   5.703
 4686SOL     OW14956   4.588   5.377   6.668
 4686SOL    HW114957   4.495   5.391   6.635
 4686SOL    HW214958   4.652   5.429   6.611
 4687SOL     OW14959   5.035   3.488   4.223
 4687SOL    HW114960   5.011   3.496   4.320
 4687SOL    HW214961   4.995   3.405   4.186
 4688SOL     OW14962   5.726   3.999   5.058
 4688SOL    HW114963   5.769   3.982   4.970
 4688SOL    HW214964   5.679   4.087   5.056
 4689SOL     OW14965   4.879   0.938   0.267
 4689SOL    HW114966   4.905   0.854   0.316
 4689SOL    HW214967   4.894   0.924   0.169
 4690SOL     OW14968   0.835   0.121   0.387
 4690SOL    HW114969   0.891   0.076   0.456
 4690SOL    HW214970   0.881   0.118   0.298
 4691SOL     OW14971   3.133   4.059   0.750
 4691SOL    HW114972   3.202   4.103   0.693
 4691SOL    HW214973   3.178   3.998   0.815
 4692SOL     OW14974   5.468   5.394   2.380
 4692SOL    HW114975   5.400   5.410   2.451
 4692SOL    HW214976   5.467   5.297   2.354
 4693SOL     OW14977   1.154   1.816   2.917
 4693SOL    HW114978   1.195   1.906   2.902
 4693SOL    HW214979   1.172   1.757   2.838
 4694SOL     OW14980   2.522   1.359   0.019
 4694SOL    HW114981   2.557   1.396   6.952
 4694SOL    HW214982   2.490   1.433   0.077
 4695SOL     OW14983   1.627   4.444   2.049
 4695SOL    HW114984   1.546   4.492   2.018
 4695SOL    HW214985   1.672   4.400   1.972
 4696SOL     OW14986   0.111   3.881   0.229
 4696SOL    HW114987   0.109   3.822   0.148
 4696SOL    HW214988   0.196   3.865   0.279
 4697SOL     OW14989   1.774   4.096   1.377
 4697SOL    HW114990   1.778   4.195   1.371
 4697SOL    HW214991   1.854   4.056   1.332
 4698SOL     OW14992   4.540   5.675   2.821
 4698SOL    HW114993   4.616   5.683   2.756
 4698SOL    HW214994   4.566   5.718   2.908
 4699SOL     OW14995   1.388   6.449   2.318
 4699SOL    HW114996   1.319   6.479   2.384
 4699SOL    HW214997   1.471   6.420   2.367
 4700SOL     OW14998   6.749   1.219   2.846
 4700SOL    HW114999   6.695   1.300   2.870
 4700SOL    HW215000   6.823   1.245   2.783
 4701SOL     OW15001   3.294   2.502   0.429
 4701SOL    HW115002   3.271   2.413   0.469
 4701SOL    HW215003   3.303   2.570   0.502
 4702SOL     OW15004   5.029   5.022   0.319
 4702SOL    HW115005   4.958   5.008   0.250
 4702SOL    HW215006   4.986   5.039   0.408
 4703SOL     OW15007   0.102   0.432   2.253
 4703SOL    HW115008   0.037   0.398   2.184
 4703SOL    HW215009   0.076   0.397   2.343
 4704SOL     OW15010   6.435   6.727   6.261
 4704SOL    HW115011   6.527   6.695   6.282
 4704SOL    HW215012   6.417   6.713   6.163
 4705SOL     OW15013   4.118   2.702   1.182
 4705SOL    HW115014   4.091   2.630   1.119
 4705SOL    HW215015   4.038   2.731   1.235
 4706SOL     OW15016   2.334   0.166   0.292
 4706SOL    HW115017   2.287   0.096   0.238
 4706SOL    HW215018   2.423   0.186   0.251
 4707SOL     OW15019   1.300   6.821   0.261
 4707SOL    HW115020   1.362   6.893   0.232
 4707SOL    HW215021   1.351   6.749   0.308
 4708SOL     OW15022   1.213   2.651   6.182
 4708SOL    HW115023   1.257   2.575   6.134
 4708SOL    HW215024   1.261   2.736   6.161
 4709SOL     OW15025   4.392   5.687   5.235
 4709SOL    HW115026   4.457   5.625   5.189
 4709SOL    HW215027   4.312   5.634   5.265
 4710SOL     OW15028   4.538   0.088   5.963
 4710SOL    HW115029   4.637   0.080   5.966
 4710SOL    HW215030   4.506   0.076   5.868
 4711SOL     OW15031   6.121   1.514   1.441
 4711SOL    HW115032   6.138   1.418   1.420
 4711SOL    HW215033   6.138   1.531   1.538
 4712SOL     OW15034   2.717   5.341   6.302
 4712SOL    HW115035   2.808   5.377   6.280
 4712SOL    HW215036   2.662   5.413   6.344
 4713SOL     OW15037   3.366   4.438   0.836
 4713SOL    HW115038   3.310   4.380   0.896
 4713SOL    HW215039   3.394   4.520   0.885
 4714SOL     OW15040   1.024   1.499   6.186
 4714SOL    HW115041   1.008   1.563   6.112
 4714SOL    HW215042   1.003   1.542   6.274
 4715SOL     OW15043   5.888   3.375   2.511
 4715SOL    HW115044   5.852   3.448   2.453
 4715SOL    HW215045   5.827   3.295   2.506
 4716SOL     OW15046   4.353   6.753   6.543
 4716SOL    HW115047   4.306   6.833   6.505
 4716SOL    HW215048   4.286   6.694   6.589
 4717SOL     OW15049   0.727   6.077   3.703
 4717SOL    HW115050   0.725   6.169   3.742
 4717SOL    HW215051   0.722   6.083   3.603
 4718SOL     OW15052   5.958   2.282   1.065
 4718SOL    HW115053   5.983   2.193   1.101
 4718SOL    HW215054   5.891   2.271   0.991
 4719SOL     OW15055   4.694   3.034   1.584
 4719SOL    HW115056   4.684   3.053   1.682
 4719SOL    HW215057   4.709   3.120   1.535
 4720SOL     OW15058   2.026   5.149   5.928
 4720SOL    HW115059   1.966   5.070   5.918
 4720SOL    HW215060   1.972   5.233   5.921
 4721SOL     OW15061   6.594   1.557   2.719
 4721SOL    HW115062   6.612   1.655   2.712
 4721SOL    HW215063   6.551   1.525   2.635
 4722SOL     OW15064   1.093   6.086   6.638
 4722SOL    HW115065   1.068   6.132   6.553
 4722SOL    HW215066   1.193   6.082   6.645
 4723SOL     OW15067   2.786   3.436   6.027
 4723SOL    HW115068   2.791   3.344   6.067
 4723SOL    HW215069   2.711   3.486   6.069
 4724SOL     OW15070   6.257   6.961   3.823
 4724SOL    HW115071   6.186   6.904   3.782
 4724SOL    HW215072   6.254   6.950   3.923
 4725SOL     OW15073   6.780   4.801   1.200
 4725SOL    HW115074   6.874   4.832   1.189
 4725SOL    HW215075   6.734   4.801   1.112
 4726SOL     OW15076   1.354   3.260   6.150
 4726SOL    HW115077   1.323   3.179   6.200
 4726SOL    HW215078   1.338   3.246   6.052
 4727SOL     OW15079   0.963   6.540   1.433
 4727SOL    HW115080   0.869   6.556   1.405
 4727SOL    HW215081   0.988   6.604   1.506
 4728SOL     OW15082   5.903   1.685   1.618
 4728SOL    HW115083   5.828   1.702   1.555
 4728SOL    HW215084   5.870   1.630   1.695
 4729SOL     OW15085   4.303   1.417   0.815
 4729SOL    HW115086   4.346   1.345   0.870
 4729SOL    HW215087   4.363   1.440   0.738
 4730SOL     OW15088   3.329   5.765   5.092
 4730SOL    HW115089   3.390   5.790   5.017
 4730SOL    HW215090   3.372   5.694   5.148
 4731SOL     OW15091   2.947   0.366   0.528
 4731SOL    HW115092   2.904   0.455   0.515
 4731SOL    HW215093   3.021   0.355   0.461
 4732SOL     OW15094   1.184   3.956   5.318
 4732SOL    HW115095   1.154   4.050   5.304
 4732SOL    HW215096   1.282   3.950   5.298
 4733SOL     OW15097   2.024   4.162   3.597
 4733SOL    HW115098   1.990   4.093   3.532
 4733SOL    HW215099   2.099   4.123   3.651
 4734SOL     OW15100   4.671   3.709   0.138
 4734SOL    HW115101   4.694   3.693   0.042
 4734SOL    HW215102   4.649   3.621   0.181
 4735SOL     OW15103   0.120   5.077   4.963
 4735SOL    HW115104   0.191   5.143   4.942
 4735SOL    HW215105   0.068   5.108   5.043
 4736SOL     OW15106   6.064   1.528   5.777
 4736SOL    HW115107   6.060   1.526   5.876
 4736SOL    HW215108   6.137   1.590   5.747
 4737SOL     OW15109   3.079   4.269   1.535
 4737SOL    HW115110   3.034   4.356   1.556
 4737SOL    HW215111   3.041   4.232   1.451
 4738SOL     OW15112   2.028   6.271   3.173
 4738SOL    HW115113   2.083   6.187   3.177
 4738SOL    HW215114   2.020   6.301   3.078
 4739SOL     OW15115   4.624   1.819   2.885
 4739SOL    HW115116   4.704   1.776   2.843
 4739SOL    HW215117   4.542   1.797   2.831
 4740SOL     OW15118   0.487   1.751   0.652
 4740SOL    HW115119   0.443   1.678   0.600
 4740SOL    HW215120   0.418   1.803   0.702
 4741SOL     OW15121   5.465   4.281   0.521
 4741SOL    HW115122   5.473   4.182   0.517
 4741SOL    HW215123   5.394   4.312   0.458
 4742SOL     OW15124   3.011   0.135   6.784
 4742SOL    HW115125   3.003   0.112   6.881
 4742SOL    HW215126   2.944   0.081   6.732
 4743SOL     OW15127   1.970   3.512   5.424
 4743SOL    HW115128   1.907   3.584   5.453
 4743SOL    HW215129   1.947   3.484   5.330
 4744SOL     OW15130   2.784   3.971   6.124
 4744SOL    HW115131   2.744   3.885   6.093
 4744SOL    HW215132   2.757   4.045   6.063
 4745SOL     OW15133   3.116   5.380   6.341
 4745SOL    HW115134   3.193   5.433   6.376
 4745SOL    HW215135   3.119   5.288   6.379
 4746SOL     OW15136   5.535   6.452   2.390
 4746SOL    HW115137   5.471   6.501   2.449
 4746SOL    HW215138   5.547   6.359   2.425
 4747SOL     OW15139   2.111   4.321   6.184
 4747SOL    HW115140   2.169   4.306   6.264
 4747SOL    HW215141   2.019   4.347   6.213
 4748SOL     OW15142   1.175   4.818   0.760
 4748SOL    HW115143   1.134   4.741   0.810
 4748SOL    HW215144   1.120   4.900   0.774
 4749SOL     OW15145   2.994   6.355   5.299
 4749SOL    HW115146   3.042   6.405   5.228
 4749SOL    HW215147   2.984   6.413   5.380
 4750SOL     OW15148   0.367   3.467   3.541
 4750SOL    HW115149   0.288   3.519   3.507
 4750SOL    HW215150   0.337   3.404   3.612
 4751SOL     OW15151   2.916   2.337   1.127
 4751SOL    HW115152   2.924   2.239   1.110
 4751SOL    HW215153   2.906   2.353   1.225
 4752SOL     OW15154   3.263   0.436   6.628
 4752SOL    HW115155   3.276   0.362   6.693
 4752SOL    HW215156   3.344   0.444   6.569
 4753SOL     OW15157   5.044   0.388   3.899
 4753SOL    HW115158   5.107   0.408   3.973
 4753SOL    HW215159   4.961   0.443   3.908
 4754SOL     OW15160   5.968   6.998   4.644
 4754SOL    HW115161   5.947   7.008   4.547
 4754SOL    HW215162   5.883   6.999   4.697
 4755SOL     OW15163   2.475   0.617   0.797
 4755SOL    HW115164   2.487   0.698   0.740
 4755SOL    HW215165   2.564   0.583   0.826
 4756SOL     OW15166   6.184   3.473   1.251
 4756SOL    HW115167   6.146   3.382   1.240
 4756SOL    HW215168   6.138   3.537   1.189
 4757SOL     OW15169   2.394   1.751   0.649
 4757SOL    HW115170   2.473   1.730   0.707
 4757SOL    HW215171   2.422   1.752   0.553
 4758SOL     OW15172   2.117   6.403   4.393
 4758SOL    HW115173   2.138   6.448   4.480
 4758SOL    HW215174   2.029   6.438   4.359
 4759SOL     OW15175   5.484   4.933   4.788
 4759SOL    HW115176   5.555   4.927   4.858
 4759SOL    HW215177   5.489   4.853   4.728
 4760SOL     OW15178   3.433   2.133   0.152
 4760SOL    HW115179   3.369   2.085   0.212
 4760SOL    HW215180   3.387   2.209   0.107
 4761SOL     OW15181   0.298   6.033   0.124
 4761SOL    HW115182   0.241   5.988   0.193
 4761SOL    HW215183   0.241   6.059   0.046
 4762SOL     OW15184   1.735   5.648   3.082
 4762SOL    HW115185   1.660   5.687   3.134
 4762SOL    HW215186   1.700   5.605   2.999
 4763SOL     OW15187   6.632   6.229   3.303
 4763SOL    HW115188   6.569   6.298   3.340
 4763SOL    HW215189   6.595   6.138   3.318
 4764SOL     OW15190   4.835   3.880   5.034
 4764SOL    HW115191   4.916   3.886   4.976
 4764SOL    HW215192   4.799   3.787   5.032
 4765SOL     OW15193   4.502   0.947   4.254
 4765SOL    HW115194   4.494   1.045   4.235
 4765SOL    HW215195   4.517   0.898   4.168
 4766SOL     OW15196   5.285   5.494   4.174
 4766SOL    HW115197   5.285   5.394   4.180
 4766SOL    HW215198   5.197   5.530   4.205
 4767SOL     OW15199   3.663   5.440   6.086
 4767SOL    HW115200   3.685   5.501   6.010
 4767SOL    HW215201   3.719   5.465   6.165
 4768SOL     OW15202   3.915   1.025   5.322
 4768SOL    HW115203   3.906   1.101   5.257
 4768SOL    HW215204   4.010   1.020   5.353
 4769SOL     OW15205   5.316   4.592   0.363
 4769SOL    HW115206   5.243   4.630   0.306
 4769SOL    HW215207   5.375   4.534   0.307
 4770SOL     OW15208   1.024   0.543   4.390
 4770SOL    HW115209   1.084   0.524   4.468
 4770SOL    HW215210   0.936   0.497   4.403
 4771SOL     OW15211   3.331   5.674   6.124
 4771SOL    HW115212   3.356   5.577   6.131
 4771SOL    HW215213   3.349   5.719   6.211
 4772SOL     OW15214   3.242   4.555   1.199
 4772SOL    HW115215   3.244   4.620   1.124
 4772SOL    HW215216   3.177   4.482   1.180
 4773SOL     OW15217   7.011   5.609   4.783
 4773SOL    HW115218   6.960   5.531   4.748
 4773SOL    HW215219   0.013   5.672   4.709
 4774SOL     OW15220   1.077   2.308   1.910
 4774SOL    HW115221   1.149   2.296   1.842
 4774SOL    HW215222   1.118   2.316   2.001
 4775SOL     OW15223   5.213   6.527   2.445
 4775SOL    HW115224   5.124   6.483   2.454
 4775SOL    HW215225   5.267   6.508   2.527
 4776SOL     OW15226   1.016   6.211   5.383
 4776SOL    HW115227   0.923   6.196   5.347
 4776SOL    HW215228   1.014   6.207   5.483
 4777SOL     OW15229   2.805   5.026   0.960
 4777SOL    HW115230   2.875   5.088   0.996
 4777SOL    HW215231   2.737   5.008   1.031
 4778SOL     OW15232   6.675   2.825   3.219
 4778SOL    HW115233   6.598   2.808   3.158
 4778SOL    HW215234   6.737   2.747   3.216
 4779SOL     OW15235   6.383   6.776   2.605
 4779SOL    HW115236   6.368   6.778   2.506
 4779SOL    HW215237   6.421   6.863   2.634
 4780SOL     OW15238   6.251   0.516   0.168
 4780SOL    HW115239   6.274   0.580   0.242
 4780SOL    HW215240   6.272   0.422   0.197
 4781SOL     OW15241   2.214   5.883   2.121
 4781SOL    HW115242   2.164   5.849   2.041
 4781SOL    HW215243   2.158   5.951   2.168
 4782SOL     OW15244   4.358   5.760   7.002
 4782SOL    HW115245   4.281   5.823   6.997
 4782SOL    HW215246   4.325   5.666   6.999
 4783SOL     OW15247   5.197   4.680   0.124
 4783SOL    HW115248   5.261   4.738   0.073
 4783SOL    HW215249   5.165   4.606   0.066
 4784SOL     OW15250   5.692   4.085   6.520
 4784SOL    HW115251   5.713   4.182   6.512
 4784SOL    HW215252   5.728   4.036   6.440
 4785SOL     OW15253   0.140   6.393   2.296
 4785SOL    HW115254   0.164   6.350   2.209
 4785SOL    HW215255   0.222   6.401   2.353
 4786SOL     OW15256   2.791   1.808   0.218
 4786SOL    HW115257   2.791   1.747   0.139
 4786SOL    HW215258   2.842   1.765   0.293
 4787SOL     OW15259   4.298   1.421   2.484
 4787SOL    HW115260   4.279   1.518   2.497
 4787SOL    HW215261   4.289   1.397   2.387
 4788SOL     OW15262   0.657   5.677   5.589
 4788SOL    HW115263   0.685   5.595   5.539
 4788SOL    HW215264   0.670   5.662   5.687
 4789SOL     OW15265   5.500   1.623   1.313
 4789SOL    HW115266   5.530   1.586   1.225
 4789SOL    HW215267   5.423   1.569   1.347
 4790SOL     OW15268   6.604   2.432   5.115
 4790SOL    HW115269   6.569   2.435   5.022
 4790SOL    HW215270   6.531   2.406   5.178
 4791SOL     OW15271   6.331   2.348   2.167
 4791SOL    HW115272   6.320   2.446   2.148
 4791SOL    HW215273   6.254   2.298   2.126
 4792SOL     OW15274   2.159   4.015   3.010
 4792SOL    HW115275   2.157   3.916   3.017
 4792SOL    HW215276   2.153   4.042   2.914
 4793SOL     OW15277   2.243   2.821   6.001
 4793SOL    HW115278   2.213   2.795   5.910
 4793SOL    HW215279   2.170   2.803   6.067
 4794SOL     OW15280   4.318   0.465   3.228
 4794SOL    HW115281   4.372   0.403   3.285
 4794SOL    HW215282   4.222   0.457   3.251
 4795SOL     OW15283   6.084   2.576   4.306
 4795SOL    HW115284   6.125   2.560   4.396
 4795SOL    HW215285   6.145   2.541   4.235
 4796SOL     OW15286   5.120   1.403   5.381
 4796SOL    HW115287   5.085   1.317   5.345
 4796SOL    HW215288   5.215   1.415   5.352
 4797SOL     OW15289   1.288   6.308   5.947
 4797SOL    HW115290   1.328   6.222   5.979
 4797SOL    HW215291   1.234   6.349   6.021
 4798SOL     OW15292   0.258   3.351   4.408
 4798SOL    HW115293   0.159   3.336   4.407
 4798SOL    HW215294   0.290   3.359   4.502
 4799SOL     OW15295   5.301   2.434   6.692
 4799SOL    HW115296   5.289   2.343   6.653
 4799SOL    HW215297   5.394   2.442   6.728
 4800SOL     OW15298   3.409   3.210   5.992
 4800SOL    HW115299   3.444   3.178   5.905
 4800SOL    HW215300   3.327   3.157   6.017
 4801SOL     OW15301   2.890   2.476   6.910
 4801SOL    HW115302   2.936   2.552   6.864
 4801SOL    HW215303   2.851   2.414   6.841
 4802SOL     OW15304   0.970   6.027   2.322
 4802SOL    HW115305   1.036   6.096   2.292
 4802SOL    HW215306   0.943   6.046   2.417
 4803SOL     OW15307   1.033   5.348   0.978
 4803SOL    HW115308   1.119   5.355   1.029
 4803SOL    HW215309   1.053   5.350   0.880
 4804SOL     OW15310   5.312   5.811   6.824
 4804SOL    HW115311   5.312   5.908   6.848
 4804SOL    HW215312   5.280   5.756   6.902
 4805SOL     OW15313   5.185   0.937   2.417
 4805SOL    HW115314   5.126   1.006   2.458
 4805SOL    HW215315   5.238   0.978   2.343
 4806SOL     OW15316   0.953   4.542   3.036
 4806SOL    HW115317   1.017   4.526   2.960
 4806SOL    HW215318   1.004   4.563   3.119
 4807SOL     OW15319   0.916   4.833   0.246
 4807SOL    HW115320   1.007   4.867   0.221
 4807SOL    HW215321   0.923   4.741   0.282
 4808SOL     OW15322   5.585   3.833   6.666
 4808SOL    HW115323   5.652   3.906   6.662
 4808SOL    HW215324   5.512   3.850   6.600
 4809SOL     OW15325   3.317   4.401   0.024
 4809SOL    HW115326   3.291   4.485   0.070
 4809SOL    HW215327   3.374   4.345   0.084
 4810SOL     OW15328   1.380   5.077   2.546
 4810SOL    HW115329   1.315   5.150   2.569
 4810SOL    HW215330   1.369   5.001   2.610
 4811SOL     OW15331   2.789   3.945   1.651
 4811SOL    HW115332   2.774   4.042   1.669
 4811SOL    HW215333   2.884   3.921   1.674
 4812SOL     OW15334   6.577   5.215   3.959
 4812SOL    HW115335   6.493   5.225   4.012
 4812SOL    HW215336   6.649   5.176   4.017
 4813SOL     OW15337   5.049   2.036   1.611
 4813SOL    HW115338   4.965   1.981   1.609
 4813SOL    HW215339   5.031   2.122   1.657
 4814SOL     OW15340   6.426   3.846   0.587
 4814SOL    HW115341   6.438   3.912   0.660
 4814SOL    HW215342   6.418   3.894   0.499
 4815SOL     OW15343   5.541   4.755   2.833
 4815SOL    HW115344   5.462   4.713   2.787
 4815SOL    HW215345   5.624   4.731   2.783
 4816SOL     OW15346   1.616   5.002   1.090
 4816SOL    HW115347   1.595   4.912   1.129
 4816SOL    HW215348   1.531   5.053   1.077
 4817SOL     OW15349   0.272   2.145   6.497
 4817SOL    HW115350   0.333   2.219   6.469
 4817SOL    HW215351   0.211   2.178   6.569
 4818SOL     OW15352   1.016   6.509   4.344
 4818SOL    HW115353   1.095   6.495   4.403
 4818SOL    HW215354   0.932   6.494   4.397
 4819SOL     OW15355   1.407   1.769   0.167
 4819SOL    HW115356   1.498   1.732   0.151
 4819SOL    HW215357   1.372   1.736   0.255
 4820SOL     OW15358   6.222   2.546   1.933
 4820SOL    HW115359   6.180   2.515   1.848
 4820SOL    HW215360   6.254   2.641   1.921
 4821SOL     OW15361   1.312   6.363   2.880
 4821SOL    HW115362   1.249   6.288   2.898
 4821SOL    HW215363   1.265   6.451   2.890
 4822SOL     OW15364   2.548   2.003   5.297
 4822SOL    HW115365   2.481   1.998   5.223
 4822SOL    HW215366   2.564   2.099   5.320
 4823SOL     OW15367   1.667   0.980   4.567
 4823SOL    HW115368   1.645   0.983   4.470
 4823SOL    HW215369   1.593   1.022   4.619
 4824SOL     OW15370   5.014   2.501   4.926
 4824SOL    HW115371   5.031   2.407   4.896
 4824SOL    HW215372   4.950   2.545   4.864
 4825SOL     OW15373   1.956   2.864   5.165
 4825SOL    HW115374   1.960   2.923   5.246
 4825SOL    HW215375   1.954   2.921   5.083
 4826SOL     OW15376   5.359   1.600   6.982
 4826SOL    HW115377   5.366   1.683   6.925
 4826SOL    HW215378   5.289   1.613   0.032
 4827SOL     OW15379   6.410   1.870   0.642
 4827SOL    HW115380   6.475   1.946   0.640
 4827SOL    HW215381   6.436   1.806   0.714
 4828SOL     OW15382   4.873   2.212   0.940
 4828SOL    HW115383   4.908   2.196   0.848
 4828SOL    HW215384   4.790   2.157   0.953
 4829SOL     OW15385   4.067   6.393   5.608
 4829SOL    HW115386   4.144   6.344   5.567
 4829SOL    HW215387   4.075   6.490   5.588
 4830SOL     OW15388   4.474   6.311   4.452
 4830SOL    HW115389   4.457   6.236   4.516
 4830SOL    HW215390   4.407   6.308   4.378
 4831SOL     OW15391   1.281   4.458   6.165
 4831SOL    HW115392   1.274   4.403   6.082
 4831SOL    HW215393   1.213   4.531   6.163
 4832SOL     OW15394   3.839   3.986   3.937
 4832SOL    HW115395   3.844   4.015   4.033
 4832SOL    HW215396   3.766   4.036   3.891
 4833SOL     OW15397   5.612   1.861   2.815
 4833SOL    HW115398   5.679   1.861   2.740
 4833SOL    HW215399   5.520   1.878   2.777
 4834SOL     OW15400   3.173   6.352   1.474
 4834SOL    HW115401   3.201   6.441   1.437
 4834SOL    HW215402   3.130   6.298   1.402
 4835SOL     OW15403   5.438   1.828   6.572
 4835SOL    HW115404   5.388   1.879   6.502
 4835SOL    HW215405   5.523   1.792   6.533
 4836SOL     OW15406   5.202   2.288   4.869
 4836SOL    HW115407   5.177   2.334   4.955
 4836SOL    HW215408   5.228   2.193   4.889
 4837SOL     OW15409   0.004   3.858   2.787
 4837SOL    HW115410   0.015   3.905   2.700
 4837SOL    HW215411   7.014   3.925   2.860
 4838SOL     OW15412   1.089   5.300   0.249
 4838SOL    HW115413   1.069   5.249   0.165
 4838SOL    HW215414   1.135   5.240   0.314
 4839SOL     OW15415   1.680   3.630   0.137
 4839SOL    HW115416   1.593   3.655   0.179
 4839SOL    HW215417   1.752   3.690   0.171
 4840SOL     OW15418   6.825   4.710   6.652
 4840SOL    HW115419   6.764   4.785   6.623
 4840SOL    HW215420   6.908   4.712   6.596
 4841SOL     OW15421   2.305   5.247   2.580
 4841SOL    HW115422   2.361   5.316   2.625
 4841SOL    HW215423   2.310   5.260   2.481
 4842SOL     OW15424   3.727   5.262   2.204
 4842SOL    HW115425   3.744   5.340   2.145
 4842SOL    HW215426   3.814   5.227   2.238
 4843SOL     OW15427   6.195   3.117   1.646
 4843SOL    HW115428   6.118   3.140   1.706
 4843SOL    HW215429   6.181   3.026   1.608
 4844SOL     OW15430   0.450   3.016   6.394
 4844SOL    HW115431   0.535   3.004   6.343
 4844SOL    HW215432   0.379   2.956   6.355
 4845SOL     OW15433   5.355   4.966   6.574
 4845SOL    HW115434   5.364   4.874   6.613
 4845SOL    HW215435   5.307   4.960   6.487
 4846SOL     OW15436   6.837   2.275   3.543
 4846SOL    HW115437   6.845   2.305   3.448
 4846SOL    HW215438   6.860   2.351   3.604
 4847SOL     OW15439   2.546   1.068   6.380
 4847SOL    HW115440   2.514   1.162   6.372
 4847SOL    HW215441   2.631   1.066   6.432
 4848SOL     OW15442   1.813   1.091   4.777
 4848SOL    HW115443   1.774   1.036   4.703
 4848SOL    HW215444   1.838   1.032   4.853
 4849SOL     OW15445   1.139   5.799   0.079
 4849SOL    HW115446   1.145   5.705   0.114
 4849SOL    HW215447   1.174   5.801   7.004
 4850SOL     OW15448   4.106   1.162   1.766
 4850SOL    HW115449   4.074   1.068   1.779
 4850SOL    HW215450   4.206   1.165   1.769
 4851SOL     OW15451   3.402   6.735   5.711
 4851SOL    HW115452   3.445   6.673   5.777
 4851SOL    HW215453   3.435   6.828   5.726
 4852SOL     OW15454   2.050   5.753   5.138
 4852SOL    HW115455   2.067   5.736   5.041
 4852SOL    HW215456   2.137   5.749   5.188
 4853SOL     OW15457   2.885   1.523   3.621
 4853SOL    HW115458   2.851   1.560   3.708
 4853SOL    HW215459   2.979   1.490   3.634
 4854SOL     OW15460   4.337   6.535   2.153
 4854SOL    HW115461   4.261   6.600   2.146
 4854SOL    HW215462   4.396   6.561   2.229
 4855SOL     OW15463   5.580   2.761   4.306
 4855SOL    HW115464   5.575   2.804   4.396
 4855SOL    HW215465   5.650   2.689   4.307
 4856SOL     OW15466   1.858   3.428   2.753
 4856SOL    HW115467   1.909   3.382   2.826
 4856SOL    HW215468   1.856   3.371   2.671
 4857SOL     OW15469   2.885   2.295   3.735
 4857SOL    HW115470   2.815   2.366   3.726
 4857SOL    HW215471   2.868   2.243   3.818
 4858SOL     OW15472   6.987   0.194   4.854
 4858SOL    HW115473   6.966   0.284   4.816
 4858SOL    HW215474   6.907   0.159   4.904
 4859SOL     OW15475   0.668   5.559   3.178
 4859SOL    HW115476   0.596   5.576   3.246
 4859SOL    HW215477   0.640   5.485   3.118
 4860SOL     OW15478   4.657   4.958   0.686
 4860SOL    HW115479   4.594   4.950   0.609
 4860SOL    HW215480   4.690   5.052   0.692
 4861SOL     OW15481   6.182   5.227   6.537
 4861SOL    HW115482   6.137   5.315   6.551
 4861SOL    HW215483   6.142   5.181   6.458
 4862SOL     OW15484   2.005   4.176   4.817
 4862SOL    HW115485   2.100   4.207   4.829
 4862SOL    HW215486   1.965   4.157   4.906
 4863SOL     OW15487   5.155   3.402   1.958
 4863SOL    HW115488   5.077   3.442   1.910
 4863SOL    HW215489   5.180   3.461   2.035
 4864SOL     OW15490   3.414   1.772   2.609
 4864SOL    HW115491   3.453   1.682   2.588
 4864SOL    HW215492   3.337   1.761   2.671
 4865SOL     OW15493   1.772   6.390   4.776
 4865SOL    HW115494   1.735   6.315   4.720
 4865SOL    HW215495   1.722   6.393   4.863
 4866SOL     OW15496   6.490   4.558   1.432
 4866SOL    HW115497   6.468   4.636   1.374
 4866SOL    HW215498   6.461   4.576   1.526
 4867SOL     OW15499   4.681   5.670   2.011
 4867SOL    HW115500   4.591   5.709   2.032
 4867SOL    HW215501   4.709   5.609   2.085
 4868SOL     OW15502   0.695   5.294   2.062
 4868SOL    HW115503   0.757   5.255   2.129
 4868SOL    HW215504   0.746   5.320   1.980
 4869SOL     OW15505   0.093   2.178   1.802
 4869SOL    HW115506   0.062   2.084   1.808
 4869SOL    HW215507   0.176   2.190   1.855
 4870SOL     OW15508   6.614   5.981   1.724
 4870SOL    HW115509   6.606   6.027   1.813
 4870SOL    HW215510   6.698   5.928   1.722
 4871SOL     OW15511   0.630   1.770   4.536
 4871SOL    HW115512   0.605   1.679   4.502
 4871SOL    HW215513   0.629   1.835   4.461
 4872SOL     OW15514   6.983   6.073   4.304
 4872SOL    HW115515   6.910   6.074   4.373
 4872SOL    HW215516   0.029   6.147   4.322
 4873SOL     OW15517   6.751   4.832   3.749
 4873SOL    HW115518   6.787   4.759   3.808
 4873SOL    HW215519   6.769   4.921   3.791
 4874SOL     OW15520   6.055   3.240   3.378
 4874SOL    HW115521   6.148   3.276   3.375
 4874SOL    HW215522   6.053   3.150   3.334
 4875SOL     OW15523   5.253   3.067   1.462
 4875SOL    HW115524   5.253   2.973   1.427
 4875SOL    HW215525   5.345   3.090   1.495
 4876SOL     OW15526   5.346   1.332   4.736
 4876SOL    HW115527   5.273   1.330   4.668
 4876SOL    HW215528   5.400   1.415   4.725
 4877SOL     OW15529   6.930   1.833   6.932
 4877SOL    HW115530   6.850   1.777   6.955
 4877SOL    HW215531   7.011   1.797   6.977
 4878SOL     OW15532   5.987   1.167   3.456
 4878SOL    HW115533   6.036   1.156   3.369
 4878SOL    HW215534   5.895   1.201   3.437
 4879SOL     OW15535   4.620   5.090   3.378
 4879SOL    HW115536   4.574   5.115   3.293
 4879SOL    HW215537   4.652   5.172   3.425
 4880SOL     OW15538   6.206   3.451   6.592
 4880SOL    HW115539   6.296   3.494   6.583
 4880SOL    HW215540   6.147   3.483   6.518
 4881SOL     OW15541   2.033   6.918   6.840
 4881SOL    HW115542   2.114   6.951   6.888
 4881SOL    HW215543   2.055   6.906   6.743
 4882SOL     OW15544   5.859   1.591   4.067
 4882SOL    HW115545   5.859   1.625   4.161
 4882SOL    HW215546   5.765   1.571   4.040
 4883SOL     OW15547   5.068   4.830   2.211
 4883SOL    HW115548   4.970   4.842   2.220
 4883SOL    HW215549   5.093   4.736   2.236
 4884SOL     OW15550   3.983   0.308   0.959
 4884SOL    HW115551   3.907   0.353   1.005
 4884SOL    HW215552   4.050   0.377   0.931
 4885SOL     OW15553   2.815   5.933   1.838
 4885SOL    HW115554   2.818   6.029   1.812
 4885SOL    HW215555   2.815   5.925   1.938
 4886SOL     OW15556   6.344   5.762   6.519
 4886SOL    HW115557   6.315   5.805   6.433
 4886SOL    HW215558   6.283   5.686   6.541
 4887SOL     OW15559   6.959   0.429   3.191
 4887SOL    HW115560   0.004   0.505   3.180
 4887SOL    HW215561   6.991   0.350   3.138
 4888SOL     OW15562   1.908   6.656   4.716
 4888SOL    HW115563   1.869   6.566   4.733
 4888SOL    HW215564   1.837   6.719   4.686
 4889SOL     OW15565   6.221   0.562   6.615
 4889SOL    HW115566   6.296   0.498   6.629
 4889SOL    HW215567   6.134   0.512   6.613
 4890SOL     OW15568   0.568   1.973   5.573
 4890SOL    HW115569   0.485   2.008   5.529
 4890SOL    HW215570   0.566   1.993   5.671
 4891SOL     OW15571   1.709   5.691   0.685
 4891SOL    HW115572   1.647   5.692   0.607
 4891SOL    HW215573   1.793   5.643   0.660
 4892SOL     OW15574   2.516   6.419   1.904
 4892SOL    HW115575   2.457   6.379   1.835
 4892SOL    HW215576   2.464   6.435   1.988
 4893SOL     OW15577   0.086   4.034   0.639
 4893SOL    HW115578   0.046   3.992   0.720
 4893SOL    HW215579   0.183   4.009   0.633
 4894SOL     OW15580   2.070   2.360   1.995
 4894SOL    HW115581   2.004   2.416   1.946
 4894SOL    HW215582   2.163   2.391   1.975
 4895SOL     OW15583   0.486   4.718   2.584
 4895SOL    HW115584   0.457   4.696   2.491
 4895SOL    HW215585   0.412   4.697   2.648
 4896SOL     OW15586   2.152   5.173   1.812
 4896SOL    HW115587   2.205   5.137   1.735
 4896SOL    HW215588   2.213   5.217   1.877
 4897SOL     OW15589   2.493   5.052   5.545
 4897SOL    HW115590   2.471   4.979   5.610
 4897SOL    HW215591   2.466   5.140   5.584
 4898SOL     OW15592   4.804   0.976   4.647
 4898SOL    HW115593   4.842   0.890   4.611
 4898SOL    HW215594   4.710   0.987   4.616
 4899SOL     OW15595   6.160   5.037   3.581
 4899SOL    HW115596   6.250   5.007   3.549
 4899SOL    HW215597   6.153   5.136   3.570
 4900SOL     OW15598   1.569   5.770   5.042
 4900SOL    HW115599   1.575   5.740   4.946
 4900SOL    HW215600   1.657   5.806   5.071
 4901SOL     OW15601   2.881   6.515   5.487
 4901SOL    HW115602   2.881   6.511   5.587
 4901SOL    HW215603   2.849   6.605   5.458
 4902SOL     OW15604   2.471   2.496   5.023
 4902SOL    HW115605   2.543   2.535   5.081
 4902SOL    HW215606   2.511   2.459   4.940
 4903SOL     OW15607   2.825   6.452   6.548
 4903SOL    HW115608   2.759   6.526   6.542
 4903SOL    HW215609   2.912   6.487   6.581
 4904SOL     OW15610   0.957   0.351   4.097
 4904SOL    HW115611   0.917   0.415   4.163
 4904SOL    HW215612   1.038   0.308   4.137
 4905SOL     OW15613   4.052   1.114   2.254
 4905SOL    HW115614   4.110   1.185   2.215
 4905SOL    HW215615   4.023   1.052   2.182
 4906SOL     OW15616   3.813   1.513   6.753
 4906SOL    HW115617   3.796   1.531   6.656
 4906SOL    HW215618   3.854   1.422   6.763
 4907SOL     OW15619   4.861   6.314   1.243
 4907SOL    HW115620   4.835   6.217   1.246
 4907SOL    HW215621   4.933   6.327   1.174
 4908SOL     OW15622   5.183   4.922   6.337
 4908SOL    HW115623   5.092   4.964   6.338
 4908SOL    HW215624   5.188   4.852   6.409
 4909SOL     OW15625   6.699   0.246   5.156
 4909SOL    HW115626   6.778   0.262   5.215
 4909SOL    HW215627   6.712   0.161   5.105
 4910SOL     OW15628   5.315   6.716   4.509
 4910SOL    HW115629   5.278   6.809   4.499
 4910SOL    HW215630   5.302   6.666   4.424
 4911SOL     OW15631   6.637   2.856   5.449
 4911SOL    HW115632   6.575   2.876   5.372
 4911SOL    HW215633   6.638   2.758   5.466
 4912SOL     OW15634   5.458   2.600   1.308
 4912SOL    HW115635   5.407   2.516   1.325
 4912SOL    HW215636   5.395   2.678   1.312
 4913SOL     OW15637   4.097   3.671   3.662
 4913SOL    HW115638   4.074   3.759   3.622
 4913SOL    HW215639   4.127   3.683   3.756
 4914SOL     OW15640   2.916   6.851   4.960
 4914SOL    HW115641   2.959   6.930   5.002
 4914SOL    HW215642   2.921   6.773   5.023
 4915SOL     OW15643   4.199   0.413   4.390
 4915SOL    HW115644   4.118   0.362   4.418
 4915SOL    HW215645   4.275   0.349   4.375
 4916SOL     OW15646   2.004   1.546   3.694
 4916SOL    HW115647   1.965   1.492   3.619
 4916SOL    HW215648   1.936   1.614   3.724
 4917SOL     OW15649   1.429   4.720   0.628
 4917SOL    HW115650   1.342   4.760   0.658
 4917SOL    HW215651   1.491   4.714   0.705
 4918SOL     OW15652   2.516   6.858   2.692
 4918SOL    HW115653   2.599   6.904   2.723
 4918SOL    HW215654   2.541   6.781   2.633
 4919SOL     OW15655   1.835   1.427   6.994
 4919SOL    HW115656   1.916   1.482   7.013
 4919SOL    HW215657   1.775   1.475   6.929
 4920SOL     OW15658   4.825   0.560   6.011
 4920SOL    HW115659   4.765   0.576   6.090
 4920SOL    HW215660   4.806   0.469   5.973
 4921SOL     OW15661   1.925   4.341   0.973
 4921SOL    HW115662   1.894   4.247   0.985
 4921SOL    HW215663   1.865   4.388   0.908
 4922SOL     OW15664   1.933   3.052   4.973
 4922SOL    HW115665   1.868   3.096   4.912
 4922SOL    HW215666   2.018   3.105   4.975
 4923SOL     OW15667   3.255   1.210   0.649
 4923SOL    HW115668   3.296   1.276   0.712
 4923SOL    HW215669   3.166   1.243   0.618
 4924SOL     OW15670   1.981   2.505   6.078
 4924SOL    HW115671   1.897   2.491   6.026
 4924SOL    HW215672   1.976   2.451   6.162
 4925SOL     OW15673   5.738   6.602   1.365
 4925SOL    HW115674   5.639   6.594   1.350
 4925SOL    HW215675   5.774   6.514   1.395
 4926SOL     OW15676   5.194   2.371   0.704
 4926SOL    HW115677   5.124   2.422   0.753
 4926SOL    HW215678   5.253   2.434   0.654
 4927SOL     OW15679   3.915   3.980   4.502
 4927SOL    HW115680   3.914   3.889   4.461
 4927SOL    HW215681   3.822   4.016   4.506
 4928SOL     OW15682   7.004   0.475   6.570
 4928SOL    HW115683   6.951   0.490   6.486
 4928SOL    HW215684   6.973   0.391   6.615
 4929SOL     OW15685   1.543   4.292   4.788
 4929SOL    HW115686   1.482   4.307   4.711
 4929SOL    HW215687   1.577   4.380   4.822
 4930SOL     OW15688   5.397   0.812   1.864
 4930SOL    HW115689   5.318   0.779   1.812
 4930SOL    HW215690   5.399   0.912   1.862
 4931SOL     OW15691   6.749   6.864   1.488
 4931SOL    HW115692   6.705   6.885   1.401
 4931SOL    HW215693   6.809   6.940   1.513
 4932SOL     OW15694   2.323   2.583   1.665
 4932SOL    HW115695   2.341   2.646   1.740
 4932SOL    HW215696   2.410   2.552   1.626
 4933SOL     OW15697   2.747   6.422   3.898
 4933SOL    HW115698   2.777   6.328   3.919
 4933SOL    HW215699   2.648   6.422   3.882
 4934SOL     OW15700   1.591   4.791   2.934
 4934SOL    HW115701   1.645   4.806   3.017
 4934SOL    HW215702   1.611   4.700   2.897
 4935SOL     OW15703   1.161   1.385   6.801
 4935SOL    HW115704   1.227   1.460   6.803
 4935SOL    HW215705   1.127   1.367   6.893
 4936SOL     OW15706   2.402   5.220   2.051
 4936SOL    HW115707   2.402   5.237   2.149
 4936SOL    HW215708   2.479   5.270   2.009
 4937SOL     OW15709   6.661   2.904   5.741
 4937SOL    HW115710   6.663   2.934   5.646
 4937SOL    HW215711   6.640   2.982   5.800
 4938SOL     OW15712   2.495   5.520   0.338
 4938SOL    HW115713   2.564   5.508   0.267
 4938SOL    HW215714   2.525   5.591   0.402
 4939SOL     OW15715   0.962   1.473   4.141
 4939SOL    HW115716   0.940   1.564   4.176
 4939SOL    HW215717   1.061   1.463   4.135
 4940SOL     OW15718   0.755   1.321   5.796
 4940SOL    HW115719   0.756   1.290   5.891
 4940SOL    HW215720   0.676   1.381   5.782
 4941SOL     OW15721   4.407   2.455   5.308
 4941SOL    HW115722   4.504   2.479   5.300
 4941SOL    HW215723   4.369   2.501   5.389
 4942SOL     OW15724   5.551   3.033   5.044
 4942SOL    HW115725   5.491   2.986   4.979
 4942SOL    HW215726   5.638   2.983   5.051
 4943SOL     OW15727   5.181   4.211   5.680
 4943SOL    HW115728   5.192   4.307   5.654
 4943SOL    HW215729   5.091   4.197   5.721
 4944SOL     OW15730   2.517   4.340   1.670
 4944SOL    HW115731   2.568   4.418   1.705
 4944SOL    HW215732   2.504   4.351   1.571
 4945SOL     OW15733   1.213   6.691   4.900
 4945SOL    HW115734   1.272   6.768   4.922
 4945SOL    HW215735   1.243   6.648   4.815
 4946SOL     OW15736   0.886   5.273   0.006
 4946SOL    HW115737   0.866   5.277   6.928
 4946SOL    HW215738   0.825   5.207   0.050
 4947SOL     OW15739   2.488   0.265   0.902
 4947SOL    HW115740   2.459   0.186   0.850
 4947SOL    HW215741   2.421   0.284   0.974
 4948SOL     OW15742   1.996   2.576   2.435
 4948SOL    HW115743   1.904   2.615   2.436
 4948SOL    HW215744   2.054   2.629   2.372
 4949SOL     OW15745   6.579   4.192   5.396
 4949SOL    HW115746   6.661   4.217   5.448
 4949SOL    HW215747   6.547   4.102   5.427
 4950SOL     OW15748   1.982   4.578   5.046
 4950SOL    HW115749   2.072   4.619   5.061
 4950SOL    HW215750   1.992   4.481   5.026
 4951SOL     OW15751   6.238   1.113   4.309
 4951SOL    HW115752   6.216   1.139   4.215
 4951SOL    HW215753   6.215   1.017   4.323
 4952SOL     OW15754   0.095   0.181   6.381
 4952SOL    HW115755   0.116   0.256   6.443
 4952SOL    HW215756   0.134   0.096   6.418
 4953SOL     OW15757   1.379   0.037   3.962
 4953SOL    HW115758   1.296   0.043   3.905
 4953SOL    HW215759   1.425   0.126   3.962
 4954SOL     OW15760   2.612   3.111   6.973
 4954SOL    HW115761   2.605   3.074   0.046
 4954SOL    HW215762   2.618   3.211   6.977
 4955SOL     OW15763   2.865   6.696   6.977
 4955SOL    HW115764   2.774   6.733   6.961
 4955SOL    HW215765   2.886   6.699   0.056
 4956SOL     OW15766   2.873   6.957   5.632
 4956SOL    HW115767   2.944   7.004   5.580
 4956SOL    HW215768   2.796   6.936   5.571
 4957SOL     OW15769   6.177   2.434   1.682
 4957SOL    HW115770   6.275   2.451   1.670
 4957SOL    HW215771   6.146   2.369   1.613
 4958SOL     OW15772   0.930   5.252   6.101
 4958SOL    HW115773   0.872   5.248   6.183
 4958SOL    HW215774   0.881   5.298   6.028
 4959SOL     OW15775   6.198   1.998   0.571
 4959SOL    HW115776   6.280   1.949   0.599
 4959SOL    HW215777   6.164   2.052   0.648
 4960SOL     OW15778   3.858   4.882   3.602
 4960SOL    HW115779   3.772   4.892   3.652
 4960SOL    HW215780   3.931   4.861   3.667
 4961SOL     OW15781   3.588   0.634   5.680
 4961SOL    HW115782   3.630   0.545   5.693
 4961SOL    HW215783   3.658   0.700   5.652
 4962SOL     OW15784   6.193   2.768   0.613
 4962SOL    HW115785   6.156   2.700   0.676
 4962SOL    HW215786   6.266   2.820   0.658
 4963SOL     OW15787   0.488   5.906   0.647
 4963SOL    HW115788   0.442   5.980   0.695
 4963SOL    HW215789   0.452   5.899   0.554
 4964SOL     OW15790   2.462   0.305   4.746
 4964SOL    HW115791   2.503   0.375   4.805
 4964SOL    HW215792   2.373   0.338   4.713
 4965SOL     OW15793   1.017   0.150   2.112
 4965SOL    HW115794   1.037   0.248   2.116
 4965SOL    HW215795   1.096   0.101   2.076
 4966SOL     OW15796   2.772   6.426   5.175
 4966SOL    HW115797   2.849   6.395   5.231
 4966SOL    HW215798   2.749   6.355   5.109
 4967SOL     OW15799   3.717   4.803   5.451
 4967SOL    HW115800   3.630   4.775   5.493
 4967SOL    HW215801   3.737   4.898   5.476
 4968SOL     OW15802   0.068   1.112   3.521
 4968SOL    HW115803   0.062   1.182   3.450
 4968SOL    HW215804   0.014   1.032   3.494
 4969SOL     OW15805   1.840   6.037   2.990
 4969SOL    HW115806   1.900   5.957   2.990
 4969SOL    HW215807   1.789   6.041   2.904
 4970SOL     OW15808   2.757   1.854   1.395
 4970SOL    HW115809   2.667   1.835   1.356
 4970SOL    HW215810   2.784   1.780   1.456
 4971SOL     OW15811   5.944   5.388   2.931
 4971SOL    HW115812   5.930   5.289   2.938
 4971SOL    HW215813   5.931   5.418   2.837
 4972SOL     OW15814   0.907   3.495   1.426
 4972SOL    HW115815   0.837   3.493   1.497
 4972SOL    HW215816   0.994   3.526   1.465
 4973SOL     OW15817   1.479   0.059   1.761
 4973SOL    HW115818   1.427   0.092   1.840
 4973SOL    HW215819   1.550   7.014   1.792
 4974SOL     OW15820   0.009   4.442   0.777
 4974SOL    HW115821   7.009   4.366   0.715
 4974SOL    HW215822   6.944   4.471   0.821
 4975SOL     OW15823   6.048   4.132   5.809
 4975SOL    HW115824   6.002   4.073   5.743
 4975SOL    HW215825   6.022   4.106   5.902
 4976SOL     OW15826   2.251   1.891   4.156
 4976SOL    HW115827   2.314   1.902   4.233
 4976SOL    HW215828   2.277   1.812   4.102
 4977SOL     OW15829   4.930   4.828   6.967
 4977SOL    HW115830   4.856   4.764   6.946
 4977SOL    HW215831   5.009   4.809   6.909
 4978SOL     OW15832   6.377   4.557   5.072
 4978SOL    HW115833   6.414   4.627   5.132
 4978SOL    HW215834   6.436   4.547   4.992
 4979SOL     OW15835   6.739   6.815   5.501
 4979SOL    HW115836   6.698   6.725   5.519
 4979SOL    HW215837   6.772   6.854   5.587
 4980SOL     OW15838   5.486   5.526   3.114
 4980SOL    HW115839   5.429   5.445   3.114
 4980SOL    HW215840   5.583   5.500   3.114
 4981SOL     OW15841   3.913   4.965   1.010
 4981SOL    HW115842   3.903   5.063   1.029
 4981SOL    HW215843   3.916   4.950   0.911
 4982SOL     OW15844   3.258   1.376   5.978
 4982SOL    HW115845   3.193   1.380   5.903
 4982SOL    HW215846   3.347   1.410   5.948
 4983SOL     OW15847   6.409   3.622   5.904
 4983SOL    HW115848   6.429   3.672   5.988
 4983SOL    HW215849   6.446   3.529   5.910
 4984SOL     OW15850   5.683   4.257   3.330
 4984SOL    HW115851   5.739   4.339   3.344
 4984SOL    HW215852   5.709   4.187   3.396
 4985SOL     OW15853   5.790   0.078   2.968
 4985SOL    HW115854   5.763   0.016   2.894
 4985SOL    HW215855   5.711   0.096   3.026
 4986SOL     OW15856   0.435   5.136   1.104
 4986SOL    HW115857   0.380   5.202   1.055
 4986SOL    HW215858   0.473   5.070   1.040
 4987SOL     OW15859   0.575   6.546   2.575
 4987SOL    HW115860   0.512   6.620   2.550
 4987SOL    HW215861   0.661   6.584   2.607
 4988SOL     OW15862   5.161   1.003   2.875
 4988SOL    HW115863   5.105   0.934   2.829
 4988SOL    HW215864   5.206   0.962   2.954
 4989SOL     OW15865   5.384   6.603   1.655
 4989SOL    HW115866   5.437   6.667   1.600
 4989SOL    HW215867   5.337   6.538   1.595
 4990SOL     OW15868   2.719   2.201   5.971
 4990SOL    HW115869   2.661   2.275   6.005
 4990SOL    HW215870   2.663   2.129   5.931
 4991SOL     OW15871   6.737   5.563   3.822
 4991SOL    HW115872   6.710   5.562   3.918
 4991SOL    HW215873   6.675   5.504   3.770
 4992SOL     OW15874   4.755   0.638   1.796
 4992SOL    HW115875   4.792   0.723   1.833
 4992SOL    HW215876   4.713   0.584   1.869
 4993SOL     OW15877   3.601   5.926   4.892
 4993SOL    HW115878   3.616   5.833   4.857
 4993SOL    HW215879   3.509   5.932   4.931
 4994SOL     OW15880   1.593   0.510   4.414
 4994SOL    HW115881   1.638   0.423   4.436
 4994SOL    HW215882   1.596   0.570   4.494
 4995SOL     OW15883   0.559   1.778   5.354
 4995SOL    HW115884   0.503   1.817   5.281
 4995SOL    HW215885   0.563   1.841   5.431
 4996SOL     OW15886   0.332   0.997   2.938
 4996SOL    HW115887   0.357   0.900   2.937
 4996SOL    HW215888   0.265   1.014   3.010
 4997SOL     OW15889   4.635   2.675   2.376
 4997SOL    HW115890   4.688   2.643   2.455
 4997SOL    HW215891   4.558   2.613   2.360
 4998SOL     OW15892   2.245   3.417   5.187
 4998SOL    HW115893   2.298   3.404   5.271
 4998SOL    HW215894   2.237   3.515   5.169
 4999SOL     OW15895   6.702   3.762   6.038
 4999SOL    HW115896   6.750   3.734   6.122
 4999SOL    HW215897   6.714   3.860   6.024
 5000SOL     OW15898   3.910   6.602   3.209
 5000SOL    HW115899   3.905   6.702   3.201
 5000SOL    HW215900   3.828   6.561   3.169
 5001SOL     OW15901   0.426   4.173   2.088
 5001SOL    HW115902   0.386   4.160   2.178
 5001SOL    HW215903   0.366   4.131   2.019
 5002SOL     OW15904   1.045   3.378   1.891
 5002SOL    HW115905   1.052   3.412   1.797
 5002SOL    HW215906   1.006   3.286   1.891
 5003SOL     OW15907   3.177   5.114   2.525
 5003SOL    HW115908   3.168   5.164   2.611
 5003SOL    HW215909   3.096   5.130   2.469
 5004SOL     OW15910   2.776   5.114   5.482
 5004SOL    HW115911   2.691   5.061   5.486
 5004SOL    HW215912   2.755   5.211   5.472
 5005SOL     OW15913   3.321   3.077   1.065
 5005SOL    HW115914   3.328   3.017   1.144
 5005SOL    HW215915   3.411   3.119   1.048
 5006SOL     OW15916   4.812   0.607   1.113
 5006SOL    HW115917   4.775   0.582   1.202
 5006SOL    HW215918   4.736   0.631   1.051
 5007SOL     OW15919   0.636   6.404   0.862
 5007SOL    HW115920   0.648   6.325   0.801
 5007SOL    HW215921   0.670   6.486   0.817
 5008SOL     OW15922   5.472   6.282   1.724
 5008SOL    HW115923   5.512   6.215   1.787
 5008SOL    HW215924   5.439   6.361   1.775
 5009SOL     OW15925   0.280   1.266   0.854
 5009SOL    HW115926   0.289   1.171   0.824
 5009SOL    HW215927   0.209   1.273   0.923
 5010SOL     OW15928   4.127   3.360   2.336
 5010SOL    HW115929   4.226   3.366   2.324
 5010SOL    HW215930   4.104   3.370   2.433
 5011SOL     OW15931   1.584   4.117   2.002
 5011SOL    HW115932   1.630   4.195   1.959
 5011SOL    HW215933   1.521   4.151   2.073
 5012SOL     OW15934   5.687   4.029   5.477
 5012SOL    HW115935   5.627   4.038   5.556
 5012SOL    HW215936   5.775   4.072   5.496
 5013SOL     OW15937   5.192   1.398   0.239
 5013SOL    HW115938   5.098   1.419   0.212
 5013SOL    HW215939   5.231   1.333   0.174
 5014SOL     OW15940   6.469   4.439   1.069
 5014SOL    HW115941   6.480   4.418   0.972
 5014SOL    HW215942   6.559   4.443   1.113
 5015SOL     OW15943   4.782   1.814   4.618
 5015SOL    HW115944   4.763   1.729   4.668
 5015SOL    HW215945   4.777   1.796   4.520
 5016SOL     OW15946   1.207   2.944   6.682
 5016SOL    HW115947   1.303   2.972   6.681
 5016SOL    HW215948   1.196   2.860   6.630
 5017SOL     OW15949   2.466   2.931   0.773
 5017SOL    HW115950   2.539   2.894   0.716
 5017SOL    HW215951   2.432   3.016   0.732
 5018SOL     OW15952   1.174   3.842   2.455
 5018SOL    HW115953   1.090   3.815   2.502
 5018SOL    HW215954   1.166   3.821   2.357
 5019SOL     OW15955   1.130   4.953   5.842
 5019SOL    HW115956   1.138   4.977   5.745
 5019SOL    HW215957   1.194   5.010   5.895
 5020SOL     OW15958   5.408   0.221   6.706
 5020SOL    HW115959   5.381   0.229   6.610
 5020SOL    HW215960   5.462   0.301   6.732
 5021SOL     OW15961   0.456   1.332   0.271
 5021SOL    HW115962   0.389   1.258   0.281
 5021SOL    HW215963   0.532   1.317   0.334
 5022SOL     OW15964   1.466   1.036   0.295
 5022SOL    HW115965   1.372   1.065   0.276
 5022SOL    HW215966   1.465   0.944   0.335
 5023SOL     OW15967   0.164   3.455   1.372
 5023SOL    HW115968   0.137   3.544   1.409
 5023SOL    HW215969   0.123   3.382   1.427
 5024SOL     OW15970   6.426   5.626   1.749
 5024SOL    HW115971   6.334   5.598   1.723
 5024SOL    HW215972   6.492   5.584   1.686
 5025SOL     OW15973   3.879   1.749   2.455
 5025SOL    HW115974   3.903   1.653   2.474
 5025SOL    HW215975   3.785   1.766   2.486
 5026SOL     OW15976   5.977   5.963   5.161
 5026SOL    HW115977   5.936   6.050   5.133
 5026SOL    HW215978   5.905   5.896   5.177
 5027SOL     OW15979   0.252   6.141   1.674
 5027SOL    HW115980   0.242   6.059   1.618
 5027SOL    HW215981   0.270   6.220   1.614
 5028SOL     OW15982   0.049   2.046   2.482
 5028SOL    HW115983   0.123   2.010   2.540
 5028SOL    HW215984   6.989   2.068   2.540
 5029SOL     OW15985   6.521   2.159   2.007
 5029SOL    HW115986   6.476   2.237   2.051
 5029SOL    HW215987   6.620   2.175   2.003
 5030SOL     OW15988   6.919   6.506   0.131
 5030SOL    HW115989   6.839   6.562   0.110
 5030SOL    HW215990   6.985   6.561   0.184
 5031SOL     OW15991   6.058   0.267   5.654
 5031SOL    HW115992   6.113   0.323   5.593
 5031SOL    HW215993   6.107   0.182   5.675
 5032SOL     OW15994   1.999   2.113   6.862
 5032SOL    HW115995   1.947   2.080   6.940
 5032SOL    HW215996   2.093   2.135   6.891
 5033SOL     OW15997   2.300   6.934   5.457
 5033SOL    HW115998   2.291   6.851   5.513
 5033SOL    HW215999   2.281   6.911   5.361
 5034SOL     OW16000   5.760   0.637   3.676
 5034SOL    HW116001   5.776   0.624   3.578
 5034SOL    HW216002   5.677   0.693   3.688
 5035SOL     OW16003   0.974   3.332   6.906
 5035SOL    HW116004   1.010   3.297   6.820
 5035SOL    HW216005   0.957   3.430   6.898
 5036SOL     OW16006   0.575   5.214   6.395
 5036SOL    HW116007   0.631   5.193   6.475
 5036SOL    HW216008   0.550   5.129   6.349
 5037SOL     OW16009   5.776   4.236   2.390
 5037SOL    HW116010   5.696   4.278   2.432
 5037SOL    HW216011   5.799   4.152   2.441
 5038SOL     OW16012   3.511   3.846   6.190
 5038SOL    HW116013   3.505   3.758   6.144
 5038SOL    HW216014   3.424   3.866   6.236
 5039SOL     OW16015   2.690   4.477   5.683
 5039SOL    HW116016   2.683   4.380   5.663
 5039SOL    HW216017   2.701   4.491   5.782
 5040SOL     OW16018   1.444   6.150   5.652
 5040SOL    HW116019   1.500   6.115   5.577
 5040SOL    HW216020   1.379   6.080   5.681
 5041SOL     OW16021   2.300   1.917   2.623
 5041SOL    HW116022   2.394   1.945   2.639
 5041SOL    HW216023   2.265   1.960   2.540
 5042SOL     OW16024   6.763   2.757   0.109
 5042SOL    HW116025   6.774   2.775   0.207
 5042SOL    HW216026   6.691   2.689   0.095
 5043SOL     OW16027   3.127   0.081   5.987
 5043SOL    HW116028   3.098   7.006   6.004
 5043SOL    HW216029   3.154   0.124   6.074
 5044SOL     OW16030   0.050   6.652   6.825
 5044SOL    HW116031   0.109   6.588   6.773
 5044SOL    HW216032   0.040   6.619   6.918
 5045SOL     OW16033   4.911   0.495   6.697
 5045SOL    HW116034   4.961   0.432   6.757
 5045SOL    HW216035   4.976   0.549   6.643
 5046SOL     OW16036   3.302   4.100   2.824
 5046SOL    HW116037   3.349   4.033   2.766
 5046SOL    HW216038   3.323   4.192   2.792
 5047SOL     OW16039   0.864   4.185   2.391
 5047SOL    HW116040   0.830   4.230   2.309
 5047SOL    HW216041   0.818   4.097   2.402
 5048SOL     OW16042   0.760   1.608   2.335
 5048SOL    HW116043   0.716   1.536   2.388
 5048SOL    HW216044   0.705   1.630   2.255
 5049SOL     OW16045   5.452   2.020   6.008
 5049SOL    HW116046   5.384   2.079   6.050
 5049SOL    HW216047   5.482   2.061   5.921
 5050SOL     OW16048   1.404   1.580   1.319
 5050SOL    HW116049   1.430   1.488   1.349
 5050SOL    HW216050   1.484   1.640   1.320
 5051SOL     OW16051   4.891   4.752   1.041
 5051SOL    HW116052   4.829   4.800   1.103
 5051SOL    HW216053   4.953   4.818   0.999
 5052SOL     OW16054   2.406   1.302   6.360
 5052SOL    HW116055   2.368   1.360   6.287
 5052SOL    HW216056   2.337   1.287   6.430
 5053SOL     OW16057   2.168   3.940   3.440
 5053SOL    HW116058   2.200   3.940   3.535
 5053SOL    HW216059   2.173   3.848   3.402
 5054SOL     OW16060   3.642   5.397   5.450
 5054SOL    HW116061   3.566   5.332   5.440
 5054SOL    HW216062   3.725   5.346   5.472
 5055SOL     OW16063   1.954   1.932   5.825
 5055SOL    HW116064   2.053   1.922   5.815
 5055SOL    HW216065   1.935   1.978   5.911
 5056SOL     OW16066   6.621   4.222   6.656
 5056SOL    HW116067   6.577   4.150   6.602
 5056SOL    HW216068   6.552   4.268   6.712
 5057SOL     OW16069   6.977   5.730   4.110
 5057SOL    HW116070   6.914   5.788   4.059
 5057SOL    HW216071   0.033   5.701   4.050
 5058SOL     OW16072   2.800   3.165   5.666
 5058SOL    HW116073   2.724   3.150   5.602
 5058SOL    HW216074   2.803   3.261   5.691
 5059SOL     OW16075   5.783   1.265   3.864
 5059SOL    HW116076   5.755   1.338   3.802
 5059SOL    HW216077   5.860   1.297   3.920
 5060SOL     OW16078   0.859   1.943   5.524
 5060SOL    HW116079   0.879   1.853   5.484
 5060SOL    HW216080   0.768   1.941   5.565
 5061SOL     OW16081   4.167   2.357   1.685
 5061SOL    HW116082   4.132   2.413   1.610
 5061SOL    HW216083   4.107   2.279   1.699
 5062SOL     OW16084   4.961   1.160   3.396
 5062SOL    HW116085   4.927   1.205   3.314
 5062SOL    HW216086   4.956   1.061   3.385
 5063SOL     OW16087   1.140   6.691   2.275
 5063SOL    HW116088   1.158   6.614   2.214
 5063SOL    HW216089   1.202   6.687   2.353
 5064SOL     OW16090   5.093   4.050   1.602
 5064SOL    HW116091   5.075   3.985   1.675
 5064SOL    HW216092   5.010   4.065   1.549
 5065SOL     OW16093   2.000   0.632   3.829
 5065SOL    HW116094   2.009   0.699   3.903
 5065SOL    HW216095   1.974   0.543   3.867
 5066SOL     OW16096   4.562   4.883   2.049
 5066SOL    HW116097   4.475   4.850   2.086
 5066SOL    HW216098   4.581   4.836   1.963
 5067SOL     OW16099   4.951   0.881   1.633
 5067SOL    HW116100   4.934   0.850   1.727
 5067SOL    HW216101   4.866   0.919   1.595
 5068SOL     OW16102   3.312   4.964   0.067
 5068SOL    HW116103   3.402   4.948   0.026
 5068SOL    HW216104   3.311   5.053   0.112
 5069SOL     OW16105   2.292   3.463   5.743
 5069SOL    HW116106   2.301   3.490   5.647
 5069SOL    HW216107   2.368   3.403   5.768
 5070SOL     OW16108   4.747   4.985   3.926
 5070SOL    HW116109   4.711   5.003   3.834
 5070SOL    HW216110   4.774   4.890   3.934
 5071SOL     OW16111   4.190   2.227   3.225
 5071SOL    HW116112   4.148   2.275   3.302
 5071SOL    HW216113   4.119   2.191   3.165
 5072SOL     OW16114   1.325   0.119   1.244
 5072SOL    HW116115   1.389   0.164   1.306
 5072SOL    HW216116   1.322   0.021   1.263
 5073SOL     OW16117   0.173   5.776   1.814
 5073SOL    HW116118   0.175   5.681   1.847
 5073SOL    HW216119   0.253   5.825   1.849
 5074SOL     OW16120   2.951   2.752   1.186
 5074SOL    HW116121   2.920   2.704   1.269
 5074SOL    HW216122   2.962   2.849   1.206
 5075SOL     OW16123   0.975   1.705   6.374
 5075SOL    HW116124   0.891   1.759   6.372
 5075SOL    HW216125   1.019   1.715   6.464
 5076SOL     OW16126   4.002   1.288   0.809
 5076SOL    HW116127   4.078   1.225   0.800
 5076SOL    HW216128   4.036   1.379   0.834
 5077SOL     OW16129   2.046   4.770   5.771
 5077SOL    HW116130   2.109   4.734   5.702
 5077SOL    HW216131   1.992   4.844   5.731
 5078SOL     OW16132   1.189   0.595   4.155
 5078SOL    HW116133   1.237   0.521   4.110
 5078SOL    HW216134   1.173   0.571   4.251
 5079SOL     OW16135   2.164   2.995   6.388
 5079SOL    HW116136   2.113   3.041   6.315
 5079SOL    HW216137   2.113   2.916   6.421
 5080SOL     OW16138   6.126   6.885   5.985
 5080SOL    HW116139   6.135   6.851   5.892
 5080SOL    HW216140   6.121   6.808   6.049
 5081SOL     OW16141   3.045   3.114   4.833
 5081SOL    HW116142   2.968   3.059   4.802
 5081SOL    HW216143   3.065   3.184   4.764
 5082SOL     OW16144   4.696   5.997   0.608
 5082SOL    HW116145   4.726   6.032   0.520
 5082SOL    HW216146   4.598   5.976   0.604
 5083SOL     OW16147   2.210   6.651   2.606
 5083SOL    HW116148   2.304   6.637   2.573
 5083SOL    HW216149   2.150   6.666   2.528
 5084SOL     OW16150   0.428   4.685   4.830
 5084SOL    HW116151   0.406   4.590   4.808
 5084SOL    HW216152   0.371   4.746   4.775
 5085SOL     OW16153   4.952   3.115   6.879
 5085SOL    HW116154   4.950   3.016   6.897
 5085SOL    HW216155   5.044   3.141   6.851
 5086SOL     OW16156   1.139   5.476   3.365
 5086SOL    HW116157   1.053   5.451   3.321
 5086SOL    HW216158   1.127   5.480   3.464
 5087SOL     OW16159   1.492   5.389   2.319
 5087SOL    HW116160   1.402   5.359   2.289
 5087SOL    HW216161   1.548   5.310   2.343
 5088SOL     OW16162   6.595   1.156   5.050
 5088SOL    HW116163   6.685   1.117   5.069
 5088SOL    HW216164   6.605   1.248   5.012
 5089SOL     OW16165   4.834   3.981   4.443
 5089SOL    HW116166   4.810   3.942   4.354
 5089SOL    HW216167   4.796   4.074   4.449
 5090SOL     OW16168   2.123   4.024   2.416
 5090SOL    HW116169   2.106   3.957   2.488
 5090SOL    HW216170   2.041   4.036   2.360
 5091SOL     OW16171   0.636   0.046   2.576
 5091SOL    HW116172   0.625   0.090   2.487
 5091SOL    HW216173   0.647   0.116   2.647
 5092SOL     OW16174   3.722   3.406   1.648
 5092SOL    HW116175   3.738   3.345   1.725
 5092SOL    HW216176   3.707   3.499   1.681
 5093SOL     OW16177   2.621   1.140   1.471
 5093SOL    HW116178   2.525   1.152   1.447
 5093SOL    HW216179   2.627   1.101   1.563
 5094SOL     OW16180   2.310   5.616   5.778
 5094SOL    HW116181   2.264   5.697   5.812
 5094SOL    HW216182   2.323   5.623   5.679
 5095SOL     OW16183   5.707   2.522   4.794
 5095SOL    HW116184   5.658   2.462   4.730
 5095SOL    HW216185   5.664   2.612   4.794
 5096SOL     OW16186   4.256   4.403   0.586
 5096SOL    HW116187   4.286   4.485   0.633
 5096SOL    HW216188   4.178   4.363   0.634
 5097SOL     OW16189   1.411   0.588   6.705
 5097SOL    HW116190   1.470   0.654   6.751
 5097SOL    HW216191   1.344   0.637   6.649
 5098SOL     OW16192   1.518   0.874   1.740
 5098SOL    HW116193   1.482   0.876   1.833
 5098SOL    HW216194   1.500   0.784   1.699
 5099SOL     OW16195   0.509   6.084   6.879
 5099SOL    HW116196   0.484   6.033   6.796
 5099SOL    HW216197   0.604   6.063   6.903
 5100SOL     OW16198   4.111   5.550   5.529
 5100SOL    HW116199   4.181   5.480   5.542
 5100SOL    HW216200   4.132   5.630   5.585
 5101SOL     OW16201   4.921   6.216   0.166
 5101SOL    HW116202   5.019   6.203   0.150
 5101SOL    HW216203   4.897   6.312   0.152
 5102SOL     OW16204   4.900   0.432   4.175
 5102SOL    HW116205   4.902   0.521   4.222
 5102SOL    HW216206   4.986   0.384   4.191
 5103SOL     OW16207   0.272   1.902   4.061
 5103SOL    HW116208   0.234   1.945   3.979
 5103SOL    HW216209   0.298   1.808   4.040
 5104SOL     OW16210   1.893   6.517   2.925
 5104SOL    HW116211   1.963   6.573   2.970
 5104SOL    HW216212   1.910   6.516   2.826
 5105SOL     OW16213   3.660   2.960   0.512
 5105SOL    HW116214   3.695   2.867   0.503
 5105SOL    HW216215   3.569   2.957   0.554
 5106SOL     OW16216   3.349   0.985   0.250
 5106SOL    HW116217   3.423   0.932   0.208
 5106SOL    HW216218   3.286   1.017   0.180
 5107SOL     OW16219   3.366   0.686   0.492
 5107SOL    HW116220   3.408   0.612   0.440
 5107SOL    HW216221   3.429   0.765   0.494
 5108SOL     OW16222   3.013   3.779   4.655
 5108SOL    HW116223   3.113   3.771   4.665
 5108SOL    HW216224   2.979   3.849   4.717
 5109SOL     OW16225   1.338   0.685   0.654
 5109SOL    HW116226   1.357   0.731   0.741
 5109SOL    HW216227   1.356   0.748   0.578
 5110SOL     OW16228   0.418   0.727   6.560
 5110SOL    HW116229   0.361   0.654   6.596
 5110SOL    HW216230   0.500   0.737   6.617
 5111SOL     OW16231   2.889   1.836   5.622
 5111SOL    HW116232   2.961   1.770   5.645
 5111SOL    HW216233   2.913   1.882   5.536
 5112SOL     OW16234   1.207   0.016   2.974
 5112SOL    HW116235   1.192   0.004   3.072
 5112SOL    HW216236   1.121   0.008   2.925
 5113SOL     OW16237   2.235   6.358   1.280
 5113SOL    HW116238   2.318   6.411   1.295
 5113SOL    HW216239   2.179   6.404   1.211
 5114SOL     OW16240   3.365   1.794   0.153
 5114SOL    HW116241   3.419   1.727   0.203
 5114SOL    HW216242   3.341   1.758   0.063
 5115SOL     OW16243   2.174   5.185   4.234
 5115SOL    HW116244   2.131   5.225   4.153
 5115SOL    HW216245   2.267   5.155   4.212
 5116SOL     OW16246   6.029   6.893   6.840
 5116SOL    HW116247   6.098   6.958   6.809
 5116SOL    HW216248   5.998   6.920   6.931
 5117SOL     OW16249   2.845   4.858   4.797
 5117SOL    HW116250   2.863   4.789   4.867
 5117SOL    HW216251   2.852   4.817   4.706
 5118SOL     OW16252   4.953   0.677   0.326
 5118SOL    HW116253   5.033   0.638   0.281
 5118SOL    HW216254   4.877   0.613   0.319
 5119SOL     OW16255   5.268   0.515   1.721
 5119SOL    HW116256   5.211   0.480   1.647
 5119SOL    HW216257   5.210   0.545   1.797
 5120SOL     OW16258   4.177   1.771   4.261
 5120SOL    HW116259   4.269   1.799   4.289
 5120SOL    HW216260   4.170   1.771   4.162
 5121SOL     OW16261   2.740   2.072   6.934
 5121SOL    HW116262   2.744   2.169   6.909
 5121SOL    HW216263   2.818   2.025   6.893
 5122SOL     OW16264   2.983   7.012   3.042
 5122SOL    HW116265   2.927   0.059   3.092
 5122SOL    HW216266   3.031   6.954   3.107
 5123SOL     OW16267   5.393   1.418   5.348
 5123SOL    HW116268   5.424   1.334   5.303
 5123SOL    HW216269   5.391   1.404   5.447
 5124SOL     OW16270   3.151   4.871   4.474
 5124SOL    HW116271   3.217   4.803   4.507
 5124SOL    HW216272   3.065   4.861   4.524
 5125SOL     OW16273   6.836   3.133   4.218
 5125SOL    HW116274   6.756   3.180   4.181
 5125SOL    HW216275   6.909   3.134   4.150
 5126SOL     OW16276   5.943   5.709   5.788
 5126SOL    HW116277   5.869   5.652   5.823
 5126SOL    HW216278   5.923   5.736   5.694
 5127SOL     OW16279   0.622   3.700   0.247
 5127SOL    HW116280   0.685   3.637   0.291
 5127SOL    HW216281   0.661   3.793   0.250
 5128SOL     OW16282   6.742   0.461   6.911
 5128SOL    HW116283   6.795   0.528   6.860
 5128SOL    HW216284   6.731   0.378   6.857
 5129SOL     OW16285   4.628   0.249   2.958
 5129SOL    HW116286   4.689   0.227   3.033
 5129SOL    HW216287   4.644   0.185   2.882
 5130SOL     OW16288   1.776   5.133   4.113
 5130SOL    HW116289   1.699   5.112   4.174
 5130SOL    HW216290   1.741   5.151   4.021
 5131SOL     OW16291   2.627   4.865   3.916
 5131SOL    HW116292   2.619   4.959   3.950
 5131SOL    HW216293   2.583   4.858   3.826
 5132SOL     OW16294   3.592   1.889   6.423
 5132SOL    HW116295   3.552   1.802   6.395
 5132SOL    HW216296   3.575   1.902   6.521
 5133SOL     OW16297   2.109   4.952   6.632
 5133SOL    HW116298   2.089   4.871   6.577
 5133SOL    HW216299   2.123   5.031   6.573
 5134SOL     OW16300   6.527   1.141   1.915
 5134SOL    HW116301   6.597   1.213   1.921
 5134SOL    HW216302   6.538   1.077   1.990
 5135SOL     OW16303   4.916   3.586   4.437
 5135SOL    HW116304   4.953   3.679   4.444
 5135SOL    HW216305   4.865   3.564   4.521
 5136SOL     OW16306   5.411   0.692   6.538
 5136SOL    HW116307   5.338   0.635   6.574
 5136SOL    HW216308   5.372   0.775   6.498
 5137SOL     OW16309   5.214   3.259   5.314
 5137SOL    HW116310   5.236   3.281   5.409
 5137SOL    HW216311   5.156   3.177   5.311
 5138SOL     OW16312   4.015   3.844   4.698
 5138SOL    HW116313   3.972   3.918   4.647
 5138SOL    HW216314   4.066   3.785   4.636
 5139SOL     OW16315   0.815   0.037   4.387
 5139SOL    HW116316   0.747   0.110   4.382
 5139SOL    HW216317   0.907   0.077   4.387
 5140SOL     OW16318   3.894   1.552   5.796
 5140SOL    HW116319   3.910   1.650   5.808
 5140SOL    HW216320   3.975   1.502   5.826
 5141SOL     OW16321   6.468   3.810   1.120
 5141SOL    HW116322   6.378   3.801   1.077
 5141SOL    HW216323   6.479   3.737   1.188
 5142SOL     OW16324   5.236   6.410   4.220
 5142SOL    HW116325   5.328   6.416   4.257
 5142SOL    HW216326   5.201   6.502   4.203
 5143SOL     OW16327   0.348   4.564   4.443
 5143SOL    HW116328   0.259   4.524   4.424
 5143SOL    HW216329   0.338   4.662   4.459
 5144SOL     OW16330   1.429   4.984   5.322
 5144SOL    HW116331   1.421   4.923   5.243
 5144SOL    HW216332   1.409   5.078   5.295
 5145SOL     OW16333   3.625   5.880   6.570
 5145SOL    HW116334   3.710   5.933   6.566
 5145SOL    HW216335   3.559   5.918   6.505
 5146SOL     OW16336   3.500   3.879   5.436
 5146SOL    HW116337   3.547   3.845   5.517
 5146SOL    HW216338   3.563   3.880   5.359
 5147SOL     OW16339   6.459   5.814   4.038
 5147SOL    HW116340   6.440   5.905   4.002
 5147SOL    HW216341   6.546   5.781   4.002
 5148SOL     OW16342   0.012   0.976   2.216
 5148SOL    HW116343   0.045   1.041   2.148
 5148SOL    HW216344   0.074   0.897   2.218
 5149SOL     OW16345   6.362   5.278   4.111
 5149SOL    HW116346   6.325   5.185   4.118
 5149SOL    HW216347   6.290   5.344   4.131
 5150SOL     OW16348   2.260   5.471   3.497
 5150SOL    HW116349   2.172   5.515   3.517
 5150SOL    HW216350   2.324   5.540   3.461
 5151SOL     OW16351   0.275   4.090   1.867
 5151SOL    HW116352   0.198   4.152   1.884
 5151SOL    HW216353   0.241   3.997   1.858
 5152SOL     OW16354   1.245   5.253   6.812
 5152SOL    HW116355   1.305   5.255   6.892
 5152SOL    HW216356   1.258   5.336   6.758
 5153SOL     OW16357   0.800   1.902   0.986
 5153SOL    HW116358   0.732   1.837   0.953
 5153SOL    HW216359   0.793   1.911   1.085
 5154SOL     OW16360   1.058   2.639   5.888
 5154SOL    HW116361   1.084   2.581   5.811
 5154SOL    HW216362   1.126   2.710   5.902
 5155SOL     OW16363   3.807   6.940   2.109
 5155SOL    HW116364   3.899   6.922   2.145
 5155SOL    HW216365   3.750   6.860   2.122
 5156SOL     OW16366   5.583   4.607   5.370
 5156SOL    HW116367   5.611   4.673   5.440
 5156SOL    HW216368   5.522   4.539   5.411
 5157SOL     OW16369   3.120   2.164   2.918
 5157SOL    HW116370   3.052   2.200   2.983
 5157SOL    HW216371   3.206   2.148   2.966
 5158SOL     OW16372   4.155   2.235   0.932
 5158SOL    HW116373   4.189   2.236   0.838
 5158SOL    HW216374   4.144   2.140   0.962
 5159SOL     OW16375   5.778   3.056   5.839
 5159SOL    HW116376   5.793   3.063   5.938
 5159SOL    HW216377   5.858   3.014   5.796
 5160SOL     OW16378   0.083   4.617   3.254
 5160SOL    HW116379   7.014   4.579   3.225
 5160SOL    HW216380   0.091   4.711   3.220
 5161SOL     OW16381   1.972   3.557   6.914
 5161SOL    HW116382   1.891   3.498   6.907
 5161SOL    HW216383   2.054   3.500   6.915
 5162SOL     OW16384   0.924   5.427   3.196
 5162SOL    HW116385   0.834   5.466   3.213
 5162SOL    HW216386   0.941   5.424   3.097
 5163SOL     OW16387   3.018   6.992   0.882
 5163SOL    HW116388   2.943   6.926   0.881
 5163SOL    HW216389   3.018   0.021   0.970
 5164SOL     OW16390   3.857   3.144   0.387
 5164SOL    HW116391   3.761   3.120   0.382
 5164SOL    HW216392   3.909   3.091   0.320
 5165SOL     OW16393   0.796   3.894   5.823
 5165SOL    HW116394   0.751   3.810   5.852
 5165SOL    HW216395   0.808   3.954   5.902
 5166SOL     OW16396   1.948   5.241   2.379
 5166SOL    HW116397   1.849   5.226   2.380
 5166SOL    HW216398   1.987   5.206   2.293
 5167SOL     OW16399   6.277   4.542   5.644
 5167SOL    HW116400   6.322   4.486   5.574
 5167SOL    HW216401   6.233   4.482   5.711
 5168SOL     OW16402   5.426   3.430   2.295
 5168SOL    HW116403   5.466   3.441   2.385
 5168SOL    HW216404   5.350   3.365   2.299
 5169SOL     OW16405   3.783   2.054   3.488
 5169SOL    HW116406   3.799   1.955   3.485
 5169SOL    HW216407   3.870   2.102   3.477
 5170SOL     OW16408   1.364   3.773   4.900
 5170SOL    HW116409   1.280   3.823   4.920
 5170SOL    HW216410   1.408   3.746   4.985
 5171SOL     OW16411   0.272   3.868   5.984
 5171SOL    HW116412   0.210   3.793   5.961
 5171SOL    HW216413   0.326   3.843   6.064
 5172SOL     OW16414   1.710   3.348   2.442
 5172SOL    HW116415   1.807   3.332   2.426
 5172SOL    HW216416   1.658   3.264   2.423
 5173SOL     OW16417   3.978   5.025   5.302
 5173SOL    HW116418   3.910   5.081   5.350
 5173SOL    HW216419   3.940   4.993   5.215
 5174SOL     OW16420   2.546   4.890   3.170
 5174SOL    HW116421   2.453   4.891   3.206
 5174SOL    HW216422   2.555   4.960   3.099
 5175SOL     OW16423   3.087   3.437   6.603
 5175SOL    HW116424   2.997   3.398   6.624
 5175SOL    HW216425   3.079   3.503   6.528
 5176SOL     OW16426   5.239   3.671   6.957
 5176SOL    HW116427   5.329   3.635   6.935
 5176SOL    HW216428   5.210   3.733   6.884
 5177SOL     OW16429   5.385   6.524   0.824
 5177SOL    HW116430   5.399   6.460   0.748
 5177SOL    HW216431   5.291   6.558   0.821
 5178SOL     OW16432   1.313   3.904   2.677
 5178SOL    HW116433   1.280   3.884   2.585
 5178SOL    HW216434   1.403   3.862   2.690
 5179SOL     OW16435   4.443   4.524   4.006
 5179SOL    HW116436   4.381   4.465   3.955
 5179SOL    HW216437   4.391   4.601   4.045
 5180SOL     OW16438   3.146   1.262   1.193
 5180SOL    HW116439   3.047   1.246   1.199
 5180SOL    HW216440   3.194   1.175   1.184
 5181SOL     OW16441   5.137   0.739   2.214
 5181SOL    HW116442   5.140   0.798   2.295
 5181SOL    HW216443   5.211   0.673   2.218
 5182SOL     OW16444   4.549   4.564   1.999
 5182SOL    HW116445   4.628   4.564   2.060
 5182SOL    HW216446   4.526   4.470   1.974
 5183SOL     OW16447   3.395   1.776   2.953
 5183SOL    HW116448   3.315   1.786   2.894
 5183SOL    HW216449   3.453   1.702   2.918
 5184SOL     OW16450   1.366   2.441   3.589
 5184SOL    HW116451   1.434   2.484   3.530
 5184SOL    HW216452   1.276   2.482   3.571
 5185SOL     OW16453   4.902   1.271   3.149
 5185SOL    HW116454   4.908   1.181   3.106
 5185SOL    HW216455   4.987   1.321   3.133
 5186SOL     OW16456   5.820   1.140   6.925
 5186SOL    HW116457   5.819   1.236   6.899
 5186SOL    HW216458   5.903   1.121   6.978
 5187SOL     OW16459   1.187   6.040   5.042
 5187SOL    HW116460   1.210   5.979   4.966
 5187SOL    HW216461   1.212   6.133   5.018
 5188SOL     OW16462   6.664   5.573   1.606
 5188SOL    HW116463   6.723   5.645   1.641
 5188SOL    HW216464   6.617   5.605   1.524
 5189SOL     OW16465   4.210   5.727   0.772
 5189SOL    HW116466   4.169   5.813   0.740
 5189SOL    HW216467   4.296   5.712   0.723
 5190SOL     OW16468   0.601   3.501   4.453
 5190SOL    HW116469   0.676   3.455   4.501
 5190SOL    HW216470   0.564   3.439   4.383
 5191SOL     OW16471   3.664   6.836   2.672
 5191SOL    HW116472   3.736   6.832   2.603
 5191SOL    HW216473   3.613   6.921   2.662
 5192SOL     OW16474   1.876   5.840   1.657
 5192SOL    HW116475   1.877   5.742   1.635
 5192SOL    HW216476   1.784   5.865   1.690
 5193SOL     OW16477   5.256   5.782   5.663
 5193SOL    HW116478   5.199   5.857   5.631
 5193SOL    HW216479   5.248   5.774   5.763
 5194SOL     OW16480   4.329   1.938   7.012
 5194SOL    HW116481   4.256   1.992   0.033
 5194SOL    HW216482   4.312   1.925   6.914
 5195SOL     OW16483   0.325   0.425   4.267
 5195SOL    HW116484   0.362   0.460   4.181
 5195SOL    HW216485   0.371   0.340   4.290
 5196SOL     OW16486   4.950   0.036   2.283
 5196SOL    HW116487   4.919   6.995   2.209
 5196SOL    HW216488   4.894   0.020   2.365
 5197SOL     OW16489   2.129   4.049   6.389
 5197SOL    HW116490   2.178   4.023   6.472
 5197SOL    HW216491   2.190   4.101   6.329
 5198SOL     OW16492   4.794   6.136   3.313
 5198SOL    HW116493   4.739   6.132   3.230
 5198SOL    HW216494   4.737   6.168   3.389
 5199SOL     OW16495   0.976   6.134   0.261
 5199SOL    HW116496   0.900   6.075   0.287
 5199SOL    HW216497   1.058   6.079   0.249
 5200SOL     OW16498   6.936   3.804   5.282
 5200SOL    HW116499   6.948   3.862   5.201
 5200SOL    HW216500   6.941   3.708   5.255
 5201SOL     OW16501   0.674   6.812   2.883
 5201SOL    HW116502   0.701   6.806   2.787
 5201SOL    HW216503   0.618   6.733   2.907
 5202SOL     OW16504   4.739   2.653   6.397
 5202SOL    HW116505   4.790   2.680   6.479
 5202SOL    HW216506   4.645   2.629   6.423
 5203SOL     OW16507   2.286   2.480   6.700
 5203SOL    HW116508   2.280   2.579   6.694
 5203SOL    HW216509   2.243   2.449   6.785
 5204SOL     OW16510   3.196   5.129   6.422
 5204SOL    HW116511   3.229   5.066   6.352
 5204SOL    HW216512   3.187   5.081   6.509
 5205SOL     OW16513   0.520   6.549   0.570
 5205SOL    HW116514   0.501   6.452   0.584
 5205SOL    HW216515   0.434   6.599   0.561
 5206SOL     OW16516   0.132   4.153   5.555
 5206SOL    HW116517   0.159   4.057   5.561
 5206SOL    HW216518   0.184   4.207   5.621
 5207SOL     OW16519   0.925   5.922   3.761
 5207SOL    HW116520   0.994   5.990   3.784
 5207SOL    HW216521   0.839   5.967   3.738
 5208SOL     OW16522   3.573   1.986   6.676
 5208SOL    HW116523   3.574   1.949   6.769
 5208SOL    HW216524   3.518   2.069   6.674
 5209SOL     OW16525   5.651   5.930   3.523
 5209SOL    HW116526   5.691   5.974   3.603
 5209SOL    HW216527   5.690   5.838   3.513
 5210SOL     OW16528   5.414   2.772   5.351
 5210SOL    HW116529   5.361   2.779   5.266
 5210SOL    HW216530   5.352   2.765   5.429
 5211SOL     OW16531   3.269   2.992   4.652
 5211SOL    HW116532   3.358   2.948   4.661
 5211SOL    HW216533   3.212   2.971   4.731
 5212SOL     OW16534   6.189   2.149   0.806
 5212SOL    HW116535   6.263   2.086   0.831
 5212SOL    HW216536   6.157   2.197   0.887
 5213SOL     OW16537   4.321   3.965   6.770
 5213SOL    HW116538   4.253   3.892   6.767
 5213SOL    HW216539   4.276   4.053   6.783
 5214SOL     OW16540   4.709   1.749   5.446
 5214SOL    HW116541   4.775   1.759   5.372
 5214SOL    HW216542   4.720   1.659   5.489
 5215SOL     OW16543   5.914   4.779   3.613
 5215SOL    HW116544   5.888   4.701   3.670
 5215SOL    HW216545   5.850   4.788   3.537
 5216SOL     OW16546   4.221   5.323   1.441
 5216SOL    HW116547   4.225   5.378   1.524
 5216SOL    HW216548   4.210   5.226   1.466
 5217SOL     OW16549   3.145   5.498   4.331
 5217SOL    HW116550   3.223   5.510   4.269
 5217SOL    HW216551   3.105   5.587   4.351
 5218SOL     OW16552   1.061   0.755   3.959
 5218SOL    HW116553   1.099   0.702   4.035
 5218SOL    HW216554   1.064   0.701   3.876
 5219SOL     OW16555   4.088   0.540   5.857
 5219SOL    HW116556   4.181   0.518   5.828
 5219SOL    HW216557   4.091   0.585   5.946
 5220SOL     OW16558   1.618   5.766   2.633
 5220SOL    HW116559   1.678   5.704   2.583
 5220SOL    HW216560   1.551   5.805   2.570
 5221SOL     OW16561   5.572   2.229   4.104
 5221SOL    HW116562   5.546   2.138   4.136
 5221SOL    HW216563   5.651   2.221   4.044
 5222SOL     OW16564   3.420   6.059   3.409
 5222SOL    HW116565   3.362   5.996   3.356
 5222SOL    HW216566   3.443   6.016   3.497
 5223SOL     OW16567   5.903   1.655   1.067
 5223SOL    HW116568   5.853   1.607   1.140
 5223SOL    HW216569   5.997   1.671   1.096
 5224SOL     OW16570   0.269   2.533   4.036
 5224SOL    HW116571   0.259   2.529   4.135
 5224SOL    HW216572   0.260   2.628   4.005
 5225SOL     OW16573   0.496   0.249   3.361
 5225SOL    HW116574   0.489   0.273   3.264
 5225SOL    HW216575   0.404   0.232   3.397
 5226SOL     OW16576   0.307   5.799   4.838
 5226SOL    HW116577   0.368   5.873   4.808
 5226SOL    HW216578   0.222   5.804   4.785
 5227SOL     OW16579   1.286   3.414   3.835
 5227SOL    HW116580   1.362   3.465   3.796
 5227SOL    HW216581   1.271   3.441   3.930
 5228SOL     OW16582   6.385   2.150   1.212
 5228SOL    HW116583   6.388   2.250   1.204
 5228SOL    HW216584   6.295   2.123   1.247
 5229SOL     OW16585   1.949   5.533   0.274
 5229SOL    HW116586   1.908   5.531   0.182
 5229SOL    HW216587   2.045   5.505   0.268
 5230SOL     OW16588   0.583   6.234   1.060
 5230SOL    HW116589   0.602   6.305   0.991
 5230SOL    HW216590   0.661   6.226   1.122
 5231SOL     OW16591   4.200   3.562   5.398
 5231SOL    HW116592   4.221   3.567   5.495
 5231SOL    HW216593   4.285   3.556   5.345
 5232SOL     OW16594   3.513   2.030   5.664
 5232SOL    HW116595   3.468   2.065   5.582
 5232SOL    HW216596   3.477   2.079   5.745
 5233SOL     OW16597   5.608   0.646   1.939
 5233SOL    HW116598   5.657   0.674   1.856
 5233SOL    HW216599   5.514   0.681   1.935
 5234SOL     OW16600   2.532   0.491   0.085
 5234SOL    HW116601   2.530   0.575   0.141
 5234SOL    HW216602   2.443   0.479   0.041
 5235SOL     OW16603   1.978   3.039   1.022
 5235SOL    HW116604   2.033   2.962   1.054
 5235SOL    HW216605   1.985   3.047   0.923
 5236SOL     OW16606   5.753   3.881   2.756
 5236SOL    HW116607   5.825   3.823   2.795
 5236SOL    HW216608   5.664   3.853   2.793
 5237SOL     OW16609   2.110   0.659   5.074
 5237SOL    HW116610   2.156   0.616   4.996
 5237SOL    HW216611   2.092   0.590   5.144
 5238SOL     OW16612   1.616   4.240   0.797
 5238SOL    HW116613   1.529   4.260   0.751
 5238SOL    HW216614   1.661   4.164   0.750
 5239SOL     OW16615   4.085   3.297   4.308
 5239SOL    HW116616   4.131   3.235   4.245
 5239SOL    HW216617   4.017   3.350   4.258
 5240SOL     OW16618   3.424   1.642   6.415
 5240SOL    HW116619   3.369   1.565   6.448
 5240SOL    HW216620   3.375   1.728   6.434
 5241SOL     OW16621   0.586   5.308   5.706
 5241SOL    HW116622   0.561   5.405   5.704
 5241SOL    HW216623   0.668   5.296   5.762
 5242SOL     OW16624   6.546   5.947   6.218
 5242SOL    HW116625   6.477   5.877   6.201
 5242SOL    HW216626   6.523   5.997   6.302
 5243SOL     OW16627   1.181   5.563   1.562
 5243SOL    HW116628   1.236   5.521   1.634
 5243SOL    HW216629   1.229   5.555   1.475
 5244SOL     OW16630   3.485   4.200   5.961
 5244SOL    HW116631   3.400   4.168   5.918
 5244SOL    HW216632   3.485   4.300   5.964
 5245SOL     OW16633   4.859   4.457   0.400
 5245SOL    HW116634   4.891   4.424   0.489
 5245SOL    HW216635   4.906   4.542   0.377
 5246SOL     OW16636   5.644   4.353   2.759
 5246SOL    HW116637   5.700   4.273   2.779
 5246SOL    HW216638   5.601   4.343   2.670
 5247SOL     OW16639   0.866   6.811   0.457
 5247SOL    HW116640   0.831   6.727   0.416
 5247SOL    HW216641   0.796   6.850   0.517
 5248SOL     OW16642   5.693   0.717   4.426
 5248SOL    HW116643   5.681   0.709   4.327
 5248SOL    HW216644   5.655   0.803   4.458
 5249SOL     OW16645   6.776   4.533   4.792
 5249SOL    HW116646   6.813   4.614   4.746
 5249SOL    HW216647   6.830   4.452   4.767
 5250SOL     OW16648   0.737   0.870   5.582
 5250SOL    HW116649   0.700   0.815   5.656
 5250SOL    HW216650   0.807   0.932   5.617
 5251SOL     OW16651   0.671   3.258   0.401
 5251SOL    HW116652   0.589   3.248   0.458
 5251SOL    HW216653   0.752   3.244   0.458
 5252SOL     OW16654   2.108   5.933   0.945
 5252SOL    HW116655   2.052   5.914   0.864
 5252SOL    HW216656   2.132   5.846   0.990
 5253SOL     OW16657   5.446   3.957   4.813
 5253SOL    HW116658   5.540   3.964   4.782
 5253SOL    HW216659   5.436   3.878   4.873
 5254SOL     OW16660   4.396   1.518   3.169
 5254SOL    HW116661   4.327   1.589   3.183
 5254SOL    HW216662   4.352   1.433   3.141
 5255SOL     OW16663   4.522   0.589   5.899
 5255SOL    HW116664   4.601   0.649   5.891
 5255SOL    HW216665   4.466   0.617   5.977
 5256SOL     OW16666   4.401   0.542   3.524
 5256SOL    HW116667   4.443   0.552   3.614
 5256SOL    HW216668   4.385   0.445   3.504
 5257SOL     OW16669   4.921   6.481   1.949
 5257SOL    HW116670   4.826   6.495   1.976
 5257SOL    HW216671   4.936   6.521   1.858
 5258SOL     OW16672   5.328   3.436   1.576
 5258SOL    HW116673   5.358   3.415   1.669
 5258SOL    HW216674   5.249   3.497   1.579
 5259SOL     OW16675   4.839   5.945   0.825
 5259SOL    HW116676   4.772   5.982   0.761
 5259SOL    HW216677   4.809   5.963   0.919
 5260SOL     OW16678   5.490   3.890   0.756
 5260SOL    HW116679   5.520   3.985   0.766
 5260SOL    HW216680   5.499   3.844   0.844
 5261SOL     OW16681   1.789   3.341   6.728
 5261SOL    HW116682   1.770   3.311   6.635
 5261SOL    HW216683   1.792   3.441   6.731
 5262SOL     OW16684   2.576   0.472   2.985
 5262SOL    HW116685   2.559   0.462   3.083
 5262SOL    HW216686   2.564   0.568   2.959
 5263SOL     OW16687   1.075   0.794   5.586
 5263SOL    HW116688   1.047   0.890   5.585
 5263SOL    HW216689   1.036   0.747   5.508
 5264SOL     OW16690   5.655   1.260   2.452
 5264SOL    HW116691   5.685   1.186   2.392
 5264SOL    HW216692   5.606   1.329   2.398
 5265SOL     OW16693   5.262   4.090   3.443
 5265SOL    HW116694   5.304   4.149   3.373
 5265SOL    HW216695   5.164   4.082   3.425
 5266SOL     OW16696   2.585   6.870   2.064
 5266SOL    HW116697   2.637   6.800   2.015
 5266SOL    HW216698   2.563   6.945   2.001
 5267SOL     OW16699   4.906   4.197   5.752
 5267SOL    HW116700   4.870   4.143   5.675
 5267SOL    HW216701   4.834   4.256   5.789
 5268SOL     OW16702   6.203   0.316   6.422
 5268SOL    HW116703   6.270   0.331   6.494
 5268SOL    HW216704   6.158   0.402   6.398
 5269SOL     OW16705   2.043   0.076   4.308
 5269SOL    HW116706   2.082   0.018   4.236
 5269SOL    HW216707   1.947   0.095   4.289
 5270SOL     OW16708   5.202   2.020   2.187
 5270SOL    HW116709   5.159   1.976   2.108
 5270SOL    HW216710   5.301   2.006   2.182
 5271SOL     OW16711   5.612   5.308   5.169
 5271SOL    HW116712   5.687   5.271   5.225
 5271SOL    HW216713   5.525   5.286   5.211
 5272SOL     OW16714   2.118   6.489   2.012
 5272SOL    HW116715   2.134   6.480   1.914
 5272SOL    HW216716   2.204   6.473   2.061
 5273SOL     OW16717   6.734   3.089   3.222
 5273SOL    HW116718   6.718   2.991   3.210
 5273SOL    HW216719   6.647   3.138   3.224
 5274SOL     OW16720   6.661   6.324   2.277
 5274SOL    HW116721   6.760   6.325   2.268
 5274SOL    HW216722   6.632   6.239   2.321
 5275SOL     OW16723   3.867   1.953   6.405
 5275SOL    HW116724   3.852   2.050   6.422
 5275SOL    HW216725   3.778   1.905   6.406
 5276SOL     OW16726   1.497   0.959   1.106
 5276SOL    HW116727   1.553   0.901   1.048
 5276SOL    HW216728   1.540   1.049   1.115
 5277SOL     OW16729   1.432   1.990   3.115
 5277SOL    HW116730   1.391   2.003   3.205
 5277SOL    HW216731   1.531   1.980   3.125
 5278SOL     OW16732   4.576   0.307   3.915
 5278SOL    HW116733   4.516   0.386   3.910
 5278SOL    HW216734   4.620   0.304   4.005
 5279SOL     OW16735   1.345   5.145   6.554
 5279SOL    HW116736   1.268   5.130   6.492
 5279SOL    HW216737   1.344   5.239   6.586
 5280SOL     OW16738   3.382   6.413   5.571
 5280SOL    HW116739   3.328   6.330   5.556
 5280SOL    HW216740   3.350   6.458   5.655
 5281SOL     OW16741   0.780   1.550   3.041
 5281SOL    HW116742   0.780   1.556   3.141
 5281SOL    HW216743   0.789   1.642   3.003
 5282SOL     OW16744   2.103   1.734   3.413
 5282SOL    HW116745   2.179   1.765   3.470
 5282SOL    HW216746   2.098   1.634   3.416
 5283SOL     OW16747   3.376   0.018   2.152
 5283SOL    HW116748   3.298   0.008   2.214
 5283SOL    HW216749   3.459   7.005   2.198
 5284SOL     OW16750   5.458   3.331   3.204
 5284SOL    HW116751   5.463   3.242   3.158
 5284SOL    HW216752   5.362   3.360   3.211
 5285SOL     OW16753   1.914   3.892   4.295
 5285SOL    HW116754   2.004   3.867   4.332
 5285SOL    HW216755   1.907   3.991   4.289
 5286SOL     OW16756   0.217   3.930   0.955
 5286SOL    HW116757   0.247   3.835   0.963
 5286SOL    HW216758   0.126   3.933   0.913
 5287SOL     OW16759   1.557   5.938   1.637
 5287SOL    HW116760   1.553   6.020   1.579
 5287SOL    HW216761   1.595   5.962   1.726
 5288SOL     OW16762   3.710   0.471   2.529
 5288SOL    HW116763   3.739   0.468   2.625
 5288SOL    HW216764   3.691   0.565   2.503
 5289SOL     OW16765   1.775   5.544   6.497
 5289SOL    HW116766   1.779   5.458   6.550
 5289SOL    HW216767   1.738   5.525   6.407
 5290SOL     OW16768   1.734   4.311   5.374
 5290SOL    HW116769   1.705   4.299   5.279
 5290SOL    HW216770   1.831   4.289   5.382
 5291SOL     OW16771   3.039   5.105   5.569
 5291SOL    HW116772   2.949   5.101   5.527
 5291SOL    HW216773   3.095   5.173   5.522
 5292SOL     OW16774   6.432   4.770   0.495
 5292SOL    HW116775   6.425   4.719   0.409
 5292SOL    HW216776   6.514   4.741   0.544
 5293SOL     OW16777   1.325   0.366   4.063
 5293SOL    HW116778   1.389   0.340   3.991
 5293SOL    HW216779   1.309   0.288   4.123
 5294SOL     OW16780   5.947   3.116   4.756
 5294SOL    HW116781   6.023   3.125   4.820
 5294SOL    HW216782   5.979   3.129   4.663
 5295SOL     OW16783   4.409   0.601   2.650
 5295SOL    HW116784   4.423   0.504   2.630
 5295SOL    HW216785   4.486   0.635   2.705
 5296SOL     OW16786   2.204   5.199   0.572
 5296SOL    HW116787   2.203   5.225   0.476
 5296SOL    HW216788   2.265   5.121   0.584
 5297SOL     OW16789   2.969   2.252   0.830
 5297SOL    HW116790   3.062   2.266   0.863
 5297SOL    HW216791   2.927   2.176   0.880
 5298SOL     OW16792   1.283   5.766   6.854
 5298SOL    HW116793   1.226   5.763   6.772
 5298SOL    HW216794   1.353   5.695   6.849
 5299SOL     OW16795   2.722   2.333   0.782
 5299SOL    HW116796   2.699   2.419   0.828
 5299SOL    HW216797   2.821   2.324   0.777
 5300SOL     OW16798   0.968   6.276   1.532
 5300SOL    HW116799   0.874   6.246   1.547
 5300SOL    HW216800   0.968   6.370   1.498
 5301SOL     OW16801   3.561   2.452   6.299
 5301SOL    HW116802   3.531   2.357   6.301
 5301SOL    HW216803   3.530   2.495   6.215
 5302SOL     OW16804   5.865   5.580   3.790
 5302SOL    HW116805   5.785   5.559   3.846
 5302SOL    HW216806   5.939   5.517   3.813
 5303SOL     OW16807   6.839   5.889   2.777
 5303SOL    HW116808   6.835   5.939   2.691
 5303SOL    HW216809   6.878   5.947   2.848
 5304SOL     OW16810   5.245   1.649   6.463
 5304SOL    HW116811   5.299   1.694   6.534
 5304SOL    HW216812   5.160   1.699   6.448
 5305SOL     OW16813   1.318   5.223   3.593
 5305SOL    HW116814   1.218   5.219   3.595
 5305SOL    HW216815   1.347   5.319   3.588
 5306SOL     OW16816   0.911   4.536   5.167
 5306SOL    HW116817   0.855   4.471   5.219
 5306SOL    HW216818   0.928   4.499   5.075
 5307SOL     OW16819   4.112   0.160   0.696
 5307SOL    HW116820   4.181   0.227   0.669
 5307SOL    HW216821   4.036   0.206   0.742
 5308SOL     OW16822   0.902   6.477   3.499
 5308SOL    HW116823   0.932   6.392   3.456
 5308SOL    HW216824   0.912   6.552   3.433
 5309SOL     OW16825   4.231   4.734   1.487
 5309SOL    HW116826   4.249   4.646   1.444
 5309SOL    HW216827   4.311   4.793   1.478
 5310SOL     OW16828   6.394   3.447   1.789
 5310SOL    HW116829   6.294   3.447   1.786
 5310SOL    HW216830   6.430   3.470   1.699
 5311SOL     OW16831   6.977   6.129   0.224
 5311SOL    HW116832   6.967   6.170   0.134
 5311SOL    HW216833   6.992   6.030   0.214
 5312SOL     OW16834   0.749   4.819   1.630
 5312SOL    HW116835   0.650   4.807   1.633
 5312SOL    HW216836   0.771   4.916   1.644
 5313SOL     OW16837   1.885   4.632   6.286
 5313SOL    HW116838   1.872   4.690   6.206
 5313SOL    HW216839   1.876   4.536   6.259
 5314SOL     OW16840   3.476   6.370   6.791
 5314SOL    HW116841   3.443   6.275   6.793
 5314SOL    HW216842   3.503   6.397   6.883
 5315SOL     OW16843   4.755   3.698   1.747
 5315SOL    HW116844   4.772   3.614   1.695
 5315SOL    HW216845   4.666   3.736   1.721
 5316SOL     OW16846   6.862   4.305   5.084
 5316SOL    HW116847   6.766   4.335   5.085
 5316SOL    HW216848   6.921   4.382   5.105
 5317SOL     OW16849   6.761   0.043   4.998
 5317SOL    HW116850   6.828   6.988   5.001
 5317SOL    HW216851   6.670   0.004   4.982
 5318SOL     OW16852   7.009   2.283   6.292
 5318SOL    HW116853   0.006   2.341   6.213
 5318SOL    HW216854   6.914   2.252   6.292
 5319SOL     OW16855   4.564   6.715   6.730
 5319SOL    HW116856   4.485   6.733   6.671
 5319SOL    HW216857   4.543   6.638   6.790
 5320SOL     OW16858   6.046   4.863   0.270
 5320SOL    HW116859   6.125   4.894   0.218
 5320SOL    HW216860   6.064   4.772   0.307
 5321SOL     OW16861   1.038   4.031   3.567
 5321SOL    HW116862   1.038   4.033   3.467
 5321SOL    HW216863   0.967   4.091   3.603
 5322SOL     OW16864   4.424   6.180   6.331
 5322SOL    HW116865   4.357   6.245   6.367
 5322SOL    HW216866   4.416   6.093   6.379
 5323SOL     OW16867   3.696   2.688   6.848
 5323SOL    HW116868   3.708   2.776   6.893
 5323SOL    HW216869   3.618   2.693   6.785
 5324SOL     OW16870   4.377   2.582   1.029
 5324SOL    HW116871   4.364   2.485   1.049
 5324SOL    HW216872   4.318   2.608   0.952
 5325SOL     OW16873   4.373   0.585   4.248
 5325SOL    HW116874   4.308   0.544   4.312
 5325SOL    HW216875   4.459   0.605   4.296
 5326SOL     OW16876   0.355   5.333   4.293
 5326SOL    HW116877   0.357   5.300   4.388
 5326SOL    HW216878   0.448   5.339   4.258
 5327SOL     OW16879   5.435   3.733   5.297
 5327SOL    HW116880   5.435   3.640   5.260
 5327SOL    HW216881   5.529   3.758   5.322
 5328SOL     OW16882   3.938   2.808   5.735
 5328SOL    HW116883   3.936   2.862   5.651
 5328SOL    HW216884   3.943   2.869   5.814
 5329SOL     OW16885   6.777   4.274   0.147
 5329SOL    HW116886   6.818   4.345   0.204
 5329SOL    HW216887   6.737   4.203   0.207
 5330SOL     OW16888   3.778   4.199   5.740
 5330SOL    HW116889   3.840   4.271   5.772
 5330SOL    HW216890   3.687   4.238   5.725
 5331SOL     OW16891   5.065   1.096   1.008
 5331SOL    HW116892   5.044   1.011   1.056
 5331SOL    HW216893   5.150   1.085   0.957
 5332SOL     OW16894   0.236   3.975   1.236
 5332SOL    HW116895   0.252   4.074   1.243
 5332SOL    HW216896   0.246   3.946   1.141
 5333SOL     OW16897   1.094   0.872   3.319
 5333SOL    HW116898   1.128   0.944   3.378
 5333SOL    HW216899   1.006   0.838   3.354
 5334SOL     OW16900   3.982   6.435   4.358
 5334SOL    HW116901   4.034   6.480   4.431
 5334SOL    HW216902   4.021   6.345   4.340
 5335SOL     OW16903   6.554   5.819   2.482
 5335SOL    HW116904   6.477   5.817   2.418
 5335SOL    HW216905   6.595   5.729   2.488
 5336SOL     OW16906   1.711   1.985   3.163
 5336SOL    HW116907   1.672   2.024   3.246
 5336SOL    HW216908   1.799   2.029   3.144
 5337SOL     OW16909   5.822   4.549   2.214
 5337SOL    HW116910   5.741   4.512   2.168
 5337SOL    HW216911   5.888   4.476   2.228
 5338SOL     OW16912   5.887   0.776   5.564
 5338SOL    HW116913   5.926   0.704   5.507
 5338SOL    HW216914   5.896   0.864   5.518
 5339SOL     OW16915   6.416   2.143   3.373
 5339SOL    HW116916   6.479   2.069   3.350
 5339SOL    HW216917   6.364   2.168   3.291
 5340SOL     OW16918   5.628   3.593   1.202
 5340SOL    HW116919   5.687   3.515   1.224
 5340SOL    HW216920   5.682   3.677   1.203
 5341SOL     OW16921   3.315   4.978   6.234
 5341SOL    HW116922   3.307   4.919   6.154
 5341SOL    HW216923   3.313   5.074   6.205
 5342SOL     OW16924   4.442   6.589   4.260
 5342SOL    HW116925   4.508   6.533   4.309
 5342SOL    HW216926   4.349   6.562   4.287
 5343SOL     OW16927   3.621   3.705   4.756
 5343SOL    HW116928   3.558   3.774   4.720
 5343SOL    HW216929   3.662   3.738   4.841
 5344SOL     OW16930   1.904   1.883   0.938
 5344SOL    HW116931   1.863   1.814   0.879
 5344SOL    HW216932   2.004   1.880   0.929
 5345SOL     OW16933   3.712   6.266   0.306
 5345SOL    HW116934   3.675   6.356   0.327
 5345SOL    HW216935   3.720   6.213   0.391
 5346SOL     OW16936   3.257   5.497   3.968
 5346SOL    HW116937   3.258   5.408   3.923
 5346SOL    HW216938   3.303   5.490   4.057
 5347SOL     OW16939   0.029   2.772   2.328
 5347SOL    HW116940   7.016   2.863   2.356
 5347SOL    HW216941   0.089   2.781   2.248
 5348SOL     OW16942   6.610   2.048   0.607
 5348SOL    HW116943   6.626   2.047   0.508
 5348SOL    HW216944   6.697   2.050   0.654
 5349SOL     OW16945   2.268   2.404   0.206
 5349SOL    HW116946   2.341   2.414   0.139
 5349SOL    HW216947   2.290   2.328   0.268
 5350SOL     OW16948   1.364   6.905   4.941
 5350SOL    HW116949   1.371   6.960   5.024
 5350SOL    HW216950   1.441   6.925   4.880
 5351SOL     OW16951   6.581   5.114   2.156
 5351SOL    HW116952   6.570   5.032   2.214
 5351SOL    HW216953   6.554   5.092   2.062
 5352SOL     OW16954   1.821   5.230   3.019
 5352SOL    HW116955   1.916   5.245   3.048
 5352SOL    HW216956   1.814   5.141   2.973
 5353SOL     OW16957   3.970   5.454   4.508
 5353SOL    HW116958   3.979   5.531   4.445
 5353SOL    HW216959   3.909   5.385   4.469
 5354SOL     OW16960   2.030   4.800   1.183
 5354SOL    HW116961   1.952   4.755   1.227
 5354SOL    HW216962   2.086   4.846   1.252
 5355SOL     OW16963   6.426   4.504   4.570
 5355SOL    HW116964   6.434   4.575   4.639
 5355SOL    HW216965   6.330   4.479   4.558
 5356SOL     OW16966   6.788   3.778   2.380
 5356SOL    HW116967   6.847   3.699   2.395
 5356SOL    HW216968   6.713   3.776   2.446
 5357SOL     OW16969   3.027   5.922   6.960
 5357SOL    HW116970   2.979   5.944   0.026
 5357SOL    HW216971   2.963   5.921   6.884
 5358SOL     OW16972   4.533   1.340   0.405
 5358SOL    HW116973   4.627   1.314   0.425
 5358SOL    HW216974   4.493   1.387   0.484
 5359SOL     OW16975   1.997   1.030   5.722
 5359SOL    HW116976   2.079   1.072   5.761
 5359SOL    HW216977   1.934   1.102   5.693
 5360SOL     OW16978   3.368   6.216   3.692
 5360SOL    HW116979   3.324   6.127   3.695
 5360SOL    HW216980   3.395   6.237   3.598
 5361SOL     OW16981   2.609   0.932   4.714
 5361SOL    HW116982   2.631   0.899   4.806
 5361SOL    HW216983   2.618   1.031   4.711
 5362SOL     OW16984   6.174   6.623   2.721
 5362SOL    HW116985   6.247   6.658   2.662
 5362SOL    HW216986   6.173   6.674   2.807
 5363SOL     OW16987   6.649   6.526   5.558
 5363SOL    HW116988   6.565   6.538   5.612
 5363SOL    HW216989   6.700   6.448   5.593
 5364SOL     OW16990   6.737   0.119   1.919
 5364SOL    HW116991   6.639   0.122   1.898
 5364SOL    HW216992   6.789   0.099   1.835
 5365SOL     OW16993   4.068   3.033   1.321
 5365SOL    HW116994   3.971   3.014   1.308
 5365SOL    HW216995   4.119   3.005   1.241
 5366SOL     OW16996   5.930   5.982   0.852
 5366SOL    HW116997   6.013   5.989   0.907
 5366SOL    HW216998   5.916   6.066   0.800
 5367SOL     OW16999   0.249   0.053   1.109
 5367SOL    HW117000   0.265   0.035   1.013
 5367SOL    HW217001   0.186   0.130   1.119
 5368SOL     OW17002   5.478   6.988   2.398
 5368SOL    HW117003   5.480   6.942   2.486
 5368SOL    HW217004   5.471   6.921   2.325
 5369SOL     OW17005   2.831   6.761   0.949
 5369SOL    HW117006   2.853   6.734   1.043
 5369SOL    HW217007   2.744   6.810   0.948
 5370SOL     OW17008   4.843   2.651   0.956
 5370SOL    HW117009   4.749   2.682   0.942
 5370SOL    HW217010   4.862   2.645   1.054
 5371SOL     OW17011   0.324   3.874   5.508
 5371SOL    HW117012   0.315   3.849   5.412
 5371SOL    HW217013   0.421   3.878   5.533
 5372SOL     OW17014   1.218   5.763   3.284
 5372SOL    HW117015   1.255   5.809   3.365
 5372SOL    HW217016   1.175   5.678   3.311
 5373SOL     OW17017   3.874   6.654   4.709
 5373SOL    HW117018   3.789   6.613   4.677
 5373SOL    HW217019   3.853   6.726   4.776
 5374SOL     OW17020   2.141   4.151   0.443
 5374SOL    HW117021   2.241   4.147   0.452
 5374SOL    HW217022   2.110   4.244   0.462
 5375SOL     OW17023   0.437   6.031   4.728
 5375SOL    HW117024   0.378   6.057   4.651
 5375SOL    HW217025   0.425   6.097   4.803
 5376SOL     OW17026   1.138   2.326   1.286
 5376SOL    HW117027   1.124   2.400   1.352
 5376SOL    HW217028   1.088   2.245   1.316
 5377SOL     OW17029   0.187   6.882   2.415
 5377SOL    HW117030   0.259   6.952   2.408
 5377SOL    HW217031   0.121   6.909   2.485
 5378SOL     OW17032   7.014   0.304   2.474
 5378SOL    HW117033   0.048   0.369   2.529
 5378SOL    HW217034   6.916   0.323   2.485
 5379SOL     OW17035   0.751   4.312   5.011
 5379SOL    HW117036   0.728   4.284   5.104
 5379SOL    HW217037   0.676   4.289   4.949
 5380SOL     OW17038   3.025   0.847   2.931
 5380SOL    HW117039   3.107   0.901   2.916
 5380SOL    HW217040   2.982   0.825   2.843
 5381SOL     OW17041   6.277   5.139   2.054
 5381SOL    HW117042   6.233   5.227   2.072
 5381SOL    HW217043   6.307   5.136   1.958
 5382SOL     OW17044   2.382   1.430   1.895
 5382SOL    HW117045   2.418   1.517   1.860
 5382SOL    HW217046   2.370   1.437   1.994
 5383SOL     OW17047   2.104   2.280   5.312
 5383SOL    HW117048   2.152   2.219   5.374
 5383SOL    HW217049   2.160   2.296   5.231
 5384SOL     OW17050   5.570   0.206   4.874
 5384SOL    HW117051   5.602   0.113   4.858
 5384SOL    HW217052   5.570   0.225   4.972
 5385SOL     OW17053   3.642   3.535   4.383
 5385SOL    HW117054   3.718   3.534   4.448
 5385SOL    HW217055   3.595   3.623   4.387
 5386SOL     OW17056   4.880   1.375   3.990
 5386SOL    HW117057   4.809   1.425   4.039
 5386SOL    HW217058   4.944   1.334   4.056
 5387SOL     OW17059   2.042   6.666   3.921
 5387SOL    HW117060   1.968   6.601   3.906
 5387SOL    HW217061   2.029   6.746   3.863
 5388SOL     OW17062   0.240   1.341   3.169
 5388SOL    HW117063   0.314   1.297   3.220
 5388SOL    HW217064   0.156   1.339   3.223
 5389SOL     OW17065   3.237   1.436   3.474
 5389SOL    HW117066   3.202   1.344   3.485
 5389SOL    HW217067   3.304   1.456   3.546
 5390SOL     OW17068   4.769   4.137   3.540
 5390SOL    HW117069   4.715   4.211   3.580
 5390SOL    HW217070   4.760   4.055   3.596
 5391SOL     OW17071   2.762   1.215   1.032
 5391SOL    HW117072   2.680   1.186   0.984
 5391SOL    HW217073   2.759   1.180   1.126
 5392SOL     OW17074   5.982   3.842   1.422
 5392SOL    HW117075   6.071   3.800   1.440
 5392SOL    HW217076   5.996   3.928   1.373
 5393SOL     OW17077   5.043   0.272   5.606
 5393SOL    HW117078   4.966   0.253   5.546
 5393SOL    HW217079   5.128   0.271   5.553
 5394SOL     OW17080   0.488   5.803   1.279
 5394SOL    HW117081   0.496   5.870   1.353
 5394SOL    HW217082   0.407   5.823   1.224
 5395SOL     OW17083   4.756   1.023   1.261
 5395SOL    HW117084   4.828   0.960   1.231
 5395SOL    HW217085   4.690   1.036   1.187
 5396SOL     OW17086   5.690   4.411   2.023
 5396SOL    HW117087   5.634   4.339   2.064
 5396SOL    HW217088   5.634   4.467   1.962
 5397SOL     OW17089   0.357   2.961   1.378
 5397SOL    HW117090   0.338   2.865   1.360
 5397SOL    HW217091   0.411   2.999   1.303
 5398SOL     OW17092   2.667   2.428   3.868
 5398SOL    HW117093   2.668   2.464   3.961
 5398SOL    HW217094   2.621   2.494   3.808
 5399SOL     OW17095   2.558   6.506   0.634
 5399SOL    HW117096   2.617   6.550   0.702
 5399SOL    HW217097   2.558   6.560   0.550
 5400SOL     OW17098   3.476   3.503   0.028
 5400SOL    HW117099   3.435   3.451   0.103
 5400SOL    HW217100   3.510   3.590   0.063
 5401SOL     OW17101   6.541   4.562   2.195
 5401SOL    HW117102   6.497   4.564   2.105
 5401SOL    HW217103   6.565   4.655   2.223
 5402SOL     OW17104   2.179   6.295   1.796
 5402SOL    HW117105   2.164   6.265   1.701
 5402SOL    HW217106   2.240   6.231   1.842
 5403SOL     OW17107   5.764   2.799   5.472
 5403SOL    HW117108   5.763   2.702   5.451
 5403SOL    HW217109   5.674   2.838   5.451
 5404SOL     OW17110   0.760   0.514   3.154
 5404SOL    HW117111   0.796   0.554   3.238
 5404SOL    HW217112   0.778   0.576   3.077
 5405SOL     OW17113   5.784   5.834   0.287
 5405SOL    HW117114   5.755   5.833   0.191
 5405SOL    HW217115   5.742   5.757   0.335
 5406SOL     OW17116   1.999   6.993   5.436
 5406SOL    HW117117   2.085   7.014   5.388
 5406SOL    HW217118   2.019   6.966   5.530
 5407SOL     OW17119   3.697   1.639   1.389
 5407SOL    HW117120   3.607   1.603   1.413
 5407SOL    HW217121   3.703   1.735   1.418
 5408SOL     OW17122   3.478   0.353   6.229
 5408SOL    HW117123   3.556   0.309   6.272
 5408SOL    HW217124   3.499   0.450   6.213
 5409SOL     OW17125   0.021   1.600   3.301
 5409SOL    HW117126   0.082   1.634   3.373
 5409SOL    HW217127   6.988   1.676   3.263
 5410SOL     OW17128   1.253   2.519   6.411
 5410SOL    HW117129   1.286   2.427   6.387
 5410SOL    HW217130   1.225   2.567   6.328
 5411SOL     OW17131   5.824   5.325   6.045
 5411SOL    HW117132   5.890   5.315   6.119
 5411SOL    HW217133   5.733   5.299   6.078
 5412SOL     OW17134   3.742   1.070   6.870
 5412SOL    HW117135   3.786   1.043   6.956
 5412SOL    HW217136   3.717   0.987   6.819
 5413SOL     OW17137   0.056   0.360   0.852
 5413SOL    HW117138   0.016   0.306   0.778
 5413SOL    HW217139   0.016   0.332   0.939
 5414SOL     OW17140   6.195   3.649   4.777
 5414SOL    HW117141   6.163   3.684   4.864
 5414SOL    HW217142   6.120   3.605   4.729
 5415SOL     OW17143   1.286   6.039   2.051
 5415SOL    HW117144   1.241   6.114   2.099
 5415SOL    HW217145   1.252   6.034   1.957
 5416SOL     OW17146   3.202   5.310   5.486
 5416SOL    HW117147   3.276   5.311   5.554
 5416SOL    HW217148   3.216   5.385   5.422
 5417SOL     OW17149   4.639   6.504   4.569
 5417SOL    HW117150   4.600   6.438   4.505
 5417SOL    HW217151   4.729   6.472   4.599
 5418SOL     OW17152   4.877   0.689   4.263
 5418SOL    HW117153   4.858   0.750   4.186
 5418SOL    HW217154   4.913   0.743   4.340
 5419SOL     OW17155   3.863   5.515   6.976
 5419SOL    HW117156   3.897   5.478   0.043
 5419SOL    HW217157   3.882   5.450   6.902
 5420SOL     OW17158   1.902   3.079   1.745
 5420SOL    HW117159   1.976   3.135   1.783
 5420SOL    HW217160   1.922   3.057   1.650
 5421SOL     OW17161   2.828   4.858   3.231
 5421SOL    HW117162   2.872   4.901   3.151
 5421SOL    HW217163   2.731   4.879   3.231
 5422SOL     OW17164   1.163   5.491   4.579
 5422SOL    HW117165   1.157   5.427   4.655
 5422SOL    HW217166   1.229   5.457   4.512
 5423SOL     OW17167   6.128   4.030   6.917
 5423SOL    HW117168   6.210   4.036   6.860
 5423SOL    HW217169   6.075   4.113   6.908
 5424SOL     OW17170   5.465   4.048   4.289
 5424SOL    HW117171   5.486   4.041   4.192
 5424SOL    HW217172   5.455   3.957   4.328
 5425SOL     OW17173   5.218   2.181   4.433
 5425SOL    HW117174   5.212   2.256   4.498
 5425SOL    HW217175   5.315   2.159   4.417
 5426SOL     OW17176   6.398   5.170   3.754
 5426SOL    HW117177   6.468   5.204   3.816
 5426SOL    HW217178   6.332   5.243   3.735
 5427SOL     OW17179   5.429   4.457   0.741
 5427SOL    HW117180   5.417   4.401   0.823
 5427SOL    HW217181   5.447   4.397   0.662
 5428SOL     OW17182   6.016   0.052   1.983
 5428SOL    HW117183   6.102   0.024   1.940
 5428SOL    HW217184   6.032   0.075   2.079
 5429SOL     OW17185   1.275   0.879   5.159
 5429SOL    HW117186   1.330   0.956   5.126
 5429SOL    HW217187   1.307   0.853   5.250
 5430SOL     OW17188   2.469   2.836   6.447
 5430SOL    HW117189   2.462   2.883   6.359
 5430SOL    HW217190   2.419   2.749   6.443
 5431SOL     OW17191   3.493   4.499   5.976
 5431SOL    HW117192   3.451   4.511   5.885
 5431SOL    HW217193   3.569   4.564   5.986
 5432SOL     OW17194   3.557   5.637   6.402
 5432SOL    HW117195   3.588   5.662   6.311
 5432SOL    HW217196   3.619   5.676   6.470
 5433SOL     OW17197   0.068   0.983   3.093
 5433SOL    HW117198   0.067   0.932   3.007
 5433SOL    HW217199   0.038   0.923   3.168
 5434SOL     OW17200   4.413   1.066   4.812
 5434SOL    HW117201   4.404   1.154   4.765
 5434SOL    HW217202   4.418   0.992   4.744
 5435SOL     OW17203   6.083   2.094   1.247
 5435SOL    HW117204   6.092   2.003   1.206
 5435SOL    HW217205   6.049   2.085   1.340
 5436SOL     OW17206   5.682   4.410   4.306
 5436SOL    HW117207   5.672   4.325   4.358
 5436SOL    HW217208   5.778   4.438   4.308
 5437SOL     OW17209   3.010   5.395   5.702
 5437SOL    HW117210   3.099   5.383   5.657
 5437SOL    HW217211   2.979   5.307   5.740
 5438SOL     OW17212   6.766   3.706   1.976
 5438SOL    HW117213   6.691   3.690   2.040
 5438SOL    HW217214   6.775   3.804   1.959
 5439SOL     OW17215   6.875   2.226   0.080
 5439SOL    HW117216   6.868   2.285   0.161
 5439SOL    HW217217   6.828   2.270   0.003
 5440SOL     OW17218   6.519   0.425   3.443
 5440SOL    HW117219   6.584   0.452   3.371
 5440SOL    HW217220   6.483   0.334   3.423
 5441SOL     OW17221   4.827   2.722   3.391
 5441SOL    HW117222   4.821   2.768   3.479
 5441SOL    HW217223   4.763   2.645   3.389
 5442SOL     OW17224   2.883   6.980   3.418
 5442SOL    HW117225   2.945   6.917   3.371
 5442SOL    HW217226   2.917   0.054   3.408
 5443SOL     OW17227   3.093   5.743   4.376
 5443SOL    HW117228   3.135   5.834   4.379
 5443SOL    HW217229   3.000   5.748   4.414
 5444SOL     OW17230   0.157   0.659   3.230
 5444SOL    HW117231   0.248   0.685   3.262
 5444SOL    HW217232   0.088   0.713   3.280
 5445SOL     OW17233   6.425   4.166   3.966
 5445SOL    HW117234   6.416   4.165   3.866
 5445SOL    HW217235   6.498   4.228   3.992
 5446SOL     OW17236   5.578   5.456   4.783
 5446SOL    HW117237   5.602   5.463   4.686
 5446SOL    HW217238   5.622   5.530   4.833
 5447SOL     OW17239   1.114   1.675   0.532
 5447SOL    HW117240   1.046   1.744   0.506
 5447SOL    HW217241   1.076   1.584   0.518
 5448SOL     OW17242   6.019   4.549   4.391
 5448SOL    HW117243   6.092   4.481   4.384
 5448SOL    HW217244   5.951   4.519   4.457
 5449SOL     OW17245   1.964   1.623   0.345
 5449SOL    HW117246   2.031   1.615   0.418
 5449SOL    HW217247   1.873   1.601   0.381
 5450SOL     OW17248   3.111   0.482   0.844
 5450SOL    HW117249   3.028   0.432   0.817
 5450SOL    HW217250   3.183   0.416   0.865
 5451SOL     OW17251   2.464   6.398   3.893
 5451SOL    HW117252   2.447   6.322   3.831
 5451SOL    HW217253   2.388   6.408   3.957
 5452SOL     OW17254   3.168   3.875   6.589
 5452SOL    HW117255   3.213   3.799   6.636
 5452SOL    HW217256   3.070   3.855   6.579
 5453SOL     OW17257   5.362   4.013   2.079
 5453SOL    HW117258   5.438   3.948   2.092
 5453SOL    HW217259   5.376   4.063   1.993
 5454SOL     OW17260   5.070   5.248   6.358
 5454SOL    HW117261   5.147   5.211   6.306
 5454SOL    HW217262   4.985   5.207   6.326
 5455SOL     OW17263   0.445   2.170   3.075
 5455SOL    HW117264   0.384   2.123   3.139
 5455SOL    HW217265   0.539   2.163   3.107
 5456SOL     OW17266   2.985   0.110   0.036
 5456SOL    HW117267   2.951   0.166   0.112
 5456SOL    HW217268   3.022   0.025   0.072
 5457SOL     OW17269   6.790   2.214   1.989
 5457SOL    HW117270   6.840   2.204   1.903
 5457SOL    HW217271   6.848   2.183   2.065
 5458SOL     OW17272   0.753   5.005   0.739
 5458SOL    HW117273   0.818   5.019   0.664
 5458SOL    HW217274   0.802   5.010   0.826
 5459SOL     OW17275   3.718   3.845   6.367
 5459SOL    HW117276   3.664   3.850   6.283
 5459SOL    HW217277   3.659   3.866   6.445
 5460SOL     OW17278   3.264   6.467   3.191
 5460SOL    HW117279   3.265   6.373   3.158
 5460SOL    HW217280   3.357   6.502   3.196
 5461SOL     OW17281   0.309   1.019   5.588
 5461SOL    HW117282   0.381   1.008   5.520
 5461SOL    HW217283   0.249   1.094   5.561
 5462SOL     OW17284   5.523   6.652   6.943
 5462SOL    HW117285   5.587   6.576   6.932
 5462SOL    HW217286   5.525   6.683   0.019
 5463SOL     OW17287   0.049   1.446   0.179
 5463SOL    HW117288   6.992   1.388   0.208
 5463SOL    HW217289   0.075   1.422   0.085
 5464SOL     OW17290   6.243   0.213   4.359
 5464SOL    HW117291   6.231   0.161   4.444
 5464SOL    HW217292   6.235   0.310   4.377
 5465SOL     OW17293   4.636   0.406   4.504
 5465SOL    HW117294   4.645   0.492   4.453
 5465SOL    HW217295   4.600   0.424   4.595
 5466SOL     OW17296   4.724   2.933   4.843
 5466SOL    HW117297   4.785   2.956   4.920
 5466SOL    HW217298   4.756   2.981   4.761
 5467SOL     OW17299   5.278   3.894   3.628
 5467SOL    HW117300   5.260   3.982   3.584
 5467SOL    HW217301   5.350   3.846   3.579
 5468SOL     OW17302   6.633   2.841   3.665
 5468SOL    HW117303   6.644   2.927   3.614
 5468SOL    HW217304   6.604   2.769   3.602
 5469SOL     OW17305   2.672   6.686   5.771
 5469SOL    HW117306   2.667   6.727   5.679
 5469SOL    HW217307   2.734   6.607   5.768
 5470SOL     OW17308   3.771   5.539   3.470
 5470SOL    HW117309   3.675   5.564   3.465
 5470SOL    HW217310   3.783   5.465   3.536
 5471SOL     OW17311   6.028   0.165   3.318
 5471SOL    HW117312   5.945   0.217   3.337
 5471SOL    HW217313   6.068   0.135   3.404
 5472SOL     OW17314   2.833   3.588   6.740
 5472SOL    HW117315   2.812   3.608   6.836
 5472SOL    HW217316   2.839   3.489   6.728
 5473SOL     OW17317   1.414   3.227   1.775
 5473SOL    HW117318   1.465   3.312   1.761
 5473SOL    HW217319   1.477   3.152   1.791
 5474SOL     OW17320   0.907   4.492   3.974
 5474SOL    HW117321   0.928   4.570   3.915
 5474SOL    HW217322   0.952   4.503   4.062
 5475SOL     OW17323   2.029   2.751   1.086
 5475SOL    HW117324   2.033   2.682   1.158
 5475SOL    HW217325   2.121   2.769   1.051
 5476SOL     OW17326   2.069   4.743   4.754
 5476SOL    HW117327   2.054   4.761   4.851
 5476SOL    HW217328   2.152   4.790   4.723
 5477SOL     OW17329   2.369   4.251   2.275
 5477SOL    HW117330   2.335   4.228   2.366
 5477SOL    HW217331   2.459   4.293   2.283
 5478SOL     OW17332   3.336   6.375   4.388
 5478SOL    HW117333   3.263   6.313   4.358
 5478SOL    HW217334   3.395   6.398   4.310
 5479SOL     OW17335   5.523   1.487   6.393
 5479SOL    HW117336   5.569   1.561   6.444
 5479SOL    HW217337   5.435   1.467   6.437
 5480SOL     OW17338   5.849   5.851   3.918
 5480SOL    HW117339   5.882   5.853   4.012
 5480SOL    HW217340   5.900   5.782   3.866
 5481SOL     OW17341   4.529   1.580   4.378
 5481SOL    HW117342   4.605   1.635   4.412
 5481SOL    HW217343   4.448   1.596   4.434
 5482SOL     OW17344   3.749   4.563   1.523
 5482SOL    HW117345   3.702   4.639   1.568
 5482SOL    HW217346   3.844   4.560   1.556
 5483SOL     OW17347   6.856   2.180   5.287
 5483SOL    HW117348   6.758   2.190   5.270
 5483SOL    HW217349   6.901   2.268   5.269
 5484SOL     OW17350   3.764   1.364   3.987
 5484SOL    HW117351   3.859   1.378   4.015
 5484SOL    HW217352   3.709   1.339   4.067
 5485SOL     OW17353   3.946   6.890   4.320
 5485SOL    HW117354   3.893   6.850   4.395
 5485SOL    HW217355   3.892   6.883   4.235
 5486SOL     OW17356   1.544   6.000   5.448
 5486SOL    HW117357   1.493   5.998   5.362
 5486SOL    HW217358   1.636   5.964   5.434
 5487SOL     OW17359   5.904   3.102   6.795
 5487SOL    HW117360   5.921   3.198   6.775
 5487SOL    HW217361   5.903   3.089   6.895
 5488SOL     OW17362   5.914   0.271   1.270
 5488SOL    HW117363   5.987   0.268   1.339
 5488SOL    HW217364   5.850   0.344   1.295
 5489SOL     OW17365   0.881   4.337   1.578
 5489SOL    HW117366   0.794   4.362   1.534
 5489SOL    HW217367   0.906   4.244   1.550
 5490SOL     OW17368   3.270   6.836   1.140
 5490SOL    HW117369   3.300   6.741   1.134
 5490SOL    HW217370   3.308   6.888   1.064
 5491SOL     OW17371   1.720   3.936   0.916
 5491SOL    HW117372   1.803   3.942   0.862
 5491SOL    HW217373   1.643   3.914   0.856
 5492SOL     OW17374   0.187   3.145   5.826
 5492SOL    HW117375   0.206   3.224   5.769
 5492SOL    HW217376   0.264   3.128   5.887
 5493SOL     OW17377   3.058   3.983   4.100
 5493SOL    HW117378   2.991   3.909   4.086
 5493SOL    HW217379   3.018   4.053   4.159
 5494SOL     OW17380   6.731   3.024   6.236
 5494SOL    HW117381   6.756   3.039   6.140
 5494SOL    HW217382   6.674   3.101   6.267
 5495SOL     OW17383   3.743   1.308   0.858
 5495SOL    HW117384   3.838   1.279   0.843
 5495SOL    HW217385   3.681   1.244   0.813
 5496SOL     OW17386   3.580   1.229   3.773
 5496SOL    HW117387   3.587   1.163   3.848
 5496SOL    HW217388   3.639   1.308   3.793
 5497SOL     OW17389   0.334   1.899   4.937
 5497SOL    HW117390   0.368   1.851   4.856
 5497SOL    HW217391   0.281   1.979   4.908
 5498SOL     OW17392   6.462   5.917   1.042
 5498SOL    HW117393   6.499   5.965   0.963
 5498SOL    HW217394   6.510   5.946   1.125
 5499SOL     OW17395   0.259   0.457   4.674
 5499SOL    HW117396   0.295   0.510   4.596
 5499SOL    HW217397   0.336   0.416   4.724
 5500SOL     OW17398   1.200   0.455   0.689
 5500SOL    HW117399   1.108   0.494   0.693
 5500SOL    HW217400   1.268   0.528   0.698
 5501SOL     OW17401   3.666   1.052   0.421
 5501SOL    HW117402   3.651   0.953   0.418
 5501SOL    HW217403   3.602   1.097   0.358
 5502SOL     OW17404   5.116   3.677   0.190
 5502SOL    HW117405   5.153   3.675   0.098
 5502SOL    HW217406   5.191   3.685   0.256
 5503SOL     OW17407   0.376   4.662   2.330
 5503SOL    HW117408   0.377   4.678   2.231
 5503SOL    HW217409   0.308   4.593   2.352
 5504SOL     OW17410   4.161   1.046   5.381
 5504SOL    HW117411   4.134   1.142   5.372
 5504SOL    HW217412   4.248   1.039   5.428
 5505SOL     OW17413   2.224   4.989   4.026
 5505SOL    HW117414   2.130   4.957   4.041
 5505SOL    HW217415   2.256   4.959   3.937
 5506SOL     OW17416   1.070   2.450   0.165
 5506SOL    HW117417   1.015   2.533   0.158
 5506SOL    HW217418   1.030   2.379   0.106
 5507SOL     OW17419   3.601   1.245   4.514
 5507SOL    HW117420   3.678   1.286   4.464
 5507SOL    HW217421   3.516   1.286   4.482
 5508SOL     OW17422   1.307   0.722   6.984
 5508SOL    HW117423   1.275   0.681   6.899
 5508SOL    HW217424   1.311   0.821   6.974
 5509SOL     OW17425   0.296   6.456   6.750
 5509SOL    HW117426   0.340   6.398   6.819
 5509SOL    HW217427   0.312   6.418   6.659
 5510SOL     OW17428   4.771   5.448   0.075
 5510SOL    HW117429   4.749   5.527   0.018
 5510SOL    HW217430   4.816   5.479   0.159
 5511SOL     OW17431   1.702   0.927   3.613
 5511SOL    HW117432   1.705   0.948   3.711
 5511SOL    HW217433   1.656   1.002   3.565
 5512SOL     OW17434   5.337   2.226   0.915
 5512SOL    HW117435   5.307   2.259   1.005
 5512SOL    HW217436   5.289   2.275   0.843
 5513SOL     OW17437   4.529   4.377   6.170
 5513SOL    HW117438   4.628   4.386   6.165
 5513SOL    HW217439   4.485   4.463   6.145
 5514SOL     OW17440   4.019   6.967   3.705
 5514SOL    HW117441   3.996   0.042   3.683
 5514SOL    HW217442   4.090   6.965   3.776
 5515SOL     OW17443   1.099   5.808   2.163
 5515SOL    HW117444   1.174   5.870   2.140
 5515SOL    HW217445   1.041   5.850   2.234
 5516SOL     OW17446   1.935   4.266   6.472
 5516SOL    HW117447   1.837   4.243   6.468
 5516SOL    HW217448   1.989   4.187   6.446
 5517SOL     OW17449   2.412   2.816   1.793
 5517SOL    HW117450   2.444   2.885   1.728
 5517SOL    HW217451   2.358   2.861   1.865
 5518SOL     OW17452   5.985   6.625   6.539
 5518SOL    HW117453   6.041   6.707   6.532
 5518SOL    HW217454   6.032   6.548   6.497
 5519SOL     OW17455   5.922   3.795   3.456
 5519SOL    HW117456   5.855   3.794   3.529
 5519SOL    HW217457   5.975   3.710   3.459
 5520SOL     OW17458   6.495   0.415   2.516
 5520SOL    HW117459   6.423   0.353   2.547
 5520SOL    HW217460   6.480   0.506   2.555
 5521SOL     OW17461   5.639   5.980   2.047
 5521SOL    HW117462   5.627   5.896   2.099
 5521SOL    HW217463   5.733   6.013   2.059
 5522SOL     OW17464   6.311   5.021   0.535
 5522SOL    HW117465   6.334   5.005   0.631
 5522SOL    HW217466   6.349   4.948   0.479
 5523SOL     OW17467   3.307   1.024   2.152
 5523SOL    HW117468   3.377   0.980   2.208
 5523SOL    HW217469   3.218   1.015   2.196
 5524SOL     OW17470   5.124   0.567   4.422
 5524SOL    HW117471   5.112   0.472   4.395
 5524SOL    HW217472   5.156   0.621   4.345
 5525SOL     OW17473   0.335   1.907   0.814
 5525SOL    HW117474   0.363   1.964   0.891
 5525SOL    HW217475   0.247   1.938   0.779
 5526SOL     OW17476   4.684   5.817   3.445
 5526SOL    HW117477   4.782   5.801   3.454
 5526SOL    HW217478   4.634   5.735   3.473
 5527SOL     OW17479   4.865   3.709   4.100
 5527SOL    HW117480   4.879   3.681   4.005
 5527SOL    HW217481   4.902   3.639   4.160
 5528SOL     OW17482   1.322   0.985   6.979
 5528SOL    HW117483   1.351   1.015   0.051
 5528SOL    HW217484   1.361   1.045   6.910
 5529SOL     OW17485   3.135   6.883   3.253
 5529SOL    HW117486   3.125   6.784   3.240
 5529SOL    HW217487   3.163   6.901   3.347
 5530SOL     OW17488   5.999   2.314   1.493
 5530SOL    HW117489   5.978   2.362   1.408
 5530SOL    HW217490   5.943   2.232   1.499
 5531SOL     OW17491   3.275   3.601   2.052
 5531SOL    HW117492   3.215   3.539   2.102
 5531SOL    HW217493   3.329   3.549   1.986
 5532SOL     OW17494   0.935   3.678   0.781
 5532SOL    HW117495   0.958   3.768   0.817
 5532SOL    HW217496   0.994   3.609   0.824
 5533SOL     OW17497   3.646   1.822   3.101
 5533SOL    HW117498   3.589   1.816   3.020
 5533SOL    HW217499   3.659   1.918   3.126
 5534SOL     OW17500   0.157   1.492   6.302
 5534SOL    HW117501   0.237   1.534   6.259
 5534SOL    HW217502   0.179   1.399   6.330
 5535SOL     OW17503   0.461   2.918   3.005
 5535SOL    HW117504   0.444   3.016   3.005
 5535SOL    HW217505   0.377   2.870   3.032
 5536SOL     OW17506   3.072   1.063   4.447
 5536SOL    HW117507   3.092   0.968   4.425
 5536SOL    HW217508   2.985   1.089   4.404
 5537SOL     OW17509   2.688   1.050   2.633
 5537SOL    HW117510   2.694   1.148   2.650
 5537SOL    HW217511   2.618   1.033   2.563
 5538SOL     OW17512   2.332   5.902   5.641
 5538SOL    HW117513   2.389   5.943   5.713
 5538SOL    HW217514   2.390   5.851   5.578
 5539SOL     OW17515   1.346   3.468   1.466
 5539SOL    HW117516   1.254   3.506   1.471
 5539SOL    HW217517   1.342   3.368   1.475
 5540SOL     OW17518   4.541   4.749   3.425
 5540SOL    HW117519   4.456   4.763   3.475
 5540SOL    HW217520   4.611   4.714   3.487
 5541SOL     OW17521   5.760   0.024   5.996
 5541SOL    HW117522   5.771   0.068   6.084
 5541SOL    HW217523   5.697   0.077   5.939
 5542SOL     OW17524   5.299   3.468   6.202
 5542SOL    HW117525   5.251   3.512   6.277
 5542SOL    HW217526   5.266   3.505   6.115
 5543SOL     OW17527   3.626   5.015   5.956
 5543SOL    HW117528   3.590   4.940   5.900
 5543SOL    HW217529   3.573   5.098   5.937
 5544SOL     OW17530   4.616   5.882   5.972
 5544SOL    HW117531   4.679   5.881   5.895
 5544SOL    HW217532   4.631   5.801   6.029
 5545SOL     OW17533   4.224   1.323   2.180
 5545SOL    HW117534   4.318   1.289   2.171
 5545SOL    HW217535   4.178   1.316   2.092
 5546SOL     OW17536   0.554   5.210   4.914
 5546SOL    HW117537   0.545   5.137   4.846
 5546SOL    HW217538   0.556   5.170   5.006
 5547SOL     OW17539   2.473   6.229   5.225
 5547SOL    HW117540   2.480   6.318   5.271
 5547SOL    HW217541   2.552   6.217   5.165
 5548SOL     OW17542   6.456   2.420   4.880
 5548SOL    HW117543   6.461   2.512   4.843
 5548SOL    HW217544   6.365   2.404   4.917
 5549SOL     OW17545   4.489   4.494   6.480
 5549SOL    HW117546   4.443   4.426   6.536
 5549SOL    HW217547   4.515   4.453   6.393
 5550SOL     OW17548   2.611   5.475   2.040
 5550SOL    HW117549   2.649   5.485   1.947
 5550SOL    HW217550   2.515   5.503   2.040
 5551SOL     OW17551   2.379   0.712   3.033
 5551SOL    HW117552   2.286   0.693   3.002
 5551SOL    HW217553   2.444   0.694   2.959
 5552SOL     OW17554   6.547   0.908   6.854
 5552SOL    HW117555   6.477   0.837   6.845
 5552SOL    HW217556   6.603   0.910   6.771
 5553SOL     OW17557   4.561   6.063   0.170
 5553SOL    HW117558   4.653   6.062   0.132
 5553SOL    HW217559   4.533   5.971   0.196
 5554SOL     OW17560   3.361   1.190   5.547
 5554SOL    HW117561   3.444   1.244   5.530
 5554SOL    HW217562   3.386   1.105   5.594
 5555SOL     OW17563   0.893   4.233   3.873
 5555SOL    HW117564   0.896   4.328   3.902
 5555SOL    HW217565   0.863   4.228   3.778
 5556SOL     OW17566   0.558   2.489   4.063
 5556SOL    HW117567   0.482   2.429   4.035
 5556SOL    HW217568   0.559   2.497   4.162
 5557SOL     OW17569   3.519   5.765   3.010
 5557SOL    HW117570   3.601   5.712   2.987
 5557SOL    HW217571   3.546   5.857   3.039
 5558SOL     OW17572   5.010   3.728   6.556
 5558SOL    HW117573   4.991   3.676   6.639
 5558SOL    HW217574   5.023   3.824   6.579
 5559SOL     OW17575   2.205   6.954   2.162
 5559SOL    HW117576   2.196   6.893   2.083
 5559SOL    HW217577   2.139   0.010   2.154
 5560SOL     OW17578   0.567   6.773   3.638
 5560SOL    HW117579   0.471   6.790   3.619
 5560SOL    HW217580   0.575   6.696   3.702
 5561SOL     OW17581   2.270   2.462   4.060
 5561SOL    HW117582   2.353   2.511   4.086
 5561SOL    HW217583   2.199   2.478   4.128
 5562SOL     OW17584   2.722   2.355   0.097
 5562SOL    HW117585   2.803   2.387   0.047
 5562SOL    HW217586   2.640   2.386   0.049
 5563SOL     OW17587   4.712   6.352   2.413
 5563SOL    HW117588   4.673   6.316   2.329
 5563SOL    HW217589   4.776   6.286   2.451
 5564SOL     OW17590   4.395   1.625   1.979
 5564SOL    HW117591   4.343   1.651   1.897
 5564SOL    HW217592   4.354   1.668   2.059
 5565SOL     OW17593   4.908   1.743   6.701
 5565SOL    HW117594   4.949   1.655   6.725
 5565SOL    HW217595   4.938   1.769   6.609
 5566SOL     OW17596   1.619   5.091   0.832
 5566SOL    HW117597   1.531   5.046   0.820
 5566SOL    HW217598   1.660   5.063   0.919
 5567SOL     OW17599   0.664   4.582   2.068
 5567SOL    HW117600   0.633   4.510   2.131
 5567SOL    HW217601   0.757   4.609   2.091
 5568SOL     OW17602   4.761   2.583   2.580
 5568SOL    HW117603   4.669   2.549   2.599
 5568SOL    HW217604   4.829   2.518   2.615
 5569SOL     OW17605   3.042   1.191   1.601
 5569SOL    HW117606   3.077   1.267   1.547
 5569SOL    HW217607   2.990   1.129   1.543
 5570SOL     OW17608   5.738   4.352   4.826
 5570SOL    HW117609   5.702   4.445   4.833
 5570SOL    HW217610   5.677   4.290   4.874
 5571SOL     OW17611   0.531   6.964   6.739
 5571SOL    HW117612   0.517   0.002   6.658
 5571SOL    HW217613   0.558   0.002   6.816
 5572SOL     OW17614   2.033   2.768   6.157
 5572SOL    HW117615   1.955   2.806   6.205
 5572SOL    HW217616   2.020   2.669   6.146
 5573SOL     OW17617   1.931   2.812   0.037
 5573SOL    HW117618   1.907   2.899   0.079
 5573SOL    HW217619   1.850   2.770   7.017
 5574SOL     OW17620   6.532   0.997   3.869
 5574SOL    HW117621   6.453   1.054   3.843
 5574SOL    HW217622   6.609   1.056   3.893
 5575SOL     OW17623   0.656   1.304   1.969
 5575SOL    HW117624   0.603   1.341   2.045
 5575SOL    HW217625   0.623   1.342   1.883
 5576SOL     OW17626   6.724   5.995   2.110
 5576SOL    HW117627   6.668   6.050   2.047
 5576SOL    HW217628   6.820   6.002   2.083
 5577SOL     OW17629   3.193   2.609   6.387
 5577SOL    HW117630   3.175   2.659   6.472
 5577SOL    HW217631   3.277   2.556   6.397
 5578SOL     OW17632   4.467   3.492   0.895
 5578SOL    HW117633   4.509   3.486   0.804
 5578SOL    HW217634   4.500   3.416   0.951
 5579SOL     OW17635   6.358   4.122   6.787
 5579SOL    HW117636   6.338   4.098   6.692
 5579SOL    HW217637   6.427   4.060   6.823
 5580SOL     OW17638   4.703   1.964   6.114
 5580SOL    HW117639   4.677   2.038   6.052
 5580SOL    HW217640   4.627   1.900   6.122
 5581SOL     OW17641   2.318   6.795   1.166
 5581SOL    HW117642   2.270   6.881   1.181
 5581SOL    HW217643   2.278   6.747   1.089
 5582SOL     OW17644   3.573   3.243   3.780
 5582SOL    HW117645   3.553   3.286   3.868
 5582SOL    HW217646   3.514   3.163   3.768
 5583SOL     OW17647   3.628   6.606   2.770
 5583SOL    HW117648   3.712   6.557   2.748
 5583SOL    HW217649   3.641   6.704   2.754
 5584SOL     OW17650   5.628   4.187   4.464
 5584SOL    HW117651   5.570   4.126   4.409
 5584SOL    HW217652   5.686   4.132   4.525
 5585SOL     OW17653   4.728   0.422   3.520
 5585SOL    HW117654   4.727   0.332   3.563
 5585SOL    HW217655   4.637   0.463   3.527
 5586SOL     OW17656   1.310   2.550   0.043
 5586SOL    HW117657   1.356   2.461   0.052
 5586SOL    HW217658   1.227   2.550   0.099
 5587SOL     OW17659   4.499   6.733   1.857
 5587SOL    HW117660   4.559   6.672   1.910
 5587SOL    HW217661   4.411   6.688   1.842
 5588SOL     OW17662   0.981   6.545   4.077
 5588SOL    HW117663   0.967   6.447   4.062
 5588SOL    HW217664   1.021   6.559   4.168
 5589SOL     OW17665   5.049   2.909   6.618
 5589SOL    HW117666   5.125   2.846   6.603
 5589SOL    HW217667   4.976   2.863   6.668
 5590SOL     OW17668   7.014   5.437   2.784
 5590SOL    HW117669   7.016   5.524   2.735
 5590SOL    HW217670   0.087   5.398   2.788
 5591SOL     OW17671   5.755   1.150   6.013
 5591SOL    HW117672   5.713   1.213   6.078
 5591SOL    HW217673   5.853   1.166   6.009
 5592SOL     OW17674   2.184   4.868   2.778
 5592SOL    HW117675   2.120   4.805   2.733
 5592SOL    HW217676   2.234   4.920   2.709
 5593SOL     OW17677   0.141   2.527   5.680
 5593SOL    HW117678   0.164   2.624   5.691
 5593SOL    HW217679   0.045   2.513   5.702
 5594SOL     OW17680   2.888   1.085   6.818
 5594SOL    HW117681   2.916   1.164   6.872
 5594SOL    HW217682   2.790   1.071   6.828
 5595SOL     OW17683   5.932   0.769   4.986
 5595SOL    HW117684   5.917   0.799   4.892
 5595SOL    HW217685   6.025   0.790   5.014
 5596SOL     OW17686   5.014   0.503   2.996
 5596SOL    HW117687   5.034   0.418   3.043
 5596SOL    HW217688   5.098   0.542   2.959
 5597SOL     OW17689   5.300   2.176   5.300
 5597SOL    HW117690   5.203   2.179   5.326
 5597SOL    HW217691   5.312   2.221   5.212
 5598SOL     OW17692   5.302   2.663   4.069
 5598SOL    HW117693   5.344   2.724   4.002
 5598SOL    HW217694   5.357   2.662   4.153
 5599SOL     OW17695   6.324   3.948   2.314
 5599SOL    HW117696   6.411   3.993   2.335
 5599SOL    HW217697   6.339   3.877   2.246
 5600SOL     OW17698   2.142   0.363   2.373
 5600SOL    HW117699   2.075   0.414   2.428
 5600SOL    HW217700   2.177   0.286   2.427
 5601SOL     OW17701   4.342   2.290   5.792
 5601SOL    HW117702   4.433   2.322   5.767
 5601SOL    HW217703   4.320   2.207   5.740
 5602SOL     OW17704   6.760   0.794   3.058
 5602SOL    HW117705   6.772   0.891   3.038
 5602SOL    HW217706   6.702   0.783   3.138
 5603SOL     OW17707   4.830   2.177   5.107
 5603SOL    HW117708   4.789   2.102   5.159
 5603SOL    HW217709   4.784   2.262   5.130
 5604SOL     OW17710   1.311   1.932   4.592
 5604SOL    HW117711   1.217   1.949   4.563
 5604SOL    HW217712   1.337   1.838   4.567
 5605SOL     OW17713   1.363   0.060   5.150
 5605SOL    HW117714   1.298   0.032   5.220
 5605SOL    HW217715   1.347   0.156   5.127
 5606SOL     OW17716   4.199   1.036   0.493
 5606SOL    HW117717   4.238   1.116   0.448
 5606SOL    HW217718   4.101   1.052   0.510
 5607SOL     OW17719   5.857   2.244   3.550
 5607SOL    HW117720   5.908   2.179   3.606
 5607SOL    HW217721   5.777   2.198   3.510
 5608SOL     OW17722   6.090   1.377   3.048
 5608SOL    HW117723   6.165   1.318   3.017
 5608SOL    HW217724   6.014   1.371   2.984
 5609SOL     OW17725   4.820   6.068   0.367
 5609SOL    HW117726   4.846   6.144   0.308
 5609SOL    HW217727   4.791   5.990   0.310
 5610SOL     OW17728   5.803   3.778   0.760
 5610SOL    HW117729   5.714   3.819   0.776
 5610SOL    HW217730   5.844   3.818   0.677
 5611SOL     OW17731   1.084   4.978   2.323
 5611SOL    HW117732   1.108   4.881   2.323
 5611SOL    HW217733   1.010   4.995   2.388
 5612SOL     OW17734   3.336   2.544   0.757
 5612SOL    HW117735   3.328   2.453   0.717
 5612SOL    HW217736   3.318   2.539   0.856
 5613SOL     OW17737   6.973   4.841   5.284
 5613SOL    HW117738   0.028   4.847   5.216
 5613SOL    HW217739   6.907   4.914   5.267
 5614SOL     OW17740   6.153   2.477   4.543
 5614SOL    HW117741   6.244   2.470   4.584
 5614SOL    HW217742   6.096   2.537   4.599
 5615SOL     OW17743   0.085   1.527   2.974
 5615SOL    HW117744   0.078   1.428   2.963
 5615SOL    HW217745   0.114   1.549   3.067
 5616SOL     OW17746   2.351   2.293   5.137
 5616SOL    HW117747   2.271   2.265   5.085
 5616SOL    HW217748   2.395   2.370   5.092
 5617SOL     OW17749   1.806   3.978   4.799
 5617SOL    HW117750   1.883   4.040   4.783
 5617SOL    HW217751   1.829   3.887   4.764
 5618SOL     OW17752   6.713   5.296   3.230
 5618SOL    HW117753   6.696   5.325   3.136
 5618SOL    HW217754   6.646   5.226   3.255
 5619SOL     OW17755   3.729   2.911   3.639
 5619SOL    HW117756   3.705   2.842   3.707
 5619SOL    HW217757   3.790   2.979   3.681
 5620SOL     OW17758   5.006   3.922   6.204
 5620SOL    HW117759   4.982   3.961   6.115
 5620SOL    HW217760   5.098   3.884   6.201
 5621SOL     OW17761   1.149   3.275   6.441
 5621SOL    HW117762   1.079   3.332   6.400
 5621SOL    HW217763   1.218   3.252   6.372
 5622SOL     OW17764   4.640   6.755   5.298
 5622SOL    HW117765   4.580   6.777   5.375
 5622SOL    HW217766   4.667   6.659   5.304
 5623SOL     OW17767   4.939   6.805   5.168
 5623SOL    HW117768   4.908   6.725   5.117
 5623SOL    HW217769   4.883   6.816   5.250
 5624SOL     OW17770   1.081   5.255   3.759
 5624SOL    HW117771   1.117   5.168   3.791
 5624SOL    HW217772   0.983   5.260   3.777
 5625SOL     OW17773   0.733   4.730   5.065
 5625SOL    HW117774   0.810   4.670   5.089
 5625SOL    HW217775   0.683   4.753   5.148
 5626SOL     OW17776   2.568   4.921   4.289
 5626SOL    HW117777   2.557   4.829   4.252
 5626SOL    HW217778   2.504   4.983   4.245
 5627SOL     OW17779   6.713   5.646   6.183
 5627SOL    HW117780   6.675   5.737   6.169
 5627SOL    HW217781   6.801   5.638   6.135
 5628SOL     OW17782   3.153   2.862   1.505
 5628SOL    HW117783   3.197   2.784   1.548
 5628SOL    HW217784   3.054   2.849   1.505
 5629SOL     OW17785   4.137   2.898   1.763
 5629SOL    HW117786   4.209   2.963   1.789
 5629SOL    HW217787   4.173   2.834   1.695
 5630SOL     OW17788   1.830   4.042   6.072
 5630SOL    HW117789   1.870   3.984   6.143
 5630SOL    HW217790   1.865   4.135   6.083
 5631SOL     OW17791   5.426   1.095   1.903
 5631SOL    HW117792   5.479   1.125   1.983
 5631SOL    HW217793   5.350   1.158   1.888
 5632SOL     OW17794   5.093   1.615   5.570
 5632SOL    HW117795   5.076   1.709   5.541
 5632SOL    HW217796   5.096   1.555   5.490
 5633SOL     OW17797   6.751   5.086   4.614
 5633SOL    HW117798   6.747   5.186   4.609
 5633SOL    HW217799   6.659   5.049   4.628
 5634SOL     OW17800   1.854   4.643   3.575
 5634SOL    HW117801   1.779   4.630   3.640
 5634SOL    HW217802   1.832   4.719   3.514
 5635SOL     OW17803   2.502   6.285   0.100
 5635SOL    HW117804   2.438   6.332   0.039
 5635SOL    HW217805   2.547   6.210   0.050
 5636SOL     OW17806   5.311   0.785   5.750
 5636SOL    HW117807   5.298   0.841   5.668
 5636SOL    HW217808   5.274   0.694   5.734
 5637SOL     OW17809   5.062   0.127   3.894
 5637SOL    HW117810   5.128   0.091   3.959
 5637SOL    HW217811   5.067   0.227   3.893
 5638SOL     OW17812   5.904   5.596   0.989
 5638SOL    HW117813   5.982   5.601   1.051
 5638SOL    HW217814   5.936   5.570   0.898
 5639SOL     OW17815   1.265   0.970   1.687
 5639SOL    HW117816   1.239   0.959   1.783
 5639SOL    HW217817   1.345   0.914   1.668
 5640SOL     OW17818   2.656   7.013   2.307
 5640SOL    HW117819   2.604   0.076   2.283
 5640SOL    HW217820   2.638   6.941   2.240
 5641SOL     OW17821   0.574   4.370   6.154
 5641SOL    HW117822   0.639   4.384   6.228
 5641SOL    HW217823   0.515   4.451   6.145
 5642SOL     OW17824   1.162   5.026   5.565
 5642SOL    HW117825   1.170   4.963   5.487
 5642SOL    HW217826   1.219   5.106   5.549
 5643SOL     OW17827   3.504   0.588   4.971
 5643SOL    HW117828   3.455   0.577   4.885
 5643SOL    HW217829   3.516   0.685   4.991
 5644SOL     OW17830   3.912   0.615   3.890
 5644SOL    HW117831   3.900   0.665   3.804
 5644SOL    HW217832   3.840   0.640   3.954
 5645SOL     OW17833   6.849   4.529   3.139
 5645SOL    HW117834   6.758   4.509   3.175
 5645SOL    HW217835   6.842   4.556   3.043
 5646SOL     OW17836   2.424   5.697   3.468
 5646SOL    HW117837   2.391   5.714   3.561
 5646SOL    HW217838   2.480   5.773   3.438
 5647SOL     OW17839   5.812   6.986   0.062
 5647SOL    HW117840   5.784   6.917   0.129
 5647SOL    HW217841   5.908   7.009   0.077
 5648SOL     OW17842   1.517   1.476   2.517
 5648SOL    HW117843   1.442   1.523   2.564
 5648SOL    HW217844   1.522   1.507   2.423
 5649SOL     OW17845   0.766   6.648   5.811
 5649SOL    HW117846   0.791   6.738   5.847
 5649SOL    HW217847   0.706   6.659   5.732
 5650SOL     OW17848   0.552   5.515   1.163
 5650SOL    HW117849   0.524   5.602   1.203
 5650SOL    HW217850   0.635   5.529   1.108
 5651SOL     OW17851   0.352   1.172   1.867
 5651SOL    HW117852   0.322   1.084   1.828
 5651SOL    HW217853   0.375   1.235   1.793
 5652SOL     OW17854   5.923   6.544   2.099
 5652SOL    HW117855   5.828   6.521   2.076
 5652SOL    HW217856   5.927   6.637   2.134
 5653SOL     OW17857   0.523   6.625   6.526
 5653SOL    HW117858   0.500   6.537   6.566
 5653SOL    HW217859   0.595   6.613   6.457
 5654SOL     OW17860   6.429   6.835   5.493
 5654SOL    HW117861   6.397   6.929   5.495
 5654SOL    HW217862   6.521   6.831   5.453
 5655SOL     OW17863   1.323   3.431   4.503
 5655SOL    HW117864   1.317   3.528   4.527
 5655SOL    HW217865   1.403   3.390   4.548
 5656SOL     OW17866   1.757   4.127   0.257
 5656SOL    HW117867   1.791   4.044   0.212
 5656SOL    HW217868   1.796   4.207   0.213
 5657SOL     OW17869   5.537   0.624   0.957
 5657SOL    HW117870   5.438   0.606   0.961
 5657SOL    HW217871   5.586   0.549   1.001
 5658SOL     OW17872   3.421   5.758   5.886
 5658SOL    HW117873   3.371   5.722   5.965
 5658SOL    HW217874   3.514   5.723   5.887
 5659SOL     OW17875   3.612   4.153   3.483
 5659SOL    HW117876   3.517   4.126   3.466
 5659SOL    HW217877   3.670   4.118   3.410
 5660SOL     OW17878   5.820   0.136   5.510
 5660SOL    HW117879   5.859   0.188   5.434
 5660SOL    HW217880   5.853   0.174   5.597
 5661SOL     OW17881   6.943   4.203   5.815
 5661SOL    HW117882   0.017   4.213   5.778
 5661SOL    HW217883   6.877   4.217   5.741
 5662SOL     OW17884   2.901   5.555   3.545
 5662SOL    HW117885   2.806   5.537   3.521
 5662SOL    HW217886   2.907   5.586   3.640
 5663SOL     OW17887   1.984   3.735   6.725
 5663SOL    HW117888   1.980   3.677   6.807
 5663SOL    HW217889   1.988   3.831   6.752
 5664SOL     OW17890   6.954   4.079   4.281
 5664SOL    HW117891   6.985   4.083   4.186
 5664SOL    HW217892   6.862   4.119   4.288
 5665SOL     OW17893   1.797   1.795   6.774
 5665SOL    HW117894   1.758   1.864   6.836
 5665SOL    HW217895   1.855   1.840   6.706
 5666SOL     OW17896   5.583   6.154   0.708
 5666SOL    HW117897   5.629   6.181   0.623
 5666SOL    HW217898   5.647   6.163   0.784
 5667SOL     OW17899   1.268   4.209   3.693
 5667SOL    HW117900   1.234   4.165   3.776
 5667SOL    HW217901   1.219   4.173   3.613
 5668SOL     OW17902   5.395   1.907   5.201
 5668SOL    HW117903   5.380   1.982   5.267
 5668SOL    HW217904   5.455   1.839   5.242
 5669SOL     OW17905   0.384   2.708   6.635
 5669SOL    HW117906   0.316   2.753   6.693
 5669SOL    HW217907   0.472   2.756   6.642
 5670SOL     OW17908   0.259   2.950   3.830
 5670SOL    HW117909   0.282   2.901   3.914
 5670SOL    HW217910   0.241   3.046   3.852
 5671SOL     OW17911   0.946   6.458   6.358
 5671SOL    HW117912   0.897   6.447   6.445
 5671SOL    HW217913   0.897   6.524   6.301
 5672SOL     OW17914   4.301   4.266   6.715
 5672SOL    HW117915   4.361   4.217   6.652
 5672SOL    HW217916   4.260   4.344   6.668
 5673SOL     OW17917   1.210   6.047   1.798
 5673SOL    HW117918   1.112   6.064   1.803
 5673SOL    HW217919   1.228   5.973   1.732
 5674SOL     OW17920   6.731   4.080   4.036
 5674SOL    HW117921   6.824   4.112   4.021
 5674SOL    HW217922   6.709   4.009   3.968
 5675SOL     OW17923   4.231   2.294   6.032
 5675SOL    HW117924   4.234   2.391   6.055
 5675SOL    HW217925   4.300   2.275   5.962
 5676SOL     OW17926   2.134   2.181   2.230
 5676SOL    HW117927   2.119   2.266   2.180
 5676SOL    HW217928   2.048   2.132   2.240
 5677SOL     OW17929   0.749   2.618   2.696
 5677SOL    HW117930   0.698   2.540   2.732
 5677SOL    HW217931   0.824   2.641   2.758
 5678SOL     OW17932   2.376   6.301   2.638
 5678SOL    HW117933   2.435   6.350   2.574
 5678SOL    HW217934   2.434   6.248   2.701
 5679SOL     OW17935   1.225   0.588   3.503
 5679SOL    HW117936   1.196   0.540   3.420
 5679SOL    HW217937   1.317   0.623   3.492
 5680SOL     OW17938   1.068   5.604   0.536
 5680SOL    HW117939   1.161   5.587   0.569
 5680SOL    HW217940   1.005   5.608   0.613
 5681SOL     OW17941   0.295   3.507   0.055
 5681SOL    HW117942   0.243   3.587   0.086
 5681SOL    HW217943   0.345   3.468   0.132
 5682SOL     OW17944   2.262   4.741   5.294
 5682SOL    HW117945   2.290   4.837   5.300
 5682SOL    HW217946   2.259   4.713   5.198
 5683SOL     OW17947   3.555   1.200   0.176
 5683SOL    HW117948   3.474   1.228   0.228
 5683SOL    HW217949   3.547   1.232   0.082
 5684SOL     OW17950   3.792   2.878   4.828
 5684SOL    HW117951   3.879   2.844   4.863
 5684SOL    HW217952   3.802   2.904   4.731
 5685SOL     OW17953   1.635   3.339   2.018
 5685SOL    HW117954   1.555   3.282   2.037
 5685SOL    HW217955   1.702   3.285   1.966
 5686SOL     OW17956   2.474   6.920   6.388
 5686SOL    HW117957   2.448   6.823   6.392
 5686SOL    HW217958   2.415   6.967   6.323
 5687SOL     OW17959   0.673   3.678   5.569
 5687SOL    HW117960   0.624   3.758   5.603
 5687SOL    HW217961   0.767   3.679   5.602
 5688SOL     OW17962   6.649   2.033   6.937
 5688SOL    HW117963   6.635   1.935   6.945
 5688SOL    HW217964   6.746   2.054   6.947
 5689SOL     OW17965   4.639   0.528   0.600
 5689SOL    HW117966   4.676   0.508   0.509
 5689SOL    HW217967   4.647   0.446   0.658
 5690SOL     OW17968   2.261   6.201   0.433
 5690SOL    HW117969   2.222   6.114   0.464
 5690SOL    HW217970   2.189   6.270   0.428
 5691SOL     OW17971   2.544   5.968   1.724
 5691SOL    HW117972   2.632   6.007   1.750
 5691SOL    HW217973   2.530   5.979   1.626
 5692SOL     OW17974   6.728   3.121   5.961
 5692SOL    HW117975   6.747   3.211   6.000
 5692SOL    HW217976   6.800   3.098   5.895
 5693SOL     OW17977   5.915   2.453   2.639
 5693SOL    HW117978   5.905   2.542   2.594
 5693SOL    HW217979   5.842   2.392   2.609
 5694SOL     OW17980   1.002   1.718   3.829
 5694SOL    HW117981   0.926   1.696   3.889
 5694SOL    HW217982   0.992   1.812   3.795
 5695SOL     OW17983   1.166   2.883   3.390
 5695SOL    HW117984   1.152   2.968   3.441
 5695SOL    HW217985   1.246   2.892   3.330
 5696SOL     OW17986   1.394   0.629   3.100
 5696SOL    HW117987   1.414   0.639   3.197
 5696SOL    HW217988   1.298   0.602   3.088
 5697SOL     OW17989   6.441   2.026   0.970
 5697SOL    HW117990   6.363   1.966   0.992
 5697SOL    HW217991   6.463   2.082   1.050
 5698SOL     OW17992   0.432   3.140   2.226
 5698SOL    HW117993   0.501   3.072   2.200
 5698SOL    HW217994   0.365   3.149   2.152
 5699SOL     OW17995   6.194   2.011   2.937
 5699SOL    HW117996   6.177   2.063   2.854
 5699SOL    HW217997   6.114   2.018   2.997
 5700SOL     OW17998   6.435   6.492   4.371
 5700SOL    HW117999   6.339   6.495   4.400
 5700SOL    HW218000   6.492   6.534   4.442
 5701SOL     OW18001   1.318   6.202   3.435
 5701SOL    HW118002   1.415   6.179   3.435
 5701SOL    HW218003   1.281   6.192   3.528
 5702SOL     OW18004   1.839   6.991   5.225
 5702SOL    HW118005   1.754   6.939   5.230
 5702SOL    HW218006   1.885   6.988   5.314
 5703SOL     OW18007   5.443   4.454   1.412
 5703SOL    HW118008   5.487   4.392   1.347
 5703SOL    HW218009   5.357   4.486   1.374
 5704SOL     OW18010   4.121   5.672   1.854
 5704SOL    HW118011   4.046   5.611   1.826
 5704SOL    HW218012   4.174   5.698   1.773
 5705SOL     OW18013   4.927   1.288   0.871
 5705SOL    HW118014   4.977   1.235   0.940
 5705SOL    HW218015   4.974   1.281   0.783
 5706SOL     OW18016   0.693   1.962   0.121
 5706SOL    HW118017   0.663   1.885   0.177
 5706SOL    HW218018   0.629   1.976   0.046
 5707SOL     OW18019   0.334   0.179   0.582
 5707SOL    HW118020   0.430   0.177   0.557
 5707SOL    HW218021   0.278   0.186   0.499
 5708SOL     OW18022   5.171   6.566   1.214
 5708SOL    HW118023   5.186   6.625   1.135
 5708SOL    HW218024   5.154   6.472   1.182
 5709SOL     OW18025   1.446   0.314   3.599
 5709SOL    HW118026   1.461   0.397   3.546
 5709SOL    HW218027   1.439   0.235   3.538
 5710SOL     OW18028   2.833   3.311   6.621
 5710SOL    HW118029   2.735   3.324   6.605
 5710SOL    HW218030   2.873   3.264   6.542
 5711SOL     OW18031   4.257   0.782   2.908
 5711SOL    HW118032   4.262   0.750   3.002
 5711SOL    HW218033   4.176   0.744   2.864
 5712SOL     OW18034   0.666   5.615   5.875
 5712SOL    HW118035   0.736   5.601   5.945
 5712SOL    HW218036   0.575   5.606   5.916
 5713SOL     OW18037   1.488   1.968   1.823
 5713SOL    HW118038   1.547   1.893   1.796
 5713SOL    HW218039   1.396   1.934   1.843
 5714SOL     OW18040   0.359   6.360   6.500
 5714SOL    HW118041   0.336   6.403   6.413
 5714SOL    HW218042   0.396   6.268   6.484
 5715SOL     OW18043   1.357   6.630   3.482
 5715SOL    HW118044   1.330   6.588   3.569
 5715SOL    HW218045   1.376   6.558   3.415
 5716SOL     OW18046   1.426   4.729   6.923
 5716SOL    HW118047   1.333   4.692   6.924
 5716SOL    HW218048   1.431   4.803   6.856
 5717SOL     OW18049   1.847   6.302   0.958
 5717SOL    HW118050   1.911   6.269   0.889
 5717SOL    HW218051   1.890   6.299   1.048
 5718SOL     OW18052   1.328   3.537   6.133
 5718SOL    HW118053   1.324   3.437   6.134
 5718SOL    HW218054   1.311   3.570   6.040
 5719SOL     OW18055   2.285   1.413   6.132
 5719SOL    HW118056   2.349   1.391   6.058
 5719SOL    HW218057   2.261   1.510   6.127
 5720SOL     OW18058   0.710   4.813   4.294
 5720SOL    HW118059   0.667   4.812   4.384
 5720SOL    HW218060   0.786   4.878   4.294
 5721SOL     OW18061   0.377   3.513   0.607
 5721SOL    HW118062   0.402   3.416   0.601
 5721SOL    HW218063   0.459   3.567   0.624
 5722SOL     OW18064   6.332   1.853   4.935
 5722SOL    HW118065   6.431   1.868   4.939
 5722SOL    HW218066   6.292   1.913   4.866
 5723SOL     OW18067   4.406   3.723   0.059
 5723SOL    HW118068   4.431   3.651   0.124
 5723SOL    HW218069   4.484   3.744   0.000
 5724SOL     OW18070   4.196   2.672   5.352
 5724SOL    HW118071   4.125   2.692   5.420
 5724SOL    HW218072   4.158   2.612   5.281
 5725SOL     OW18073   6.282   5.623   3.935
 5725SOL    HW118074   6.195   5.605   3.981
 5725SOL    HW218075   6.342   5.675   3.995
 5726SOL     OW18076   6.391   3.812   3.915
 5726SOL    HW118077   6.394   3.884   3.984
 5726SOL    HW218078   6.317   3.748   3.936
 5727SOL     OW18079   0.883   2.803   4.213
 5727SOL    HW118080   0.947   2.727   4.204
 5727SOL    HW218081   0.934   2.889   4.219
 5728SOL     OW18082   4.673   1.156   6.855
 5728SOL    HW118083   4.643   1.179   6.948
 5728SOL    HW218084   4.683   1.240   6.801
 5729SOL     OW18085   0.676   1.492   0.160
 5729SOL    HW118086   0.710   1.479   0.067
 5729SOL    HW218087   0.579   1.465   0.164
 5730SOL     OW18088   4.396   5.252   5.823
 5730SOL    HW118089   4.464   5.189   5.786
 5730SOL    HW218090   4.344   5.292   5.748
 5731SOL     OW18091   1.893   6.562   4.225
 5731SOL    HW118092   1.878   6.652   4.266
 5731SOL    HW218093   1.854   6.560   4.133
 5732SOL     OW18094   6.848   5.071   5.362
 5732SOL    HW118095   6.756   5.098   5.335
 5732SOL    HW218096   6.845   5.028   5.452
 5733SOL     OW18097   3.159   0.375   5.680
 5733SOL    HW118098   3.241   0.318   5.678
 5733SOL    HW218099   3.178   0.459   5.729
 5734SOL     OW18100   1.392   6.064   5.980
 5734SOL    HW118101   1.472   6.050   6.038
 5734SOL    HW218102   1.392   5.996   5.906
 5735SOL     OW18103   4.161   1.042   2.514
 5735SOL    HW118104   4.135   1.052   2.418
 5735SOL    HW218105   4.219   0.961   2.524
 5736SOL     OW18106   5.703   4.203   1.312
 5736SOL    HW118107   5.648   4.257   1.248
 5736SOL    HW218108   5.771   4.150   1.261
 5737SOL     OW18109   5.592   5.801   6.801
 5737SOL    HW118110   5.493   5.800   6.818
 5737SOL    HW218111   5.619   5.713   6.761
 5738SOL     OW18112   3.550   2.382   6.725
 5738SOL    HW118113   3.503   2.449   6.784
 5738SOL    HW218114   3.586   2.308   6.781
 5739SOL     OW18115   0.741   6.201   5.356
 5739SOL    HW118116   0.675   6.189   5.430
 5739SOL    HW218117   0.696   6.243   5.277
 5740SOL     OW18118   4.009   4.110   1.116
 5740SOL    HW118119   4.056   4.024   1.099
 5740SOL    HW218120   3.953   4.102   1.199
 5741SOL     OW18121   6.904   3.658   4.665
 5741SOL    HW118122   6.873   3.612   4.748
 5741SOL    HW218123   6.835   3.647   4.593
 5742SOL     OW18124   4.659   6.300   2.135
 5742SOL    HW118125   4.574   6.254   2.110
 5742SOL    HW218126   4.736   6.238   2.122
 5743SOL     OW18127   2.077   5.886   5.494
 5743SOL    HW118128   2.169   5.894   5.531
 5743SOL    HW218129   2.010   5.893   5.568
 5744SOL     OW18130   4.825   1.693   1.312
 5744SOL    HW118131   4.734   1.651   1.318
 5744SOL    HW218132   4.817   1.785   1.275
 5745SOL     OW18133   2.099   1.413   3.258
 5745SOL    HW118134   2.045   1.411   3.342
 5745SOL    HW218135   2.156   1.331   3.254
 5746SOL     OW18136   4.887   0.233   2.020
 5746SOL    HW118137   4.985   0.251   2.016
 5746SOL    HW218138   4.842   0.305   2.073
 5747SOL     OW18139   1.574   5.446   1.933
 5747SOL    HW118140   1.581   5.509   2.010
 5747SOL    HW218141   1.635   5.368   1.948
 5748SOL     OW18142   1.407   0.336   1.102
 5748SOL    HW118143   1.490   0.369   1.147
 5748SOL    HW218144   1.393   0.240   1.123
 5749SOL     OW18145   1.207   6.336   5.014
 5749SOL    HW118146   1.168   6.371   4.929
 5749SOL    HW218147   1.288   6.281   4.994
 5750SOL     OW18148   6.371   6.035   4.784
 5750SOL    HW118149   6.411   6.015   4.874
 5750SOL    HW218150   6.351   5.949   4.737
 5751SOL     OW18151   2.192   3.013   4.783
 5751SOL    HW118152   2.257   3.021   4.858
 5751SOL    HW218153   2.106   2.977   4.817
 5752SOL     OW18154   5.413   0.447   0.183
 5752SOL    HW118155   5.320   0.419   0.157
 5752SOL    HW218156   5.449   0.510   0.115
 5753SOL     OW18157   3.656   4.046   4.560
 5753SOL    HW118158   3.661   4.121   4.626
 5753SOL    HW218159   3.590   3.979   4.591
 5754SOL     OW18160   0.047   5.593   2.412
 5754SOL    HW118161   0.032   5.628   2.504
 5754SOL    HW218162   7.009   5.644   2.347
 5755SOL     OW18163   2.135   2.393   6.903
 5755SOL    HW118164   2.048   2.444   6.903
 5755SOL    HW218165   2.144   2.343   6.989
 5756SOL     OW18166   6.676   0.317   2.965
 5756SOL    HW118167   6.770   0.283   2.971
 5756SOL    HW218168   6.627   0.296   3.049
 5757SOL     OW18169   0.546   5.815   2.982
 5757SOL    HW118170   0.629   5.810   2.927
 5757SOL    HW218171   0.485   5.739   2.958
 5758SOL     OW18172   2.450   1.314   3.916
 5758SOL    HW118173   2.544   1.319   3.882
 5758SOL    HW218174   2.390   1.364   3.854
 5759SOL     OW18175   4.994   0.915   6.749
 5759SOL    HW118176   5.016   0.979   6.822
 5759SOL    HW218177   4.899   0.883   6.760
 5760SOL     OW18178   6.842   2.959   0.843
 5760SOL    HW118179   6.860   2.970   0.941
 5760SOL    HW218180   6.759   3.010   0.818
 5761SOL     OW18181   5.652   5.040   5.903
 5761SOL    HW118182   5.604   5.079   5.825
 5761SOL    HW218183   5.736   4.996   5.872
 5762SOL     OW18184   4.992   4.058   1.034
 5762SOL    HW118185   4.897   4.082   1.055
 5762SOL    HW218186   4.996   3.966   0.995
 5763SOL     OW18187   6.565   5.750   0.611
 5763SOL    HW118188   6.620   5.827   0.641
 5763SOL    HW218189   6.469   5.766   0.634
 5764SOL     OW18190   5.259   4.711   5.334
 5764SOL    HW118191   5.322   4.677   5.264
 5764SOL    HW218192   5.166   4.713   5.297
 5765SOL     OW18193   6.485   3.124   1.051
 5765SOL    HW118194   6.483   3.203   1.113
 5765SOL    HW218195   6.392   3.107   1.017
 5766SOL     OW18196   1.584   1.521   5.792
 5766SOL    HW118197   1.656   1.589   5.798
 5766SOL    HW218198   1.514   1.539   5.861
 5767SOL     OW18199   2.052   0.697   0.675
 5767SOL    HW118200   1.970   0.704   0.619
 5767SOL    HW218201   2.104   0.615   0.650
 5768SOL     OW18202   1.345   6.011   4.139
 5768SOL    HW118203   1.261   5.985   4.091
 5768SOL    HW218204   1.363   6.108   4.124
 5769SOL     OW18205   2.238   5.494   4.430
 5769SOL    HW118206   2.328   5.466   4.395
 5769SOL    HW218207   2.250   5.549   4.512
 5770SOL     OW18208   6.527   6.024   6.465
 5770SOL    HW118209   6.457   6.001   6.532
 5770SOL    HW218210   6.523   6.122   6.444
 5771SOL     OW18211   1.127   6.954   4.228
 5771SOL    HW118212   1.070   6.913   4.156
 5771SOL    HW218213   1.129   6.893   4.308
 5772SOL     OW18214   5.366   1.096   2.277
 5772SOL    HW118215   5.315   1.166   2.326
 5772SOL    HW218216   5.435   1.140   2.219
 5773SOL     OW18217   3.868   0.475   3.497
 5773SOL    HW118218   3.782   0.489   3.448
 5773SOL    HW218219   3.849   0.461   3.594
 5774SOL     OW18220   3.277   6.605   4.058
 5774SOL    HW118221   3.268   6.588   3.960
 5774SOL    HW218222   3.344   6.541   4.097
 5775SOL     OW18223   1.635   0.875   2.576
 5775SOL    HW118224   1.610   0.945   2.644
 5775SOL    HW218225   1.725   0.896   2.539
 5776SOL     OW18226   0.082   0.490   4.122
 5776SOL    HW118227   0.168   0.471   4.169
 5776SOL    HW218228   0.006   0.485   4.188
 5777SOL     OW18229   6.679   0.452   4.964
 5777SOL    HW118230   6.595   0.488   4.922
 5777SOL    HW218231   6.656   0.406   5.050
 5778SOL     OW18232   1.472   0.570   0.925
 5778SOL    HW118233   1.536   0.631   0.971
 5778SOL    HW218234   1.427   0.512   0.993
 5779SOL     OW18235   4.019   2.650   0.911
 5779SOL    HW118236   3.949   2.714   0.878
 5779SOL    HW218237   4.088   2.636   0.841
 5780SOL     OW18238   6.202   5.862   4.161
 5780SOL    HW118239   6.297   5.832   4.151
 5780SOL    HW218240   6.189   5.905   4.250
 5781SOL     OW18241   6.496   4.964   4.339
 5781SOL    HW118242   6.531   4.952   4.432
 5781SOL    HW218243   6.561   4.926   4.273
 5782SOL     OW18244   1.813   1.337   0.237
 5782SOL    HW118245   1.785   1.373   0.147
 5782SOL    HW218246   1.783   1.400   0.308
 5783SOL     OW18247   1.405   0.625   1.704
 5783SOL    HW118248   1.450   0.544   1.741
 5783SOL    HW218249   1.322   0.643   1.758
 5784SOL     OW18250   6.663   5.656   6.444
 5784SOL    HW118251   6.688   5.659   6.348
 5784SOL    HW218252   6.564   5.648   6.453
 5785SOL     OW18253   2.502   1.464   0.549
 5785SOL    HW118254   2.420   1.474   0.493
 5785SOL    HW218255   2.577   1.518   0.510
 5786SOL     OW18256   1.022   3.747   0.423
 5786SOL    HW118257   0.940   3.803   0.429
 5786SOL    HW218258   1.002   3.662   0.375
 5787SOL     OW18259   3.571   2.099   4.950
 5787SOL    HW118260   3.524   2.081   4.864
 5787SOL    HW218261   3.504   2.127   5.019
 5788SOL     OW18262   3.170   1.349   0.929
 5788SOL    HW118263   3.084   1.312   0.893
 5788SOL    HW218264   3.175   1.331   1.027
 5789SOL     OW18265   3.257   4.545   6.555
 5789SOL    HW118266   3.308   4.615   6.505
 5789SOL    HW218267   3.161   4.547   6.527
 5790SOL     OW18268   1.010   4.734   4.651
 5790SOL    HW118269   1.104   4.719   4.682
 5790SOL    HW218270   0.966   4.646   4.636
 5791SOL     OW18271   3.281   1.348   2.497
 5791SOL    HW118272   3.322   1.396   2.575
 5791SOL    HW218273   3.264   1.414   2.423
 5792SOL     OW18274   6.166   3.081   2.514
 5792SOL    HW118275   6.208   3.072   2.605
 5792SOL    HW218276   6.196   3.005   2.456
 5793SOL     OW18277   4.578   0.866   3.725
 5793SOL    HW118278   4.570   0.961   3.755
 5793SOL    HW218279   4.649   0.859   3.655
 5794SOL     OW18280   2.224   0.949   6.859
 5794SOL    HW118281   2.247   1.045   6.876
 5794SOL    HW218282   2.231   0.898   6.945
 5795SOL     OW18283   6.435   0.114   6.741
 5795SOL    HW118284   6.467   0.020   6.751
 5795SOL    HW218285   6.335   0.116   6.751
 5796SOL     OW18286   5.000   1.405   6.074
 5796SOL    HW118287   5.035   1.317   6.107
 5796SOL    HW218288   5.073   1.473   6.079
 5797SOL     OW18289   4.884   2.432   6.919
 5797SOL    HW118290   4.791   2.469   6.907
 5797SOL    HW218291   4.901   2.418   7.017
 5798SOL     OW18292   0.945   5.004   4.862
 5798SOL    HW118293   0.974   4.959   4.778
 5798SOL    HW218294   0.986   4.958   4.941
 5799SOL     OW18295   0.242   0.500   3.598
 5799SOL    HW118296   0.335   0.471   3.577
 5799SOL    HW218297   0.177   0.440   3.550
 5800SOL     OW18298   6.436   6.514   2.265
 5800SOL    HW118299   6.395   6.461   2.339
 5800SOL    HW218300   6.522   6.471   2.236
 5801SOL     OW18301   1.705   2.360   3.309
 5801SOL    HW118302   1.637   2.291   3.332
 5801SOL    HW218303   1.746   2.338   3.221
 5802SOL     OW18304   0.565   3.913   2.227
 5802SOL    HW118305   0.619   3.955   2.299
 5802SOL    HW218306   0.468   3.936   2.241
 5803SOL     OW18307   2.376   5.466   1.787
 5803SOL    HW118308   2.376   5.539   1.855
 5803SOL    HW218309   2.458   5.474   1.730
 5804SOL     OW18310   0.637   5.846   3.789
 5804SOL    HW118311   0.607   5.887   3.875
 5804SOL    HW218312   0.689   5.913   3.736
 5805SOL     OW18313   2.129   3.256   0.262
 5805SOL    HW118314   2.136   3.351   0.230
 5805SOL    HW218315   2.049   3.213   0.221
 5806SOL     OW18316   6.595   5.136   5.061
 5806SOL    HW118317   6.674   5.139   5.000
 5806SOL    HW218318   6.524   5.196   5.026
 5807SOL     OW18319   0.844   3.701   1.240
 5807SOL    HW118320   0.933   3.736   1.271
 5807SOL    HW218321   0.823   3.616   1.289
 5808SOL     OW18322   6.738   5.616   4.652
 5808SOL    HW118323   6.809   5.638   4.718
 5808SOL    HW218324   6.650   5.652   4.685
 5809SOL     OW18325   5.795   2.245   4.561
 5809SOL    HW118326   5.873   2.204   4.514
 5809SOL    HW218327   5.751   2.311   4.500
 5810SOL     OW18328   4.019   1.637   4.806
 5810SOL    HW118329   4.057   1.574   4.738
 5810SOL    HW218330   4.082   1.713   4.821
 5811SOL     OW18331   3.101   0.837   5.297
 5811SOL    HW118332   3.190   0.813   5.335
 5811SOL    HW218333   3.086   0.935   5.307
 5812SOL     OW18334   6.236   2.964   4.527
 5812SOL    HW118335   6.243   3.046   4.471
 5812SOL    HW218336   6.263   2.985   4.621
 5813SOL     OW18337   1.852   1.697   0.739
 5813SOL    HW118338   1.926   1.631   0.746
 5813SOL    HW218339   1.784   1.665   0.674
 5814SOL     OW18340   6.547   4.099   2.371
 5814SOL    HW118341   6.516   4.190   2.397
 5814SOL    HW218342   6.605   4.106   2.290
 5815SOL     OW18343   4.169   1.857   4.855
 5815SOL    HW118344   4.205   1.906   4.934
 5815SOL    HW218345   4.091   1.907   4.817
 5816SOL     OW18346   4.850   5.042   0.109
 5816SOL    HW118347   4.759   5.070   0.077
 5816SOL    HW218348   4.884   4.967   0.051
 5817SOL     OW18349   5.917   3.920   5.683
 5817SOL    HW118350   5.919   3.981   5.604
 5817SOL    HW218351   5.951   3.830   5.656
 5818SOL     OW18352   7.019   5.855   4.943
 5818SOL    HW118353   7.010   5.762   4.905
 5818SOL    HW218354   6.928   5.890   4.966
 5819SOL     OW18355   3.183   6.863   6.533
 5819SOL    HW118356   3.209   6.810   6.614
 5819SOL    HW218357   3.230   6.951   6.534
 5820SOL     OW18358   4.654   5.381   3.507
 5820SOL    HW118359   4.619   5.474   3.493
 5820SOL    HW218360   4.703   5.377   3.593
 5821SOL     OW18361   6.979   6.899   1.238
 5821SOL    HW118362   6.940   6.806   1.242
 5821SOL    HW218363   7.005   6.927   1.330
 5822SOL     OW18364   1.607   2.463   1.277
 5822SOL    HW118365   1.531   2.401   1.259
 5822SOL    HW218366   1.681   2.445   1.212
 5823SOL     OW18367   1.956   0.422   5.266
 5823SOL    HW118368   1.887   0.494   5.273
 5823SOL    HW218369   1.920   0.348   5.208
 5824SOL     OW18370   6.905   5.686   2.154
 5824SOL    HW118371   6.919   5.780   2.123
 5824SOL    HW218372   6.969   5.626   2.106
 5825SOL     OW18373   0.062   1.768   5.382
 5825SOL    HW118374   0.011   1.707   5.443
 5825SOL    HW218375   0.135   1.717   5.337
 5826SOL     OW18376   6.997   4.766   6.166
 5826SOL    HW118377   6.900   4.777   6.187
 5826SOL    HW218378   7.012   4.785   6.069
 5827SOL     OW18379   2.101   3.860   4.905
 5827SOL    HW118380   2.114   3.851   4.806
 5827SOL    HW218381   2.178   3.910   4.944
 5828SOL     OW18382   6.401   1.651   1.582
 5828SOL    HW118383   6.421   1.745   1.609
 5828SOL    HW218384   6.306   1.629   1.606
 5829SOL     OW18385   0.865   0.625   3.353
 5829SOL    HW118386   0.958   0.586   3.347
 5829SOL    HW218387   0.859   0.683   3.433
 5830SOL     OW18388   4.962   6.534   5.871
 5830SOL    HW118389   4.891   6.594   5.834
 5830SOL    HW218390   4.993   6.570   5.959
 5831SOL     OW18391   1.397   1.445   5.425
 5831SOL    HW118392   1.351   1.399   5.501
 5831SOL    HW218393   1.367   1.405   5.339
 5832SOL     OW18394   2.630   4.521   6.734
 5832SOL    HW118395   2.712   4.479   6.773
 5832SOL    HW218396   2.551   4.462   6.752
 5833SOL     OW18397   3.706   3.838   5.006
 5833SOL    HW118398   3.802   3.820   4.987
 5833SOL    HW218399   3.690   3.837   5.105
 5834SOL     OW18400   7.002   2.610   0.642
 5834SOL    HW118401   0.040   2.646   0.568
 5834SOL    HW218402   0.040   2.593   0.723
 5835SOL     OW18403   5.408   2.959   3.298
 5835SOL    HW118404   5.451   2.938   3.210
 5835SOL    HW218405   5.317   2.996   3.283
 5836SOL     OW18406   2.381   6.733   2.236
 5836SOL    HW118407   2.326   6.814   2.218
 5836SOL    HW218408   2.469   6.742   2.190
 5837SOL     OW18409   3.675   4.120   6.265
 5837SOL    HW118410   3.575   4.128   6.264
 5837SOL    HW218411   3.701   4.028   6.294
 5838SOL     OW18412   2.742   1.663   0.581
 5838SOL    HW118413   2.812   1.682   0.511
 5838SOL    HW218414   2.705   1.749   0.616
 5839SOL     OW18415   0.660   2.117   2.444
 5839SOL    HW118416   0.673   2.108   2.345
 5839SOL    HW218417   0.670   2.028   2.488
 5840SOL     OW18418   0.310   5.324   6.300
 5840SOL    HW118419   0.253   5.257   6.348
 5840SOL    HW218420   0.406   5.298   6.309
 5841SOL     OW18421   5.059   1.937   2.411
 5841SOL    HW118422   5.102   1.982   2.489
 5841SOL    HW218423   5.110   1.959   2.327
 5842SOL     OW18424   4.625   2.800   1.474
 5842SOL    HW118425   4.660   2.872   1.534
 5842SOL    HW218426   4.559   2.838   1.410
 5843SOL     OW18427   1.438   3.742   3.210
 5843SOL    HW118428   1.385   3.748   3.125
 5843SOL    HW218429   1.377   3.717   3.285
 5844SOL     OW18430   1.950   6.097   5.889
 5844SOL    HW118431   1.933   6.188   5.851
 5844SOL    HW218432   2.039   6.096   5.936
 5845SOL     OW18433   0.675   0.286   2.758
 5845SOL    HW118434   0.713   0.265   2.848
 5845SOL    HW218435   0.667   0.385   2.748
 5846SOL     OW18436   6.608   2.979   4.931
 5846SOL    HW118437   6.650   2.961   4.842
 5846SOL    HW218438   6.584   2.892   4.975
 5847SOL     OW18439   2.930   2.044   1.637
 5847SOL    HW118440   2.859   1.975   1.645
 5847SOL    HW218441   2.986   2.026   1.556
 5848SOL     OW18442   1.404   6.107   3.177
 5848SOL    HW118443   1.356   6.160   3.248
 5848SOL    HW218444   1.340   6.087   3.103
 5849SOL     OW18445   1.082   0.723   6.031
 5849SOL    HW118446   1.008   0.714   6.097
 5849SOL    HW218447   1.120   0.816   6.037
 5850SOL     OW18448   6.791   3.465   1.867
 5850SOL    HW118449   6.785   3.552   1.916
 5850SOL    HW218450   6.864   3.409   1.909
 5851SOL     OW18451   4.865   3.829   3.067
 5851SOL    HW118452   4.831   3.735   3.065
 5851SOL    HW218453   4.962   3.828   3.092
 5852SOL     OW18454   6.214   6.148   3.128
 5852SOL    HW118455   6.187   6.236   3.090
 5852SOL    HW218456   6.143   6.079   3.107
 5853SOL     OW18457   3.614   5.549   4.370
 5853SOL    HW118458   3.623   5.480   4.442
 5853SOL    HW218459   3.680   5.530   4.297
 5854SOL     OW18460   4.804   4.404   6.193
 5854SOL    HW118461   4.816   4.484   6.252
 5854SOL    HW218462   4.837   4.425   6.101
 5855SOL     OW18463   0.617   1.945   4.898
 5855SOL    HW118464   0.598   2.040   4.924
 5855SOL    HW218465   0.622   1.888   4.979
 5856SOL     OW18466   2.060   5.807   3.788
 5856SOL    HW118467   2.069   5.765   3.878
 5856SOL    HW218468   2.031   5.902   3.797
 5857SOL     OW18469   6.141   2.055   6.033
 5857SOL    HW118470   6.168   2.007   6.116
 5857SOL    HW218471   6.214   2.119   6.006
 5858SOL     OW18472   2.889   1.897   2.243
 5858SOL    HW118473   2.837   1.983   2.245
 5858SOL    HW218474   2.970   1.906   2.301
 5859SOL     OW18475   5.845   6.358   1.476
 5859SOL    HW118476   5.892   6.281   1.433
 5859SOL    HW218477   5.838   6.343   1.574
 5860SOL     OW18478   0.736   3.737   1.795
 5860SOL    HW118479   0.719   3.661   1.857
 5860SOL    HW218480   0.815   3.716   1.737
 5861SOL     OW18481   4.344   1.633   4.601
 5861SOL    HW118482   4.266   1.571   4.612
 5861SOL    HW218483   4.394   1.640   4.687
 5862SOL     OW18484   6.295   5.411   1.578
 5862SOL    HW118485   6.271   5.329   1.631
 5862SOL    HW218486   6.347   5.383   1.497
 5863SOL     OW18487   3.353   2.038   5.424
 5863SOL    HW118488   3.369   2.070   5.330
 5863SOL    HW218489   3.288   2.099   5.469
 5864SOL     OW18490   4.100   3.648   2.273
 5864SOL    HW118491   4.094   3.722   2.340
 5864SOL    HW218492   4.107   3.560   2.321
 5865SOL     OW18493   6.033   0.261   4.686
 5865SOL    HW118494   6.007   0.164   4.685
 5865SOL    HW218495   5.954   0.316   4.661
 5866SOL     OW18496   4.058   4.519   6.971
 5866SOL    HW118497   4.125   4.593   6.973
 5866SOL    HW218498   4.048   4.486   6.876
 5867SOL     OW18499   1.855   3.471   0.338
 5867SOL    HW118500   1.827   3.419   0.258
 5867SOL    HW218501   1.860   3.410   0.418
 5868SOL     OW18502   0.906   1.690   5.464
 5868SOL    HW118503   0.918   1.644   5.376
 5868SOL    HW218504   0.929   1.627   5.538
 5869SOL     OW18505   1.594   6.193   3.427
 5869SOL    HW118506   1.584   6.140   3.343
 5869SOL    HW218507   1.650   6.142   3.492
 5870SOL     OW18508   4.917   5.882   4.386
 5870SOL    HW118509   4.934   5.855   4.481
 5870SOL    HW218510   4.826   5.852   4.359
 5871SOL     OW18511   3.787   2.890   1.309
 5871SOL    HW118512   3.816   2.831   1.384
 5871SOL    HW218513   3.687   2.891   1.305
 5872SOL     OW18514   3.955   6.008   0.996
 5872SOL    HW118515   3.868   6.010   0.947
 5872SOL    HW218516   3.941   6.042   1.089
 5873SOL     OW18517   3.109   1.639   1.495
 5873SOL    HW118518   3.144   1.683   1.578
 5873SOL    HW218519   3.137   1.692   1.415
 5874SOL     OW18520   3.257   3.636   6.708
 5874SOL    HW118521   3.188   3.571   6.677
 5874SOL    HW218522   3.342   3.588   6.728
 5875SOL     OW18523   4.464   0.768   6.907
 5875SOL    HW118524   4.555   0.782   6.946
 5875SOL    HW218525   4.465   0.688   6.848
 5876SOL     OW18526   3.607   3.611   0.736
 5876SOL    HW118527   3.666   3.644   0.662
 5876SOL    HW218528   3.518   3.585   0.698
 5877SOL     OW18529   0.240   0.718   1.246
 5877SOL    HW118530   0.294   0.657   1.305
 5877SOL    HW218531   0.171   0.664   1.197
 5878SOL     OW18532   6.068   5.173   4.000
 5878SOL    HW118533   6.056   5.146   4.096
 5878SOL    HW218534   6.064   5.092   3.942
 5879SOL     OW18535   2.217   3.751   6.588
 5879SOL    HW118536   2.125   3.729   6.620
 5879SOL    HW218537   2.212   3.821   6.517
 5880SOL     OW18538   5.379   4.722   6.697
 5880SOL    HW118539   5.451   4.652   6.699
 5880SOL    HW218540   5.315   4.701   6.623
 5881SOL     OW18541   0.895   6.698   2.387
 5881SOL    HW118542   0.978   6.716   2.334
 5881SOL    HW218543   0.818   6.687   2.325
 5882SOL     OW18544   0.037   5.480   6.600
 5882SOL    HW118545   6.958   5.479   6.577
 5882SOL    HW218546   0.060   5.396   6.648
 5883SOL     OW18547   0.352   1.664   6.510
 5883SOL    HW118548   0.315   1.678   6.418
 5883SOL    HW218549   0.398   1.748   6.540
 5884SOL     OW18550   4.921   1.101   3.897
 5884SOL    HW118551   4.966   1.190   3.884
 5884SOL    HW218552   4.827   1.106   3.865
 5885SOL     OW18553   7.009   5.920   2.353
 5885SOL    HW118554   7.016   5.946   2.257
 5885SOL    HW218555   0.081   5.896   2.387
 5886SOL     OW18556   0.657   2.158   3.768
 5886SOL    HW118557   0.692   2.244   3.731
 5886SOL    HW218558   0.660   2.162   3.868
 5887SOL     OW18559   2.396   2.381   1.482
 5887SOL    HW118560   2.424   2.396   1.388
 5887SOL    HW218561   2.460   2.318   1.527
 5888SOL     OW18562   1.660   0.617   1.280
 5888SOL    HW118563   1.569   0.622   1.320
 5888SOL    HW218564   1.729   0.623   1.352
 5889SOL     OW18565   6.850   1.082   0.515
 5889SOL    HW118566   6.805   1.011   0.569
 5889SOL    HW218567   6.934   1.046   0.474
 5890SOL     OW18568   2.012   1.181   2.850
 5890SOL    HW118569   2.100   1.213   2.814
 5890SOL    HW218570   1.961   1.259   2.886
 5891SOL     OW18571   3.239   3.857   0.101
 5891SOL    HW118572   3.313   3.838   0.038
 5891SOL    HW218573   3.209   3.772   0.145
 5892SOL     OW18574   1.222   5.062   2.091
 5892SOL    HW118575   1.161   5.101   2.023
 5892SOL    HW218576   1.170   5.041   2.174
 5893SOL     OW18577   1.979   4.237   3.226
 5893SOL    HW118578   1.947   4.254   3.133
 5893SOL    HW218579   1.913   4.178   3.274
 5894SOL     OW18580   0.579   5.818   4.427
 5894SOL    HW118581   0.572   5.812   4.527
 5894SOL    HW218582   0.501   5.868   4.391
 5895SOL     OW18583   5.244   3.335   3.722
 5895SOL    HW118584   5.275   3.423   3.757
 5895SOL    HW218585   5.178   3.350   3.648
 5896SOL     OW18586   3.911   1.352   1.424
 5896SOL    HW118587   3.947   1.399   1.343
 5896SOL    HW218588   3.977   1.283   1.454
 5897SOL     OW18589   4.022   0.573   2.052
 5897SOL    HW118590   4.050   0.626   1.972
 5897SOL    HW218591   4.101   0.523   2.087
 5898SOL     OW18592   2.472   0.619   4.896
 5898SOL    HW118593   2.499   0.714   4.909
 5898SOL    HW218594   2.509   0.563   4.970
 5899SOL     OW18595   6.545   5.272   0.095
 5899SOL    HW118596   6.631   5.317   0.120
 5899SOL    HW218597   6.520   5.207   0.167
 5900SOL     OW18598   6.496   4.774   3.674
 5900SOL    HW118599   6.431   4.808   3.741
 5900SOL    HW218600   6.588   4.803   3.700
 5901SOL     OW18601   3.337   0.516   0.698
 5901SOL    HW118602   3.263   0.540   0.760
 5901SOL    HW218603   3.349   0.589   0.631
 5902SOL     OW18604   6.208   3.143   5.621
 5902SOL    HW118605   6.207   3.148   5.522
 5902SOL    HW218606   6.213   3.235   5.660
 5903SOL     OW18607   4.833   4.056   6.377
 5903SOL    HW118608   4.748   4.088   6.337
 5903SOL    HW218609   4.895   4.024   6.305
 5904SOL     OW18610   1.373   4.997   0.840
 5904SOL    HW118611   1.345   5.026   0.931
 5904SOL    HW218612   1.307   4.932   0.803
 5905SOL     OW18613   6.140   0.453   4.399
 5905SOL    HW118614   6.041   0.453   4.415
 5905SOL    HW218615   6.185   0.511   4.467
 5906SOL     OW18616   4.052   1.909   3.569
 5906SOL    HW118617   4.025   1.819   3.535
 5906SOL    HW218618   4.145   1.904   3.607
 5907SOL     OW18619   0.746   5.919   0.350
 5907SOL    HW118620   0.668   5.935   0.291
 5907SOL    HW218621   0.800   5.842   0.315
 5908SOL     OW18622   6.611   2.946   0.320
 5908SOL    HW118623   6.647   2.944   0.226
 5908SOL    HW218624   6.556   2.864   0.335
 5909SOL     OW18625   6.754   5.131   0.304
 5909SOL    HW118626   6.713   5.131   0.396
 5909SOL    HW218627   6.750   5.223   0.265
 5910SOL     OW18628   0.209   4.481   2.445
 5910SOL    HW118629   0.186   4.564   2.496
 5910SOL    HW218630   0.221   4.405   2.509
 5911SOL     OW18631   6.523   4.695   6.380
 5911SOL    HW118632   6.482   4.614   6.422
 5911SOL    HW218633   6.537   4.765   6.450
 5912SOL     OW18634   5.708   3.075   6.601
 5912SOL    HW118635   5.747   3.057   6.511
 5912SOL    HW218636   5.782   3.093   6.666
 5913SOL     OW18637   4.096   3.374   6.635
 5913SOL    HW118638   4.170   3.410   6.691
 5913SOL    HW218639   4.062   3.288   6.674
 5914SOL     OW18640   2.187   5.153   6.467
 5914SOL    HW118641   2.172   5.189   6.375
 5914SOL    HW218642   2.276   5.108   6.472
 5915SOL     OW18643   5.847   4.611   1.500
 5915SOL    HW118644   5.810   4.519   1.489
 5915SOL    HW218645   5.783   4.678   1.464
 5916SOL     OW18646   3.988   5.422   5.019
 5916SOL    HW118647   4.040   5.461   5.095
 5916SOL    HW218648   3.916   5.485   4.992
 5917SOL     OW18649   3.775   3.371   3.690
 5917SOL    HW118650   3.699   3.311   3.714
 5917SOL    HW218651   3.758   3.463   3.726
 5918SOL     OW18652   1.928   3.194   5.610
 5918SOL    HW118653   1.907   3.109   5.658
 5918SOL    HW218654   2.023   3.192   5.578
 5919SOL     OW18655   4.480   2.973   1.309
 5919SOL    HW118656   4.437   2.972   1.219
 5919SOL    HW218657   4.433   3.039   1.368
 5920SOL     OW18658   3.722   0.571   6.887
 5920SOL    HW118659   3.762   0.585   6.796
 5920SOL    HW218660   3.624   0.555   6.878
 5921SOL     OW18661   4.010   5.292   5.781
 5921SOL    HW118662   4.083   5.274   5.714
 5921SOL    HW218663   4.033   5.374   5.833
 5922SOL     OW18664   6.581   5.504   3.052
 5922SOL    HW118665   6.597   5.596   3.017
 5922SOL    HW218666   6.514   5.457   2.994
 5923SOL     OW18667   5.360   1.202   1.182
 5923SOL    HW118668   5.350   1.225   1.086
 5923SOL    HW218669   5.277   1.230   1.232
 5924SOL     OW18670   0.209   1.290   3.992
 5924SOL    HW118671   0.304   1.263   3.975
 5924SOL    HW218672   0.162   1.302   3.904
 5925SOL     OW18673   3.698   5.317   1.698
 5925SOL    HW118674   3.721   5.247   1.765
 5925SOL    HW218675   3.602   5.343   1.708
 5926SOL     OW18676   3.865   5.106   1.365
 5926SOL    HW118677   3.865   5.194   1.414
 5926SOL    HW218678   3.934   5.109   1.293
 5927SOL     OW18679   1.267   4.427   3.102
 5927SOL    HW118680   1.291   4.523   3.091
 5927SOL    HW218681   1.335   4.370   3.056
 5928SOL     OW18682   3.500   0.054   0.501
 5928SOL    HW118683   3.537   0.112   0.429
 5928SOL    HW218684   3.430   0.105   0.551
 5929SOL     OW18685   0.488   6.459   6.182
 5929SOL    HW118686   0.396   6.477   6.217
 5929SOL    HW218687   0.500   6.361   6.169
 5930SOL     OW18688   6.807   2.641   3.475
 5930SOL    HW118689   6.878   2.599   3.418
 5930SOL    HW218690   6.815   2.607   3.569
 5931SOL     OW18691   0.171   5.223   3.727
 5931SOL    HW118692   0.164   5.151   3.796
 5931SOL    HW218693   0.128   5.306   3.762
 5932SOL     OW18694   2.068   6.985   0.721
 5932SOL    HW118695   1.993   0.016   0.765
 5932SOL    HW218696   2.031   6.924   0.652
 5933SOL     OW18697   0.054   6.119   3.796
 5933SOL    HW118698   0.069   6.152   3.890
 5933SOL    HW218699   0.137   6.077   3.761
 5934SOL     OW18700   4.071   3.646   4.492
 5934SOL    HW118701   3.984   3.602   4.512
 5934SOL    HW218702   4.146   3.582   4.510
 5935SOL     OW18703   4.716   3.985   5.981
 5935SOL    HW118704   4.808   3.997   5.945
 5935SOL    HW218705   4.675   3.902   5.942
 5936SOL     OW18706   4.042   3.399   0.729
 5936SOL    HW118707   3.961   3.352   0.696
 5936SOL    HW218708   4.029   3.425   0.825
 5937SOL     OW18709   0.733   5.102   2.994
 5937SOL    HW118710   0.822   5.119   2.951
 5937SOL    HW218711   0.699   5.012   2.965
 5938SOL     OW18712   0.576   5.021   4.166
 5938SOL    HW118713   0.620   4.936   4.195
 5938SOL    HW218714   0.558   5.019   4.068
 5939SOL     OW18715   2.821   6.526   3.060
 5939SOL    HW118716   2.831   6.590   2.984
 5939SOL    HW218717   2.855   6.569   3.144
 5940SOL     OW18718   4.645   5.657   0.932
 5940SOL    HW118719   4.567   5.625   0.878
 5940SOL    HW218720   4.646   5.757   0.933
 5941SOL     OW18721   5.640   3.311   1.849
 5941SOL    HW118722   5.546   3.346   1.844
 5941SOL    HW218723   5.693   3.344   1.771
 5942SOL     OW18724   5.398   2.765   0.336
 5942SOL    HW118725   5.323   2.748   0.271
 5942SOL    HW218726   5.480   2.719   0.304
 5943SOL     OW18727   3.722   5.449   0.438
 5943SOL    HW118728   3.631   5.477   0.470
 5943SOL    HW218729   3.783   5.528   0.440
 5944SOL     OW18730   6.552   2.682   1.393
 5944SOL    HW118731   6.619   2.609   1.406
 5944SOL    HW218732   6.586   2.746   1.324
 5945SOL     OW18733   6.259   5.408   5.232
 5945SOL    HW118734   6.263   5.314   5.267
 5945SOL    HW218735   6.197   5.462   5.289
 5946SOL     OW18736   3.460   3.508   5.815
 5946SOL    HW118737   3.531   3.573   5.786
 5946SOL    HW218738   3.449   3.438   5.744
 5947SOL     OW18739   3.716   3.820   1.876
 5947SOL    HW118740   3.758   3.910   1.875
 5947SOL    HW218741   3.640   3.819   1.940
 5948SOL     OW18742   4.057   5.127   3.223
 5948SOL    HW118743   4.075   5.100   3.129
 5948SOL    HW218744   4.116   5.074   3.284
 5949SOL     OW18745   4.899   3.304   1.808
 5949SOL    HW118746   4.898   3.395   1.851
 5949SOL    HW218747   4.964   3.303   1.733
 5950SOL     OW18748   4.609   2.360   5.713
 5950SOL    HW118749   4.640   2.440   5.661
 5950SOL    HW218750   4.614   2.279   5.655
 5951SOL     OW18751   0.810   5.720   4.278
 5951SOL    HW118752   0.731   5.760   4.324
 5951SOL    HW218753   0.890   5.778   4.295
 5952SOL     OW18754   5.536   4.646   4.313
 5952SOL    HW118755   5.521   4.668   4.216
 5952SOL    HW218756   5.590   4.563   4.321
 5953SOL     OW18757   6.217   2.781   5.172
 5953SOL    HW118758   6.151   2.851   5.199
 5953SOL    HW218759   6.171   2.711   5.117
 5954SOL     OW18760   0.928   4.393   5.521
 5954SOL    HW118761   1.015   4.433   5.550
 5954SOL    HW218762   0.892   4.335   5.594
 5955SOL     OW18763   5.302   5.891   2.859
 5955SOL    HW118764   5.380   5.830   2.875
 5955SOL    HW218765   5.304   5.965   2.927
 5956SOL     OW18766   4.249   1.103   6.116
 5956SOL    HW118767   4.194   1.030   6.076
 5956SOL    HW218768   4.277   1.167   6.044
 5957SOL     OW18769   3.740   0.849   5.620
 5957SOL    HW118770   3.833   0.816   5.636
 5957SOL    HW218771   3.726   0.865   5.522
 5958SOL     OW18772   5.904   6.875   2.835
 5958SOL    HW118773   5.952   6.955   2.873
 5958SOL    HW218774   5.922   6.870   2.737
 5959SOL     OW18775   4.025   2.262   5.534
 5959SOL    HW118776   3.973   2.321   5.472
 5959SOL    HW218777   3.992   2.274   5.627
 5960SOL     OW18778   3.403   5.493   4.192
 5960SOL    HW118779   3.441   5.409   4.153
 5960SOL    HW218780   3.462   5.524   4.267
 5961SOL     OW18781   5.470   1.272   3.028
 5961SOL    HW118782   5.532   1.216   2.974
 5961SOL    HW218783   5.417   1.213   3.089
 5962SOL     OW18784   4.949   6.212   0.840
 5962SOL    HW118785   4.926   6.115   0.845
 5962SOL    HW218786   4.876   6.261   0.794
 5963SOL     OW18787   3.313   3.464   5.298
 5963SOL    HW118788   3.378   3.399   5.338
 5963SOL    HW218789   3.363   3.543   5.263
 5964SOL     OW18790   0.177   5.339   5.495
 5964SOL    HW118791   0.132   5.427   5.511
 5964SOL    HW218792   0.276   5.351   5.505
 5965SOL     OW18793   1.246   2.288   6.798
 5965SOL    HW118794   1.202   2.200   6.814
 5965SOL    HW218795   1.176   2.359   6.786
 5966SOL     OW18796   2.518   5.813   5.477
 5966SOL    HW118797   2.568   5.733   5.443
 5966SOL    HW218798   2.551   5.895   5.431
 5967SOL     OW18799   4.560   6.449   6.933
 5967SOL    HW118800   4.509   6.389   6.870
 5967SOL    HW218801   4.541   6.422   0.008
 5968SOL     OW18802   4.699   0.953   1.521
 5968SOL    HW118803   4.714   0.975   1.425
 5968SOL    HW218804   4.643   0.871   1.529
 5969SOL     OW18805   6.978   0.241   6.697
 5969SOL    HW118806   7.001   0.250   6.794
 5969SOL    HW218807   6.986   0.146   6.669
 5970SOL     OW18808   0.711   4.599   2.906
 5970SOL    HW118809   0.730   4.625   2.811
 5970SOL    HW218810   0.796   4.604   2.959
 5971SOL     OW18811   1.008   0.834   2.215
 5971SOL    HW118812   0.960   0.916   2.247
 5971SOL    HW218813   0.947   0.782   2.155
 5972SOL     OW18814   5.547   5.608   0.134
 5972SOL    HW118815   5.470   5.544   0.135
 5972SOL    HW218816   5.627   5.563   0.096
 5973SOL     OW18817   2.122   3.077   2.195
 5973SOL    HW118818   2.142   2.994   2.247
 5973SOL    HW218819   2.023   3.084   2.181
 5974SOL     OW18820   5.666   5.035   6.335
 5974SOL    HW118821   5.654   5.060   6.239
 5974SOL    HW218822   5.603   4.961   6.358
 5975SOL     OW18823   3.510   1.437   0.507
 5975SOL    HW118824   3.433   1.423   0.568
 5975SOL    HW218825   3.595   1.416   0.555
 5976SOL     OW18826   3.015   3.179   5.105
 5976SOL    HW118827   3.007   3.159   5.007
 5976SOL    HW218828   3.033   3.277   5.118
 5977SOL     OW18829   2.739   5.683   0.177
 5977SOL    HW118830   2.658   5.677   0.119
 5977SOL    HW218831   2.814   5.633   0.134
 5978SOL     OW18832   5.488   5.658   2.875
 5978SOL    HW118833   5.576   5.695   2.844
 5978SOL    HW218834   5.496   5.626   2.969
 5979SOL     OW18835   5.760   0.426   2.838
 5979SOL    HW118836   5.694   0.362   2.801
 5979SOL    HW218837   5.849   0.412   2.795
 5980SOL     OW18838   4.209   3.617   0.755
 5980SOL    HW118839   4.173   3.535   0.711
 5980SOL    HW218840   4.282   3.592   0.818
 5981SOL     OW18841   5.850   1.460   1.402
 5981SOL    HW118842   5.774   1.517   1.434
 5981SOL    HW218843   5.937   1.500   1.430
 5982SOL     OW18844   6.347   3.204   2.136
 5982SOL    HW118845   6.408   3.275   2.099
 5982SOL    HW218846   6.339   3.216   2.235
 5983SOL     OW18847   1.321   1.453   4.642
 5983SOL    HW118848   1.415   1.443   4.610
 5983SOL    HW218849   1.303   1.549   4.663
 5984SOL     OW18850   6.556   5.726   4.826
 5984SOL    HW118851   6.607   5.703   4.909
 5984SOL    HW218852   6.530   5.823   4.828
 5985SOL     OW18853   0.198   3.204   4.147
 5985SOL    HW118854   0.231   3.245   4.062
 5985SOL    HW218855   0.231   3.257   4.225
 5986SOL     OW18856   3.099   3.427   5.124
 5986SOL    HW118857   3.176   3.442   5.186
 5986SOL    HW218858   3.055   3.515   5.104
 5987SOL     OW18859   3.975   0.229   4.508
 5987SOL    HW118860   3.909   0.258   4.439
 5987SOL    HW218861   4.033   0.157   4.470
 5988SOL     OW18862   4.991   6.771   5.573
 5988SOL    HW118863   4.917   6.745   5.635
 5988SOL    HW218864   5.047   6.842   5.615
 5989SOL     OW18865   2.853   6.037   0.136
 5989SOL    HW118866   2.781   5.987   0.184
 5989SOL    HW218867   2.839   6.136   0.148
 5990SOL     OW18868   3.891   4.283   0.382
 5990SOL    HW118869   3.961   4.211   0.390
 5990SOL    HW218870   3.908   4.336   0.299
 5991SOL     OW18871   3.223   5.270   6.684
 5991SOL    HW118872   3.254   5.267   6.589
 5991SOL    HW218873   3.220   5.176   6.720
 5992SOL     OW18874   3.480   0.108   2.946
 5992SOL    HW118875   3.454   0.203   2.928
 5992SOL    HW218876   3.418   0.068   3.013
 5993SOL     OW18877   2.751   6.191   6.525
 5993SOL    HW118878   2.835   6.140   6.542
 5993SOL    HW218879   2.770   6.289   6.524
 5994SOL     OW18880   6.204   2.296   2.479
 5994SOL    HW118881   6.116   2.339   2.457
 5994SOL    HW218882   6.221   2.222   2.414
 5995SOL     OW18883   5.355   4.487   3.371
 5995SOL    HW118884   5.418   4.528   3.437
 5995SOL    HW218885   5.407   4.450   3.294
 5996SOL     OW18886   1.011   6.304   0.701
 5996SOL    HW118887   0.924   6.254   0.702
 5996SOL    HW218888   0.994   6.398   0.672
 5997SOL     OW18889   1.092   5.535   2.522
 5997SOL    HW118890   1.107   5.513   2.426
 5997SOL    HW218891   0.994   5.539   2.541
 5998SOL     OW18892   6.044   2.180   2.684
 5998SOL    HW118893   5.970   2.247   2.685
 5998SOL    HW218894   6.126   2.223   2.645
 5999SOL     OW18895   1.598   1.835   2.453
 5999SOL    HW118896   1.675   1.771   2.448
 5999SOL    HW218897   1.575   1.866   2.360
 6000SOL     OW18898   4.325   6.756   1.524
 6000SOL    HW118899   4.356   6.721   1.436
 6000SOL    HW218900   4.239   6.805   1.513
 6001SOL     OW18901   0.523   3.499   6.904
 6001SOL    HW118902   0.568   3.586   6.925
 6001SOL    HW218903   0.456   3.478   6.975
 6002SOL     OW18904   5.919   0.167   0.989
 6002SOL    HW118905   5.897   0.219   1.071
 6002SOL    HW218906   6.017   0.145   0.988
 6003SOL     OW18907   0.044   2.287   3.712
 6003SOL    HW118908   6.980   2.288   3.656
 6003SOL    HW218909   0.021   2.314   3.806
 6004SOL     OW18910   0.488   4.032   3.126
 6004SOL    HW118911   0.445   3.946   3.154
 6004SOL    HW218912   0.471   4.102   3.196
 6005SOL     OW18913   4.734   5.349   4.580
 6005SOL    HW118914   4.758   5.283   4.508
 6005SOL    HW218915   4.761   5.312   4.669
 6006SOL     OW18916   3.027   0.543   6.560
 6006SOL    HW118917   3.086   0.564   6.637
 6006SOL    HW218918   3.050   0.453   6.523
 6007SOL     OW18919   4.964   3.618   5.253
 6007SOL    HW118920   4.909   3.632   5.170
 6007SOL    HW218921   4.913   3.560   5.317
 6008SOL     OW18922   1.897   5.144   5.208
 6008SOL    HW118923   1.837   5.112   5.281
 6008SOL    HW218924   1.951   5.067   5.173
 6009SOL     OW18925   3.385   0.700   4.126
 6009SOL    HW118926   3.402   0.617   4.179
 6009SOL    HW218927   3.326   0.679   4.049
 6010SOL     OW18928   1.774   4.192   3.766
 6010SOL    HW118929   1.864   4.172   3.727
 6010SOL    HW218930   1.771   4.160   3.860
 6011SOL     OW18931   5.370   3.132   2.591
 6011SOL    HW118932   5.301   3.192   2.551
 6011SOL    HW218933   5.330   3.079   2.665
 6012SOL     OW18934   5.319   1.109   0.135
 6012SOL    HW118935   5.388   1.047   0.173
 6012SOL    HW218936   5.350   1.142   0.046
 6013SOL     OW18937   5.336   2.653   3.350
 6013SOL    HW118938   5.343   2.750   3.370
 6013SOL    HW218939   5.391   2.631   3.270
 6014SOL     OW18940   4.364   3.602   1.209
 6014SOL    HW118941   4.383   3.517   1.161
 6014SOL    HW218942   4.442   3.627   1.266
 6015SOL     OW18943   5.493   2.866   4.534
 6015SOL    HW118944   5.451   2.797   4.593
 6015SOL    HW218945   5.499   2.952   4.584
 6016SOL     OW18946   6.136   1.546   6.074
 6016SOL    HW118947   6.108   1.573   6.166
 6016SOL    HW218948   6.150   1.447   6.071
 6017SOL     OW18949   6.989   4.311   2.766
 6017SOL    HW118950   6.897   4.289   2.733
 6017SOL    HW218951   7.000   4.410   2.771
 6018SOL     OW18952   2.757   0.644   6.207
 6018SOL    HW118953   2.759   0.682   6.299
 6018SOL    HW218954   2.708   0.557   6.207
 6019SOL     OW18955   6.635   1.685   4.091
 6019SOL    HW118956   6.581   1.733   4.022
 6019SOL    HW218957   6.733   1.696   4.070
 6020SOL     OW18958   2.077   5.169   0.957
 6020SOL    HW118959   2.173   5.140   0.952
 6020SOL    HW218960   2.025   5.128   0.882
 6021SOL     OW18961   4.609   0.814   2.382
 6021SOL    HW118962   4.635   0.799   2.478
 6021SOL    HW218963   4.519   0.856   2.379
 6022SOL     OW18964   4.194   2.235   3.917
 6022SOL    HW118965   4.213   2.266   4.009
 6022SOL    HW218966   4.185   2.135   3.916
 6023SOL     OW18967   6.525   0.391   2.024
 6023SOL    HW118968   6.510   0.293   2.034
 6023SOL    HW218969   6.560   0.411   1.932
 6024SOL     OW18970   1.106   4.980   3.152
 6024SOL    HW118971   1.059   5.029   3.226
 6024SOL    HW218972   1.173   4.917   3.191
 6025SOL     OW18973   3.557   1.572   2.868
 6025SOL    HW118974   3.486   1.514   2.829
 6025SOL    HW218975   3.644   1.523   2.868
 6026SOL     OW18976   0.251   4.213   5.306
 6026SOL    HW118977   0.226   4.143   5.239
 6026SOL    HW218978   0.238   4.176   5.399
 6027SOL     OW18979   1.658   4.206   6.445
 6027SOL    HW118980   1.632   4.239   6.354
 6027SOL    HW218981   1.595   4.135   6.474
 6028SOL     OW18982   0.732   4.666   6.702
 6028SOL    HW118983   0.832   4.661   6.706
 6028SOL    HW218984   0.699   4.607   6.628
 6029SOL     OW18985   2.412   6.213   4.900
 6029SOL    HW118986   2.371   6.300   4.870
 6029SOL    HW218987   2.351   6.138   4.878
 6030SOL     OW18988   4.087   6.042   2.867
 6030SOL    HW118989   4.028   6.001   2.937
 6030SOL    HW218990   4.048   6.129   2.837
 6031SOL     OW18991   3.479   5.219   2.783
 6031SOL    HW118992   3.457   5.268   2.699
 6031SOL    HW218993   3.504   5.285   2.855
 6032SOL     OW18994   2.701   4.708   2.984
 6032SOL    HW118995   2.796   4.737   2.998
 6032SOL    HW218996   2.648   4.727   3.066
 6033SOL     OW18997   2.959   1.551   2.721
 6033SOL    HW118998   2.996   1.570   2.630
 6033SOL    HW218999   2.889   1.619   2.743
 6034SOL     OW19000   0.991   5.086   4.476
 6034SOL    HW119001   0.930   5.019   4.519
 6034SOL    HW219002   1.081   5.083   4.521
 6035SOL     OW19003   6.832   0.982   2.752
 6035SOL    HW119004   6.922   0.952   2.783
 6035SOL    HW219005   6.809   1.070   2.795
 6036SOL     OW19006   6.325   5.824   4.437
 6036SOL    HW119007   6.384   5.748   4.411
 6036SOL    HW219008   6.291   5.809   4.530
 6037SOL     OW19009   4.713   4.734   6.145
 6037SOL    HW119010   4.754   4.694   6.227
 6037SOL    HW219011   4.658   4.814   6.170
 6038SOL     OW19012   1.647   2.616   6.217
 6038SOL    HW119013   1.724   2.570   6.261
 6038SOL    HW219014   1.595   2.550   6.163
 6039SOL     OW19015   3.211   3.020   2.354
 6039SOL    HW119016   3.158   3.063   2.427
 6039SOL    HW219017   3.301   2.994   2.389
 6040SOL     OW19018   0.662   1.875   6.126
 6040SOL    HW119019   0.567   1.893   6.099
 6040SOL    HW219020   0.723   1.939   6.078
 6041SOL     OW19021   2.319   0.337   5.145
 6041SOL    HW119022   2.287   0.418   5.193
 6041SOL    HW219023   2.245   0.270   5.139
 6042SOL     OW19024   5.501   5.715   2.136
 6042SOL    HW119025   5.523   5.674   2.225
 6042SOL    HW219026   5.413   5.763   2.143
 6043SOL     OW19027   1.121   4.526   5.644
 6043SOL    HW119028   1.196   4.481   5.693
 6043SOL    HW219029   1.048   4.549   5.709
 6044SOL     OW19030   1.191   1.857   1.635
 6044SOL    HW119031   1.267   1.903   1.590
 6044SOL    HW219032   1.109   1.914   1.627
 6045SOL     OW19033   6.578   4.871   1.940
 6045SOL    HW119034   6.607   4.832   1.853
 6045SOL    HW219035   6.641   4.843   2.013
 6046SOL     OW19036   3.970   2.075   6.790
 6046SOL    HW119037   3.954   1.978   6.769
 6046SOL    HW219038   4.010   2.119   6.710
 6047SOL     OW19039   5.494   2.222   2.164
 6047SOL    HW119040   5.420   2.215   2.097
 6047SOL    HW219041   5.582   2.222   2.116
 6048SOL     OW19042   4.774   5.652   4.172
 6048SOL    HW119043   4.711   5.724   4.201
 6048SOL    HW219044   4.757   5.630   4.076
 6049SOL     OW19045   5.783   3.220   6.103
 6049SOL    HW119046   5.686   3.245   6.092
 6049SOL    HW219047   5.839   3.281   6.048
 6050SOL     OW19048   2.849   5.266   4.256
 6050SOL    HW119049   2.937   5.250   4.211
 6050SOL    HW219050   2.805   5.346   4.216
 6051SOL     OW19051   2.781   1.472   4.604
 6051SOL    HW119052   2.750   1.519   4.522
 6051SOL    HW219053   2.730   1.506   4.683
 6052SOL     OW19054   5.917   0.026   0.594
 6052SOL    HW119055   5.826   7.016   0.624
 6052SOL    HW219056   5.925   0.014   0.495
 6053SOL     OW19057   3.936   0.980   6.400
 6053SOL    HW119058   3.935   1.019   6.308
 6053SOL    HW219059   3.916   1.052   6.467
 6054SOL     OW19060   2.693   3.833   0.416
 6054SOL    HW119061   2.666   3.787   0.331
 6054SOL    HW219062   2.652   3.785   0.494
 6055SOL     OW19063   4.877   1.063   5.527
 6055SOL    HW119064   4.841   1.083   5.618
 6055SOL    HW219065   4.896   0.965   5.518
 6056SOL     OW19066   4.715   2.671   4.747
 6056SOL    HW119067   4.694   2.763   4.782
 6056SOL    HW219068   4.738   2.676   4.650
 6057SOL     OW19069   4.950   2.510   4.076
 6057SOL    HW119070   5.013   2.458   4.132
 6057SOL    HW219071   5.001   2.569   4.014
 6058SOL     OW19072   4.999   3.032   1.135
 6058SOL    HW119073   4.906   2.996   1.147
 6058SOL    HW219074   5.056   2.962   1.092
 6059SOL     OW19075   5.302   5.092   5.238
 6059SOL    HW119076   5.324   4.994   5.238
 6059SOL    HW219077   5.321   5.130   5.329
 6060SOL     OW19078   3.261   3.889   6.328
 6060SOL    HW119079   3.231   3.933   6.413
 6060SOL    HW219080   3.182   3.862   6.275
 6061SOL     OW19081   3.598   2.309   1.326
 6061SOL    HW119082   3.534   2.248   1.373
 6061SOL    HW219083   3.616   2.389   1.383
 6062SOL     OW19084   2.509   1.696   4.844
 6062SOL    HW119085   2.550   1.732   4.928
 6062SOL    HW219086   2.411   1.713   4.845
 6063SOL     OW19087   3.740   1.601   6.500
 6063SOL    HW119088   3.783   1.582   6.412
 6063SOL    HW219089   3.646   1.569   6.499
 6064SOL     OW19090   1.972   6.192   1.199
 6064SOL    HW119091   1.987   6.105   1.246
 6064SOL    HW219092   2.060   6.235   1.180
 6065SOL     OW19093   5.664   6.773   2.210
 6065SOL    HW119094   5.569   6.777   2.181
 6065SOL    HW219095   5.669   6.780   2.310
 6066SOL     OW19096   4.923   2.082   5.915
 6066SOL    HW119097   4.828   2.112   5.908
 6066SOL    HW219098   4.974   2.149   5.970
 6067SOL     OW19099   5.422   1.559   6.032
 6067SOL    HW119100   5.389   1.585   5.942
 6067SOL    HW219101   5.356   1.587   6.102
 6068SOL     OW19102   5.845   3.016   5.094
 6068SOL    HW119103   5.927   3.023   5.037
 6068SOL    HW219104   5.780   3.087   5.069
 6069SOL     OW19105   0.104   3.367   4.823
 6069SOL    HW119106   0.133   3.429   4.750
 6069SOL    HW219107   0.006   3.347   4.811
 6070SOL     OW19108   2.364   2.022   0.720
 6070SOL    HW119109   2.427   2.057   0.790
 6070SOL    HW219110   2.391   1.929   0.695
 6071SOL     OW19111   5.839   4.850   4.614
 6071SOL    HW119112   5.935   4.830   4.633
 6071SOL    HW219113   5.784   4.829   4.695
 6072SOL     OW19114   0.334   6.613   1.703
 6072SOL    HW119115   0.274   6.693   1.698
 6072SOL    HW219116   0.377   6.609   1.792
 6073SOL     OW19117   6.305   4.233   0.732
 6073SOL    HW119118   6.383   4.171   0.727
 6073SOL    HW219119   6.247   4.208   0.810
 6074SOL     OW19120   1.316   5.763   4.308
 6074SOL    HW119121   1.280   5.685   4.258
 6074SOL    HW219122   1.347   5.833   4.244
 6075SOL     OW19123   6.999   1.686   6.513
 6075SOL    HW119124   6.974   1.780   6.489
 6075SOL    HW219125   0.032   1.645   6.438
 6076SOL     OW19126   1.928   5.759   4.246
 6076SOL    HW119127   1.996   5.817   4.291
 6076SOL    HW219128   1.970   5.671   4.222
 6077SOL     OW19129   5.519   5.979   1.800
 6077SOL    HW119130   5.593   5.930   1.754
 6077SOL    HW219131   5.530   5.971   1.899
 6078SOL     OW19132   3.428   5.092   0.898
 6078SOL    HW119133   3.448   5.116   0.992
 6078SOL    HW219134   3.513   5.089   0.845
 6079SOL     OW19135   3.785   2.834   6.424
 6079SOL    HW119136   3.742   2.887   6.350
 6079SOL    HW219137   3.714   2.804   6.488
 6080SOL     OW19138   6.885   0.664   1.720
 6080SOL    HW119139   6.809   0.696   1.778
 6080SOL    HW219140   6.971   0.699   1.756
 6081SOL     OW19141   6.525   3.232   5.018
 6081SOL    HW119142   6.532   3.136   4.992
 6081SOL    HW219143   6.617   3.269   5.032
 6082SOL     OW19144   2.451   1.907   3.491
 6082SOL    HW119145   2.547   1.934   3.485
 6082SOL    HW219146   2.433   1.864   3.580
 6083SOL     OW19147   0.474   4.600   0.097
 6083SOL    HW119148   0.384   4.556   0.091
 6083SOL    HW219149   0.461   4.699   0.106
 6084SOL     OW19150   0.580   5.869   3.275
 6084SOL    HW119151   0.532   5.807   3.337
 6084SOL    HW219152   0.544   5.859   3.183
 6085SOL     OW19153   0.734   4.469   0.188
 6085SOL    HW119154   0.643   4.483   0.149
 6085SOL    HW219155   0.766   4.377   0.165
 6086SOL     OW19156   3.720   1.225   6.029
 6086SOL    HW119157   3.622   1.242   6.035
 6086SOL    HW219158   3.753   1.250   5.938
 6087SOL     OW19159   4.081   5.607   0.437
 6087SOL    HW119160   3.997   5.659   0.426
 6087SOL    HW219161   4.079   5.559   0.525
 6088SOL     OW19162   5.685   6.220   4.509
 6088SOL    HW119163   5.724   6.221   4.417
 6088SOL    HW219164   5.595   6.177   4.507
 6089SOL     OW19165   6.479   3.377   1.152
 6089SOL    HW119166   6.428   3.381   1.066
 6089SOL    HW219167   6.468   3.463   1.202
 6090SOL     OW19168   2.348   6.025   5.355
 6090SOL    HW119169   2.343   6.036   5.455
 6090SOL    HW219170   2.413   6.091   5.318
 6091SOL     OW19171   1.458   1.592   1.832
 6091SOL    HW119172   1.469   1.510   1.888
 6091SOL    HW219173   1.368   1.593   1.790
 6092SOL     OW19174   3.307   0.052   3.143
 6092SOL    HW119175   3.247   6.991   3.146
 6092SOL    HW219176   3.252   0.135   3.145
 6093SOL     OW19177   1.819   2.890   2.812
 6093SOL    HW119178   1.849   2.953   2.884
 6093SOL    HW219179   1.741   2.930   2.764
 6094SOL     OW19180   3.850   0.819   1.682
 6094SOL    HW119181   3.829   0.903   1.632
 6094SOL    HW219182   3.766   0.780   1.719
 6095SOL     OW19183   4.327   3.403   6.877
 6095SOL    HW119184   4.266   3.462   6.930
 6095SOL    HW219185   4.407   3.380   6.933
 6096SOL     OW19186   6.008   0.544   3.717
 6096SOL    HW119187   6.049   0.487   3.646
 6096SOL    HW219188   5.910   0.557   3.698
 6097SOL     OW19189   2.064   0.199   2.129
 6097SOL    HW119190   2.083   0.257   2.049
 6097SOL    HW219191   2.072   0.253   2.212
 6098SOL     OW19192   1.432   2.818   6.155
 6098SOL    HW119193   1.471   2.906   6.128
 6098SOL    HW219194   1.505   2.750   6.162
 6099SOL     OW19195   6.882   5.740   0.768
 6099SOL    HW119196   6.882   5.648   0.731
 6099SOL    HW219197   6.833   5.802   0.706
 6100SOL     OW19198   5.373   3.672   0.357
 6100SOL    HW119199   5.459   3.688   0.406
 6100SOL    HW219200   5.386   3.599   0.290
 6101SOL     OW19201   5.945   1.987   4.203
 6101SOL    HW119202   5.995   1.901   4.201
 6101SOL    HW219203   5.947   2.024   4.296
 6102SOL     OW19204   3.086   6.324   3.587
 6102SOL    HW119205   3.185   6.318   3.575
 6102SOL    HW219206   3.064   6.325   3.685
 6103SOL     OW19207   0.050   2.367   2.619
 6103SOL    HW119208   6.977   2.363   2.657
 6103SOL    HW219209   0.114   2.398   2.690
 6104SOL     OW19210   5.802   1.019   5.447
 6104SOL    HW119211   5.849   0.995   5.362
 6104SOL    HW219212   5.703   1.017   5.432
 6105SOL     OW19213   1.701   0.474   5.576
 6105SOL    HW119214   1.775   0.419   5.537
 6105SOL    HW219215   1.653   0.522   5.503
 6106SOL     OW19216   2.411   4.071   5.442
 6106SOL    HW119217   2.412   4.030   5.351
 6106SOL    HW219218   2.444   4.005   5.509
 6107SOL     OW19219   2.640   4.588   4.507
 6107SOL    HW119220   2.573   4.657   4.479
 6107SOL    HW219221   2.639   4.513   4.442
 6108SOL     OW19222   0.594   2.596   2.104
 6108SOL    HW119223   0.666   2.653   2.145
 6108SOL    HW219224   0.510   2.605   2.157
 6109SOL     OW19225   4.998   2.955   6.335
 6109SOL    HW119226   5.000   2.960   6.434
 6109SOL    HW219227   5.080   2.908   6.302
 6110SOL     OW19228   4.548   3.468   0.292
 6110SOL    HW119229   4.556   3.376   0.330
 6110SOL    HW219230   4.451   3.489   0.276
 6111SOL     OW19231   2.197   4.053   2.111
 6111SOL    HW119232   2.150   3.971   2.078
 6111SOL    HW219233   2.225   4.040   2.206
 6112SOL     OW19234   3.138   0.058   2.813
 6112SOL    HW119235   3.071   0.048   2.886
 6112SOL    HW219236   3.140   6.993   2.758
 6113SOL     OW19237   1.548   1.141   6.049
 6113SOL    HW119238   1.488   1.062   6.065
 6113SOL    HW219239   1.563   1.151   5.950
 6114SOL     OW19240   5.151   5.226   1.160
 6114SOL    HW119241   5.073   5.278   1.194
 6114SOL    HW219242   5.231   5.285   1.152
 6115SOL     OW19243   4.876   6.998   3.743
 6115SOL    HW119244   4.943   0.029   3.799
 6115SOL    HW219245   4.864   6.906   3.780
 6116SOL     OW19246   2.704   0.186   0.461
 6116SOL    HW119247   2.725   0.119   0.390
 6116SOL    HW219248   2.774   0.258   0.461
 6117SOL     OW19249   0.325   0.576   5.776
 6117SOL    HW119250   0.385   0.625   5.838
 6117SOL    HW219251   0.357   0.481   5.766
 6118SOL     OW19252   6.210   0.256   1.653
 6118SOL    HW119253   6.131   0.314   1.630
 6118SOL    HW219254   6.181   0.160   1.656
 6119SOL     OW19255   1.521   3.702   5.563
 6119SOL    HW119256   1.470   3.649   5.496
 6119SOL    HW219257   1.492   3.798   5.559
 6120SOL     OW19258   3.830   6.886   4.045
 6120SOL    HW119259   3.855   6.813   3.981
 6120SOL    HW219260   3.734   6.912   4.029
 6121SOL     OW19261   1.085   3.093   4.971
 6121SOL    HW119262   1.181   3.066   4.980
 6121SOL    HW219263   1.034   3.019   4.928
 6122SOL     OW19264   3.560   6.918   1.731
 6122SOL    HW119265   3.620   6.986   1.774
 6122SOL    HW219266   3.598   6.827   1.746
 6123SOL     OW19267   6.318   0.597   6.260
 6123SOL    HW119268   6.226   0.563   6.241
 6123SOL    HW219269   6.383   0.554   6.197
 6124SOL     OW19270   2.457   1.150   6.669
 6124SOL    HW119271   2.457   1.109   6.578
 6124SOL    HW219272   2.376   1.208   6.680
 6125SOL     OW19273   1.464   5.761   0.096
 6125SOL    HW119274   1.392   5.830   0.094
 6125SOL    HW219275   1.493   5.745   0.190
 6126SOL     OW19276   6.998   6.875   4.185
 6126SOL    HW119277   6.985   6.779   4.206
 6126SOL    HW219278   0.070   6.890   4.147
 6127SOL     OW19279   3.178   7.017   2.409
 6127SOL    HW119280   3.112   0.018   2.481
 6127SOL    HW219281   3.246   0.071   2.404
 6128SOL     OW19282   6.898   3.009   0.027
 6128SOL    HW119283   6.906   3.055   0.115
 6128SOL    HW219284   6.887   2.911   0.041
 6129SOL     OW19285   6.614   3.721   2.592
 6129SOL    HW119286   6.546   3.774   2.643
 6129SOL    HW219287   6.667   3.665   2.656
 6130SOL     OW19288   6.566   2.296   3.587
 6130SOL    HW119289   6.665   2.283   3.578
 6130SOL    HW219290   6.521   2.266   3.503
 6131SOL     OW19291   6.908   1.492   5.271
 6131SOL    HW119292   6.813   1.522   5.260
 6131SOL    HW219293   6.953   1.548   5.341
 6132SOL     OW19294   4.653   1.114   0.802
 6132SOL    HW119295   4.675   1.193   0.860
 6132SOL    HW219296   4.675   1.030   0.851
 6133SOL     OW19297   1.069   2.326   2.225
 6133SOL    HW119298   1.100   2.348   2.317
 6133SOL    HW219299   0.989   2.381   2.202
 6134SOL     OW19300   4.002   4.263   6.477
 6134SOL    HW119301   3.918   4.314   6.462
 6134SOL    HW219302   3.999   4.220   6.567
 6135SOL     OW19303   0.519   0.186   1.966
 6135SOL    HW119304   0.556   0.107   2.016
 6135SOL    HW219305   0.594   0.247   1.940
 6136SOL     OW19306   0.824   2.428   2.179
 6136SOL    HW119307   0.800   2.400   2.272
 6136SOL    HW219308   0.743   2.463   2.133
 6137SOL     OW19309   5.588   2.760   3.769
 6137SOL    HW119310   5.617   2.705   3.848
 6137SOL    HW219311   5.577   2.700   3.689
 6138SOL     OW19312   4.917   6.254   2.091
 6138SOL    HW119313   4.999   6.250   2.149
 6138SOL    HW219314   4.912   6.344   2.047
 6139SOL     OW19315   1.697   1.798   5.536
 6139SOL    HW119316   1.597   1.794   5.533
 6139SOL    HW219317   1.728   1.804   5.631
 6140SOL     OW19318   0.613   6.679   1.644
 6140SOL    HW119319   0.650   6.609   1.705
 6140SOL    HW219320   0.513   6.677   1.648
 6141SOL     OW19321   6.203   5.531   6.400
 6141SOL    HW119322   6.190   5.520   6.499
 6141SOL    HW219323   6.149   5.609   6.368
 6142SOL     OW19324   0.331   5.413   0.991
 6142SOL    HW119325   0.396   5.476   1.032
 6142SOL    HW219326   0.311   5.442   0.897
 6143SOL     OW19327   6.667   4.264   0.656
 6143SOL    HW119328   6.763   4.263   0.626
 6143SOL    HW219329   6.609   4.292   0.579
 6144SOL     OW19330   6.939   5.011   3.243
 6144SOL    HW119331   6.876   5.017   3.166
 6144SOL    HW219332   6.887   5.016   3.329
 6145SOL     OW19333   4.345   5.526   3.776
 6145SOL    HW119334   4.325   5.568   3.687
 6145SOL    HW219335   4.290   5.442   3.786
 6146SOL     OW19336   3.283   6.885   3.828
 6146SOL    HW119337   3.285   6.852   3.923
 6146SOL    HW219338   3.371   6.927   3.806
 6147SOL     OW19339   1.296   3.692   4.614
 6147SOL    HW119340   1.323   3.724   4.705
 6147SOL    HW219341   1.215   3.744   4.584
 6148SOL     OW19342   6.594   0.305   4.696
 6148SOL    HW119343   6.638   0.350   4.774
 6148SOL    HW219344   6.663   0.285   4.626
 6149SOL     OW19345   2.999   5.169   1.502
 6149SOL    HW119346   3.007   5.120   1.589
 6149SOL    HW219347   3.068   5.136   1.438
 6150SOL     OW19348   4.265   4.842   6.765
 6150SOL    HW119349   4.212   4.758   6.780
 6150SOL    HW219350   4.304   4.840   6.673
 6151SOL     OW19351   5.936   4.155   5.532
 6151SOL    HW119352   5.903   4.242   5.568
 6151SOL    HW219353   6.035   4.161   5.518
 6152SOL     OW19354   5.998   5.645   4.995
 6152SOL    HW119355   5.952   5.695   5.068
 6152SOL    HW219356   6.023   5.708   4.922
 6153SOL     OW19357   5.114   3.836   2.120
 6153SOL    HW119358   5.042   3.905   2.111
 6153SOL    HW219359   5.203   3.882   2.119
 6154SOL     OW19360   5.423   1.660   2.536
 6154SOL    HW119361   5.329   1.640   2.508
 6154SOL    HW219362   5.428   1.755   2.568
 6155SOL     OW19363   1.987   2.433   4.507
 6155SOL    HW119364   1.907   2.393   4.552
 6155SOL    HW219365   2.059   2.364   4.498
 6156SOL     OW19366   4.489   4.735   1.784
 6156SOL    HW119367   4.527   4.670   1.850
 6156SOL    HW219368   4.563   4.773   1.729
 6157SOL     OW19369   1.210   0.966   4.671
 6157SOL    HW119370   1.197   1.058   4.708
 6157SOL    HW219371   1.257   0.972   4.583
 6158SOL     OW19372   4.233   0.909   5.753
 6158SOL    HW119373   4.162   0.883   5.687
 6158SOL    HW219374   4.198   0.896   5.846
 6159SOL     OW19375   4.856   1.831   1.672
 6159SOL    HW119376   4.866   1.829   1.771
 6159SOL    HW219377   4.851   1.737   1.637
 6160SOL     OW19378   4.887   0.325   6.374
 6160SOL    HW119379   4.929   0.340   6.284
 6160SOL    HW219380   4.949   0.271   6.431
 6161SOL     OW19381   5.201   1.421   4.365
 6161SOL    HW119382   5.158   1.447   4.451
 6161SOL    HW219383   5.293   1.461   4.361
 6162SOL     OW19384   1.188   6.408   3.831
 6162SOL    HW119385   1.140   6.469   3.767
 6162SOL    HW219386   1.132   6.396   3.913
 6163SOL     OW19387   6.051   6.025   1.576
 6163SOL    HW119388   6.037   6.080   1.494
 6163SOL    HW219389   6.142   5.983   1.574
 6164SOL     OW19390   2.996   2.301   1.664
 6164SOL    HW119391   2.969   2.206   1.653
 6164SOL    HW219392   2.991   2.327   1.761
 6165SOL     OW19393   4.751   0.636   6.466
 6165SOL    HW119394   4.783   0.550   6.504
 6165SOL    HW219395   4.704   0.689   6.537
 6166SOL     OW19396   4.512   1.325   6.558
 6166SOL    HW119397   4.539   1.346   6.652
 6166SOL    HW219398   4.413   1.329   6.550
 6167SOL     OW19399   0.705   3.912   3.393
 6167SOL    HW119400   0.695   4.007   3.421
 6167SOL    HW219401   0.626   3.859   3.423
 6168SOL     OW19402   0.907   3.477   0.579
 6168SOL    HW119403   0.891   3.389   0.624
 6168SOL    HW219404   0.920   3.548   0.648
 6169SOL     OW19405   1.778   2.903   1.523
 6169SOL    HW119406   1.878   2.911   1.533
 6169SOL    HW219407   1.757   2.835   1.452
 6170SOL     OW19408   1.271   3.493   5.053
 6170SOL    HW119409   1.286   3.465   4.959
 6170SOL    HW219410   1.305   3.586   5.066
 6171SOL     OW19411   0.526   2.580   0.375
 6171SOL    HW119412   0.612   2.624   0.399
 6171SOL    HW219413   0.539   2.481   0.370
 6172SOL     OW19414   1.863   3.031   2.253
 6172SOL    HW119415   1.790   3.018   2.185
 6172SOL    HW219416   1.891   2.943   2.290
 6173SOL     OW19417   0.526   5.506   2.585
 6173SOL    HW119418   0.599   5.560   2.627
 6173SOL    HW219419   0.448   5.502   2.648
 6174SOL     OW19420   5.246   5.737   3.753
 6174SOL    HW119421   5.232   5.797   3.674
 6174SOL    HW219422   5.234   5.789   3.837
 6175SOL     OW19423   3.881   1.093   3.937
 6175SOL    HW119424   3.786   1.076   3.912
 6175SOL    HW219425   3.902   1.190   3.927
 6176SOL     OW19426   5.167   4.471   5.596
 6176SOL    HW119427   5.089   4.490   5.536
 6176SOL    HW219428   5.252   4.479   5.544
 6177SOL     OW19429   6.097   1.948   1.536
 6177SOL    HW119430   6.172   2.007   1.566
 6177SOL    HW219431   6.094   1.866   1.593
 6178SOL     OW19432   5.528   4.871   1.940
 6178SOL    HW119433   5.433   4.887   1.913
 6178SOL    HW219434   5.558   4.943   2.002
 6179SOL     OW19435   6.356   4.248   3.619
 6179SOL    HW119436   6.374   4.152   3.640
 6179SOL    HW219437   6.434   4.286   3.569
 6180SOL     OW19438   2.496   4.787   0.447
 6180SOL    HW119439   2.440   4.737   0.514
 6180SOL    HW219440   2.565   4.840   0.496
 6181SOL     OW19441   4.973   6.286   6.107
 6181SOL    HW119442   4.975   6.295   6.207
 6181SOL    HW219443   4.925   6.365   6.068
 6182SOL     OW19444   4.621   2.958   5.867
 6182SOL    HW119445   4.575   2.892   5.926
 6182SOL    HW219446   4.708   2.920   5.836
 6183SOL     OW19447   1.493   2.328   3.769
 6183SOL    HW119448   1.489   2.395   3.843
 6183SOL    HW219449   1.438   2.360   3.692
 6184SOL     OW19450   3.044   6.171   6.565
 6184SOL    HW119451   3.039   6.233   6.487
 6184SOL    HW219452   3.075   6.220   6.646
 6185SOL     OW19453   6.785   3.689   6.278
 6185SOL    HW119454   6.788   3.606   6.334
 6185SOL    HW219455   6.878   3.714   6.252
 6186SOL     OW19456   6.400   0.983   0.393
 6186SOL    HW119457   6.476   0.942   0.444
 6186SOL    HW219458   6.435   1.057   0.335
 6187SOL     OW19459   5.158   4.111   4.525
 6187SOL    HW119460   5.251   4.148   4.523
 6187SOL    HW219461   5.122   4.107   4.432
 6188SOL     OW19462   1.497   1.203   5.745
 6188SOL    HW119463   1.411   1.242   5.779
 6188SOL    HW219464   1.527   1.253   5.665
 6189SOL     OW19465   3.983   5.160   2.290
 6189SOL    HW119466   4.031   5.094   2.232
 6189SOL    HW219467   4.049   5.209   2.347
 6190SOL     OW19468   0.566   3.907   5.639
 6190SOL    HW119469   0.530   3.940   5.726
 6190SOL    HW219470   0.662   3.933   5.630
 6191SOL     OW19471   3.060   2.693   6.843
 6191SOL    HW119472   3.099   2.621   6.785
 6191SOL    HW219473   3.081   2.783   6.803
 6192SOL     OW19474   2.992   2.267   6.396
 6192SOL    HW119475   3.081   2.246   6.357
 6192SOL    HW219476   2.990   2.240   6.492
 6193SOL     OW19477   4.826   6.458   1.467
 6193SOL    HW119478   4.836   6.547   1.423
 6193SOL    HW219479   4.825   6.386   1.397
 6194SOL     OW19480   0.104   0.728   6.484
 6194SOL    HW119481   0.171   0.691   6.548
 6194SOL    HW219482   0.013   0.724   6.523
 6195SOL     OW19483   4.517   5.492   4.460
 6195SOL    HW119484   4.611   5.463   4.440
 6195SOL    HW219485   4.485   5.554   4.387
 6196SOL     OW19486   5.373   4.138   1.834
 6196SOL    HW119487   5.335   4.189   1.757
 6196SOL    HW219488   5.465   4.106   1.811
 6197SOL     OW19489   2.461   5.939   1.446
 6197SOL    HW119490   2.527   5.908   1.378
 6197SOL    HW219491   2.391   5.995   1.401
 6198SOL     OW19492   4.113   6.876   0.826
 6198SOL    HW119493   4.166   6.792   0.833
 6198SOL    HW219494   4.103   6.901   0.730
 6199SOL     OW19495   0.289   0.803   0.385
 6199SOL    HW119496   0.333   0.734   0.327
 6199SOL    HW219497   0.323   0.795   0.478
 6200SOL     OW19498   1.231   1.505   5.666
 6200SOL    HW119499   1.263   1.585   5.615
 6200SOL    HW219500   1.140   1.523   5.703
 6201SOL     OW19501   0.828   3.433   5.693
 6201SOL    HW119502   0.791   3.412   5.602
 6201SOL    HW219503   0.870   3.524   5.691
 6202SOL     OW19504   4.900   1.337   1.694
 6202SOL    HW119505   4.888   1.398   1.773
 6202SOL    HW219506   4.847   1.254   1.709
 6203SOL     OW19507   6.255   6.244   2.033
 6203SOL    HW119508   6.281   6.170   1.971
 6203SOL    HW219509   6.301   6.231   2.121
 6204SOL     OW19510   1.051   5.780   4.559
 6204SOL    HW119511   0.987   5.787   4.636
 6204SOL    HW219512   1.100   5.692   4.565
 6205SOL     OW19513   6.064   5.554   1.754
 6205SOL    HW119514   6.011   5.619   1.808
 6205SOL    HW219515   6.065   5.584   1.658
 6206SOL     OW19516   6.069   1.711   2.431
 6206SOL    HW119517   6.126   1.670   2.359
 6206SOL    HW219518   6.119   1.784   2.477
 6207SOL     OW19519   1.829   5.653   5.234
 6207SOL    HW119520   1.917   5.694   5.210
 6207SOL    HW219521   1.779   5.630   5.151
 6208SOL     OW19522   3.862   2.377   5.298
 6208SOL    HW119523   3.947   2.395   5.249
 6208SOL    HW219524   3.806   2.460   5.301
 6209SOL     OW19525   2.839   5.553   6.767
 6209SOL    HW119526   2.886   5.616   6.706
 6209SOL    HW219527   2.746   5.537   6.733
 6210SOL     OW19528   4.754   4.083   3.082
 6210SOL    HW119529   4.782   3.988   3.067
 6210SOL    HW219530   4.809   4.143   3.025
 6211SOL     OW19531   2.450   6.295   5.644
 6211SOL    HW119532   2.482   6.200   5.644
 6211SOL    HW219533   2.425   6.322   5.737
 6212SOL     OW19534   2.807   5.022   4.354
 6212SOL    HW119535   2.709   5.001   4.347
 6212SOL    HW219536   2.825   5.112   4.315
 6213SOL     OW19537   5.151   6.834   6.842
 6213SOL    HW119538   5.070   6.777   6.831
 6213SOL    HW219539   5.225   6.798   6.785
 6214SOL     OW19540   5.391   5.935   5.243
 6214SOL    HW119541   5.357   5.971   5.156
 6214SOL    HW219542   5.329   5.863   5.276
 6215SOL     OW19543   4.019   2.459   0.089
 6215SOL    HW119544   3.988   2.443   0.183
 6215SOL    HW219545   3.949   2.427   0.025
 6216SOL     OW19546   6.263   2.743   2.587
 6216SOL    HW119547   6.333   2.674   2.605
 6216SOL    HW219548   6.260   2.762   2.489
 6217SOL     OW19549   0.864   3.705   2.502
 6217SOL    HW119550   0.808   3.782   2.532
 6217SOL    HW219551   0.847   3.688   2.405
 6218SOL     OW19552   3.696   6.716   6.936
 6218SOL    HW119553   3.614   6.698   6.991
 6218SOL    HW219554   3.771   6.659   6.969
 6219SOL     OW19555   0.926   1.619   4.624
 6219SOL    HW119556   0.915   1.584   4.531
 6219SOL    HW219557   0.852   1.684   4.644
 6220SOL     OW19558   2.983   1.877   5.369
 6220SOL    HW119559   3.005   1.957   5.312
 6220SOL    HW219560   2.924   1.815   5.317
 6221SOL     OW19561   5.550   0.454   6.715
 6221SOL    HW119562   5.581   0.518   6.644
 6221SOL    HW219563   5.607   0.464   6.797
 6222SOL     OW19564   1.418   0.506   2.111
 6222SOL    HW119565   1.495   0.558   2.151
 6222SOL    HW219566   1.333   0.554   2.131
 6223SOL     OW19567   1.328   5.143   2.900
 6223SOL    HW119568   1.280   5.159   2.986
 6223SOL    HW219569   1.311   5.050   2.869
 6224SOL     OW19570   4.543   1.371   5.774
 6224SOL    HW119571   4.597   1.414   5.702
 6224SOL    HW219572   4.472   1.313   5.733
 6225SOL     OW19573   3.685   2.552   6.523
 6225SOL    HW119574   3.637   2.501   6.451
 6225SOL    HW219575   3.681   2.499   6.608
 6226SOL     OW19576   1.226   1.528   4.135
 6226SOL    HW119577   1.313   1.517   4.182
 6226SOL    HW219578   1.241   1.524   4.036
 6227SOL     OW19579   3.524   5.128   5.531
 6227SOL    HW119580   3.457   5.187   5.578
 6227SOL    HW219581   3.477   5.074   5.462
 6228SOL     OW19582   0.472   2.830   2.310
 6228SOL    HW119583   0.515   2.833   2.400
 6228SOL    HW219584   0.533   2.873   2.243
 6229SOL     OW19585   0.955   2.807   5.273
 6229SOL    HW119586   0.934   2.769   5.183
 6229SOL    HW219587   0.944   2.736   5.342
 6230SOL     OW19588   0.966   1.943   3.714
 6230SOL    HW119589   0.912   2.026   3.702
 6230SOL    HW219590   1.041   1.943   3.647
 6231SOL     OW19591   5.893   5.005   0.433
 6231SOL    HW119592   5.810   4.950   0.423
 6231SOL    HW219593   5.966   4.964   0.379
 6232SOL     OW19594   6.897   1.640   0.431
 6232SOL    HW119595   6.934   1.710   0.491
 6232SOL    HW219596   6.940   1.552   0.452
 6233SOL     OW19597   5.820   2.512   1.612
 6233SOL    HW119598   5.890   2.441   1.603
 6233SOL    HW219599   5.732   2.469   1.633
 6234SOL     OW19600   6.669   0.072   5.511
 6234SOL    HW119601   6.708   0.078   5.603
 6234SOL    HW219602   6.715   7.018   5.460
 6235SOL     OW19603   0.108   0.338   1.473
 6235SOL    HW119604   0.153   0.257   1.511
 6235SOL    HW219605   0.138   0.419   1.523
 6236SOL     OW19606   0.675   4.224   0.723
 6236SOL    HW119607   0.682   4.302   0.661
 6236SOL    HW219608   0.584   4.183   0.716
 6237SOL     OW19609   3.170   0.315   0.287
 6237SOL    HW119610   3.194   0.224   0.250
 6237SOL    HW219611   3.117   0.365   0.219
 6238SOL     OW19612   4.907   6.172   2.781
 6238SOL    HW119613   4.891   6.161   2.880
 6238SOL    HW219614   4.905   6.269   2.758
 6239SOL     OW19615   3.570   1.001   1.188
 6239SOL    HW119616   3.649   1.061   1.184
 6239SOL    HW219617   3.599   0.906   1.184
 6240SOL     OW19618   2.829   3.610   5.172
 6240SOL    HW119619   2.890   3.621   5.093
 6240SOL    HW219620   2.745   3.566   5.143
 6241SOL     OW19621   3.418   0.656   3.538
 6241SOL    HW119622   3.426   0.747   3.497
 6241SOL    HW219623   3.329   0.646   3.582
 6242SOL     OW19624   3.497   6.848   3.211
 6242SOL    HW119625   3.470   6.827   3.306
 6242SOL    HW219626   3.471   6.943   3.190
 6243SOL     OW19627   6.938   7.019   5.304
 6243SOL    HW119628   6.885   6.947   5.258
 6243SOL    HW219629   0.016   7.006   5.285
 6244SOL     OW19630   5.514   3.515   3.630
 6244SOL    HW119631   5.494   3.424   3.594
 6244SOL    HW219632   5.462   3.529   3.714
 6245SOL     OW19633   1.539   3.964   1.595
 6245SOL    HW119634   1.535   3.989   1.498
 6245SOL    HW219635   1.492   3.877   1.609
 6246SOL     OW19636   0.885   1.232   5.159
 6246SOL    HW119637   0.965   1.269   5.111
 6246SOL    HW219638   0.916   1.167   5.229
 6247SOL     OW19639   1.567   6.063   3.781
 6247SOL    HW119640   1.640   6.104   3.836
 6247SOL    HW219641   1.605   5.989   3.726
 6248SOL     OW19642   3.545   3.733   0.110
 6248SOL    HW119643   3.511   3.778   0.028
 6248SOL    HW219644   3.488   3.757   0.189
 6249SOL     OW19645   0.048   3.000   0.621
 6249SOL    HW119646   6.987   2.971   0.675
 6249SOL    HW219647   0.129   2.999   0.679
 6250SOL     OW19648   6.365   6.737   1.350
 6250SOL    HW119649   6.270   6.757   1.327
 6250SOL    HW219650   6.370   6.700   1.443
 6251SOL     OW19651   4.369   6.568   4.585
 6251SOL    HW119652   4.296   6.552   4.652
 6251SOL    HW219653   4.454   6.524   4.617
 6252SOL     OW19654   2.684   4.564   5.960
 6252SOL    HW119655   2.688   4.512   6.045
 6252SOL    HW219656   2.591   4.562   5.924
 6253SOL     OW19657   2.471   4.632   3.969
 6253SOL    HW119658   2.379   4.636   4.008
 6253SOL    HW219659   2.501   4.724   3.943
 6254SOL     OW19660   5.775   0.330   0.779
 6254SOL    HW119661   5.783   0.252   0.842
 6254SOL    HW219662   5.856   0.388   0.787
 6255SOL     OW19663   2.643   1.551   1.054
 6255SOL    HW119664   2.723   1.551   1.114
 6255SOL    HW219665   2.634   1.641   1.012
 6256SOL     OW19666   3.782   5.431   2.002
 6256SOL    HW119667   3.693   5.465   1.970
 6256SOL    HW219668   3.843   5.509   2.019
 6257SOL     OW19669   4.330   3.258   0.223
 6257SOL    HW119670   4.243   3.221   0.190
 6257SOL    HW219671   4.313   3.339   0.278
 6258SOL     OW19672   3.155   6.580   4.833
 6258SOL    HW119673   3.112   6.638   4.763
 6258SOL    HW219674   3.253   6.599   4.835
 6259SOL     OW19675   2.126   0.658   6.464
 6259SOL    HW119676   2.087   0.734   6.515
 6259SOL    HW219677   2.071   0.576   6.479
 6260SOL     OW19678   3.570   6.384   0.026
 6260SOL    HW119679   3.491   6.355   0.080
 6260SOL    HW219680   3.652   6.385   0.085
 6261SOL     OW19681   5.114   0.219   0.191
 6261SOL    HW119682   5.071   0.194   0.278
 6261SOL    HW219683   5.104   0.144   0.126
 6262SOL     OW19684   1.911   5.983   2.097
 6262SOL    HW119685   1.929   6.057   2.033
 6262SOL    HW219686   1.929   6.014   2.191
 6263SOL     OW19687   1.237   6.511   4.639
 6263SOL    HW119688   1.311   6.486   4.576
 6263SOL    HW219689   1.210   6.430   4.692
 6264SOL     OW19690   2.235   0.516   1.566
 6264SOL    HW119691   2.308   0.567   1.613
 6264SOL    HW219692   2.147   0.559   1.585
 6265SOL     OW19693   4.518   3.455   0.631
 6265SOL    HW119694   4.515   3.546   0.592
 6265SOL    HW219695   4.561   3.392   0.567
 6266SOL     OW19696   4.548   6.878   3.420
 6266SOL    HW119697   4.528   6.940   3.496
 6266SOL    HW219698   4.532   6.925   3.333
 6267SOL     OW19699   2.166   6.894   4.931
 6267SOL    HW119700   2.242   6.836   4.901
 6267SOL    HW219701   2.144   6.961   4.860
 6268SOL     OW19702   2.356   0.865   1.890
 6268SOL    HW119703   2.399   0.889   1.977
 6268SOL    HW219704   2.397   0.781   1.854
 6269SOL     OW19705   6.325   0.222   2.651
 6269SOL    HW119706   6.363   0.231   2.743
 6269SOL    HW219707   6.231   0.188   2.657
 6270SOL     OW19708   6.954   6.903   0.188
 6270SOL    HW119709   6.955   6.972   0.260
 6270SOL    HW219710   0.009   6.920   0.123
 6271SOL     OW19711   6.393   2.630   5.643
 6271SOL    HW119712   6.350   2.661   5.559
 6271SOL    HW219713   6.348   2.672   5.722
 6272SOL     OW19714   0.488   1.763   0.175
 6272SOL    HW119715   0.552   1.725   0.108
 6272SOL    HW219716   0.394   1.746   0.145
 6273SOL     OW19717   0.547   6.059   2.885
 6273SOL    HW119718   0.534   5.985   2.951
 6273SOL    HW219719   0.516   6.145   2.925
 6274SOL     OW19720   3.113   0.080   4.622
 6274SOL    HW119721   3.054   0.121   4.552
 6274SOL    HW219722   3.109   0.136   4.705
 6275SOL     OW19723   1.622   5.988   0.421
 6275SOL    HW119724   1.549   6.016   0.360
 6275SOL    HW219725   1.628   5.888   0.423
 6276SOL     OW19726   3.039   5.565   3.298
 6276SOL    HW119727   2.993   5.601   3.218
 6276SOL    HW219728   2.980   5.574   3.378
 6277SOL     OW19729   4.982   2.771   0.727
 6277SOL    HW119730   4.933   2.729   0.803
 6277SOL    HW219731   4.984   2.871   0.740
 6278SOL     OW19732   3.776   0.684   4.856
 6278SOL    HW119733   3.739   0.674   4.949
 6278SOL    HW219734   3.852   0.621   4.843
 6279SOL     OW19735   3.887   5.959   0.531
 6279SOL    HW119736   3.946   5.967   0.611
 6279SOL    HW219737   3.930   6.004   0.453
 6280SOL     OW19738   0.116   1.012   6.459
 6280SOL    HW119739   0.140   0.915   6.453
 6280SOL    HW219740   0.056   1.027   6.538
 6281SOL     OW19741   6.921   4.710   4.381
 6281SOL    HW119742   6.876   4.621   4.369
 6281SOL    HW219743   7.004   4.714   4.325
 6282SOL     OW19744   5.874   3.542   5.074
 6282SOL    HW119745   5.910   3.613   5.014
 6282SOL    HW219746   5.774   3.539   5.066
 6283SOL     OW19747   0.267   3.885   4.347
 6283SOL    HW119748   0.250   3.787   4.356
 6283SOL    HW219749   0.365   3.903   4.359
 6284SOL     OW19750   1.324   5.738   6.491
 6284SOL    HW119751   1.348   5.702   6.401
 6284SOL    HW219752   1.401   5.728   6.553
 6285SOL     OW19753   1.337   3.176   3.120
 6285SOL    HW119754   1.332   3.245   3.048
 6285SOL    HW219755   1.320   3.219   3.208
 6286SOL     OW19756   0.368   3.438   4.651
 6286SOL    HW119757   0.299   3.510   4.652
 6286SOL    HW219758   0.396   3.418   4.745
 6287SOL     OW19759   3.404   4.891   5.120
 6287SOL    HW119760   3.352   4.933   5.195
 6287SOL    HW219761   3.359   4.910   5.033
 6288SOL     OW19762   5.714   4.901   1.448
 6288SOL    HW119763   5.723   4.854   1.536
 6288SOL    HW219764   5.789   4.966   1.437
 6289SOL     OW19765   2.106   4.948   0.001
 6289SOL    HW119766   2.080   4.851   0.003
 6289SOL    HW219767   2.185   4.962   0.061
 6290SOL     OW19768   5.724   5.680   6.327
 6290SOL    HW119769   5.701   5.690   6.424
 6290SOL    HW219770   5.711   5.585   6.299
 6291SOL     OW19771   3.199   3.996   3.883
 6291SOL    HW119772   3.138   4.020   3.958
 6291SOL    HW219773   3.146   3.982   3.800
 6292SOL     OW19774   2.774   2.407   5.478
 6292SOL    HW119775   2.799   2.325   5.427
 6292SOL    HW219776   2.787   2.488   5.421
 6293SOL     OW19777   4.763   1.450   1.009
 6293SOL    HW119778   4.839   1.409   0.959
 6293SOL    HW219779   4.746   1.542   0.973
 6294SOL     OW19780   4.146   0.309   3.556
 6294SOL    HW119781   4.233   0.266   3.534
 6294SOL    HW219782   4.101   0.339   3.472
 6295SOL     OW19783   5.201   4.765   4.780
 6295SOL    HW119784   5.256   4.823   4.720
 6295SOL    HW219785   5.153   4.697   4.725
 6296SOL     OW19786   6.944   4.454   5.973
 6296SOL    HW119787   6.932   4.364   5.932
 6296SOL    HW219788   6.925   4.525   5.904
 6297SOL     OW19789   6.213   0.535   5.243
 6297SOL    HW119790   6.197   0.467   5.171
 6297SOL    HW219791   6.301   0.579   5.226
 6298SOL     OW19792   0.394   3.266   6.500
 6298SOL    HW119793   0.403   3.321   6.417
 6298SOL    HW219794   0.416   3.171   6.480
 6299SOL     OW19795   5.808   3.236   2.072
 6299SOL    HW119796   5.721   3.234   2.022
 6299SOL    HW219797   5.800   3.179   2.154
 6300SOL     OW19798   6.479   1.179   6.901
 6300SOL    HW119799   6.518   1.087   6.908
 6300SOL    HW219800   6.553   1.244   6.881
 6301SOL     OW19801   2.579   5.979   7.014
 6301SOL    HW119802   2.532   5.958   0.081
 6301SOL    HW219803   2.511   5.995   6.943
 6302SOL     OW19804   2.138   2.023   5.465
 6302SOL    HW119805   2.040   2.014   5.484
 6302SOL    HW219806   2.176   1.933   5.444
 6303SOL     OW19807   0.339   7.004   6.134
 6303SOL    HW119808   0.434   7.005   6.166
 6303SOL    HW219809   0.305   0.079   6.130
 6304SOL     OW19810   3.325   1.479   2.720
 6304SOL    HW119811   3.252   1.539   2.750
 6304SOL    HW219812   3.334   1.403   2.784
 6305SOL     OW19813   6.097   6.110   0.420
 6305SOL    HW119814   6.008   6.156   0.411
 6305SOL    HW219815   6.123   6.072   0.332
 6306SOL     OW19816   0.119   3.878   4.067
 6306SOL    HW119817   0.142   3.792   4.022
 6306SOL    HW219818   0.161   3.881   4.158
 6307SOL     OW19819   2.868   3.555   3.904
 6307SOL    HW119820   2.954   3.507   3.885
 6307SOL    HW219821   2.830   3.591   3.819
 6308SOL     OW19822   1.428   2.273   5.125
 6308SOL    HW119823   1.409   2.302   5.219
 6308SOL    HW219824   1.351   2.218   5.092
 6309SOL     OW19825   0.001   6.443   4.174
 6309SOL    HW119826   0.042   6.444   4.265
 6309SOL    HW219827   6.935   6.391   4.176
 6310SOL     OW19828   1.963   6.462   2.589
 6310SOL    HW119829   1.984   6.485   2.494
 6310SOL    HW219830   1.968   6.363   2.601
 6311SOL     OW19831   5.015   2.029   5.578
 6311SOL    HW119832   4.929   2.002   5.620
 6311SOL    HW219833   5.086   2.037   5.649
 6312SOL     OW19834   0.397   6.854   5.520
 6312SOL    HW119835   0.385   6.899   5.608
 6312SOL    HW219836   0.451   6.913   5.459
 6313SOL     OW19837   6.175   6.402   3.316
 6313SOL    HW119838   6.095   6.459   3.299
 6313SOL    HW219839   6.149   6.324   3.372
 6314SOL     OW19840   3.137   6.653   2.379
 6314SOL    HW119841   3.149   6.750   2.359
 6314SOL    HW219842   3.084   6.610   2.306
 6315SOL     OW19843   3.265   1.721   5.072
 6315SOL    HW119844   3.351   1.766   5.047
 6315SOL    HW219845   3.223   1.682   4.991
 6316SOL     OW19846   5.018   2.178   5.326
 6316SOL    HW119847   4.973   2.175   5.237
 6316SOL    HW219848   4.974   2.113   5.389
 6317SOL     OW19849   4.983   4.047   2.044
 6317SOL    HW119850   5.025   4.109   1.978
 6317SOL    HW219851   4.964   4.096   2.129
 6318SOL     OW19852   4.405   0.286   6.411
 6318SOL    HW119853   4.363   0.283   6.321
 6318SOL    HW219854   4.490   0.338   6.407
 6319SOL     OW19855   6.664   2.156   5.074
 6319SOL    HW119856   6.663   2.082   5.006
 6319SOL    HW219857   6.669   2.244   5.027
 6320SOL     OW19858   6.707   6.383   5.137
 6320SOL    HW119859   6.724   6.338   5.225
 6320SOL    HW219860   6.795   6.402   5.092
 6321SOL     OW19861   4.910   3.053   0.764
 6321SOL    HW119862   4.974   3.114   0.811
 6321SOL    HW219863   4.932   3.051   0.666
 6322SOL     OW19864   3.084   2.792   0.763
 6322SOL    HW119865   3.135   2.723   0.816
 6322SOL    HW219866   3.074   2.760   0.669
 6323SOL     OW19867   1.366   2.002   1.453
 6323SOL    HW119868   1.431   1.930   1.427
 6323SOL    HW219869   1.291   2.004   1.387
 6324SOL     OW19870   4.182   1.453   0.393
 6324SOL    HW119871   4.228   1.370   0.362
 6324SOL    HW219872   4.211   1.530   0.335
 6325SOL     OW19873   1.948   3.022   2.996
 6325SOL    HW119874   1.979   3.003   3.089
 6325SOL    HW219875   1.998   3.101   2.960
 6326SOL     OW19876   5.820   5.062   0.137
 6326SOL    HW119877   5.890   5.134   0.136
 6326SOL    HW219878   5.834   5.005   0.218
 6327SOL     OW19879   0.409   2.031   3.715
 6327SOL    HW119880   0.498   2.070   3.738
 6327SOL    HW219881   0.405   2.014   3.617
 6328SOL     OW19882   4.650   3.728   6.873
 6328SOL    HW119883   4.585   3.695   6.804
 6328SOL    HW219884   4.686   3.817   6.845
 6329SOL     OW19885   1.680   2.849   5.063
 6329SOL    HW119886   1.757   2.855   5.127
 6329SOL    HW219887   1.705   2.789   4.987
 6330SOL     OW19888   5.914   6.811   2.122
 6330SOL    HW119889   5.930   6.909   2.113
 6330SOL    HW219890   5.821   6.796   2.157
 6331SOL     OW19891   0.168   3.629   4.639
 6331SOL    HW119892   0.071   3.644   4.657
 6331SOL    HW219893   0.219   3.713   4.659
 6332SOL     OW19894   0.823   2.406   0.926
 6332SOL    HW119895   0.841   2.498   0.959
 6332SOL    HW219896   0.901   2.346   0.947
 6333SOL     OW19897   4.564   0.476   5.591
 6333SOL    HW119898   4.566   0.534   5.509
 6333SOL    HW219899   4.551   0.533   5.672
 6334SOL     OW19900   2.765   1.104   2.345
 6334SOL    HW119901   2.673   1.069   2.361
 6334SOL    HW219902   2.816   1.103   2.431
 6335SOL     OW19903   4.242   0.068   0.465
 6335SOL    HW119904   4.290   0.155   0.470
 6335SOL    HW219905   4.193   0.052   0.551
 6336SOL     OW19906   0.740   1.890   6.407
 6336SOL    HW119907   0.704   1.858   6.320
 6336SOL    HW219908   0.731   1.990   6.413
 6337SOL     OW19909   4.055   5.027   4.553
 6337SOL    HW119910   3.993   5.010   4.476
 6337SOL    HW219911   4.017   4.986   4.636
 6338SOL     OW19912   2.475   2.595   4.140
 6338SOL    HW119913   2.435   2.644   4.218
 6338SOL    HW219914   2.556   2.545   4.171
 6339SOL     OW19915   0.853   3.334   4.342
 6339SOL    HW119916   0.834   3.358   4.437
 6339SOL    HW219917   0.905   3.249   4.339
 6340SOL     OW19918   2.385   3.767   1.263
 6340SOL    HW119919   2.428   3.695   1.317
 6340SOL    HW219920   2.433   3.854   1.277
 6341SOL     OW19921   6.361   3.301   4.788
 6341SOL    HW119922   6.400   3.254   4.868
 6341SOL    HW219923   6.433   3.353   4.742
 6342SOL     OW19924   3.338   0.963   0.764
 6342SOL    HW119925   3.283   1.013   0.697
 6342SOL    HW219926   3.285   0.949   0.847
 6343SOL     OW19927   3.808   0.384   0.031
 6343SOL    HW119928   3.720   0.342   0.051
 6343SOL    HW219929   3.796   0.452   6.977
 6344SOL     OW19930   5.451   1.985   4.485
 6344SOL    HW119931   5.444   1.892   4.523
 6344SOL    HW219932   5.457   1.980   4.386
 6345SOL     OW19933   5.148   3.087   1.802
 6345SOL    HW119934   5.133   3.146   1.722
 6345SOL    HW219935   5.138   3.141   1.885
 6346SOL     OW19936   0.285   5.292   4.943
 6346SOL    HW119937   0.382   5.272   4.942
 6346SOL    HW219938   0.271   5.386   4.974
 6347SOL     OW19939   1.709   1.537   0.453
 6347SOL    HW119940   1.614   1.528   0.483
 6347SOL    HW219941   1.768   1.482   0.512
 6348SOL     OW19942   0.847   3.136   6.391
 6348SOL    HW119943   0.842   3.234   6.372
 6348SOL    HW219944   0.846   3.121   6.490
 6349SOL     OW19945   2.222   1.311   0.746
 6349SOL    HW119946   2.245   1.250   0.671
 6349SOL    HW219947   2.303   1.327   0.803
 6350SOL     OW19948   0.560   5.294   4.135
 6350SOL    HW119949   0.552   5.327   4.041
 6350SOL    HW219950   0.571   5.195   4.136
 6351SOL     OW19951   6.345   3.306   3.443
 6351SOL    HW119952   6.326   3.373   3.515
 6351SOL    HW219953   6.386   3.224   3.483
 6352SOL     OW19954   2.222   0.519   4.834
 6352SOL    HW119955   2.308   0.569   4.830
 6352SOL    HW219956   2.171   0.533   4.749
 6353SOL     OW19957   1.522   6.138   6.487
 6353SOL    HW119958   1.585   6.161   6.413
 6353SOL    HW219959   1.541   6.195   6.566
 6354SOL     OW19960   3.646   6.204   2.380
 6354SOL    HW119961   3.613   6.145   2.454
 6354SOL    HW219962   3.689   6.285   2.419
 6355SOL     OW19963   2.886   5.513   0.008
 6355SOL    HW119964   2.870   5.522   6.928
 6355SOL    HW219965   2.980   5.483   0.024
 6356SOL     OW19966   5.665   4.594   0.556
 6356SOL    HW119967   5.733   4.645   0.504
 6356SOL    HW219968   5.589   4.655   0.581
 6357SOL     OW19969   5.566   3.549   2.096
 6357SOL    HW119970   5.581   3.489   2.017
 6357SOL    HW219971   5.525   3.496   2.170
 6358SOL     OW19972   0.364   1.892   6.091
 6358SOL    HW119973   0.327   1.863   6.003
 6358SOL    HW219974   0.294   1.942   6.142
 6359SOL     OW19975   5.921   6.277   0.280
 6359SOL    HW119976   5.929   6.375   0.298
 6359SOL    HW219977   5.825   6.254   0.263
 6360SOL     OW19978   1.088   3.884   4.463
 6360SOL    HW119979   1.101   3.972   4.508
 6360SOL    HW219980   1.024   3.828   4.516
 6361SOL     OW19981   1.085   0.825   0.655
 6361SOL    HW119982   1.157   0.758   0.636
 6361SOL    HW219983   1.103   0.870   0.742
 6362SOL     OW19984   0.721   5.962   6.261
 6362SOL    HW119985   0.819   5.945   6.257
 6362SOL    HW219986   0.696   6.034   6.197
 6363SOL     OW19987   2.939   5.873   3.574
 6363SOL    HW119988   2.883   5.860   3.492
 6363SOL    HW219989   3.031   5.839   3.556
 6364SOL     OW19990   3.007   2.743   5.626
 6364SOL    HW119991   3.091   2.778   5.584
 6364SOL    HW219992   2.927   2.779   5.577
 6365SOL     OW19993   5.447   6.060   3.890
 6365SOL    HW119994   5.405   6.093   3.806
 6365SOL    HW219995   5.437   5.960   3.896
 6366SOL     OW19996   0.724   5.936   5.651
 6366SOL    HW119997   0.645   5.965   5.598
 6366SOL    HW219998   0.764   5.854   5.610
 6367SOL     OW19999   3.397   2.087   3.221
 6367SOL    HW120000   3.384   2.063   3.124
 6367SOL    HW220001   3.315   2.132   3.255
 6368SOL     OW20002   4.007   4.808   4.192
 6368SOL    HW120003   4.041   4.754   4.268
 6368SOL    HW220004   4.081   4.823   4.126
 6369SOL     OW20005   1.419   0.445   4.636
 6369SOL    HW120006   1.421   0.525   4.577
 6369SOL    HW220007   1.487   0.379   4.605
 6370SOL     OW20008   4.914   4.031   3.308
 6370SOL    HW120009   4.901   4.064   3.402
 6370SOL    HW220010   4.841   4.066   3.250
 6371SOL     OW20011   5.354   4.645   2.638
 6371SOL    HW120012   5.290   4.700   2.585
 6371SOL    HW220013   5.358   4.552   2.602
 6372SOL     OW20014   1.199   0.643   2.148
 6372SOL    HW120015   1.148   0.720   2.187
 6372SOL    HW220016   1.142   0.561   2.150
 6373SOL     OW20017   5.484   4.335   2.968
 6373SOL    HW120018   5.496   4.411   3.032
 6373SOL    HW220019   5.551   4.345   2.894
 6374SOL     OW20020   4.541   3.603   1.417
 6374SOL    HW120021   4.640   3.611   1.421
 6374SOL    HW220022   4.515   3.507   1.429
 6375SOL     OW20023   6.879   2.560   2.277
 6375SOL    HW120024   6.798   2.578   2.332
 6375SOL    HW220025   6.951   2.626   2.299
 6376SOL     OW20026   4.298   2.024   6.201
 6376SOL    HW120027   4.314   2.027   6.300
 6376SOL    HW220028   4.284   2.117   6.167
 6377SOL     OW20029   6.499   1.450   5.428
 6377SOL    HW120030   6.415   1.397   5.412
 6377SOL    HW220031   6.544   1.468   5.341
 6378SOL     OW20032   5.536   4.978   3.617
 6378SOL    HW120033   5.594   5.018   3.545
 6378SOL    HW220034   5.440   4.987   3.590
 6379SOL     OW20035   0.494   4.316   5.352
 6379SOL    HW120036   0.404   4.282   5.324
 6379SOL    HW220037   0.500   4.315   5.452
 6380SOL     OW20038   0.328   2.347   4.712
 6380SOL    HW120039   0.342   2.338   4.810
 6380SOL    HW220040   0.332   2.256   4.670
 6381SOL     OW20041   4.769   3.358   1.124
 6381SOL    HW120042   4.771   3.267   1.166
 6381SOL    HW220043   4.852   3.408   1.147
 6382SOL     OW20044   3.215   1.993   0.281
 6382SOL    HW120045   3.147   2.035   0.221
 6382SOL    HW220046   3.258   1.916   0.234
 6383SOL     OW20047   2.126   2.803   2.316
 6383SOL    HW120048   2.223   2.801   2.339
 6383SOL    HW220049   2.074   2.843   2.391
 6384SOL     OW20050   6.037   3.320   2.881
 6384SOL    HW120051   5.958   3.381   2.877
 6384SOL    HW220052   6.008   3.231   2.915
 6385SOL     OW20053   6.682   3.651   2.878
 6385SOL    HW120054   6.620   3.720   2.914
 6385SOL    HW220055   6.725   3.601   2.954
 6386SOL     OW20056   2.523   3.451   6.880
 6386SOL    HW120057   2.490   3.536   6.839
 6386SOL    HW220058   2.453   3.415   6.941
 6387SOL     OW20059   6.096   1.868   6.973
 6387SOL    HW120060   6.125   1.798   0.019
 6387SOL    HW220061   6.000   1.891   6.988
 6388SOL     OW20062   5.125   5.651   1.642
 6388SOL    HW120063   5.127   5.602   1.729
 6388SOL    HW220064   5.188   5.728   1.646
 6389SOL     OW20065   0.898   0.080   0.790
 6389SOL    HW120066   0.996   0.067   0.772
 6389SOL    HW220067   0.845   0.028   0.723
 6390SOL     OW20068   6.222   0.381   5.479
 6390SOL    HW120069   6.221   0.445   5.402
 6390SOL    HW220070   6.310   0.387   5.526
 6391SOL     OW20071   1.787   1.036   6.107
 6391SOL    HW120072   1.857   1.100   6.139
 6391SOL    HW220073   1.703   1.085   6.089
 6392SOL     OW20074   3.172   5.380   3.127
 6392SOL    HW120075   3.141   5.292   3.089
 6392SOL    HW220076   3.106   5.412   3.194
 6393SOL     OW20077   6.639   5.671   1.914
 6393SOL    HW120078   6.633   5.708   2.007
 6393SOL    HW220079   6.548   5.669   1.873
 6394SOL     OW20080   1.869   5.345   0.731
 6394SOL    HW120081   1.897   5.250   0.720
 6394SOL    HW220082   1.789   5.349   0.792
 6395SOL     OW20083   6.539   3.359   1.996
 6395SOL    HW120084   6.465   3.386   1.933
 6395SOL    HW220085   6.626   3.391   1.960
 6396SOL     OW20086   6.446   3.731   6.175
 6396SOL    HW120087   6.399   3.819   6.183
 6396SOL    HW220088   6.536   3.745   6.134
 6397SOL     OW20089   5.877   1.347   2.014
 6397SOL    HW120090   5.889   1.314   2.108
 6397SOL    HW220091   5.838   1.273   1.959
 6398SOL     OW20092   2.231   0.202   1.545
 6398SOL    HW120093   2.140   0.185   1.508
 6398SOL    HW220094   2.251   0.300   1.544
 6399SOL     OW20095   1.604   0.277   6.517
 6399SOL    HW120096   1.611   0.205   6.586
 6399SOL    HW220097   1.652   0.249   6.434
 6400SOL     OW20098   1.745   4.896   2.357
 6400SOL    HW120099   1.746   4.837   2.438
 6400SOL    HW220100   1.811   4.862   2.290
 6401SOL     OW20101   5.555   5.087   3.169
 6401SOL    HW120102   5.611   5.119   3.246
 6401SOL    HW220103   5.469   5.137   3.168
 6402SOL     OW20104   2.131   3.164   3.675
 6402SOL    HW120105   2.123   3.080   3.622
 6402SOL    HW220106   2.180   3.233   3.622
 6403SOL     OW20107   6.020   6.046   5.649
 6403SOL    HW120108   6.041   6.141   5.670
 6403SOL    HW220109   5.953   6.042   5.575
 6404SOL     OW20110   4.548   1.152   2.934
 6404SOL    HW120111   4.491   1.224   2.974
 6404SOL    HW220112   4.496   1.103   2.864
 6405SOL     OW20113   4.549   0.906   4.523
 6405SOL    HW120114   4.530   0.919   4.426
 6405SOL    HW220115   4.463   0.910   4.575
 6406SOL     OW20116   0.809   2.719   2.296
 6406SOL    HW120117   0.750   2.714   2.376
 6406SOL    HW220118   0.897   2.760   2.322
 6407SOL     OW20119   2.237   0.342   4.576
 6407SOL    HW120120   2.153   0.386   4.545
 6407SOL    HW220121   2.239   0.248   4.542
 6408SOL     OW20122   5.340   1.429   1.437
 6408SOL    HW120123   5.398   1.403   1.515
 6408SOL    HW220124   5.287   1.349   1.408
 6409SOL     OW20125   0.093   4.859   3.122
 6409SOL    HW120126   0.034   4.924   3.170
 6409SOL    HW220127   0.080   4.869   3.023
 6410SOL     OW20128   2.166   0.979   6.166
 6410SOL    HW120129   2.265   0.975   6.156
 6410SOL    HW220130   2.132   1.066   6.131
 6411SOL     OW20131   0.831   2.435   2.479
 6411SOL    HW120132   0.754   2.371   2.486
 6411SOL    HW220133   0.822   2.506   2.548
 6412SOL     OW20134   2.129   0.695   6.194
 6412SOL    HW120135   2.118   0.794   6.190
 6412SOL    HW220136   2.122   0.664   6.289
 6413SOL     OW20137   3.396   4.919   3.857
 6413SOL    HW120138   3.299   4.910   3.837
 6413SOL    HW220139   3.408   4.972   3.941
 6414SOL     OW20140   5.188   0.707   6.722
 6414SOL    HW120141   5.142   0.794   6.739
 6414SOL    HW220142   5.138   0.657   6.650
 6415SOL     OW20143   1.441   3.186   3.979
 6415SOL    HW120144   1.343   3.167   3.989
 6415SOL    HW220145   1.455   3.285   3.973
 6416SOL     OW20146   2.256   6.791   6.019
 6416SOL    HW120147   2.227   6.713   5.963
 6416SOL    HW220148   2.353   6.782   6.041
 6417SOL     OW20149   5.533   3.503   0.807
 6417SOL    HW120150   5.591   3.443   0.862
 6417SOL    HW220151   5.499   3.452   0.728
 6418SOL     OW20152   4.927   4.197   2.916
 6418SOL    HW120153   4.897   4.241   2.831
 6418SOL    HW220154   5.017   4.232   2.941
 6419SOL     OW20155   1.269   5.387   3.125
 6419SOL    HW120156   1.211   5.410   3.203
 6419SOL    HW220157   1.364   5.384   3.155
 6420SOL     OW20158   2.433   1.101   4.079
 6420SOL    HW120159   2.431   1.184   4.023
 6420SOL    HW220160   2.439   1.021   4.019
 6421SOL     OW20161   4.285   0.276   1.183
 6421SOL    HW120162   4.348   0.354   1.171
 6421SOL    HW220163   4.265   0.236   1.094
 6422SOL     OW20164   6.602   1.837   4.950
 6422SOL    HW120165   6.582   1.818   5.046
 6422SOL    HW220166   6.700   1.853   4.939
 6423SOL     OW20167   5.031   5.068   4.628
 6423SOL    HW120168   5.013   4.992   4.565
 6423SOL    HW220169   5.045   5.152   4.576
 6424SOL     OW20170   1.019   4.196   5.038
 6424SOL    HW120171   1.025   4.180   5.137
 6424SOL    HW220172   0.926   4.221   5.013
 6425SOL     OW20173   6.914   6.034   3.029
 6425SOL    HW120174   6.854   6.113   3.040
 6425SOL    HW220175   6.880   5.959   3.086
 6426SOL     OW20176   6.478   5.449   3.369
 6426SOL    HW120177   6.396   5.395   3.348
 6426SOL    HW220178   6.531   5.462   3.285
 6427SOL     OW20179   3.316   4.071   3.470
 6427SOL    HW120180   3.295   3.982   3.430
 6427SOL    HW220181   3.233   4.126   3.474
 6428SOL     OW20182   6.350   3.449   0.144
 6428SOL    HW120183   6.300   3.373   0.186
 6428SOL    HW220184   6.377   3.515   0.215
 6429SOL     OW20185   0.148   1.241   5.542
 6429SOL    HW120186   0.095   1.217   5.623
 6429SOL    HW220187   0.089   1.238   5.461
 6430SOL     OW20188   6.497   1.256   4.420
 6430SOL    HW120189   6.417   1.200   4.400
 6430SOL    HW220190   6.533   1.294   4.335
 6431SOL     OW20191   4.337   6.048   3.227
 6431SOL    HW120192   4.339   5.974   3.294
 6431SOL    HW220193   4.380   6.130   3.266
 6432SOL     OW20194   4.326   4.772   5.944
 6432SOL    HW120195   4.307   4.861   5.985
 6432SOL    HW220196   4.268   4.760   5.863
 6433SOL     OW20197   2.983   4.805   6.755
 6433SOL    HW120198   2.947   4.712   6.764
 6433SOL    HW220199   3.018   4.836   6.844
 6434SOL     OW20200   3.102   0.430   6.267
 6434SOL    HW120201   3.062   0.470   6.185
 6434SOL    HW220202   3.029   0.394   6.325
 6435SOL     OW20203   5.883   6.764   0.715
 6435SOL    HW120204   5.892   6.835   0.784
 6435SOL    HW220205   5.909   6.801   0.626
 6436SOL     OW20206   1.564   3.281   2.689
 6436SOL    HW120207   1.615   3.259   2.772
 6436SOL    HW220208   1.612   3.351   2.637
 6437SOL     OW20209   1.584   2.181   0.615
 6437SOL    HW120210   1.671   2.148   0.651
 6437SOL    HW220211   1.528   2.104   0.586
 6438SOL     OW20212   0.613   4.736   5.733
 6438SOL    HW120213   0.518   4.722   5.762
 6438SOL    HW220214   0.619   4.823   5.683
 6439SOL     OW20215   5.253   0.719   2.606
 6439SOL    HW120216   5.348   0.703   2.632
 6439SOL    HW220217   5.250   0.778   2.525
 6440SOL     OW20218   3.126   1.381   5.728
 6440SOL    HW120219   3.036   1.418   5.751
 6440SOL    HW220220   3.117   1.315   5.654
 6441SOL     OW20221   0.264   0.939   1.756
 6441SOL    HW120222   0.202   0.874   1.798
 6441SOL    HW220223   0.255   0.934   1.656
 6442SOL     OW20224   3.231   1.762   4.741
 6442SOL    HW120225   3.167   1.764   4.664
 6442SOL    HW220226   3.230   1.851   4.786
 6443SOL     OW20227   3.295   3.054   5.617
 6443SOL    HW120228   3.271   2.957   5.620
 6443SOL    HW220229   3.222   3.104   5.570
 6444SOL     OW20230   5.798   2.603   4.336
 6444SOL    HW120231   5.896   2.592   4.323
 6444SOL    HW220232   5.754   2.513   4.336
 6445SOL     OW20233   3.851   3.329   3.355
 6445SOL    HW120234   3.772   3.390   3.351
 6445SOL    HW220235   3.922   3.371   3.411
 6446SOL     OW20236   0.207   1.457   0.417
 6446SOL    HW120237   0.178   1.380   0.474
 6446SOL    HW220238   0.146   1.464   0.338
 6447SOL     OW20239   0.152   4.708   2.585
 6447SOL    HW120240   0.207   4.783   2.549
 6447SOL    HW220241   0.062   4.743   2.614
 6448SOL     OW20242   6.098   4.696   1.420
 6448SOL    HW120243   6.010   4.656   1.446
 6448SOL    HW220244   6.136   4.645   1.343
 6449SOL     OW20245   3.255   5.430   1.916
 6449SOL    HW120246   3.280   5.493   1.989
 6449SOL    HW220247   3.249   5.337   1.953
 6450SOL     OW20248   1.220   3.172   0.412
 6450SOL    HW120249   1.193   3.163   0.508
 6450SOL    HW220250   1.252   3.265   0.396
 6451SOL     OW20251   2.318   0.982   5.695
 6451SOL    HW120252   2.244   0.940   5.642
 6451SOL    HW220253   2.279   1.044   5.763
 6452SOL     OW20254   4.809   4.100   2.587
 6452SOL    HW120255   4.909   4.094   2.593
 6452SOL    HW220256   4.768   4.037   2.653
 6453SOL     OW20257   2.510   0.671   1.745
 6453SOL    HW120258   2.507   0.651   1.647
 6453SOL    HW220259   2.604   0.687   1.773
 6454SOL     OW20260   1.039   1.006   2.935
 6454SOL    HW120261   1.117   0.993   2.996
 6454SOL    HW220262   0.970   1.061   2.981
 6455SOL     OW20263   6.674   3.089   3.498
 6455SOL    HW120264   6.576   3.110   3.487
 6455SOL    HW220265   6.722   3.114   3.415
 6456SOL     OW20266   1.341   0.991   3.652
 6456SOL    HW120267   1.358   0.918   3.718
 6456SOL    HW220268   1.398   1.070   3.675
 6457SOL     OW20269   5.495   0.329   1.555
 6457SOL    HW120270   5.398   0.350   1.544
 6457SOL    HW220271   5.521   0.341   1.651
 6458SOL     OW20272   1.580   4.851   4.347
 6458SOL    HW120273   1.590   4.948   4.327
 6458SOL    HW220274   1.616   4.831   4.438
 6459SOL     OW20275   6.207   2.841   2.309
 6459SOL    HW120276   6.191   2.891   2.224
 6459SOL    HW220277   6.185   2.744   2.296
 6460SOL     OW20278   5.889   6.062   6.199
 6460SOL    HW120279   5.849   6.152   6.187
 6460SOL    HW220280   5.893   6.015   6.111
 6461SOL     OW20281   2.766   4.369   6.937
 6461SOL    HW120282   2.836   4.306   6.904
 6461SOL    HW220283   2.712   4.324   7.008
 6462SOL     OW20284   1.428   2.685   4.570
 6462SOL    HW120285   1.481   2.641   4.643
 6462SOL    HW220286   1.451   2.782   4.565
 6463SOL     OW20287   5.248   0.514   0.431
 6463SOL    HW120288   5.242   0.513   0.331
 6463SOL    HW220289   5.241   0.420   0.465
 6464SOL     OW20290   1.980   5.361   5.079
 6464SOL    HW120291   1.959   5.280   5.134
 6464SOL    HW220292   2.078   5.381   5.085
 6465SOL     OW20293   0.167   3.041   3.011
 6465SOL    HW120294   0.109   2.999   2.942
 6465SOL    HW220295   0.192   3.133   2.983
 6466SOL     OW20296   5.993   1.133   6.344
 6466SOL    HW120297   6.014   1.160   6.250
 6466SOL    HW220298   5.925   1.196   6.382
 6467SOL     OW20299   3.755   0.396   1.076
 6467SOL    HW120300   3.713   0.447   1.000
 6467SOL    HW220301   3.797   0.461   1.139
 6468SOL     OW20302   3.483   6.529   1.579
 6468SOL    HW120303   3.526   6.572   1.659
 6468SOL    HW220304   3.494   6.430   1.585
 6469SOL     OW20305   4.036   2.165   3.514
 6469SOL    HW120306   4.038   2.068   3.540
 6469SOL    HW220307   4.110   2.213   3.560
 6470SOL     OW20308   6.190   3.026   0.972
 6470SOL    HW120309   6.170   3.032   0.874
 6470SOL    HW220310   6.148   2.945   1.010
 6471SOL     OW20311   0.303   6.625   5.308
 6471SOL    HW120312   0.383   6.674   5.342
 6471SOL    HW220313   0.220   6.662   5.351
 6472SOL     OW20314   6.578   6.094   2.456
 6472SOL    HW120315   6.588   5.997   2.477
 6472SOL    HW220316   6.570   6.146   2.542
 6473SOL     OW20317   2.650   1.789   4.608
 6473SOL    HW120318   2.717   1.843   4.659
 6473SOL    HW220319   2.587   1.745   4.673
 6474SOL     OW20320   4.522   5.990   5.629
 6474SOL    HW120321   4.609   5.953   5.661
 6474SOL    HW220322   4.480   6.045   5.701
 6475SOL     OW20323   5.801   4.379   3.879
 6475SOL    HW120324   5.704   4.385   3.905
 6475SOL    HW220325   5.858   4.408   3.955
 6476SOL     OW20326   5.168   3.024   0.318
 6476SOL    HW120327   5.262   2.990   0.314
 6476SOL    HW220328   5.145   3.068   0.232
 6477SOL     OW20329   6.489   5.097   0.289
 6477SOL    HW120330   6.465   5.156   0.365
 6477SOL    HW220331   6.574   5.049   0.309
 6478SOL     OW20332   2.748   6.635   2.601
 6478SOL    HW120333   2.720   6.552   2.552
 6478SOL    HW220334   2.813   6.687   2.546
 6479SOL     OW20335   3.942   5.638   4.265
 6479SOL    HW120336   4.027   5.640   4.210
 6479SOL    HW220337   3.947   5.706   4.337
 6480SOL     OW20338   2.601   1.027   6.903
 6480SOL    HW120339   2.564   1.092   6.837
 6480SOL    HW220340   2.619   0.939   6.857
 6481SOL     OW20341   3.431   2.277   1.728
 6481SOL    HW120342   3.366   2.229   1.788
 6481SOL    HW220343   3.520   2.281   1.772
 6482SOL     OW20344   5.903   1.754   6.626
 6482SOL    HW120345   5.880   1.772   6.721
 6482SOL    HW220346   5.986   1.804   6.601
 6483SOL     OW20347   6.653   6.888   3.175
 6483SOL    HW120348   6.744   6.893   3.214
 6483SOL    HW220349   6.649   6.815   3.106
 6484SOL     OW20350   3.039   0.854   2.385
 6484SOL    HW120351   3.045   0.946   2.345
 6484SOL    HW220352   3.097   0.849   2.466
 6485SOL     OW20353   2.287   5.236   3.707
 6485SOL    HW120354   2.192   5.246   3.736
 6485SOL    HW220355   2.315   5.318   3.656
 6486SOL     OW20356   1.091   4.700   2.387
 6486SOL    HW120357   1.075   4.737   2.478
 6486SOL    HW220358   1.155   4.624   2.393
 6487SOL     OW20359   1.262   6.769   5.501
 6487SOL    HW120360   1.361   6.771   5.514
 6487SOL    HW220361   1.235   6.682   5.460
 6488SOL     OW20362   4.106   5.835   4.444
 6488SOL    HW120363   4.177   5.905   4.440
 6488SOL    HW220364   4.069   5.830   4.537
 6489SOL     OW20365   3.810   3.309   6.276
 6489SOL    HW120366   3.716   3.308   6.241
 6489SOL    HW220367   3.811   3.278   6.371
 6490SOL     OW20368   3.910   1.073   6.136
 6490SOL    HW120369   3.819   1.102   6.104
 6490SOL    HW220370   3.948   1.006   6.073
 6491SOL     OW20371   3.179   0.469   1.202
 6491SOL    HW120372   3.123   0.421   1.270
 6491SOL    HW220373   3.121   0.532   1.150
 6492SOL     OW20374   3.801   3.908   5.610
 6492SOL    HW120375   3.820   3.930   5.514
 6492SOL    HW220376   3.888   3.904   5.660
 6493SOL     OW20377   1.169   4.278   6.390
 6493SOL    HW120378   1.178   4.308   6.295
 6493SOL    HW220379   1.192   4.181   6.397
 6494SOL     OW20380   0.363   6.966   2.731
 6494SOL    HW120381   0.414   6.978   2.816
 6494SOL    HW220382   0.348   0.036   2.688
 6495SOL     OW20383   7.016   0.915   4.420
 6495SOL    HW120384   6.946   0.847   4.397
 6495SOL    HW220385   0.005   0.981   4.346
 6496SOL     OW20386   5.853   1.086   2.619
 6496SOL    HW120387   5.759   1.118   2.620
 6496SOL    HW220388   5.914   1.160   2.645
 6497SOL     OW20389   0.654   0.691   1.427
 6497SOL    HW120390   0.714   0.626   1.381
 6497SOL    HW220391   0.681   0.784   1.404
 6498SOL     OW20392   0.948   3.710   4.603
 6498SOL    HW120393   0.898   3.633   4.563
 6498SOL    HW220394   0.884   3.782   4.628
 6499SOL     OW20395   5.562   3.815   5.610
 6499SOL    HW120396   5.529   3.894   5.661
 6499SOL    HW220397   5.658   3.829   5.585
 6500SOL     OW20398   6.706   4.106   3.750
 6500SOL    HW120399   6.780   4.126   3.814
 6500SOL    HW220400   6.719   4.159   3.666
 6501SOL     OW20401   6.528   1.201   0.740
 6501SOL    HW120402   6.595   1.266   0.703
 6501SOL    HW220403   6.443   1.207   0.687
 6502SOL     OW20404   7.015   4.085   2.348
 6502SOL    HW120405   0.056   4.021   2.396
 6502SOL    HW220406   6.978   4.041   2.266
 6503SOL     OW20407   5.486   1.157   3.721
 6503SOL    HW120408   5.517   1.142   3.815
 6503SOL    HW220409   5.548   1.219   3.674
 6504SOL     OW20410   3.523   6.506   6.124
 6504SOL    HW120411   3.529   6.407   6.139
 6504SOL    HW220412   3.478   6.549   6.203
 6505SOL     OW20413   5.676   6.544   6.350
 6505SOL    HW120414   5.590   6.559   6.399
 6505SOL    HW220415   5.720   6.632   6.333
 6506SOL     OW20416   0.187   2.805   3.125
 6506SOL    HW120417   0.190   2.743   3.046
 6506SOL    HW220418   0.177   2.899   3.093
 6507SOL     OW20419   2.552   5.695   6.464
 6507SOL    HW120420   2.573   5.762   6.534
 6507SOL    HW220421   2.618   5.702   6.390
 6508SOL     OW20422   1.556   0.722   2.913
 6508SOL    HW120423   1.498   0.681   2.983
 6508SOL    HW220424   1.552   0.822   2.922
 6509SOL     OW20425   4.642   2.204   4.567
 6509SOL    HW120426   4.692   2.262   4.503
 6509SOL    HW220427   4.594   2.261   4.633
 6510SOL     OW20428   6.322   4.884   6.895
 6510SOL    HW120429   6.396   4.952   6.902
 6510SOL    HW220430   6.235   4.931   6.881
 6511SOL     OW20431   4.276   0.882   4.596
 6511SOL    HW120432   4.243   0.874   4.501
 6511SOL    HW220433   4.225   0.954   4.643
 6512SOL     OW20434   3.571   6.900   2.280
 6512SOL    HW120435   3.649   6.904   2.342
 6512SOL    HW220436   3.540   6.805   2.271
 6513SOL     OW20437   2.646   5.519   3.434
 6513SOL    HW120438   2.662   5.522   3.335
 6513SOL    HW220439   2.566   5.574   3.456
 6514SOL     OW20440   5.737   1.440   4.574
 6514SOL    HW120441   5.640   1.461   4.581
 6514SOL    HW220442   5.770   1.405   4.662
 6515SOL     OW20443   1.516   3.426   3.326
 6515SOL    HW120444   1.498   3.328   3.328
 6515SOL    HW220445   1.433   3.476   3.351
 6516SOL     OW20446   0.554   3.149   1.168
 6516SOL    HW120447   0.602   3.228   1.205
 6516SOL    HW220448   0.458   3.171   1.154
 6517SOL     OW20449   6.734   1.715   1.992
 6517SOL    HW120450   6.758   1.740   2.086
 6517SOL    HW220451   6.817   1.711   1.936
 6518SOL     OW20452   0.380   0.577   1.427
 6518SOL    HW120453   0.462   0.636   1.424
 6518SOL    HW220454   0.381   0.514   1.351
 6519SOL     OW20455   0.245   1.380   2.733
 6519SOL    HW120456   0.308   1.335   2.669
 6519SOL    HW220457   0.273   1.361   2.827
 6520SOL     OW20458   0.254   4.894   0.006
 6520SOL    HW120459   0.352   4.903   0.026
 6520SOL    HW220460   0.212   4.834   0.074
 6521SOL     OW20461   1.979   2.765   4.550
 6521SOL    HW120462   1.912   2.703   4.508
 6521SOL    HW220463   1.934   2.851   4.573
 6522SOL     OW20464   3.191   4.981   5.780
 6522SOL    HW120465   3.121   5.009   5.714
 6522SOL    HW220466   3.199   5.051   5.852
 6523SOL     OW20467   3.976   0.671   0.270
 6523SOL    HW120468   4.029   0.756   0.266
 6523SOL    HW220469   4.038   0.593   0.261
 6524SOL     OW20470   2.436   3.140   1.236
 6524SOL    HW120471   2.497   3.215   1.263
 6524SOL    HW220472   2.369   3.124   1.308
 6525SOL     OW20473   2.069   4.501   2.598
 6525SOL    HW120474   1.982   4.533   2.638
 6525SOL    HW220475   2.121   4.452   2.668
 6526SOL     OW20476   1.155   0.351   1.560
 6526SOL    HW120477   1.073   0.319   1.609
 6526SOL    HW220478   1.228   0.284   1.570
 6527SOL     OW20479   6.601   2.223   6.665
 6527SOL    HW120480   6.506   2.247   6.646
 6527SOL    HW220481   6.613   2.124   6.653
 6528SOL     OW20482   5.841   1.307   5.432
 6528SOL    HW120483   5.840   1.209   5.456
 6528SOL    HW220484   5.890   1.319   5.346
 6529SOL     OW20485   2.066   0.678   2.521
 6529SOL    HW120486   2.153   0.650   2.563
 6529SOL    HW220487   2.008   0.598   2.507
 6530SOL     OW20488   0.034   2.096   1.144
 6530SOL    HW120489   6.964   2.098   1.189
 6530SOL    HW220490   0.106   2.112   1.212
 6531SOL     OW20491   5.106   3.138   4.993
 6531SOL    HW120492   5.094   3.237   4.992
 6531SOL    HW220493   5.023   3.095   5.029
 6532SOL     OW20494   0.974   1.182   1.014
 6532SOL    HW120495   0.993   1.270   0.970
 6532SOL    HW220496   0.920   1.198   1.097
 6533SOL     OW20497   4.097   6.087   0.372
 6533SOL    HW120498   4.138   6.139   0.446
 6533SOL    HW220499   4.170   6.043   0.319
 6534SOL     OW20500   5.393   4.917   1.570
 6534SOL    HW120501   5.327   4.960   1.508
 6534SOL    HW220502   5.472   4.885   1.519
 6535SOL     OW20503   6.838   4.460   4.357
 6535SOL    HW120504   6.770   4.407   4.408
 6535SOL    HW220505   6.864   4.410   4.274
 6536SOL     OW20506   0.812   2.156   5.117
 6536SOL    HW120507   0.722   2.186   5.084
 6536SOL    HW220508   0.840   2.074   5.067
 6537SOL     OW20509   0.199   4.532   6.498
 6537SOL    HW120510   0.120   4.471   6.507
 6537SOL    HW220511   0.201   4.572   6.406
 6538SOL     OW20512   2.123   3.888   5.485
 6538SOL    HW120513   2.171   3.875   5.398
 6538SOL    HW220514   2.087   3.981   5.489
 6539SOL     OW20515   4.927   0.855   0.014
 6539SOL    HW120516   5.017   0.812   0.010
 6539SOL    HW220517   4.935   0.952   7.010
 6540SOL     OW20518   3.863   2.449   6.098
 6540SOL    HW120519   3.905   2.513   6.162
 6540SOL    HW220520   3.885   2.355   6.125
 6541SOL     OW20521   5.126   1.325   5.080
 6541SOL    HW120522   5.072   1.270   5.143
 6541SOL    HW220523   5.134   1.418   5.116
 6542SOL     OW20524   0.550   2.706   3.865
 6542SOL    HW120525   0.546   2.789   3.922
 6542SOL    HW220526   0.538   2.626   3.923
 6543SOL     OW20527   4.509   3.105   5.307
 6543SOL    HW120528   4.490   3.007   5.300
 6543SOL    HW220529   4.424   3.157   5.301
 6544SOL     OW20530   1.379   6.882   3.626
 6544SOL    HW120531   1.372   6.855   3.723
 6544SOL    HW220532   1.371   6.801   3.569
 6545SOL     OW20533   4.199   0.467   0.919
 6545SOL    HW120534   4.274   0.402   0.908
 6545SOL    HW220535   4.233   0.548   0.967
 6546SOL     OW20536   2.592   3.964   5.804
 6546SOL    HW120537   2.511   3.927   5.757
 6546SOL    HW220538   2.604   4.060   5.779
 6547SOL     OW20539   4.718   0.888   6.843
 6547SOL    HW120540   4.766   0.852   6.923
 6547SOL    HW220541   4.699   0.985   6.856
 6548SOL     OW20542   1.501   4.043   1.336
 6548SOL    HW120543   1.481   4.120   1.275
 6548SOL    HW220544   1.598   4.041   1.356
 6549SOL     OW20545   4.644   0.837   2.073
 6549SOL    HW120546   4.621   0.748   2.034
 6549SOL    HW220547   4.708   0.825   2.149
 6550SOL     OW20548   6.888   6.667   4.711
 6550SOL    HW120549   6.925   6.716   4.790
 6550SOL    HW220550   6.899   6.722   4.629
 6551SOL     OW20551   2.134   3.625   2.168
 6551SOL    HW120552   2.106   3.532   2.192
 6551SOL    HW220553   2.176   3.624   2.077
 6552SOL     OW20554   1.201   0.355   0.067
 6552SOL    HW120555   1.242   0.281   0.120
 6552SOL    HW220556   1.194   0.328   6.990
 6553SOL     OW20557   0.095   2.177   3.241
 6553SOL    HW120558   0.110   2.221   3.330
 6553SOL    HW220559   0.158   2.101   3.231
 6554SOL     OW20560   1.549   0.230   4.226
 6554SOL    HW120561   1.458   0.204   4.257
 6554SOL    HW220562   1.541   0.293   4.149
 6555SOL     OW20563   4.795   2.209   2.848
 6555SOL    HW120564   4.729   2.185   2.776
 6555SOL    HW220565   4.786   2.144   2.923
 6556SOL     OW20566   5.752   4.508   3.407
 6556SOL    HW120567   5.796   4.506   3.496
 6556SOL    HW220568   5.788   4.585   3.354
 6557SOL     OW20569   2.311   0.357   3.090
 6557SOL    HW120570   2.395   0.392   3.132
 6557SOL    HW220571   2.233   0.409   3.124
 6558SOL     OW20572   6.828   4.824   0.542
 6558SOL    HW120573   6.788   4.806   0.452
 6558SOL    HW220574   6.926   4.840   0.532
 6559SOL     OW20575   0.936   3.918   0.169
 6559SOL    HW120576   1.012   3.974   0.139
 6559SOL    HW220577   0.948   3.825   0.137
 6560SOL     OW20578   4.144   5.037   1.534
 6560SOL    HW120579   4.230   5.011   1.577
 6560SOL    HW220580   4.135   4.991   1.446
 6561SOL     OW20581   3.606   4.196   1.327
 6561SOL    HW120582   3.530   4.133   1.312
 6561SOL    HW220583   3.634   4.236   1.240
 6562SOL     OW20584   5.952   1.978   1.025
 6562SOL    HW120585   5.889   1.978   0.947
 6562SOL    HW220586   5.912   1.927   1.101
 6563SOL     OW20587   4.977   5.435   6.154
 6563SOL    HW120588   5.013   5.517   6.198
 6563SOL    HW220589   5.045   5.361   6.159
 6564SOL     OW20590   6.567   3.463   2.526
 6564SOL    HW120591   6.469   3.475   2.541
 6564SOL    HW220592   6.605   3.543   2.480
 6565SOL     OW20593   5.807   1.071   2.281
 6565SOL    HW120594   5.845   1.027   2.200
 6565SOL    HW220595   5.790   1.002   2.352
 6566SOL     OW20596   3.984   6.542   2.231
 6566SOL    HW120597   4.036   6.516   2.313
 6566SOL    HW220598   4.025   6.624   2.191
 6567SOL     OW20599   4.647   0.568   2.258
 6567SOL    HW120600   4.636   0.663   2.289
 6567SOL    HW220601   4.742   0.540   2.268
 6568SOL     OW20602   3.463   1.791   4.071
 6568SOL    HW120603   3.460   1.728   4.149
 6568SOL    HW220604   3.547   1.846   4.076
 6569SOL     OW20605   2.605   3.065   0.233
 6569SOL    HW120606   2.506   3.058   0.245
 6569SOL    HW220607   2.638   3.149   0.275
 6570SOL     OW20608   2.810   0.749   2.290
 6570SOL    HW120609   2.891   0.800   2.319
 6570SOL    HW220610   2.749   0.737   2.369
 6571SOL     OW20611   3.186   5.149   1.921
 6571SOL    HW120612   3.210   5.188   2.010
 6571SOL    HW220613   3.140   5.061   1.935
 6572SOL     OW20614   0.143   4.118   4.485
 6572SOL    HW120615   0.075   4.140   4.416
 6572SOL    HW220616   0.191   4.033   4.459
 6573SOL     OW20617   0.377   1.852   2.469
 6573SOL    HW120618   0.397   1.867   2.373
 6573SOL    HW220619   0.378   1.754   2.489
 6574SOL     OW20620   2.268   5.587   2.852
 6574SOL    HW120621   2.183   5.545   2.821
 6574SOL    HW220622   2.263   5.601   2.951
 6575SOL     OW20623   0.826   6.980   3.839
 6575SOL    HW120624   0.745   0.000   3.795
 6575SOL    HW220625   0.811   6.882   3.854
 6576SOL     OW20626   2.624   6.534   0.164
 6576SOL    HW120627   2.703   6.534   0.226
 6576SOL    HW220628   2.583   6.443   0.162
 6577SOL     OW20629   1.121   1.765   3.354
 6577SOL    HW120630   1.093   1.719   3.438
 6577SOL    HW220631   1.217   1.792   3.360
 6578SOL     OW20632   0.654   6.151   2.478
 6578SOL    HW120633   0.666   6.251   2.480
 6578SOL    HW220634   0.716   6.111   2.411
 6579SOL     OW20635   0.244   3.363   3.252
 6579SOL    HW120636   0.235   3.453   3.295
 6579SOL    HW220637   0.178   3.300   3.292
 6580SOL     OW20638   0.149   1.741   0.570
 6580SOL    HW120639   0.194   1.679   0.506
 6580SOL    HW220640   0.207   1.821   0.585
 6581SOL     OW20641   2.379   0.439   0.416
 6581SOL    HW120642   2.287   0.472   0.437
 6581SOL    HW220643   2.374   0.342   0.391
 6582SOL     OW20644   0.013   1.320   3.323
 6582SOL    HW120645   0.008   1.420   3.325
 6582SOL    HW220646   6.943   1.283   3.299
 6583SOL     OW20647   4.947   0.240   6.082
 6583SOL    HW120648   4.908   0.157   6.122
 6583SOL    HW220649   4.882   0.280   6.017
 6584SOL     OW20650   4.447   2.254   0.489
 6584SOL    HW120651   4.482   2.226   0.399
 6584SOL    HW220652   4.516   2.237   0.559
 6585SOL     OW20653   6.356   5.944   0.221
 6585SOL    HW120654   6.322   5.916   0.311
 6585SOL    HW220655   6.329   5.876   0.153
 6586SOL     OW20656   6.023   1.123   5.942
 6586SOL    HW120657   5.971   1.117   5.857
 6586SOL    HW220658   6.100   1.059   5.938
 6587SOL     OW20659   2.006   5.019   5.588
 6587SOL    HW120660   1.936   5.087   5.569
 6587SOL    HW220661   2.079   5.060   5.644
 6588SOL     OW20662   0.290   2.788   1.800
 6588SOL    HW120663   0.304   2.690   1.783
 6588SOL    HW220664   0.195   2.812   1.779
 6589SOL     OW20665   4.630   0.120   1.539
 6589SOL    HW120666   4.730   0.116   1.535
 6589SOL    HW220667   4.600   0.128   1.634
 6590SOL     OW20668   7.019   1.096   6.703
 6590SOL    HW120669   0.061   1.041   6.760
 6590SOL    HW220670   0.002   1.191   6.734
 6591SOL     OW20671   6.442   5.746   3.379
 6591SOL    HW120672   6.498   5.664   3.368
 6591SOL    HW220673   6.402   5.747   3.471
 6592SOL     OW20674   5.134   6.754   3.135
 6592SOL    HW120675   5.230   6.739   3.112
 6592SOL    HW220676   5.128   6.816   3.213
 6593SOL     OW20677   2.313   2.326   2.998
 6593SOL    HW120678   2.327   2.227   3.008
 6593SOL    HW220679   2.360   2.358   2.916
 6594SOL     OW20680   3.999   1.306   6.285
 6594SOL    HW120681   3.939   1.312   6.364
 6594SOL    HW220682   3.975   1.226   6.230
 6595SOL     OW20683   1.386   4.293   6.788
 6595SOL    HW120684   1.463   4.243   6.748
 6595SOL    HW220685   1.417   4.385   6.815
 6596SOL     OW20686   3.362   0.033   4.312
 6596SOL    HW120687   3.345   0.091   4.232
 6596SOL    HW220688   3.301   6.973   4.309
 6597SOL     OW20689   1.081   5.772   0.979
 6597SOL    HW120690   1.082   5.801   1.075
 6597SOL    HW220691   1.061   5.851   0.921
 6598SOL     OW20692   1.926   4.487   4.003
 6598SOL    HW120693   1.834   4.469   3.968
 6598SOL    HW220694   1.920   4.531   4.092
 6599SOL     OW20695   4.112   6.423   6.208
 6599SOL    HW120696   4.179   6.444   6.278
 6599SOL    HW220697   4.020   6.424   6.248
 6600SOL     OW20698   3.570   6.228   5.576
 6600SOL    HW120699   3.523   6.312   5.601
 6600SOL    HW220700   3.641   6.248   5.508
 6601SOL     OW20701   1.694   2.057   4.940
 6601SOL    HW120702   1.675   2.114   5.019
 6601SOL    HW220703   1.611   2.049   4.884
 6602SOL     OW20704   1.981   0.643   1.612
 6602SOL    HW120705   1.911   0.668   1.678
 6602SOL    HW220706   1.967   0.694   1.527
 6603SOL     OW20707   0.413   3.208   3.105
 6603SOL    HW120708   0.467   3.164   3.176
 6603SOL    HW220709   0.350   3.274   3.147
 6604SOL     OW20710   1.262   6.625   1.445
 6604SOL    HW120711   1.207   6.617   1.362
 6604SOL    HW220712   1.359   6.635   1.420
 6605SOL     OW20713   5.664   5.748   1.717
 6605SOL    HW120714   5.744   5.744   1.776
 6605SOL    HW220715   5.587   5.703   1.762
 6606SOL     OW20716   0.304   5.606   2.293
 6606SOL    HW120717   0.226   5.581   2.351
 6606SOL    HW220718   0.342   5.693   2.323
 6607SOL     OW20719   1.349   4.693   3.077
 6607SOL    HW120720   1.335   4.771   3.016
 6607SOL    HW220721   1.446   4.681   3.096
 6608SOL     OW20722   6.339   6.918   0.134
 6608SOL    HW120723   6.317   6.821   0.129
 6608SOL    HW220724   6.427   6.931   0.180
 6609SOL     OW20725   5.771   0.967   0.264
 6609SOL    HW120726   5.723   0.882   0.243
 6609SOL    HW220727   5.868   0.958   0.241
 6610SOL     OW20728   2.268   6.388   6.921
 6610SOL    HW120729   2.299   6.322   6.852
 6610SOL    HW220730   2.168   6.394   6.919
 6611SOL     OW20731   4.830   3.029   3.245
 6611SOL    HW120732   4.824   2.934   3.216
 6611SOL    HW220733   4.764   3.084   3.194
 6612SOL     OW20734   6.161   1.818   6.496
 6612SOL    HW120735   6.207   1.853   6.578
 6612SOL    HW220736   6.228   1.778   6.434
 6613SOL     OW20737   6.594   6.083   5.409
 6613SOL    HW120738   6.601   5.998   5.357
 6613SOL    HW220739   6.501   6.120   5.402
 6614SOL     OW20740   4.653   4.910   6.813
 6614SOL    HW120741   4.670   4.812   6.825
 6614SOL    HW220742   4.636   4.951   6.903
 6615SOL     OW20743   1.397   5.913   1.178
 6615SOL    HW120744   1.353   5.984   1.234
 6615SOL    HW220745   1.362   5.919   1.085
 6616SOL     OW20746   4.516   0.042   6.337
 6616SOL    HW120747   4.464   0.127   6.343
 6616SOL    HW220748   4.553   0.020   6.427
 6617SOL     OW20749   4.266   5.277   2.992
 6617SOL    HW120750   4.308   5.199   3.039
 6617SOL    HW220751   4.183   5.304   3.040
 6618SOL     OW20752   1.506   2.269   2.433
 6618SOL    HW120753   1.440   2.199   2.460
 6618SOL    HW220754   1.547   2.244   2.345
 6619SOL     OW20755   5.507   0.067   3.099
 6619SOL    HW120756   5.470   7.009   3.047
 6619SOL    HW220757   5.434   0.112   3.149
 6620SOL     OW20758   1.963   2.517   5.387
 6620SOL    HW120759   1.959   2.530   5.486
 6620SOL    HW220760   2.004   2.429   5.367
 6621SOL     OW20761   3.562   3.345   6.170
 6621SOL    HW120762   3.497   3.296   6.112
 6621SOL    HW220763   3.512   3.399   6.237
 6622SOL     OW20764   5.901   6.050   2.082
 6622SOL    HW120765   5.933   6.142   2.101
 6622SOL    HW220766   5.967   6.003   2.024
 6623SOL     OW20767   3.536   2.909   4.685
 6623SOL    HW120768   3.545   2.841   4.758
 6623SOL    HW220769   3.626   2.946   4.663
 6624SOL     OW20770   6.810   4.218   5.550
 6624SOL    HW120771   6.775   4.307   5.580
 6624SOL    HW220772   6.893   4.232   5.496
 6625SOL     OW20773   5.135   1.876   5.132
 6625SOL    HW120774   5.091   1.939   5.067
 6625SOL    HW220775   5.227   1.908   5.153
 6626SOL     OW20776   3.417   6.723   5.428
 6626SOL    HW120777   3.404   6.710   5.527
 6626SOL    HW220778   3.496   6.668   5.398
 6627SOL     OW20779   1.787   6.592   5.272
 6627SOL    HW120780   1.688   6.580   5.280
 6627SOL    HW220781   1.831   6.555   5.353
 6628SOL     OW20782   6.115   4.830   4.642
 6628SOL    HW120783   6.077   4.754   4.695
 6628SOL    HW220784   6.193   4.869   4.691
 6629SOL     OW20785   4.650   6.589   6.369
 6629SOL    HW120786   4.622   6.526   6.442
 6629SOL    HW220787   4.655   6.682   6.406
 6630SOL     OW20788   3.442   2.124   1.468
 6630SOL    HW120789   3.433   2.026   1.483
 6630SOL    HW220790   3.439   2.171   1.556
 6631SOL     OW20791   2.342   5.722   3.726
 6631SOL    HW120792   2.250   5.761   3.722
 6631SOL    HW220793   2.347   5.657   3.801
 6632SOL     OW20794   1.237   0.864   1.078
 6632SOL    HW120795   1.323   0.912   1.060
 6632SOL    HW220796   1.256   0.768   1.099
 6633SOL     OW20797   2.568   5.116   6.167
 6633SOL    HW120798   2.658   5.157   6.183
 6633SOL    HW220799   2.576   5.017   6.168
 6634SOL     OW20800   5.055   1.496   4.593
 6634SOL    HW120801   5.030   1.432   4.665
 6634SOL    HW220802   5.062   1.589   4.631
 6635SOL     OW20803   4.598   4.318   2.774
 6635SOL    HW120804   4.647   4.360   2.698
 6635SOL    HW220805   4.570   4.226   2.750
 6636SOL     OW20806   4.687   1.760   6.848
 6636SOL    HW120807   4.767   1.754   6.789
 6636SOL    HW220808   4.705   1.715   6.935
 6637SOL     OW20809   0.822   6.981   6.903
 6637SOL    HW120810   0.827   6.891   6.861
 6637SOL    HW220811   0.863   0.030   6.842
 6638SOL     OW20812   3.427   3.573   3.200
 6638SOL    HW120813   3.359   3.506   3.230
 6638SOL    HW220814   3.392   3.624   3.121
 6639SOL     OW20815   4.971   4.635   6.681
 6639SOL    HW120816   4.980   4.544   6.722
 6639SOL    HW220817   5.030   4.699   6.729
 6640SOL     OW20818   6.504   2.182   4.765
 6640SOL    HW120819   6.423   2.157   4.712
 6640SOL    HW220820   6.488   2.270   4.811
 6641SOL     OW20821   2.969   1.301   6.925
 6641SOL    HW120822   2.899   1.308   6.996
 6641SOL    HW220823   3.059   1.308   6.966
 6642SOL     OW20824   2.401   6.018   6.835
 6642SOL    HW120825   2.326   5.953   6.831
 6642SOL    HW220826   2.449   6.019   6.747
 6643SOL     OW20827   5.213   6.259   0.188
 6643SOL    HW120828   5.256   6.248   0.278
 6643SOL    HW220829   5.274   6.312   0.129
 6644SOL     OW20830   2.907   5.431   1.155
 6644SOL    HW120831   2.828   5.383   1.115
 6644SOL    HW220832   2.982   5.366   1.168
 6645SOL     OW20833   5.634   4.131   0.782
 6645SOL    HW120834   5.669   4.199   0.718
 6645SOL    HW220835   5.602   4.177   0.866
 6646SOL     OW20836   4.220   0.955   5.070
 6646SOL    HW120837   4.158   0.922   5.141
 6646SOL    HW220838   4.257   0.878   5.019
 6647SOL     OW20839   4.721   0.416   1.322
 6647SOL    HW120840   4.778   0.333   1.321
 6647SOL    HW220841   4.750   0.475   1.397
 6648SOL     OW20842   3.521   6.639   3.855
 6648SOL    HW120843   3.610   6.609   3.888
 6648SOL    HW220844   3.499   6.591   3.769
 6649SOL     OW20845   5.686   1.677   6.481
 6649SOL    HW120846   5.765   1.677   6.542
 6649SOL    HW220847   5.718   1.671   6.386
 6650SOL     OW20848   4.019   1.285   5.907
 6650SOL    HW120849   4.002   1.221   5.982
 6650SOL    HW220850   4.113   1.319   5.911
 6651SOL     OW20851   2.132   0.551   5.792
 6651SOL    HW120852   2.089   0.462   5.775
 6651SOL    HW220853   2.211   0.538   5.852
 6652SOL     OW20854   0.223   4.127   6.742
 6652SOL    HW120855   0.265   4.116   6.832
 6652SOL    HW220856   0.214   4.037   6.698
 6653SOL     OW20857   3.929   4.337   1.598
 6653SOL    HW120858   3.916   4.238   1.586
 6653SOL    HW220859   3.867   4.370   1.668
 6654SOL     OW20860   2.130   5.285   1.306
 6654SOL    HW120861   2.059   5.271   1.376
 6654SOL    HW220862   2.088   5.291   1.216
 6655SOL     OW20863   0.547   6.622   3.934
 6655SOL    HW120864   0.509   6.675   4.010
 6655SOL    HW220865   0.473   6.593   3.873
 6656SOL     OW20866   5.770   2.210   3.177
 6656SOL    HW120867   5.750   2.194   3.274
 6656SOL    HW220868   5.693   2.179   3.122
 6657SOL     OW20869   5.602   4.781   5.941
 6657SOL    HW120870   5.636   4.874   5.956
 6657SOL    HW220871   5.526   4.783   5.877
 6658SOL     OW20872   4.930   0.986   4.891
 6658SOL    HW120873   4.886   0.995   4.802
 6658SOL    HW220874   5.019   0.943   4.880
 6659SOL     OW20875   2.490   2.508   0.615
 6659SOL    HW120876   2.527   2.441   0.550
 6659SOL    HW220877   2.394   2.489   0.632
 6660SOL     OW20878   1.910   4.369   1.424
 6660SOL    HW120879   1.969   4.319   1.487
 6660SOL    HW220880   1.823   4.389   1.469
 6661SOL     OW20881   1.604   0.432   5.131
 6661SOL    HW120882   1.690   0.382   5.144
 6661SOL    HW220883   1.606   0.479   5.042
 6662SOL     OW20884   1.071   0.365   0.400
 6662SOL    HW120885   1.116   0.295   0.344
 6662SOL    HW220886   1.058   0.330   0.493
 6663SOL     OW20887   6.567   6.063   4.597
 6663SOL    HW120888   6.475   6.068   4.636
 6663SOL    HW220889   6.572   6.119   4.515
 6664SOL     OW20890   2.357   6.863   0.629
 6664SOL    HW120891   2.274   6.901   0.668
 6664SOL    HW220892   2.430   6.931   0.631
 6665SOL     OW20893   1.629   6.204   4.551
 6665SOL    HW120894   1.632   6.172   4.456
 6665SOL    HW220895   1.543   6.174   4.593
 6666SOL     OW20896   6.223   6.532   6.326
 6666SOL    HW120897   6.305   6.585   6.304
 6666SOL    HW220898   6.239   6.480   6.409
 6667SOL     OW20899   6.968   6.610   6.038
 6667SOL    HW120900   6.996   6.525   6.084
 6667SOL    HW220901   6.870   6.605   6.019
 6668SOL     OW20902   6.985   5.855   1.023
 6668SOL    HW120903   6.959   5.817   0.934
 6668SOL    HW220904   7.005   5.780   1.086
 6669SOL     OW20905   2.848   1.831   1.982
 6669SOL    HW120906   2.848   1.818   2.081
 6669SOL    HW220907   2.884   1.922   1.960
 6670SOL     OW20908   3.276   1.553   5.295
 6670SOL    HW120909   3.220   1.595   5.367
 6670SOL    HW220910   3.268   1.606   5.211
 6671SOL     OW20911   4.354   6.691   0.509
 6671SOL    HW120912   4.268   6.651   0.476
 6671SOL    HW220913   4.349   6.704   0.608
 6672SOL     OW20914   6.244   2.843   6.721
 6672SOL    HW120915   6.265   2.819   6.816
 6672SOL    HW220916   6.216   2.761   6.671
 6673SOL     OW20917   4.802   4.364   3.934
 6673SOL    HW120918   4.833   4.269   3.927
 6673SOL    HW220919   4.791   4.388   4.030
 6674SOL     OW20920   0.693   3.296   0.041
 6674SOL    HW120921   0.783   3.262   0.013
 6674SOL    HW220922   0.674   3.383   7.016
 6675SOL     OW20923   5.838   3.560   0.527
 6675SOL    HW120924   5.853   3.465   0.499
 6675SOL    HW220925   5.901   3.584   0.601
 6676SOL     OW20926   0.546   3.627   5.280
 6676SOL    HW120927   0.628   3.641   5.224
 6676SOL    HW220928   0.568   3.645   5.376
 6677SOL     OW20929   1.137   1.827   6.197
 6677SOL    HW120930   1.099   1.772   6.271
 6677SOL    HW220931   1.237   1.833   6.206
 6678SOL     OW20932   3.796   3.622   0.510
 6678SOL    HW120933   3.860   3.699   0.509
 6678SOL    HW220934   3.843   3.540   0.544
 6679SOL     OW20935   3.149   0.794   4.428
 6679SOL    HW120936   3.247   0.815   4.425
 6679SOL    HW220937   3.132   0.726   4.499
 6680SOL     OW20938   4.684   6.850   6.538
 6680SOL    HW120939   4.657   6.946   6.533
 6680SOL    HW220940   4.656   6.812   6.626
 6681SOL     OW20941   4.156   5.268   0.854
 6681SOL    HW120942   4.073   5.278   0.910
 6681SOL    HW220943   4.154   5.180   0.806
 6682SOL     OW20944   2.024   4.641   0.959
 6682SOL    HW120945   2.016   4.548   0.996
 6682SOL    HW220946   2.050   4.704   1.032
 6683SOL     OW20947   6.012   2.930   5.288
 6683SOL    HW120948   5.946   2.975   5.227
 6683SOL    HW220949   5.963   2.879   5.359
 6684SOL     OW20950   3.541   6.253   1.937
 6684SOL    HW120951   3.586   6.211   2.016
 6684SOL    HW220952   3.611   6.284   1.872
 6685SOL     OW20953   5.224   2.855   6.238
 6685SOL    HW120954   5.255   2.760   6.244
 6685SOL    HW220955   5.256   2.895   6.153
 6686SOL     OW20956   5.060   5.382   4.001
 6686SOL    HW120957   5.028   5.471   4.035
 6686SOL    HW220958   5.051   5.314   4.073
 6687SOL     OW20959   0.752   3.209   1.668
 6687SOL    HW120960   0.710   3.130   1.623
 6687SOL    HW220961   0.835   3.180   1.716
 6688SOL     OW20962   5.788   4.358   1.535
 6688SOL    HW120963   5.880   4.325   1.556
 6688SOL    HW220964   5.748   4.301   1.463
 6689SOL     OW20965   3.832   3.602   6.230
 6689SOL    HW120966   3.899   3.557   6.289
 6689SOL    HW220967   3.775   3.664   6.284
 6690SOL     OW20968   0.104   0.283   1.185
 6690SOL    HW120969   0.102   0.322   1.277
 6690SOL    HW220970   0.011   0.263   1.155
 6691SOL     OW20971   2.465   0.361   1.929
 6691SOL    HW120972   2.369   0.334   1.916
 6691SOL    HW220973   2.468   0.455   1.963
 6692SOL     OW20974   3.981   3.721   3.939
 6692SOL    HW120975   4.050   3.713   4.011
 6692SOL    HW220976   3.948   3.815   3.935
 6693SOL     OW20977   3.671   2.167   5.347
 6693SOL    HW120978   3.735   2.241   5.325
 6693SOL    HW220979   3.584   2.206   5.375
 6694SOL     OW20980   3.912   5.367   1.434
 6694SOL    HW120981   4.012   5.361   1.439
 6694SOL    HW220982   3.876   5.407   1.518
 6695SOL     OW20983   3.049   2.176   6.927
 6695SOL    HW120984   3.086   2.177   0.001
 6695SOL    HW220985   3.002   2.262   6.909
 6696SOL     OW20986   3.178   2.971   4.398
 6696SOL    HW120987   3.209   2.937   4.486
 6696SOL    HW220988   3.091   3.019   4.410
 6697SOL     OW20989   4.798   1.738   3.226
 6697SOL    HW120990   4.777   1.641   3.209
 6697SOL    HW220991   4.716   1.783   3.260
 6698SOL     OW20992   3.187   2.171   0.488
 6698SOL    HW120993   3.205   2.094   0.427
 6698SOL    HW220994   3.099   2.212   0.465
 6699SOL     OW20995   2.876   5.892   5.545
 6699SOL    HW120996   2.803   5.932   5.489
 6699SOL    HW220997   2.836   5.829   5.611
 6700SOL     OW20998   0.014   1.046   1.346
 6700SOL    HW120999   6.966   1.060   1.273
 6700SOL    HW221000   0.105   1.075   1.314
 6701SOL     OW21001   5.909   5.335   1.710
 6701SOL    HW121002   5.971   5.412   1.694
 6701SOL    HW221003   5.820   5.356   1.670
 6702SOL     OW21004   2.925   2.066   1.079
 6702SOL    HW121005   2.968   2.037   1.164
 6702SOL    HW221006   2.903   1.985   1.024
 6703SOL     OW21007   6.011   0.284   0.564
 6703SOL    HW121008   5.948   0.362   0.560
 6703SOL    HW221009   5.962   0.202   0.593
 6704SOL     OW21010   3.656   2.096   3.209
 6704SOL    HW121011   3.557   2.110   3.206
 6704SOL    HW221012   3.682   2.062   3.300
 6705SOL     OW21013   6.262   3.791   1.446
 6705SOL    HW121014   6.294   3.756   1.534
 6705SOL    HW221015   6.333   3.778   1.377
 6706SOL     OW21016   1.802   4.887   1.549
 6706SOL    HW121017   1.786   4.924   1.458
 6706SOL    HW221018   1.815   4.962   1.614
 6707SOL     OW21019   5.978   6.733   3.389
 6707SOL    HW121020   6.060   6.767   3.344
 6707SOL    HW221021   5.960   6.640   3.358
 6708SOL     OW21022   6.630   4.670   0.632
 6708SOL    HW121023   6.634   4.598   0.701
 6708SOL    HW221024   6.718   4.717   0.626
 6709SOL     OW21025   2.005   6.551   2.335
 6709SOL    HW121026   2.034   6.458   2.310
 6709SOL    HW221027   1.930   6.580   2.277
 6710SOL     OW21028   4.239   1.311   6.436
 6710SOL    HW121029   4.166   1.290   6.370
 6710SOL    HW221030   4.212   1.390   6.491
 6711SOL     OW21031   4.867   6.494   5.524
 6711SOL    HW121032   4.857   6.395   5.528
 6711SOL    HW221033   4.941   6.523   5.585
 6712SOL     OW21034   5.730   4.339   0.335
 6712SOL    HW121035   5.657   4.331   0.403
 6712SOL    HW221036   5.743   4.250   0.290
 6713SOL     OW21037   2.271   0.561   2.644
 6713SOL    HW121038   2.259   0.466   2.615
 6713SOL    HW221039   2.354   0.598   2.602
 6714SOL     OW21040   6.449   0.787   6.040
 6714SOL    HW121041   6.417   0.724   5.969
 6714SOL    HW221042   6.417   0.755   6.129
 6715SOL     OW21043   0.767   0.312   0.751
 6715SOL    HW121044   0.819   0.232   0.778
 6715SOL    HW221045   0.766   0.378   0.826
 6716SOL     OW21046   0.429   5.503   2.051
 6716SOL    HW121047   0.526   5.500   2.076
 6716SOL    HW221048   0.376   5.539   2.128
 6717SOL     OW21049   3.807   3.095   0.105
 6717SOL    HW121050   3.880   3.030   0.124
 6717SOL    HW221051   3.753   3.111   0.188
 6718SOL     OW21052   5.305   0.945   0.892
 6718SOL    HW121053   5.303   0.891   0.807
 6718SOL    HW221054   5.370   1.020   0.882
 6719SOL     OW21055   2.943   6.710   0.207
 6719SOL    HW121056   3.041   6.697   0.221
 6719SOL    HW221057   2.891   6.646   0.263
 6720SOL     OW21058   1.757   0.024   4.463
 6720SOL    HW121059   1.787   6.948   4.458
 6720SOL    HW221060   1.723   0.052   4.373
 6721SOL     OW21061   6.219   6.436   0.195
 6721SOL    HW121062   6.250   6.386   0.115
 6721SOL    HW221063   6.201   6.531   0.170
 6722SOL     OW21064   6.746   2.998   1.433
 6722SOL    HW121065   6.769   2.929   1.365
 6722SOL    HW221066   6.764   3.089   1.396
 6723SOL     OW21067   1.870   6.832   5.007
 6723SOL    HW121068   1.956   6.797   4.970
 6723SOL    HW221069   1.889   6.892   5.085
 6724SOL     OW21070   2.251   3.748   5.853
 6724SOL    HW121071   2.176   3.789   5.801
 6724SOL    HW221072   2.270   3.656   5.819
 6725SOL     OW21073   0.436   3.568   1.478
 6725SOL    HW121074   0.436   3.667   1.461
 6725SOL    HW221075   0.371   3.524   1.416
 6726SOL     OW21076   1.137   2.437   4.831
 6726SOL    HW121077   1.080   2.355   4.825
 6726SOL    HW221078   1.136   2.471   4.925
 6727SOL     OW21079   0.773   4.328   5.307
 6727SOL    HW121080   0.838   4.328   5.383
 6727SOL    HW221081   0.680   4.318   5.343
 6728SOL     OW21082   3.395   2.082   2.141
 6728SOL    HW121083   3.488   2.084   2.106
 6728SOL    HW221084   3.389   2.137   2.224
 6729SOL     OW21085   5.959   0.877   1.852
 6729SOL    HW121086   6.018   0.957   1.860
 6729SOL    HW221087   5.972   0.833   1.764
 6730SOL     OW21088   1.899   6.721   1.586
 6730SOL    HW121089   1.861   6.681   1.503
 6730SOL    HW221090   1.971   6.786   1.561
 6731SOL     OW21091   1.360   6.291   0.973
 6731SOL    HW121092   1.304   6.238   0.911
 6731SOL    HW221093   1.446   6.242   0.991
 6732SOL     OW21094   5.852   4.446   5.340
 6732SOL    HW121095   5.778   4.509   5.313
 6732SOL    HW221096   5.864   4.451   5.439
 6733SOL     OW21097   3.407   5.424   6.444
 6733SOL    HW121098   3.467   5.351   6.413
 6733SOL    HW221099   3.449   5.512   6.426
 6734SOL     OW21100   5.808   2.431   3.992
 6734SOL    HW121101   5.826   2.448   3.895
 6734SOL    HW221102   5.824   2.335   4.012
 6735SOL     OW21103   6.357   4.219   4.818
 6735SOL    HW121104   6.429   4.280   4.853
 6735SOL    HW221105   6.303   4.268   4.749
 6736SOL     OW21106   3.001   3.804   0.356
 6736SOL    HW121107   2.942   3.788   0.277
 6736SOL    HW221108   3.061   3.882   0.336
 6737SOL     OW21109   1.394   2.791   0.842
 6737SOL    HW121110   1.353   2.723   0.903
 6737SOL    HW221111   1.458   2.746   0.780
 6738SOL     OW21112   1.669   5.930   3.508
 6738SOL    HW121113   1.753   5.877   3.513
 6738SOL    HW221114   1.616   5.901   3.428
 6739SOL     OW21115   4.418   5.977   4.656
 6739SOL    HW121116   4.428   5.878   4.661
 6739SOL    HW221117   4.389   6.003   4.564
 6740SOL     OW21118   0.592   6.827   5.062
 6740SOL    HW121119   0.650   6.747   5.055
 6740SOL    HW221120   0.534   6.820   5.143
 6741SOL     OW21121   4.395   2.002   5.260
 6741SOL    HW121122   4.329   2.049   5.319
 6741SOL    HW221123   4.399   1.905   5.286
 6742SOL     OW21124   5.460   5.939   3.272
 6742SOL    HW121125   5.516   5.894   3.341
 6742SOL    HW221126   5.507   6.020   3.238
 6743SOL     OW21127   4.125   4.628   6.698
 6743SOL    HW121128   4.027   4.613   6.711
 6743SOL    HW221129   4.157   4.576   6.619
 6744SOL     OW21130   6.426   4.276   6.169
 6744SOL    HW121131   6.341   4.316   6.137
 6744SOL    HW221132   6.495   4.282   6.098
 6745SOL     OW21133   0.205   6.799   3.806
 6745SOL    HW121134   0.170   6.722   3.753
 6745SOL    HW221135   0.201   6.883   3.751
 6746SOL     OW21136   0.865   1.086   3.658
 6746SOL    HW121137   0.892   1.041   3.743
 6746SOL    HW221138   0.908   1.176   3.652
 6747SOL     OW21139   5.516   1.562   4.755
 6747SOL    HW121140   5.611   1.556   4.785
 6747SOL    HW221141   5.456   1.564   4.835
 6748SOL     OW21142   2.861   1.903   3.756
 6748SOL    HW121143   2.797   1.827   3.763
 6748SOL    HW221144   2.952   1.868   3.733
 6749SOL     OW21145   3.408   4.442   0.395
 6749SOL    HW121146   3.506   4.448   0.411
 6749SOL    HW221147   3.366   4.532   0.404
 6750SOL     OW21148   3.471   1.862   4.501
 6750SOL    HW121149   3.385   1.859   4.452
 6750SOL    HW221150   3.477   1.782   4.562
 6751SOL     OW21151   5.032   0.229   3.088
 6751SOL    HW121152   5.085   0.223   3.173
 6751SOL    HW221153   5.042   0.143   3.038
 6752SOL     OW21154   1.619   0.972   2.978
 6752SOL    HW121155   1.718   0.962   2.968
 6752SOL    HW221156   1.595   0.969   3.075
 6753SOL     OW21157   2.821   0.738   6.490
 6753SOL    HW121158   2.804   0.835   6.506
 6753SOL    HW221159   2.917   0.717   6.508
 6754SOL     OW21160   6.894   2.005   0.661
 6754SOL    HW121161   6.964   2.004   0.731
 6754SOL    HW221162   6.911   2.080   0.597
 6755SOL     OW21163   4.192   0.744   2.580
 6755SOL    HW121164   4.275   0.699   2.611
 6755SOL    HW221165   4.178   0.726   2.482
 6756SOL     OW21166   3.895   5.331   5.503
 6756SOL    HW121167   3.974   5.391   5.490
 6756SOL    HW221168   3.915   5.263   5.573
 6757SOL     OW21169   3.791   2.430   0.755
 6757SOL    HW121170   3.772   2.416   0.852
 6757SOL    HW221171   3.779   2.343   0.706
 6758SOL     OW21172   6.150   1.967   2.522
 6758SOL    HW121173   6.243   1.985   2.489
 6758SOL    HW221174   6.127   2.033   2.594
 6759SOL     OW21175   1.127   4.375   4.393
 6759SOL    HW121176   1.220   4.401   4.368
 6759SOL    HW221177   1.084   4.325   4.317
 6760SOL     OW21178   6.776   4.179   2.607
 6760SOL    HW121179   6.810   4.088   2.582
 6760SOL    HW221180   6.676   4.178   2.609
 6761SOL     OW21181   6.661   2.477   5.451
 6761SOL    HW121182   6.591   2.412   5.479
 6761SOL    HW221183   6.671   2.548   5.521
 6762SOL     OW21184   0.814   4.903   4.568
 6762SOL    HW121185   0.724   4.870   4.594
 6762SOL    HW221186   0.884   4.842   4.607
 6763SOL     OW21187   0.344   5.424   3.641
 6763SOL    HW121188   0.295   5.338   3.654
 6763SOL    HW221189   0.287   5.486   3.587
 6764SOL     OW21190   1.300   5.983   0.934
 6764SOL    HW121191   1.355   5.993   0.851
 6764SOL    HW221192   1.231   5.912   0.920
 6765SOL     OW21193   5.608   4.714   3.644
 6765SOL    HW121194   5.595   4.810   3.616
 6765SOL    HW221195   5.669   4.710   3.723
 6766SOL     OW21196   5.025   6.643   6.118
 6766SOL    HW121197   5.097   6.613   6.181
 6766SOL    HW221198   4.941   6.593   6.138
 6767SOL     OW21199   2.251   1.631   0.930
 6767SOL    HW121200   2.277   1.657   1.023
 6767SOL    HW221201   2.319   1.569   0.892
 6768SOL     OW21202   1.447   6.446   4.468
 6768SOL    HW121203   1.505   6.419   4.392
 6768SOL    HW221204   1.503   6.485   4.541
 6769SOL     OW21205   2.434   0.294   6.080
 6769SOL    HW121206   2.358   0.357   6.097
 6769SOL    HW221207   2.465   0.303   5.985
 6770SOL     OW21208   5.914   1.547   3.424
 6770SOL    HW121209   5.842   1.494   3.379
 6770SOL    HW221210   5.997   1.490   3.431
 6771SOL     OW21211   3.635   1.226   2.737
 6771SOL    HW121212   3.609   1.237   2.641
 6771SOL    HW221213   3.728   1.190   2.742
 6772SOL     OW21214   4.530   2.486   2.637
 6772SOL    HW121215   4.457   2.471   2.570
 6772SOL    HW221216   4.490   2.504   2.726
 6773SOL     OW21217   0.091   5.790   1.556
 6773SOL    HW121218   0.010   5.845   1.534
 6773SOL    HW221219   0.105   5.790   1.655
 6774SOL     OW21220   0.938   3.877   5.399
 6774SOL    HW121221   1.036   3.887   5.386
 6774SOL    HW221222   0.916   3.781   5.412
 6775SOL     OW21223   2.655   2.350   2.153
 6775SOL    HW121224   2.582   2.335   2.086
 6775SOL    HW221225   2.744   2.338   2.110
 6776SOL     OW21226   4.664   3.973   0.092
 6776SOL    HW121227   4.661   3.873   0.094
 6776SOL    HW221228   4.708   4.006   0.176
 6777SOL     OW21229   4.961   4.708   0.726
 6777SOL    HW121230   4.912   4.745   0.647
 6777SOL    HW221231   5.048   4.668   0.695
 6778SOL     OW21232   6.344   5.745   2.033
 6778SOL    HW121233   6.351   5.705   1.941
 6778SOL    HW221234   6.433   5.780   2.061
 6779SOL     OW21235   5.524   6.071   5.928
 6779SOL    HW121236   5.470   5.993   5.894
 6779SOL    HW221237   5.547   6.055   6.024
 6780SOL     OW21238   1.724   2.640   2.436
 6780SOL    HW121239   1.726   2.632   2.535
 6780SOL    HW221240   1.638   2.680   2.407
 6781SOL     OW21241   6.712   2.466   4.091
 6781SOL    HW121242   6.784   2.486   4.156
 6781SOL    HW221243   6.671   2.552   4.059
 6782SOL     OW21244   0.647   0.838   2.648
 6782SOL    HW121245   0.620   0.919   2.699
 6782SOL    HW221246   0.733   0.857   2.599
 6783SOL     OW21247   6.554   0.983   5.876
 6783SOL    HW121248   6.618   0.943   5.811
 6783SOL    HW221249   6.515   0.911   5.933
 6784SOL     OW21250   1.826   3.410   0.791
 6784SOL    HW121251   1.759   3.484   0.783
 6784SOL    HW221252   1.885   3.427   0.870
 6785SOL     OW21253   6.066   5.597   4.694
 6785SOL    HW121254   6.048   5.501   4.717
 6785SOL    HW221255   6.056   5.610   4.595
 6786SOL     OW21256   1.814   2.065   0.703
 6786SOL    HW121257   1.894   2.102   0.656
 6786SOL    HW221258   1.836   2.049   0.799
 6787SOL     OW21259   2.464   2.413   0.012
 6787SOL    HW121260   2.483   2.506   7.000
 6787SOL    HW221261   2.468   2.350   6.953
 6788SOL     OW21262   1.625   4.368   1.497
 6788SOL    HW121263   1.557   4.308   1.541
 6788SOL    HW221264   1.594   4.389   1.404
 6789SOL     OW21265   1.035   5.103   3.381
 6789SOL    HW121266   1.032   5.035   3.455
 6789SOL    HW221267   0.987   5.186   3.410
 6790SOL     OW21268   0.582   3.716   0.635
 6790SOL    HW121269   0.665   3.722   0.579
 6790SOL    HW221270   0.561   3.806   0.672
 6791SOL     OW21271   3.590   1.976   1.942
 6791SOL    HW121272   3.626   2.063   1.975
 6791SOL    HW221273   3.557   1.987   1.848
 6792SOL     OW21274   5.818   7.012   4.381
 6792SOL    HW121275   5.801   6.923   4.423
 6792SOL    HW221276   5.745   0.015   4.317
 6793SOL     OW21277   2.084   1.274   0.275
 6793SOL    HW121278   1.993   1.304   0.245
 6793SOL    HW221279   2.119   1.205   0.212
 6794SOL     OW21280   4.965   0.804   5.509
 6794SOL    HW121281   4.935   0.766   5.421
 6794SOL    HW221282   4.956   0.734   5.580
 6795SOL     OW21283   1.506   6.384   0.712
 6795SOL    HW121284   1.557   6.383   0.798
 6795SOL    HW221285   1.430   6.449   0.719
 6796SOL     OW21286   5.705   1.230   3.342
 6796SOL    HW121287   5.683   1.298   3.272
 6796SOL    HW221288   5.620   1.194   3.380
 6797SOL     OW21289   6.778   2.579   1.703
 6797SOL    HW121290   6.796   2.677   1.695
 6797SOL    HW221291   6.798   2.549   1.797
 6798SOL     OW21292   6.272   6.521   1.988
 6798SOL    HW121293   6.303   6.564   2.072
 6798SOL    HW221294   6.281   6.421   1.996
 6799SOL     OW21295   6.923   0.315   2.074
 6799SOL    HW121296   6.860   0.253   2.026
 6799SOL    HW221297   6.900   0.410   2.053
 6800SOL     OW21298   2.016   2.832   1.836
 6800SOL    HW121299   2.001   2.734   1.825
 6800SOL    HW221300   1.929   2.880   1.823
 6801SOL     OW21301   0.801   0.126   2.997
 6801SOL    HW121302   0.855   0.042   3.007
 6801SOL    HW221303   0.799   0.175   3.084
 6802SOL     OW21304   3.814   5.971   1.433
 6802SOL    HW121305   3.812   5.898   1.365
 6802SOL    HW221306   3.864   5.940   1.514
 6803SOL     OW21307   3.939   3.535   5.492
 6803SOL    HW121308   3.959   3.548   5.589
 6803SOL    HW221309   4.023   3.550   5.439
 6804SOL     OW21310   3.285   5.242   3.843
 6804SOL    HW121311   3.335   5.222   3.928
 6804SOL    HW221312   3.189   5.214   3.854
 6805SOL     OW21313   0.501   4.758   6.354
 6805SOL    HW121314   0.590   4.802   6.341
 6805SOL    HW221315   0.501   4.706   6.439
 6806SOL     OW21316   6.611   0.570   2.856
 6806SOL    HW121317   6.650   0.632   2.924
 6806SOL    HW221318   6.590   0.482   2.899
 6807SOL     OW21319   3.219   3.533   1.250
 6807SOL    HW121320   3.187   3.599   1.317
 6807SOL    HW221321   3.141   3.494   1.201
 6808SOL     OW21322   6.554   1.955   6.394
 6808SOL    HW121323   6.601   1.917   6.314
 6808SOL    HW221324   6.604   1.929   6.477
 6809SOL     OW21325   0.674   3.357   1.297
 6809SOL    HW121326   0.680   3.384   1.393
 6809SOL    HW221327   0.753   3.299   1.274
 6810SOL     OW21328   1.865   1.252   2.194
 6810SOL    HW121329   1.874   1.287   2.101
 6810SOL    HW221330   1.774   1.273   2.229
 6811SOL     OW21331   5.573   3.619   1.598
 6811SOL    HW121332   5.531   3.639   1.686
 6811SOL    HW221333   5.502   3.587   1.534
 6812SOL     OW21334   3.350   3.447   4.382
 6812SOL    HW121335   3.409   3.487   4.453
 6812SOL    HW221336   3.355   3.348   4.386
 6813SOL     OW21337   5.570   3.574   3.187
 6813SOL    HW121338   5.530   3.485   3.208
 6813SOL    HW221339   5.669   3.564   3.176
 6814SOL     OW21340   3.735   1.927   6.091
 6814SOL    HW121341   3.741   1.982   6.007
 6814SOL    HW221342   3.827   1.903   6.121
 6815SOL     OW21343   3.403   6.170   0.657
 6815SOL    HW121344   3.372   6.223   0.736
 6815SOL    HW221345   3.386   6.072   0.673
 6816SOL     OW21346   6.697   0.687   6.163
 6816SOL    HW121347   6.635   0.689   6.085
 6816SOL    HW221348   6.658   0.740   6.238
 6817SOL     OW21349   2.277   2.400   2.589
 6817SOL    HW121350   2.210   2.464   2.627
 6817SOL    HW221351   2.370   2.432   2.610
 6818SOL     OW21352   2.755   6.420   1.256
 6818SOL    HW121353   2.673   6.458   1.212
 6818SOL    HW221354   2.737   6.327   1.287
 6819SOL     OW21355   3.941   1.658   3.120
 6819SOL    HW121356   3.848   1.693   3.105
 6819SOL    HW221357   3.960   1.586   3.053
 6820SOL     OW21358   2.157   6.226   1.532
 6820SOL    HW121359   2.189   6.280   1.454
 6820SOL    HW221360   2.090   6.159   1.501
 6821SOL     OW21361   4.146   2.104   5.121
 6821SOL    HW121362   4.182   2.018   5.157
 6821SOL    HW221363   4.050   2.093   5.097
 6822SOL     OW21364   5.676   2.168   5.830
 6822SOL    HW121365   5.747   2.227   5.870
 6822SOL    HW221366   5.599   2.224   5.800
 6823SOL     OW21367   5.234   3.452   5.937
 6823SOL    HW121368   5.315   3.493   5.895
 6823SOL    HW221369   5.229   3.355   5.910
 6824SOL     OW21370   1.214   1.584   0.068
 6824SOL    HW121371   1.141   1.607   0.132
 6824SOL    HW221372   1.295   1.639   0.088
 6825SOL     OW21373   5.516   0.165   0.560
 6825SOL    HW121374   5.423   0.188   0.529
 6825SOL    HW221375   5.543   0.229   0.632
 6826SOL     OW21376   2.152   3.706   3.309
 6826SOL    HW121377   2.056   3.678   3.315
 6826SOL    HW221378   2.210   3.628   3.334
 6827SOL     OW21379   4.483   4.900   6.248
 6827SOL    HW121380   4.536   4.976   6.208
 6827SOL    HW221381   4.405   4.937   6.297
 6828SOL     OW21382   3.431   1.114   1.925
 6828SOL    HW121383   3.370   1.169   1.868
 6828SOL    HW221384   3.377   1.054   1.984
 6829SOL     OW21385   5.030   5.831   4.693
 6829SOL    HW121386   5.079   5.914   4.666
 6829SOL    HW221387   5.073   5.793   4.775
 6830SOL     OW21388   5.016   0.678   3.200
 6830SOL    HW121389   5.010   0.618   3.120
 6830SOL    HW221390   4.990   0.627   3.282
 6831SOL     OW21391   1.143   0.313   6.829
 6831SOL    HW121392   1.108   0.371   6.756
 6831SOL    HW221393   1.089   0.228   6.833
 6832SOL     OW21394   2.497   4.551   0.683
 6832SOL    HW121395   2.594   4.525   0.691
 6832SOL    HW221396   2.451   4.488   0.620
 6833SOL     OW21397   3.360   4.772   6.045
 6833SOL    HW121398   3.332   4.677   6.058
 6833SOL    HW221399   3.387   4.786   5.950
 6834SOL     OW21400   4.896   6.962   0.617
 6834SOL    HW121401   4.939   6.885   0.569
 6834SOL    HW221402   4.962   7.002   0.681
 6835SOL     OW21403   4.090   0.587   4.583
 6835SOL    HW121404   4.143   0.542   4.511
 6835SOL    HW221405   4.085   0.685   4.565
 6836SOL     OW21406   2.732   4.354   0.452
 6836SOL    HW121407   2.715   4.435   0.396
 6836SOL    HW221408   2.769   4.381   0.540
 6837SOL     OW21409   0.550   2.369   2.434
 6837SOL    HW121410   0.523   2.404   2.523
 6837SOL    HW221411   0.587   2.276   2.444
 6838SOL     OW21412   3.288   6.346   0.064
 6838SOL    HW121413   3.274   6.249   0.043
 6838SOL    HW221414   3.258   6.365   0.157
 6839SOL     OW21415   5.852   1.333   6.426
 6839SOL    HW121416   5.903   1.382   6.496
 6839SOL    HW221417   5.828   1.396   6.352
 6840SOL     OW21418   3.418   0.767   4.445
 6840SOL    HW121419   3.491   0.806   4.502
 6840SOL    HW221420   3.442   0.674   4.419
 6841SOL     OW21421   4.529   4.934   0.463
 6841SOL    HW121422   4.434   4.906   0.449
 6841SOL    HW221423   4.586   4.894   0.391
 6842SOL     OW21424   2.799   3.879   0.846
 6842SOL    HW121425   2.868   3.877   0.774
 6842SOL    HW221426   2.804   3.795   0.899
 6843SOL     OW21427   6.113   6.741   1.927
 6843SOL    HW121428   6.146   6.650   1.953
 6843SOL    HW221429   6.037   6.767   1.988
 6844SOL     OW21430   4.675   0.194   3.682
 6844SOL    HW121431   4.764   0.151   3.694
 6844SOL    HW221432   4.626   0.195   3.769
 6845SOL     OW21433   6.246   4.491   3.966
 6845SOL    HW121434   6.281   4.398   3.966
 6845SOL    HW221435   6.180   4.502   3.892
 6846SOL     OW21436   4.011   3.066   0.605
 6846SOL    HW121437   3.948   3.109   0.540
 6846SOL    HW221438   4.105   3.080   0.573
 6847SOL     OW21439   0.312   3.875   3.663
 6847SOL    HW121440   0.244   3.942   3.688
 6847SOL    HW221441   0.393   3.886   3.720
 6848SOL     OW21442   4.313   6.685   3.791
 6848SOL    HW121443   4.346   6.701   3.698
 6848SOL    HW221444   4.249   6.608   3.791
 6849SOL     OW21445   4.198   4.885   5.006
 6849SOL    HW121446   4.237   4.949   4.940
 6849SOL    HW221447   4.101   4.869   4.984
 6850SOL     OW21448   6.127   4.225   2.613
 6850SOL    HW121449   6.094   4.267   2.698
 6850SOL    HW221450   6.135   4.294   2.542
 6851SOL     OW21451   0.888   2.373   2.925
 6851SOL    HW121452   0.987   2.384   2.925
 6851SOL    HW221453   0.863   2.292   2.872
 6852SOL     OW21454   2.590   4.983   0.014
 6852SOL    HW121455   2.533   4.987   0.096
 6852SOL    HW221456   2.668   5.045   0.025
 6853SOL     OW21457   6.457   3.997   0.363
 6853SOL    HW121458   6.415   4.086   0.381
 6853SOL    HW221459   6.384   3.930   0.343
 6854SOL     OW21460   4.787   2.110   6.425
 6854SOL    HW121461   4.727   2.038   6.391
 6854SOL    HW221462   4.760   2.198   6.385
 6855SOL     OW21463   3.984   5.600   3.281
 6855SOL    HW121464   3.906   5.551   3.322
 6855SOL    HW221465   3.975   5.698   3.298
 6856SOL     OW21466   5.421   3.567   5.550
 6856SOL    HW121467   5.442   3.517   5.466
 6856SOL    HW221468   5.458   3.660   5.543
 6857SOL     OW21469   3.224   2.716   0.091
 6857SOL    HW121470   3.246   2.663   0.009
 6857SOL    HW221471   3.163   2.791   0.068
 6858SOL     OW21472   4.000   3.860   3.411
 6858SOL    HW121473   3.937   3.786   3.437
 6858SOL    HW221474   4.004   3.927   3.484
 6859SOL     OW21475   6.867   1.114   1.142
 6859SOL    HW121476   6.856   1.045   1.070
 6859SOL    HW221477   6.842   1.204   1.107
 6860SOL     OW21478   7.010   4.903   1.133
 6860SOL    HW121479   0.071   4.921   1.189
 6860SOL    HW221480   0.010   4.825   1.073
 6861SOL     OW21481   4.585   5.087   0.003
 6861SOL    HW121482   4.579   5.179   6.984
 6861SOL    HW221483   4.493   5.048   0.011
 6862SOL     OW21484   1.580   5.104   5.652
 6862SOL    HW121485   1.549   5.031   5.713
 6862SOL    HW221486   1.511   5.120   5.582
 6863SOL     OW21487   5.766   6.922   5.751
 6863SOL    HW121488   5.802   6.968   5.832
 6863SOL    HW221489   5.677   6.882   5.771
 6864SOL     OW21490   2.679   5.428   4.502
 6864SOL    HW121491   2.625   5.393   4.426
 6864SOL    HW221492   2.623   5.429   4.585
 6865SOL     OW21493   1.310   6.102   3.691
 6865SOL    HW121494   1.241   6.105   3.763
 6865SOL    HW221495   1.395   6.063   3.728
 6866SOL     OW21496   6.004   4.981   3.818
 6866SOL    HW121497   6.041   5.002   3.728
 6866SOL    HW221498   5.904   4.989   3.815
 6867SOL     OW21499   2.534   3.852   1.637
 6867SOL    HW121500   2.615   3.897   1.675
 6867SOL    HW221501   2.489   3.913   1.573
 6868SOL     OW21502   1.078   5.594   6.055
 6868SOL    HW121503   1.098   5.691   6.042
 6868SOL    HW221504   1.117   5.540   5.980
 6869SOL     OW21505   6.221   1.324   5.706
 6869SOL    HW121506   6.309   1.334   5.751
 6869SOL    HW221507   6.161   1.399   5.733
 6870SOL     OW21508   0.909   5.118   1.630
 6870SOL    HW121509   0.817   5.105   1.594
 6870SOL    HW221510   0.939   5.212   1.614
 6871SOL     OW21511   6.180   4.547   3.382
 6871SOL    HW121512   6.110   4.573   3.315
 6871SOL    HW221513   6.155   4.584   3.471
 6872SOL     OW21514   0.180   2.471   1.225
 6872SOL    HW121515   0.242   2.402   1.262
 6872SOL    HW221516   0.140   2.437   1.140
 6873SOL     OW21517   6.561   3.662   4.947
 6873SOL    HW121518   6.512   3.683   4.862
 6873SOL    HW221519   6.504   3.602   5.003
 6874SOL     OW21520   0.272   5.815   2.767
 6874SOL    HW121521   0.224   5.884   2.821
 6874SOL    HW221522   0.337   5.860   2.706
 6875SOL     OW21523   2.529   2.476   2.689
 6875SOL    HW121524   2.521   2.571   2.718
 6875SOL    HW221525   2.587   2.470   2.608
 6876SOL     OW21526   3.489   6.514   3.591
 6876SOL    HW121527   3.445   6.440   3.540
 6876SOL    HW221528   3.588   6.510   3.577
 6877SOL     OW21529   2.792   3.926   1.132
 6877SOL    HW121530   2.841   3.893   1.052
 6877SOL    HW221531   2.816   3.871   1.212
 6878SOL     OW21532   3.255   1.222   4.617
 6878SOL    HW121533   3.333   1.172   4.653
 6878SOL    HW221534   3.198   1.161   4.562
 6879SOL     OW21535   0.984   2.501   0.607
 6879SOL    HW121536   0.976   2.475   0.703
 6879SOL    HW221537   1.068   2.554   0.593
 6880SOL     OW21538   1.805   4.923   4.869
 6880SOL    HW121539   1.874   4.972   4.814
 6880SOL    HW221540   1.849   4.888   4.952
 6881SOL     OW21541   1.759   4.587   0.733
 6881SOL    HW121542   1.854   4.608   0.710
 6881SOL    HW221543   1.711   4.554   0.652
 6882SOL     OW21544   2.776   0.483   6.987
 6882SOL    HW121545   2.767   0.435   6.900
 6882SOL    HW221546   2.686   0.496   0.009
 6883SOL     OW21547   4.907   1.345   0.222
 6883SOL    HW121548   4.847   1.316   0.297
 6883SOL    HW221549   4.878   1.301   0.137
 6884SOL     OW21550   2.065   4.437   3.566
 6884SOL    HW121551   2.056   4.340   3.590
 6884SOL    HW221552   1.982   4.486   3.593
 6885SOL     OW21553   4.140   5.002   3.983
 6885SOL    HW121554   4.119   5.085   4.035
 6885SOL    HW221555   4.235   4.975   4.001
 6886SOL     OW21556   7.012   1.040   3.990
 6886SOL    HW121557   6.983   1.043   4.086
 6886SOL    HW221558   0.058   1.114   3.973
 6887SOL     OW21559   5.042   5.652   6.314
 6887SOL    HW121560   5.102   5.723   6.278
 6887SOL    HW221561   5.072   5.626   6.406
 6888SOL     OW21562   5.281   6.065   6.933
 6888SOL    HW121563   5.270   6.148   6.878
 6888SOL    HW221564   5.244   6.081   0.005
 6889SOL     OW21565   1.928   2.365   4.914
 6889SOL    HW121566   1.928   2.438   4.845
 6889SOL    HW221567   1.853   2.380   4.978
 6890SOL     OW21568   4.696   6.139   1.826
 6890SOL    HW121569   4.771   6.095   1.875
 6890SOL    HW221570   4.732   6.215   1.771
 6891SOL     OW21571   2.555   4.607   3.288
 6891SOL    HW121572   2.517   4.517   3.270
 6891SOL    HW221573   2.481   4.673   3.300
 6892SOL     OW21574   3.151   2.197   3.275
 6892SOL    HW121575   3.109   2.248   3.350
 6892SOL    HW221576   3.082   2.173   3.207
 6893SOL     OW21577   4.528   4.554   0.060
 6893SOL    HW121578   4.547   4.470   0.010
 6893SOL    HW221579   4.504   4.532   0.155
 6894SOL     OW21580   6.620   4.791   0.971
 6894SOL    HW121581   6.530   4.760   0.941
 6894SOL    HW221582   6.648   4.870   0.916
 6895SOL     OW21583   3.316   4.702   0.160
 6895SOL    HW121584   3.290   4.792   0.125
 6895SOL    HW221585   3.347   4.711   0.255
 6896SOL     OW21586   2.161   6.807   4.274
 6896SOL    HW121587   2.115   6.740   4.332
 6896SOL    HW221588   2.171   6.769   4.181
 6897SOL     OW21589   5.004   3.680   5.949
 6897SOL    HW121590   5.032   3.590   5.913
 6897SOL    HW221591   4.974   3.670   6.044
 6898SOL     OW21592   3.583   1.565   1.702
 6898SOL    HW121593   3.557   1.481   1.654
 6898SOL    HW221594   3.575   1.550   1.801
 6899SOL     OW21595   5.245   6.199   1.366
 6899SOL    HW121596   5.325   6.250   1.395
 6899SOL    HW221597   5.226   6.126   1.432
 6900SOL     OW21598   6.325   6.128   5.369
 6900SOL    HW121599   6.332   6.204   5.304
 6900SOL    HW221600   6.306   6.043   5.319
 6901SOL     OW21601   7.008   6.365   6.212
 6901SOL    HW121602   6.986   6.314   6.129
 6901SOL    HW221603   6.962   6.322   6.290
 6902SOL     OW21604   5.518   5.930   6.575
 6902SOL    HW121605   5.475   5.860   6.518
 6902SOL    HW221606   5.560   5.885   6.654
 6903SOL     OW21607   2.540   5.380   4.729
 6903SOL    HW121608   2.612   5.376   4.798
 6903SOL    HW221609   2.521   5.288   4.696
 6904SOL     OW21610   5.681   1.136   4.945
 6904SOL    HW121611   5.715   1.043   4.957
 6904SOL    HW221612   5.583   1.133   4.922
 6905SOL     OW21613   6.049   6.715   6.218
 6905SOL    HW121614   6.055   6.784   6.290
 6905SOL    HW221615   6.108   6.637   6.240
 6906SOL     OW21616   4.435   1.212   4.207
 6906SOL    HW121617   4.379   1.247   4.132
 6906SOL    HW221618   4.382   1.212   4.291
 6907SOL     OW21619   4.962   2.856   1.570
 6907SOL    HW121620   4.991   2.856   1.666
 6907SOL    HW221621   4.872   2.899   1.563
 6908SOL     OW21622   0.809   5.610   6.113
 6908SOL    HW121623   0.904   5.579   6.109
 6908SOL    HW221624   0.774   5.598   6.206
 6909SOL     OW21625   5.161   4.477   1.319
 6909SOL    HW121626   5.162   4.567   1.275
 6909SOL    HW221627   5.071   4.461   1.359
 6910SOL     OW21628   0.555   2.378   3.312
 6910SOL    HW121629   0.615   2.399   3.235
 6910SOL    HW221630   0.509   2.461   3.342
 6911SOL     OW21631   4.229   5.926   3.914
 6911SOL    HW121632   4.262   5.852   3.855
 6911SOL    HW221633   4.210   6.007   3.858
 6912SOL     OW21634   4.001   3.805   6.490
 6912SOL    HW121635   3.929   3.853   6.440
 6912SOL    HW221636   4.046   3.740   6.429
 6913SOL     OW21637   5.162   5.910   3.981
 6913SOL    HW121638   5.157   6.003   4.017
 6913SOL    HW221639   5.221   5.854   4.041
 6914SOL     OW21640   5.747   3.622   4.389
 6914SOL    HW121641   5.656   3.628   4.430
 6914SOL    HW221642   5.752   3.540   4.331
 6915SOL     OW21643   5.891   2.731   2.209
 6915SOL    HW121644   5.794   2.746   2.231
 6915SOL    HW221645   5.902   2.728   2.110
 6916SOL     OW21646   6.005   2.538   6.957
 6916SOL    HW121647   6.054   2.482   0.005
 6916SOL    HW221648   6.023   2.503   6.865
 6917SOL     OW21649   3.557   6.234   1.263
 6917SOL    HW121650   3.591   6.300   1.331
 6917SOL    HW221651   3.611   6.241   1.180
 6918SOL     OW21652   0.338   2.851   4.078
 6918SOL    HW121653   0.265   2.882   4.139
 6918SOL    HW221654   0.426   2.865   4.123
 6919SOL     OW21655   6.884   5.823   3.213
 6919SOL    HW121656   6.839   5.734   3.207
 6919SOL    HW221657   6.916   5.839   3.306
 6920SOL     OW21658   4.314   6.282   5.572
 6920SOL    HW121659   4.326   6.246   5.665
 6920SOL    HW221660   4.326   6.209   5.506
 6921SOL     OW21661   5.281   5.388   3.545
 6921SOL    HW121662   5.274   5.414   3.641
 6921SOL    HW221663   5.363   5.428   3.505
 6922SOL     OW21664   1.896   6.248   5.111
 6922SOL    HW121665   1.954   6.203   5.043
 6922SOL    HW221666   1.927   6.223   5.203
 6923SOL     OW21667   4.435   5.425   3.188
 6923SOL    HW121668   4.384   5.366   3.125
 6923SOL    HW221669   4.533   5.418   3.169
 6924SOL     OW21670   2.875   4.014   6.788
 6924SOL    HW121671   2.909   3.989   6.698
 6924SOL    HW221672   2.923   4.095   6.821
 6925SOL     OW21673   4.957   6.192   3.943
 6925SOL    HW121674   4.958   6.217   4.040
 6925SOL    HW221675   4.975   6.094   3.934
 6926SOL     OW21676   3.378   2.859   0.905
 6926SOL    HW121677   3.376   2.882   0.808
 6926SOL    HW221678   3.344   2.937   0.958
 6927SOL     OW21679   4.020   2.927   5.938
 6927SOL    HW121680   4.040   3.025   5.933
 6927SOL    HW221681   4.005   2.902   6.034
 6928SOL     OW21682   5.929   5.590   0.706
 6928SOL    HW121683   5.896   5.498   0.689
 6928SOL    HW221684   5.866   5.656   0.666
 6929SOL     OW21685   5.660   5.534   1.229
 6929SOL    HW121686   5.576   5.481   1.218
 6929SOL    HW221687   5.687   5.534   1.325
 6930SOL     OW21688   0.596   0.232   2.373
 6930SOL    HW121689   0.642   0.165   2.314
 6930SOL    HW221690   0.602   0.323   2.331
 6931SOL     OW21691   1.910   0.981   2.239
 6931SOL    HW121692   1.885   1.076   2.221
 6931SOL    HW221693   1.963   0.945   2.163
 6932SOL     OW21694   4.686   6.408   0.429
 6932SOL    HW121695   4.647   6.486   0.478
 6932SOL    HW221696   4.634   6.393   0.344
 6933SOL     OW21697   3.560   6.230   5.004
 6933SOL    HW121698   3.641   6.172   5.002
 6933SOL    HW221699   3.528   6.240   5.098
 6934SOL     OW21700   4.931   3.680   6.263
 6934SOL    HW121701   4.933   3.780   6.255
 6934SOL    HW221702   4.962   3.653   6.354
 6935SOL     OW21703   4.574   5.549   2.325
 6935SOL    HW121704   4.524   5.476   2.279
 6935SOL    HW221705   4.643   5.509   2.385
 6936SOL     OW21706   6.123   1.399   3.325
 6936SOL    HW121707   6.198   1.461   3.346
 6936SOL    HW221708   6.091   1.415   3.232
 6937SOL     OW21709   6.491   6.154   0.111
 6937SOL    HW121710   6.575   6.187   0.154
 6937SOL    HW221711   6.448   6.085   0.170
 6938SOL     OW21712   5.432   3.267   5.127
 6938SOL    HW121713   5.344   3.270   5.174
 6938SOL    HW221714   5.454   3.172   5.103
 6939SOL     OW21715   1.543   4.843   1.738
 6939SOL    HW121716   1.512   4.868   1.829
 6939SOL    HW221717   1.600   4.761   1.744
 6940SOL     OW21718   4.045   0.411   6.351
 6940SOL    HW121719   4.051   0.510   6.360
 6940SOL    HW221720   4.117   0.379   6.290
 6941SOL     OW21721   3.384   3.827   1.794
 6941SOL    HW121722   3.359   3.744   1.745
 6941SOL    HW221723   3.319   3.841   1.869
 6942SOL     OW21724   5.659   0.024   1.049
 6942SOL    HW121725   5.684   7.009   1.139
 6942SOL    HW221726   5.739   0.065   1.005
 6943SOL     OW21727   3.639   5.794   0.299
 6943SOL    HW121728   3.547   5.762   0.277
 6943SOL    HW221729   3.672   5.855   0.227
 6944SOL     OW21730   0.657   4.246   6.397
 6944SOL    HW121731   0.562   4.267   6.421
 6944SOL    HW221732   0.680   4.154   6.430
 6945SOL     OW21733   6.209   1.106   6.772
 6945SOL    HW121734   6.236   1.202   6.764
 6945SOL    HW221735   6.170   1.075   6.686
 6946SOL     OW21736   5.128   6.609   0.723
 6946SOL    HW121737   5.130   6.524   0.670
 6946SOL    HW221738   5.043   6.657   0.706
 6947SOL     OW21739   3.272   6.006   6.533
 6947SOL    HW121740   3.176   6.035   6.540
 6947SOL    HW221741   3.319   6.028   6.618
 6948SOL     OW21742   0.619   0.345   1.100
 6948SOL    HW121743   0.646   0.333   1.196
 6948SOL    HW221744   0.658   0.271   1.046
 6949SOL     OW21745   3.900   6.883   3.235
 6949SOL    HW121746   3.967   6.957   3.230
 6949SOL    HW221747   3.840   6.887   3.155
 6950SOL     OW21748   1.868   2.140   4.762
 6950SOL    HW121749   1.801   2.095   4.821
 6950SOL    HW221750   1.928   2.198   4.817
 6951SOL     OW21751   6.350   5.774   6.162
 6951SOL    HW121752   6.261   5.806   6.192
 6951SOL    HW221753   6.340   5.688   6.112
 6952SOL     OW21754   0.950   6.284   3.303
 6952SOL    HW121755   0.981   6.190   3.315
 6952SOL    HW221756   0.912   6.295   3.212
 6953SOL     OW21757   4.362   6.735   0.781
 6953SOL    HW121758   4.451   6.781   0.789
 6953SOL    HW221759   4.344   6.683   0.864
 6954SOL     OW21760   0.125   3.879   2.495
 6954SOL    HW121761   0.096   3.795   2.450
 6954SOL    HW221762   0.178   3.856   2.577
 6955SOL     OW21763   6.257   0.250   2.278
 6955SOL    HW121764   6.241   0.334   2.226
 6955SOL    HW221765   6.331   0.197   2.235
 6956SOL     OW21766   5.910   5.730   3.547
 6956SOL    HW121767   6.003   5.768   3.540
 6956SOL    HW221768   5.891   5.706   3.642
 6957SOL     OW21769   6.405   4.976   0.808
 6957SOL    HW121770   6.385   4.879   0.798
 6957SOL    HW221771   6.500   4.988   0.837
 6958SOL     OW21772   3.608   2.909   4.335
 6958SOL    HW121773   3.666   2.884   4.258
 6958SOL    HW221774   3.515   2.927   4.302
 6959SOL     OW21775   1.821   2.295   4.170
 6959SOL    HW121776   1.860   2.202   4.171
 6959SOL    HW221777   1.780   2.312   4.080
 6960SOL     OW21778   2.470   4.343   1.405
 6960SOL    HW121779   2.550   4.286   1.386
 6960SOL    HW221780   2.397   4.321   1.340
 6961SOL     OW21781   6.272   1.642   4.002
 6961SOL    HW121782   6.343   1.678   3.942
 6961SOL    HW221783   6.269   1.542   3.995
 6962SOL     OW21784   5.131   6.034   1.762
 6962SOL    HW121785   5.100   6.126   1.737
 6962SOL    HW221786   5.189   6.040   1.843
 6963SOL     OW21787   5.229   6.110   0.912
 6963SOL    HW121788   5.139   6.114   0.868
 6963SOL    HW221789   5.219   6.077   1.006
 6964SOL     OW21790   3.141   1.126   5.137
 6964SOL    HW121791   3.191   1.054   5.089
 6964SOL    HW221792   3.045   1.123   5.112
 6965SOL     OW21793   0.924   1.508   0.738
 6965SOL    HW121794   0.970   1.554   0.814
 6965SOL    HW221795   0.880   1.577   0.680
 6966SOL     OW21796   0.888   2.294   3.233
 6966SOL    HW121797   0.806   2.348   3.209
 6966SOL    HW221798   0.964   2.356   3.251
 6967SOL     OW21799   2.416   1.012   5.433
 6967SOL    HW121800   2.405   1.008   5.532
 6967SOL    HW221801   2.372   0.932   5.391
 6968SOL     OW21802   3.740   6.833   3.027
 6968SOL    HW121803   3.656   6.784   3.051
 6968SOL    HW221804   3.739   6.858   2.930
 6969SOL     OW21805   3.665   2.551   1.465
 6969SOL    HW121806   3.744   2.608   1.441
 6969SOL    HW221807   3.664   2.534   1.563
 6970SOL     OW21808   4.457   4.413   5.478
 6970SOL    HW121809   4.508   4.336   5.517
 6970SOL    HW221810   4.385   4.441   5.541
 6971SOL     OW21811   6.819   4.307   1.543
 6971SOL    HW121812   6.859   4.286   1.454
 6971SOL    HW221813   6.884   4.284   1.615
 6972SOL     OW21814   5.191   4.312   3.018
 6972SOL    HW121815   5.276   4.278   2.977
 6972SOL    HW221816   5.167   4.400   2.977
 6973SOL     OW21817   1.240   2.798   4.060
 6973SOL    HW121818   1.149   2.769   4.028
 6973SOL    HW221819   1.297   2.717   4.073
 6974SOL     OW21820   2.901   3.531   3.226
 6974SOL    HW121821   2.914   3.515   3.324
 6974SOL    HW221822   2.814   3.493   3.196
 6975SOL     OW21823   1.883   6.479   6.390
 6975SOL    HW121824   1.859   6.484   6.487
 6975SOL    HW221825   1.969   6.427   6.380
 6976SOL     OW21826   5.096   5.495   4.983
 6976SOL    HW121827   5.151   5.423   5.025
 6976SOL    HW221828   5.001   5.465   4.976
 6977SOL     OW21829   3.842   2.883   1.770
 6977SOL    HW121830   3.928   2.934   1.771
 6977SOL    HW221831   3.790   2.902   1.853
 6978SOL     OW21832   5.619   1.473   2.118
 6978SOL    HW121833   5.701   1.530   2.108
 6978SOL    HW221834   5.566   1.476   2.033
 6979SOL     OW21835   0.969   4.363   1.293
 6979SOL    HW121836   1.067   4.379   1.304
 6979SOL    HW221837   0.919   4.420   1.358
 6980SOL     OW21838   1.835   0.580   4.149
 6980SOL    HW121839   1.738   0.556   4.143
 6980SOL    HW221840   1.889   0.512   4.100
 6981SOL     OW21841   3.549   2.712   5.645
 6981SOL    HW121842   3.614   2.722   5.720
 6981SOL    HW221843   3.559   2.789   5.582
 6982SOL     OW21844   1.278   0.609   4.900
 6982SOL    HW121845   1.334   0.680   4.856
 6982SOL    HW221846   1.183   0.618   4.868
 6983SOL     OW21847   3.534   2.105   3.688
 6983SOL    HW121848   3.586   2.181   3.649
 6983SOL    HW221849   3.442   2.103   3.648
 6984SOL     OW21850   2.268   2.009   3.274
 6984SOL    HW121851   2.305   2.007   3.182
 6984SOL    HW221852   2.323   1.949   3.333
 6985SOL     OW21853   6.066   5.543   1.488
 6985SOL    HW121854   6.142   5.484   1.515
 6985SOL    HW221855   6.029   5.512   1.400
 6986SOL     OW21856   2.315   0.089   5.760
 6986SOL    HW121857   2.399   0.133   5.794
 6986SOL    HW221858   2.320   0.080   5.661
 6987SOL     OW21859   6.329   1.055   6.117
 6987SOL    HW121860   6.408   1.014   6.072
 6987SOL    HW221861   6.253   0.989   6.119
 6988SOL     OW21862   0.685   0.402   5.484
 6988SOL    HW121863   0.782   0.416   5.464
 6988SOL    HW221864   0.634   0.486   5.468
 6989SOL     OW21865   0.821   3.786   3.175
 6989SOL    HW121866   0.794   3.842   3.254
 6989SOL    HW221867   0.893   3.832   3.124
 6990SOL     OW21868   4.756   2.409   1.409
 6990SOL    HW121869   4.782   2.506   1.404
 6990SOL    HW221870   4.662   2.398   1.376
 6991SOL     OW21871   3.975   4.795   3.106
 6991SOL    HW121872   3.993   4.874   3.047
 6991SOL    HW221873   4.025   4.716   3.071
 6992SOL     OW21874   5.187   6.611   6.369
 6992SOL    HW121875   5.285   6.609   6.353
 6992SOL    HW221876   5.166   6.679   6.439
 6993SOL     OW21877   5.436   0.705   3.029
 6993SOL    HW121878   5.357   0.757   3.062
 6993SOL    HW221879   5.503   0.768   2.990
 6994SOL     OW21880   6.984   2.263   4.203
 6994SOL    HW121881   6.998   2.329   4.277
 6994SOL    HW221882   6.995   2.170   4.238
 6995SOL     OW21883   0.169   4.558   6.187
 6995SOL    HW121884   0.268   4.558   6.173
 6995SOL    HW221885   0.130   4.641   6.147
 6996SOL     OW21886   1.562   6.985   7.003
 6996SOL    HW121887   1.634   6.985   6.933
 6996SOL    HW221888   1.483   6.934   6.970
 6997SOL     OW21889   6.775   5.977   4.944
 6997SOL    HW121890   6.819   6.037   5.011
 6997SOL    HW221891   6.716   6.032   4.885
 6998SOL     OW21892   2.433   0.770   1.437
 6998SOL    HW121893   2.531   0.774   1.420
 6998SOL    HW221894   2.404   0.854   1.484
 6999SOL     OW21895   2.576   1.864   6.948
 6999SOL    HW121896   2.601   1.771   6.922
 6999SOL    HW221897   2.652   1.926   6.929
 7000SOL     OW21898   4.582   6.923   0.871
 7000SOL    HW121899   4.504   6.980   0.894
 7000SOL    HW221900   4.625   6.955   0.787
 7001SOL     OW21901   1.667   3.117   5.462
 7001SOL    HW121902   1.694   3.193   5.520
 7001SOL    HW221903   1.604   3.149   5.391
 7002SOL     OW21904   1.680   5.260   3.876
 7002SOL    HW121905   1.741   5.302   3.809
 7002SOL    HW221906   1.585   5.276   3.850
 7003SOL     OW21907   3.828   4.985   0.482
 7003SOL    HW121908   3.879   5.070   0.468
 7003SOL    HW221909   3.811   4.942   0.393
 7004SOL     OW21910   1.249   5.310   2.274
 7004SOL    HW121911   1.176   5.378   2.266
 7004SOL    HW221912   1.236   5.239   2.205
 7005SOL     OW21913   1.250   0.077   0.891
 7005SOL    HW121914   1.326   0.088   0.828
 7005SOL    HW221915   1.228   0.165   0.933
 7006SOL     OW21916   5.259   5.010   3.721
 7006SOL    HW121917   5.234   5.082   3.656
 7006SOL    HW221918   5.313   5.049   3.796
 7007SOL     OW21919   4.131   1.022   3.765
 7007SOL    HW121920   4.164   0.928   3.759
 7007SOL    HW221921   4.062   1.029   3.837
 7008SOL     OW21922   0.531   4.050   4.770
 7008SOL    HW121923   0.522   4.069   4.868
 7008SOL    HW221924   0.582   4.125   4.727
 7009SOL     OW21925   5.754   5.861   2.315
 7009SOL    HW121926   5.689   5.833   2.386
 7009SOL    HW221927   5.780   5.957   2.329
 7010SOL     OW21928   5.385   4.246   3.933
 7010SOL    HW121929   5.322   4.310   3.978
 7010SOL    HW221930   5.467   4.235   3.989
 7011SOL     OW21931   2.908   6.405   6.963
 7011SOL    HW121932   2.827   6.365   6.922
 7011SOL    HW221933   2.918   6.500   6.933
 7012SOL     OW21934   0.049   1.906   1.891
 7012SOL    HW121935   0.142   1.871   1.884
 7012SOL    HW221936   7.003   1.831   1.881
 7013SOL     OW21937   0.618   0.170   0.569
 7013SOL    HW121938   0.654   0.241   0.629
 7013SOL    HW221939   0.662   0.176   0.480
 7014SOL     OW21940   4.491   3.342   1.144
 7014SOL    HW121941   4.587   3.338   1.119
 7014SOL    HW221942   4.480   3.312   1.239
 7015SOL     OW21943   6.334   4.475   1.973
 7015SOL    HW121944   6.278   4.558   1.979
 7015SOL    HW221945   6.295   4.405   2.032
 7016SOL     OW21946   3.123   4.991   1.336
 7016SOL    HW121947   3.106   4.899   1.372
 7016SOL    HW221948   3.202   4.988   1.275
 7017SOL     OW21949   2.521   5.110   2.941
 7017SOL    HW121950   2.563   5.159   2.865
 7017SOL    HW221951   2.442   5.059   2.909
 7018SOL     OW21952   5.369   3.266   4.209
 7018SOL    HW121953   5.304   3.231   4.276
 7018SOL    HW221954   5.402   3.191   4.152
 7019SOL     OW21955   4.103   4.099   0.416
 7019SOL    HW121956   4.191   4.108   0.464
 7019SOL    HW221957   4.112   4.134   0.323
 7020SOL     OW21958   6.573   5.126   6.602
 7020SOL    HW121959   6.492   5.172   6.637
 7020SOL    HW221960   6.649   5.138   6.667
 7021SOL     OW21961   1.668   2.036   5.884
 7021SOL    HW121962   1.730   1.960   5.866
 7021SOL    HW221963   1.589   2.002   5.935
 7022SOL     OW21964   4.578   6.527   5.794
 7022SOL    HW121965   4.656   6.587   5.775
 7022SOL    HW221966   4.528   6.510   5.709
 7023SOL     OW21967   6.770   2.497   3.712
 7023SOL    HW121968   6.817   2.546   3.785
 7023SOL    HW221969   6.710   2.427   3.752
 7024SOL     OW21970   3.100   4.045   5.244
 7024SOL    HW121971   3.075   3.978   5.314
 7024SOL    HW221972   3.065   4.135   5.270
 7025SOL     OW21973   3.475   0.765   0.953
 7025SOL    HW121974   3.408   0.809   0.893
 7025SOL    HW221975   3.441   0.767   1.047
 7026SOL     OW21976   3.232   1.875   2.225
 7026SOL    HW121977   3.225   1.802   2.157
 7026SOL    HW221978   3.300   1.942   2.195
 7027SOL     OW21979   2.491   5.456   4.031
 7027SOL    HW121980   2.429   5.534   4.033
 7027SOL    HW221981   2.535   5.451   3.942
 7028SOL     OW21982   2.855   2.096   3.934
 7028SOL    HW121983   2.861   2.027   3.862
 7028SOL    HW221984   2.762   2.098   3.971
 7029SOL     OW21985   5.032   4.995   4.903
 7029SOL    HW121986   5.058   5.031   4.813
 7029SOL    HW221987   5.080   4.909   4.920
 7030SOL     OW21988   1.031   0.646   4.778
 7030SOL    HW121989   0.997   0.733   4.742
 7030SOL    HW221990   0.956   0.580   4.783
 7031SOL     OW21991   3.971   5.748   5.860
 7031SOL    HW121992   3.950   5.803   5.779
 7031SOL    HW221993   3.975   5.808   5.940
 7032SOL     OW21994   4.046   1.328   3.901
 7032SOL    HW121995   4.036   1.366   3.809
 7032SOL    HW221996   4.143   1.310   3.919
 7033SOL     OW21997   1.528   2.173   3.380
 7033SOL    HW121998   1.431   2.161   3.360
 7033SOL    HW221999   1.543   2.165   3.479
 7034SOL     OW22000   6.769   0.641   3.442
 7034SOL    HW122001   6.805   0.721   3.490
 7034SOL    HW222002   6.807   0.557   3.483
 7035SOL     OW22003   1.579   6.945   0.879
 7035SOL    HW122004   1.512   6.871   0.871
 7035SOL    HW222005   1.541   0.010   0.841
 7036SOL     OW22006   7.017   0.232   3.007
 7036SOL    HW122007   0.046   0.148   3.032
 7036SOL    HW222008   0.053   0.282   2.939
 7037SOL     OW22009   1.475   1.166   6.500
 7037SOL    HW122010   1.507   1.207   6.586
 7037SOL    HW222011   1.529   1.203   6.424
 7038SOL     OW22012   2.409   3.318   5.389
 7038SOL    HW122013   2.466   3.247   5.348
 7038SOL    HW222014   2.450   3.407   5.373
 7039SOL     OW22015   2.133   5.135   2.138
 7039SOL    HW122016   2.217   5.151   2.086
 7039SOL    HW222017   2.115   5.036   2.143
 7040SOL     OW22018   5.252   2.393   5.886
 7040SOL    HW122019   5.172   2.446   5.859
 7040SOL    HW222020   5.298   2.439   5.962
 7041SOL     OW22021   6.004   1.137   1.694
 7041SOL    HW122022   6.103   1.129   1.706
 7041SOL    HW222023   5.983   1.159   1.599
 7042SOL     OW22024   4.281   5.008   5.235
 7042SOL    HW122025   4.235   4.955   5.307
 7042SOL    HW222026   4.253   4.973   5.145
 7043SOL     OW22027   2.572   4.686   2.554
 7043SOL    HW122028   2.522   4.609   2.593
 7043SOL    HW222029   2.596   4.750   2.627
 7044SOL     OW22030   5.550   4.971   4.433
 7044SOL    HW122031   5.606   4.898   4.473
 7044SOL    HW222032   5.508   5.024   4.507
 7045SOL     OW22033   4.933   5.355   3.100
 7045SOL    HW122034   4.958   5.270   3.053
 7045SOL    HW222035   4.942   5.342   3.199
 7046SOL     OW22036   2.868   0.907   3.477
 7046SOL    HW122037   2.822   0.822   3.448
 7046SOL    HW222038   2.870   0.971   3.400
 7047SOL     OW22039   6.113   0.855   2.295
 7047SOL    HW122040   6.105   0.855   2.196
 7047SOL    HW222041   6.073   0.939   2.332
 7048SOL     OW22042   5.191   0.219   3.606
 7048SOL    HW122043   5.166   0.264   3.692
 7048SOL    HW222044   5.290   0.220   3.596
 7049SOL     OW22045   3.216   1.611   0.637
 7049SOL    HW122046   3.269   1.554   0.700
 7049SOL    HW222047   3.197   1.560   0.553
 7050SOL     OW22048   4.280   3.663   1.772
 7050SOL    HW122049   4.233   3.648   1.859
 7050SOL    HW222050   4.304   3.575   1.731
 7051SOL     OW22051   6.200   6.304   0.747
 7051SOL    HW122052   6.294   6.332   0.729
 7051SOL    HW222053   6.151   6.379   0.790
 7052SOL     OW22054   6.018   1.868   3.548
 7052SOL    HW122055   5.952   1.895   3.478
 7052SOL    HW222056   6.103   1.919   3.535
 7053SOL     OW22057   1.807   2.914   5.616
 7053SOL    HW122058   1.895   2.873   5.591
 7053SOL    HW222059   1.785   2.987   5.551
 7054SOL     OW22060   6.502   6.710   0.645
 7054SOL    HW122061   6.596   6.703   0.613
 7054SOL    HW222062   6.471   6.804   0.639
 7055SOL     OW22063   2.736   6.812   6.362
 7055SOL    HW122064   2.742   6.839   6.266
 7055SOL    HW222065   2.657   6.857   6.404
 7056SOL     OW22066   0.464   4.407   1.615
 7056SOL    HW122067   0.505   4.318   1.596
 7056SOL    HW222068   0.530   4.464   1.665
 7057SOL     OW22069   2.675   4.634   4.191
 7057SOL    HW122070   2.657   4.666   4.098
 7057SOL    HW222071   2.627   4.548   4.207
 7058SOL     OW22072   5.469   4.064   5.662
 7058SOL    HW122073   5.370   4.078   5.674
 7058SOL    HW222074   5.518   4.112   5.735
 7059SOL     OW22075   0.585   1.348   3.774
 7059SOL    HW122076   0.634   1.343   3.687
 7059SOL    HW222077   0.545   1.258   3.794
 7060SOL     OW22078   3.323   6.941   1.887
 7060SOL    HW122079   3.346   6.979   1.977
 7060SOL    HW222080   3.407   6.919   1.838
 7061SOL     OW22081   0.279   3.214   3.686
 7061SOL    HW122082   0.184   3.194   3.662
 7061SOL    HW222083   0.340   3.169   3.620
 7062SOL     OW22084   3.741   1.336   5.717
 7062SOL    HW122085   3.800   1.274   5.664
 7062SOL    HW222086   3.795   1.415   5.747
 7063SOL     OW22087   1.251   6.906   2.179
 7063SOL    HW122088   1.201   6.822   2.160
 7063SOL    HW222089   1.220   6.946   2.265
 7064SOL     OW22090   4.132   2.107   0.014
 7064SOL    HW122091   4.094   2.096   6.941
 7064SOL    HW222092   4.148   2.204   0.033
 7065SOL     OW22093   5.272   3.884   6.210
 7065SOL    HW122094   5.291   3.847   6.301
 7065SOL    HW222095   5.334   3.842   6.143
 7066SOL     OW22096   4.271   7.010   6.769
 7066SOL    HW122097   4.255   6.919   6.731
 7066SOL    HW222098   4.343   7.006   6.838
 7067SOL     OW22099   1.787   2.923   5.909
 7067SOL    HW122100   1.766   2.827   5.927
 7067SOL    HW222101   1.782   2.940   5.811
 7068SOL     OW22102   6.323   4.885   4.811
 7068SOL    HW122103   6.283   4.796   4.834
 7068SOL    HW222104   6.379   4.918   4.888
 7069SOL     OW22105   5.552   2.327   4.678
 7069SOL    HW122106   5.630   2.293   4.626
 7069SOL    HW222107   5.475   2.264   4.669
 7070SOL     OW22108   0.138   7.007   4.802
 7070SOL    HW122109   0.184   0.009   4.716
 7070SOL    HW222110   0.088   0.069   4.834
 7071SOL     OW22111   3.633   5.878   5.568
 7071SOL    HW122112   3.575   5.933   5.628
 7071SOL    HW222113   3.724   5.869   5.608
 7072SOL     OW22114   1.427   6.158   0.225
 7072SOL    HW122115   1.446   6.183   0.130
 7072SOL    HW222116   1.345   6.100   0.228
 7073SOL     OW22117   5.351   6.874   4.009
 7073SOL    HW122118   5.405   6.813   4.067
 7073SOL    HW222119   5.310   6.946   4.065
 7074SOL     OW22120   5.813   2.682   1.939
 7074SOL    HW122121   5.800   2.774   1.901
 7074SOL    HW222122   5.835   2.619   1.865
 7075SOL     OW22123   1.903   4.311   5.084
 7075SOL    HW122124   1.831   4.267   5.031
 7075SOL    HW222125   1.975   4.244   5.105
 7076SOL     OW22126   5.411   2.910   6.647
 7076SOL    HW122127   5.417   2.990   6.707
 7076SOL    HW222128   5.463   2.927   6.563
 7077SOL     OW22129   2.139   4.587   3.855
 7077SOL    HW122130   2.062   4.552   3.907
 7077SOL    HW222131   2.133   4.554   3.760
 7078SOL     OW22132   6.803   6.573   2.004
 7078SOL    HW122133   6.862   6.527   2.070
 7078SOL    HW222134   6.743   6.637   2.053
 7079SOL     OW22135   0.456   6.825   4.603
 7079SOL    HW122136   0.447   6.854   4.508
 7079SOL    HW222137   0.552   6.829   4.630
 7080SOL     OW22138   3.526   0.876   5.001
 7080SOL    HW122139   3.483   0.907   5.085
 7080SOL    HW222140   3.590   0.946   4.968
 7081SOL     OW22141   1.822   6.203   6.946
 7081SOL    HW122142   1.798   6.183   0.022
 7081SOL    HW222143   1.832   6.302   6.934
 7082SOL     OW22144   6.612   4.598   6.933
 7082SOL    HW122145   6.585   4.530   7.001
 7082SOL    HW222146   6.678   4.558   6.869
 7083SOL     OW22147   1.579   0.261   1.325
 7083SOL    HW122148   1.669   0.281   1.286
 7083SOL    HW222149   1.583   0.273   1.424
 7084SOL     OW22150   0.636   5.069   5.351
 7084SOL    HW122151   0.635   4.969   5.342
 7084SOL    HW222152   0.643   5.111   5.261
 7085SOL     OW22153   0.342   1.599   2.489
 7085SOL    HW122154   0.267   1.575   2.427
 7085SOL    HW222155   0.304   1.627   2.577
 7086SOL     OW22156   6.014   0.114   6.099
 7086SOL    HW122157   6.008   0.026   6.052
 7086SOL    HW222158   6.081   0.108   6.173
 7087SOL     OW22159   6.488   3.974   3.650
 7087SOL    HW122160   6.436   3.909   3.705
 7087SOL    HW222161   6.562   4.013   3.706
 7088SOL     OW22162   5.091   2.656   3.899
 7088SOL    HW122163   5.171   2.622   3.948
 7088SOL    HW222164   5.120   2.721   3.829
 7089SOL     OW22165   2.576   2.387   4.795
 7089SOL    HW122166   2.555   2.455   4.725
 7089SOL    HW222167   2.665   2.346   4.777
 7090SOL     OW22168   1.970   1.000   0.035
 7090SOL    HW122169   1.884   1.039   0.067
 7090SOL    HW222170   1.954   0.942   6.974
 7091SOL     OW22171   0.413   2.027   1.078
 7091SOL    HW122172   0.335   2.058   1.132
 7091SOL    HW222173   0.492   2.087   1.097
 7092SOL     OW22174   4.290   2.879   5.600
 7092SOL    HW122175   4.240   2.943   5.542
 7092SOL    HW222176   4.305   2.793   5.551
 7093SOL     OW22177   3.543   3.921   2.117
 7093SOL    HW122178   3.480   3.973   2.060
 7093SOL    HW222179   3.491   3.862   2.179
 7094SOL     OW22180   6.856   5.856   5.615
 7094SOL    HW122181   6.907   5.770   5.614
 7094SOL    HW222182   6.870   5.903   5.527
 7095SOL     OW22183   3.454   4.851   5.790
 7095SOL    HW122184   3.497   4.796   5.719
 7095SOL    HW222185   3.370   4.892   5.754
 7096SOL     OW22186   6.461   1.102   2.360
 7096SOL    HW122187   6.459   1.046   2.443
 7096SOL    HW222188   6.555   1.107   2.326
 7097SOL     OW22189   4.720   1.112   1.752
 7097SOL    HW122190   4.702   1.066   1.665
 7097SOL    HW222191   4.676   1.062   1.826
 7098SOL     OW22192   2.356   5.521   5.493
 7098SOL    HW122193   2.435   5.583   5.485
 7098SOL    HW222194   2.286   5.548   5.427
 7099SOL     OW22195   3.898   1.251   5.172
 7099SOL    HW122196   3.967   1.299   5.118
 7099SOL    HW222197   3.825   1.315   5.197
 7100SOL     OW22198   6.775   3.396   0.034
 7100SOL    HW122199   6.683   3.396   7.015
 7100SOL    HW222200   6.773   3.359   0.127
 7101SOL     OW22201   2.608   1.887   5.539
 7101SOL    HW122202   2.699   1.879   5.579
 7101SOL    HW222203   2.615   1.927   5.447
 7102SOL     OW22204   4.889   0.089   0.985
 7102SOL    HW122205   4.945   0.101   1.067
 7102SOL    HW222206   4.806   0.144   0.993
 7103SOL     OW22207   5.698   5.330   1.977
 7103SOL    HW122208   5.611   5.290   1.949
 7103SOL    HW222209   5.770   5.260   1.974
 7104SOL     OW22210   6.421   3.821   2.753
 7104SOL    HW122211   6.418   3.813   2.853
 7104SOL    HW222212   6.335   3.788   2.714
 7105SOL     OW22213   2.708   3.356   5.309
 7105SOL    HW122214   2.781   3.371   5.242
 7105SOL    HW222215   2.704   3.259   5.332
 7106SOL     OW22216   3.847   3.555   2.018
 7106SOL    HW122217   3.767   3.502   1.991
 7106SOL    HW222218   3.817   3.639   2.063
 7107SOL     OW22219   5.324   0.800   0.625
 7107SOL    HW122220   5.419   0.768   0.624
 7107SOL    HW222221   5.316   0.880   0.566
 7108SOL     OW22222   2.868   6.155   2.680
 7108SOL    HW122223   2.793   6.136   2.616
 7108SOL    HW222224   2.842   6.230   2.741
 7109SOL     OW22225   2.095   6.916   5.665
 7109SOL    HW122226   2.160   6.978   5.709
 7109SOL    HW222227   2.141   6.829   5.644
 7110SOL     OW22228   2.681   5.927   4.422
 7110SOL    HW122229   2.717   5.991   4.354
 7110SOL    HW222230   2.744   5.849   4.430
 7111SOL     OW22231   1.098   2.558   5.107
 7111SOL    HW122232   1.083   2.464   5.137
 7111SOL    HW222233   1.119   2.615   5.186
 7112SOL     OW22234   1.922   5.118   4.350
 7112SOL    HW122235   2.015   5.153   4.338
 7112SOL    HW222236   1.869   5.136   4.268
 7113SOL     OW22237   3.395   4.138   4.487
 7113SOL    HW122238   3.300   4.119   4.465
 7113SOL    HW222239   3.449   4.054   4.477
 7114SOL     OW22240   5.271   5.442   0.659
 7114SOL    HW122241   5.315   5.526   0.627
 7114SOL    HW222242   5.341   5.378   0.693
 7115SOL     OW22243   5.237   3.023   0.001
 7115SOL    HW122244   5.323   2.980   6.993
 7115SOL    HW222245   5.161   2.970   6.984
 7116SOL     OW22246   5.589   4.514   3.177
 7116SOL    HW122247   5.593   4.613   3.166
 7116SOL    HW222248   5.667   4.483   3.231
 7117SOL     OW22249   0.813   6.255   4.792
 7117SOL    HW122250   0.792   6.189   4.720
 7117SOL    HW222251   0.793   6.347   4.760
 7118SOL     OW22252   2.878   5.017   6.591
 7118SOL    HW122253   2.876   5.115   6.612
 7118SOL    HW222254   2.943   4.971   6.652
 7119SOL     OW22255   4.961   1.672   4.064
 7119SOL    HW122256   4.881   1.611   4.066
 7119SOL    HW222257   4.986   1.696   4.158
 7120SOL     OW22258   3.262   2.117   1.913
 7120SOL    HW122259   3.164   2.104   1.929
 7120SOL    HW222260   3.313   2.096   1.996
 7121SOL     OW22261   0.540   7.011   3.748
 7121SOL    HW122262   0.554   6.917   3.717
 7121SOL    HW222263   0.532   0.052   3.668
 7122SOL     OW22264   1.770   0.932   5.848
 7122SOL    HW122265   1.859   0.920   5.803
 7122SOL    HW222266   1.785   0.952   5.945
 7123SOL     OW22267   1.664   4.772   3.441
 7123SOL    HW122268   1.583   4.823   3.471
 7123SOL    HW222269   1.636   4.695   3.383
 7124SOL     OW22270   0.006   1.817   1.351
 7124SOL    HW122271   7.011   1.912   1.377
 7124SOL    HW222272   0.013   1.810   1.251
 7125SOL     OW22273   0.830   0.118   1.040
 7125SOL    HW122274   0.857   0.076   0.954
 7125SOL    HW222275   0.857   0.058   1.116
 7126SOL     OW22276   3.726   5.085   0.106
 7126SOL    HW122277   3.758   5.012   0.166
 7126SOL    HW222278   3.673   5.151   0.158
 7127SOL     OW22279   2.040   5.607   6.519
 7127SOL    HW122280   1.941   5.593   6.519
 7127SOL    HW222281   2.074   5.612   6.425
 7128SOL     OW22282   3.506   3.878   6.553
 7128SOL    HW122283   3.423   3.929   6.532
 7128SOL    HW222284   3.581   3.943   6.571
 7129SOL     OW22285   2.394   1.223   0.305
 7129SOL    HW122286   2.377   1.194   0.211
 7129SOL    HW222287   2.356   1.314   0.319
 7130SOL     OW22288   3.707   5.927   4.239
 7130SOL    HW122289   3.729   5.859   4.169
 7130SOL    HW222290   3.711   5.883   4.329
 7131SOL     OW22291   2.695   0.847   1.543
 7131SOL    HW122292   2.794   0.842   1.553
 7131SOL    HW222293   2.658   0.909   1.611
 7132SOL     OW22294   3.681   3.928   0.545
 7132SOL    HW122295   3.675   3.956   0.641
 7132SOL    HW222296   3.775   3.903   0.523
 7133SOL     OW22297   4.470   4.722   5.343
 7133SOL    HW122298   4.378   4.700   5.312
 7133SOL    HW222299   4.480   4.697   5.440
 7134SOL     OW22300   4.586   6.824   1.524
 7134SOL    HW122301   4.593   6.924   1.523
 7134SOL    HW222302   4.490   6.798   1.541
 7135SOL     OW22303   1.533   2.566   3.402
 7135SOL    HW122304   1.583   2.634   3.455
 7135SOL    HW222305   1.598   2.508   3.352
 7136SOL     OW22306   3.100   1.585   0.094
 7136SOL    HW122307   3.157   1.607   0.174
 7136SOL    HW222308   3.139   1.505   0.047
 7137SOL     OW22309   2.976   1.168   0.195
 7137SOL    HW122310   2.895   1.162   0.136
 7137SOL    HW222311   3.054   1.126   0.149
 7138SOL     OW22312   2.208   2.035   0.255
 7138SOL    HW122313   2.275   2.093   0.302
 7138SOL    HW222314   2.116   2.075   0.268
 7139SOL     OW22315   5.713   4.836   1.719
 7139SOL    HW122316   5.628   4.824   1.770
 7139SOL    HW222317   5.789   4.845   1.783
 7140SOL     OW22318   7.012   4.577   1.361
 7140SOL    HW122319   6.963   4.619   1.437
 7140SOL    HW222320   6.977   4.484   1.347
 7141SOL     OW22321   3.727   6.440   0.554
 7141SOL    HW122322   3.691   6.364   0.609
 7141SOL    HW222323   3.652   6.503   0.532
 7142SOL     OW22324   4.159   6.669   3.102
 7142SOL    HW122325   4.201   6.613   3.031
 7142SOL    HW222326   4.085   6.619   3.146
 7143SOL     OW22327   1.475   2.921   6.689
 7143SOL    HW122328   1.498   2.851   6.621
 7143SOL    HW222329   1.559   2.962   6.724
 7144SOL     OW22330   1.692   2.152   2.914
 7144SOL    HW122331   1.659   2.104   2.833
 7144SOL    HW222332   1.704   2.085   2.988
 7145SOL     OW22333   3.687   0.294   6.380
 7145SOL    HW122334   3.736   0.251   6.456
 7145SOL    HW222335   3.744   0.289   6.297
 7146SOL     OW22336   1.546   6.798   6.517
 7146SOL    HW122337   1.484   6.861   6.563
 7146SOL    HW222338   1.538   6.707   6.559
 7147SOL     OW22339   0.228   6.598   2.947
 7147SOL    HW122340   0.137   6.636   2.965
 7147SOL    HW222341   0.226   6.499   2.962
 7148SOL     OW22342   6.361   6.412   1.309
 7148SOL    HW122343   6.421   6.424   1.388
 7148SOL    HW222344   6.290   6.483   1.310
 7149SOL     OW22345   0.202   6.246   4.288
 7149SOL    HW122346   0.277   6.280   4.232
 7149SOL    HW222347   0.200   6.297   4.375
 7150SOL     OW22348   3.715   3.072   0.759
 7150SOL    HW122349   3.705   3.021   0.674
 7150SOL    HW222350   3.644   3.042   0.824
 7151SOL     OW22351   3.411   6.617   0.637
 7151SOL    HW122352   3.379   6.711   0.635
 7151SOL    HW222353   3.355   6.564   0.701
 7152SOL     OW22354   6.571   0.903   5.145
 7152SOL    HW122355   6.558   0.999   5.118
 7152SOL    HW222356   6.669   0.886   5.159
 7153SOL     OW22357   3.650   4.866   1.287
 7153SOL    HW122358   3.655   4.894   1.191
 7153SOL    HW222359   3.705   4.928   1.342
 7154SOL     OW22360   4.936   6.357   3.224
 7154SOL    HW122361   5.028   6.383   3.252
 7154SOL    HW222362   4.894   6.301   3.295
 7155SOL     OW22363   2.998   3.116   1.117
 7155SOL    HW122364   2.955   3.124   1.027
 7155SOL    HW222365   3.086   3.163   1.116
 7156SOL     OW22366   6.916   3.565   2.741
 7156SOL    HW122367   6.846   3.610   2.798
 7156SOL    HW222368   6.945   3.480   2.786
 7157SOL     OW22369   0.695   4.421   1.390
 7157SOL    HW122370   0.739   4.456   1.308
 7157SOL    HW222371   0.596   4.416   1.376
 7158SOL     OW22372   0.791   0.466   4.549
 7158SOL    HW122373   0.731   0.536   4.589
 7158SOL    HW222374   0.856   0.435   4.619
 7159SOL     OW22375   0.993   4.735   3.900
 7159SOL    HW122376   1.057   4.784   3.959
 7159SOL    HW222377   0.906   4.784   3.897
 7160SOL     OW22378   5.553   0.297   2.697
 7160SOL    HW122379   5.501   0.280   2.612
 7160SOL    HW222380   5.489   0.309   2.773
 7161SOL     OW22381   3.318   3.989   3.076
 7161SOL    HW122382   3.220   3.973   3.068
 7161SOL    HW222383   3.349   4.046   2.999
 7162SOL     OW22384   1.350   5.558   6.251
 7162SOL    HW122385   1.330   5.610   6.168
 7162SOL    HW222386   1.265   5.535   6.298
 7163SOL     OW22387   2.794   0.248   2.670
 7163SOL    HW122388   2.773   0.342   2.641
 7163SOL    HW222389   2.726   0.185   2.631
 7164SOL     OW22390   2.841   0.150   4.955
 7164SOL    HW122391   2.766   0.096   4.916
 7164SOL    HW222392   2.809   0.243   4.973
 7165SOL     OW22393   6.071   6.828   2.350
 7165SOL    HW122394   6.024   6.850   2.264
 7165SOL    HW222395   6.159   6.784   2.330
 7166SOL     OW22396   4.604   1.873   1.089
 7166SOL    HW122397   4.511   1.855   1.121
 7166SOL    HW222398   4.662   1.899   1.166
 7167SOL     OW22399   5.121   3.357   4.525
 7167SOL    HW122400   5.028   3.360   4.562
 7167SOL    HW222401   5.186   3.364   4.600
 7168SOL     OW22402   1.960   2.581   3.085
 7168SOL    HW122403   2.000   2.516   3.150
 7168SOL    HW222404   2.032   2.641   3.051
 7169SOL     OW22405   6.793   3.900   5.506
 7169SOL    HW122406   6.717   3.837   5.485
 7169SOL    HW222407   6.854   3.904   5.427
 7170SOL     OW22408   4.613   6.751   2.220
 7170SOL    HW122409   4.577   6.834   2.176
 7170SOL    HW222410   4.571   6.739   2.309
 7171SOL     OW22411   6.429   4.116   0.080
 7171SOL    HW122412   6.442   4.073   0.169
 7171SOL    HW222413   6.472   4.059   0.010
 7172SOL     OW22414   2.109   0.103   4.730
 7172SOL    HW122415   2.087   0.200   4.718
 7172SOL    HW222416   2.171   0.074   4.657
 7173SOL     OW22417   6.550   4.350   0.018
 7173SOL    HW122418   6.631   4.353   0.076
 7173SOL    HW222419   6.494   4.271   0.043
 7174SOL     OW22420   1.522   3.934   0.712
 7174SOL    HW122421   1.595   3.898   0.653
 7174SOL    HW222422   1.433   3.913   0.672
 7175SOL     OW22423   5.860   2.705   5.028
 7175SOL    HW122424   5.864   2.627   5.090
 7175SOL    HW222425   5.953   2.731   5.001
 7176SOL     OW22426   0.067   1.235   3.758
 7176SOL    HW122427   0.066   1.187   3.670
 7176SOL    HW222428   6.992   1.260   3.783
 7177SOL     OW22429   1.144   4.628   4.951
 7177SOL    HW122430   1.070   4.575   4.908
 7177SOL    HW222431   1.191   4.571   5.018
 7178SOL     OW22432   6.673   1.916   5.506
 7178SOL    HW122433   6.694   1.903   5.409
 7178SOL    HW222434   6.623   1.837   5.540
 7179SOL     OW22435   1.933   3.291   4.612
 7179SOL    HW122436   1.901   3.294   4.517
 7179SOL    HW222437   1.959   3.384   4.641
 7180SOL     OW22438   2.476   5.152   0.337
 7180SOL    HW122439   2.570   5.124   0.316
 7180SOL    HW222440   2.475   5.214   0.414
 7181SOL     OW22441   2.258   0.375   0.074
 7181SOL    HW122442   2.167   0.410   0.095
 7181SOL    HW222443   2.295   0.328   0.155
 7182SOL     OW22444   6.959   3.520   4.166
 7182SOL    HW122445   0.023   3.475   4.132
 7182SOL    HW222446   6.985   3.598   4.223
 7183SOL     OW22447   1.585   5.789   1.383
 7183SOL    HW122448   1.581   5.834   1.471
 7183SOL    HW222449   1.533   5.841   1.315
 7184SOL     OW22450   6.831   1.068   4.213
 7184SOL    HW122451   6.760   1.010   4.252
 7184SOL    HW222452   6.816   1.163   4.241
 7185SOL     OW22453   5.587   0.764   5.465
 7185SOL    HW122454   5.557   0.859   5.480
 7185SOL    HW222455   5.677   0.751   5.506
 7186SOL     OW22456   6.423   1.951   2.116
 7186SOL    HW122457   6.326   1.972   2.104
 7186SOL    HW222458   6.478   2.026   2.078
 7187SOL     OW22459   3.272   4.154   5.073
 7187SOL    HW122460   3.200   4.109   5.126
 7187SOL    HW222461   3.345   4.185   5.133
 7188SOL     OW22462   5.310   6.306   6.791
 7188SOL    HW122463   5.240   6.346   6.733
 7188SOL    HW222464   5.380   6.263   6.734
 7189SOL     OW22465   6.264   1.342   5.384
 7189SOL    HW122466   6.214   1.333   5.298
 7189SOL    HW222467   6.201   1.337   5.461
 7190SOL     OW22468   6.551   5.152   1.622
 7190SOL    HW122469   6.474   5.133   1.682
 7190SOL    HW222470   6.551   5.088   1.545
 7191SOL     OW22471   1.389   4.688   2.358
 7191SOL    HW122472   1.335   4.670   2.276
 7191SOL    HW222473   1.411   4.785   2.363
 7192SOL     OW22474   1.994   4.252   5.682
 7192SOL    HW122475   2.055   4.227   5.756
 7192SOL    HW222476   2.045   4.257   5.596
 7193SOL     OW22477   1.694   2.295   2.187
 7193SOL    HW122478   1.765   2.364   2.171
 7193SOL    HW222479   1.686   2.236   2.107
 7194SOL     OW22480   2.006   2.515   0.568
 7194SOL    HW122481   1.924   2.466   0.598
 7194SOL    HW222482   2.005   2.608   0.604
 7195SOL     OW22483   0.665   3.981   0.086
 7195SOL    HW122484   0.663   4.061   0.026
 7195SOL    HW222485   0.759   3.948   0.094
 7196SOL     OW22486   2.065   3.611   1.854
 7196SOL    HW122487   2.116   3.692   1.826
 7196SOL    HW222488   2.130   3.540   1.883
 7197SOL     OW22489   0.472   3.168   5.349
 7197SOL    HW122490   0.565   3.131   5.348
 7197SOL    HW222491   0.408   3.097   5.320
 7198SOL     OW22492   0.655   0.791   0.673
 7198SOL    HW122493   0.680   0.880   0.636
 7198SOL    HW222494   0.652   0.797   0.773
 7199SOL     OW22495   1.319   0.124   2.005
 7199SOL    HW122496   1.397   0.168   2.049
 7199SOL    HW222497   1.290   0.045   2.059
 7200SOL     OW22498   1.938   2.816   6.671
 7200SOL    HW122499   1.934   2.887   6.600
 7200SOL    HW222500   2.033   2.799   6.696
 7201SOL     OW22501   0.965   6.040   4.104
 7201SOL    HW122502   0.971   6.001   4.196
 7201SOL    HW222503   0.874   6.077   4.089
 7202SOL     OW22504   5.120   6.596   0.154
 7202SOL    HW122505   5.176   6.678   0.168
 7202SOL    HW222506   5.173   6.527   0.104
 7203SOL     OW22507   6.787   0.917   0.966
 7203SOL    HW122508   6.688   0.933   0.956
 7203SOL    HW222509   6.804   0.869   1.052
 7204SOL     OW22510   0.453   1.086   6.158
 7204SOL    HW122511   0.383   1.054   6.094
 7204SOL    HW222512   0.471   1.015   6.225
 7205SOL     OW22513   1.512   3.903   4.722
 7205SOL    HW122514   1.567   3.840   4.667
 7205SOL    HW222515   1.460   3.851   4.789
 7206SOL     OW22516   1.435   0.075   2.438
 7206SOL    HW122517   1.424   0.132   2.519
 7206SOL    HW222518   1.409   0.127   2.357
 7207SOL     OW22519   3.456   0.441   3.675
 7207SOL    HW122520   3.539   0.388   3.693
 7207SOL    HW222521   3.475   0.510   3.605
 7208SOL     OW22522   3.952   0.222   3.737
 7208SOL    HW122523   4.013   0.248   3.662
 7208SOL    HW222524   3.864   0.269   3.727
 7209SOL     OW22525   2.772   3.134   1.789
 7209SOL    HW122526   2.861   3.126   1.745
 7209SOL    HW222527   2.736   3.226   1.776
 7210SOL     OW22528   4.404   0.971   2.767
 7210SOL    HW122529   4.398   0.877   2.800
 7210SOL    HW222530   4.422   0.970   2.668
 7211SOL     OW22531   1.661   6.374   5.022
 7211SOL    HW122532   1.688   6.467   5.046
 7211SOL    HW222533   1.734   6.310   5.047
 7212SOL     OW22534   0.213   6.323   5.142
 7212SOL    HW122535   0.135   6.338   5.202
 7212SOL    HW222536   0.295   6.303   5.196
 7213SOL     OW22537   3.863   6.022   6.483
 7213SOL    HW122538   3.898   5.938   6.443
 7213SOL    HW222539   3.909   6.039   6.570
 7214SOL     OW22540   6.798   0.254   4.534
 7214SOL    HW122541   6.841   0.312   4.603
 7214SOL    HW222542   6.855   0.174   4.518
 7215SOL     OW22543   0.002   3.298   3.561
 7215SOL    HW122544   6.953   3.250   3.616
 7215SOL    HW222545   0.047   3.234   3.499
 7216SOL     OW22546   3.344   0.220   0.670
 7216SOL    HW122547   3.293   0.217   0.756
 7216SOL    HW222548   3.362   0.315   0.645
 7217SOL     OW22549   1.903   4.004   3.377
 7217SOL    HW122550   1.829   3.945   3.347
 7217SOL    HW222551   1.989   3.953   3.376
 7218SOL     OW22552   6.590   2.675   4.333
 7218SOL    HW122553   6.535   2.757   4.348
 7218SOL    HW222554   6.531   2.594   4.332
 7219SOL     OW22555   3.720   0.163   3.098
 7219SOL    HW122556   3.622   0.168   3.077
 7219SOL    HW222557   3.744   0.070   3.123
 7220SOL     OW22558   0.081   4.120   4.748
 7220SOL    HW122559   0.097   4.132   4.650
 7220SOL    HW222560   0.078   4.022   4.769
 7221SOL     OW22561   3.412   5.622   4.638
 7221SOL    HW122562   3.414   5.654   4.544
 7221SOL    HW222563   3.390   5.524   4.640
 7222SOL     OW22564   5.868   6.954   3.504
 7222SOL    HW122565   5.949   7.008   3.527
 7222SOL    HW222566   5.895   6.879   3.443
 7223SOL     OW22567   3.365   1.428   0.785
 7223SOL    HW122568   3.449   1.447   0.836
 7223SOL    HW222569   3.291   1.409   0.850
 7224SOL     OW22570   5.506   1.884   4.242
 7224SOL    HW122571   5.600   1.850   4.246
 7224SOL    HW222572   5.475   1.884   4.147
 7225SOL     OW22573   1.198   6.125   0.632
 7225SOL    HW122574   1.146   6.208   0.654
 7225SOL    HW222575   1.295   6.147   0.629
 7226SOL     OW22576   5.859   0.504   2.077
 7226SOL    HW122577   5.768   0.545   2.068
 7226SOL    HW222578   5.896   0.486   1.986
 7227SOL     OW22579   2.926   1.850   0.858
 7227SOL    HW122580   2.918   1.751   0.850
 7227SOL    HW222581   3.015   1.880   0.824
 7228SOL     OW22582   1.130   2.148   2.530
 7228SOL    HW122583   1.119   2.247   2.521
 7228SOL    HW222584   1.056   2.111   2.586
 7229SOL     OW22585   1.105   5.876   5.921
 7229SOL    HW122586   1.089   5.975   5.928
 7229SOL    HW222587   1.097   5.847   5.826
 7230SOL     OW22588   3.601   5.125   5.003
 7230SOL    HW122589   3.633   5.045   5.054
 7230SOL    HW222590   3.546   5.094   4.924
 7231SOL     OW22591   4.052   0.441   6.674
 7231SOL    HW122592   4.026   0.404   6.763
 7231SOL    HW222593   4.126   0.386   6.635
 7232SOL     OW22594   5.144   5.502   2.991
 7232SOL    HW122595   5.124   5.478   2.896
 7232SOL    HW222596   5.071   5.467   3.050
 7233SOL     OW22597   0.988   1.338   3.714
 7233SOL    HW122598   1.087   1.355   3.710
 7233SOL    HW222599   0.953   1.375   3.801
 7234SOL     OW22600   5.282   2.337   3.830
 7234SOL    HW122601   5.295   2.305   3.924
 7234SOL    HW222602   5.232   2.268   3.778
 7235SOL     OW22603   6.932   4.810   2.622
 7235SOL    HW122604   6.928   4.886   2.557
 7235SOL    HW222605   6.858   4.818   2.688
 7236SOL     OW22606   2.763   1.802   1.696
 7236SOL    HW122607   2.780   1.811   1.795
 7236SOL    HW222608   2.823   1.731   1.659
 7237SOL     OW22609   3.774   0.303   4.297
 7237SOL    HW122610   3.815   0.270   4.211
 7237SOL    HW222611   3.745   0.224   4.351
 7238SOL     OW22612   4.388   1.604   6.949
 7238SOL    HW122613   4.300   1.648   6.932
 7238SOL    HW222614   4.457   1.673   6.966
 7239SOL     OW22615   0.914   2.095   2.168
 7239SOL    HW122616   0.974   2.016   2.157
 7239SOL    HW222617   0.960   2.166   2.220
 7240SOL     OW22618   1.374   0.705   6.180
 7240SOL    HW122619   1.327   0.793   6.182
 7240SOL    HW222620   1.310   0.633   6.207
 7241SOL     OW22621   2.002   0.435   0.885
 7241SOL    HW122622   2.009   0.506   0.955
 7241SOL    HW222623   2.065   0.455   0.810
 7242SOL     OW22624   6.796   6.058   6.730
 7242SOL    HW122625   6.766   6.050   6.635
 7242SOL    HW222626   6.896   6.047   6.734
 7243SOL     OW22627   6.458   4.320   6.429
 7243SOL    HW122628   6.481   4.230   6.464
 7243SOL    HW222629   6.445   4.316   6.330
 7244SOL     OW22630   6.590   0.919   2.097
 7244SOL    HW122631   6.647   0.850   2.141
 7244SOL    HW222632   6.495   0.907   2.125
 7245SOL     OW22633   1.927   3.065   5.339
 7245SOL    HW122634   2.011   3.112   5.364
 7245SOL    HW222635   1.849   3.115   5.376
 7246SOL     OW22636   0.568   0.039   4.036
 7246SOL    HW122637   0.584   0.138   4.035
 7246SOL    HW222638   0.531   0.010   3.948
 7247SOL     OW22639   2.629   1.242   4.182
 7247SOL    HW122640   2.710   1.202   4.226
 7247SOL    HW222641   2.572   1.169   4.144
 7248SOL     OW22642   2.607   1.307   3.100
 7248SOL    HW122643   2.518   1.327   3.060
 7248SOL    HW222644   2.610   1.343   3.194
 7249SOL     OW22645   6.435   5.177   2.403
 7249SOL    HW122646   6.431   5.096   2.345
 7249SOL    HW222647   6.462   5.256   2.348
 7250SOL     OW22648   5.320   6.245   6.203
 7250SOL    HW122649   5.312   6.256   6.302
 7250SOL    HW222650   5.338   6.334   6.161
 7251SOL     OW22651   0.397   6.248   5.323
 7251SOL    HW122652   0.374   6.151   5.339
 7251SOL    HW222653   0.439   6.285   5.406
 7252SOL     OW22654   4.018   3.074   2.241
 7252SOL    HW122655   4.069   3.018   2.306
 7252SOL    HW222656   4.046   3.170   2.250
 7253SOL     OW22657   1.458   5.941   6.764
 7253SOL    HW122658   1.385   5.883   6.801
 7253SOL    HW222659   1.527   5.884   6.721
 7254SOL     OW22660   5.064   5.107   4.099
 7254SOL    HW122661   5.043   5.016   4.133
 7254SOL    HW222662   5.122   5.099   4.017
 7255SOL     OW22663   3.508   4.082   1.046
 7255SOL    HW122664   3.467   3.991   1.052
 7255SOL    HW222665   3.605   4.073   1.021
 7256SOL     OW22666   3.037   5.738   4.724
 7256SOL    HW122667   2.973   5.662   4.712
 7256SOL    HW222668   3.105   5.713   4.793
 7257SOL     OW22669   5.947   1.773   3.190
 7257SOL    HW122670   5.926   1.717   3.270
 7257SOL    HW222671   5.900   1.736   3.110
 7258SOL     OW22672   4.878   1.707   2.819
 7258SOL    HW122673   4.910   1.693   2.913
 7258SOL    HW222674   4.949   1.676   2.755
 7259SOL     OW22675   2.186   3.577   0.870
 7259SOL    HW122676   2.209   3.561   0.774
 7259SOL    HW222677   2.105   3.634   0.876
 7260SOL     OW22678   4.156   1.849   1.376
 7260SOL    HW122679   4.081   1.819   1.436
 7260SOL    HW222680   4.210   1.919   1.421
 7261SOL     OW22681   1.193   2.855   1.239
 7261SOL    HW122682   1.161   2.817   1.152
 7261SOL    HW222683   1.220   2.951   1.226
 7262SOL     OW22684   4.934   2.302   6.065
 7262SOL    HW122685   4.958   2.370   6.134
 7262SOL    HW222686   4.873   2.343   5.997
 7263SOL     OW22687   1.224   0.169   0.304
 7263SOL    HW122688   1.153   0.098   0.296
 7263SOL    HW222689   1.313   0.130   0.280
 7264SOL     OW22690   5.044   1.956   6.851
 7264SOL    HW122691   5.009   1.864   6.831
 7264SOL    HW222692   4.994   2.023   6.795
 7265SOL     OW22693   5.797   5.492   5.547
 7265SOL    HW122694   5.825   5.462   5.638
 7265SOL    HW222695   5.712   5.543   5.554
 7266SOL     OW22696   5.541   6.249   2.049
 7266SOL    HW122697   5.602   6.326   2.065
 7266SOL    HW222698   5.592   6.164   2.055
 7267SOL     OW22699   6.329   6.312   5.187
 7267SOL    HW122700   6.390   6.390   5.198
 7267SOL    HW222701   6.333   6.280   5.092
 7268SOL     OW22702   6.079   5.313   3.550
 7268SOL    HW122703   5.981   5.294   3.562
 7268SOL    HW222704   6.093   5.365   3.466
 7269SOL     OW22705   6.861   6.556   6.479
 7269SOL    HW122706   6.894   6.464   6.461
 7269SOL    HW222707   6.838   6.565   6.576
 7270SOL     OW22708   1.921   3.515   5.713
 7270SOL    HW122709   1.933   3.473   5.623
 7270SOL    HW222710   1.996   3.488   5.773
 7271SOL     OW22711   0.516   6.455   3.260
 7271SOL    HW122712   0.559   6.464   3.350
 7271SOL    HW222713   0.529   6.539   3.208
 7272SOL     OW22714   6.052   5.397   2.419
 7272SOL    HW122715   6.012   5.343   2.346
 7272SOL    HW222716   6.148   5.416   2.397
 7273SOL     OW22717   6.317   4.761   2.080
 7273SOL    HW122718   6.235   4.809   2.046
 7273SOL    HW222719   6.398   4.797   2.033
 7274SOL     OW22720   0.338   5.322   6.699
 7274SOL    HW122721   0.376   5.229   6.700
 7274SOL    HW222722   0.241   5.318   6.723
 7275SOL     OW22723   0.385   6.347   2.424
 7275SOL    HW122724   0.461   6.409   2.444
 7275SOL    HW222725   0.410   6.254   2.449
 7276SOL     OW22726   3.879   1.008   3.313
 7276SOL    HW122727   3.827   1.088   3.283
 7276SOL    HW222728   3.927   1.030   3.398
 7277SOL     OW22729   4.242   0.774   4.004
 7277SOL    HW122730   4.221   0.727   3.918
 7277SOL    HW222731   4.157   0.810   4.043
 7278SOL     OW22732   3.349   2.934   1.309
 7278SOL    HW122733   3.377   2.839   1.294
 7278SOL    HW222734   3.276   2.936   1.378
 7279SOL     OW22735   4.319   4.142   6.033
 7279SOL    HW122736   4.376   4.121   6.112
 7279SOL    HW222737   4.243   4.078   6.028
 7280SOL     OW22738   0.296   1.462   3.599
 7280SOL    HW122739   0.238   1.381   3.607
 7280SOL    HW222740   0.387   1.441   3.633
 7281SOL     OW22741   2.028   1.124   0.488
 7281SOL    HW122742   2.026   1.181   0.405
 7281SOL    HW222743   1.982   1.037   0.469
 7282SOL     OW22744   6.308   5.908   1.588
 7282SOL    HW122745   6.355   5.842   1.646
 7282SOL    HW222746   6.371   5.980   1.561
 7283SOL     OW22747   4.945   0.254   2.573
 7283SOL    HW122748   5.044   0.249   2.584
 7283SOL    HW222749   4.918   0.349   2.558
 7284SOL     OW22750   0.347   2.322   5.674
 7284SOL    HW122751   0.358   2.271   5.589
 7284SOL    HW222752   0.295   2.406   5.656
 7285SOL     OW22753   5.530   2.962   2.430
 7285SOL    HW122754   5.449   2.997   2.477
 7285SOL    HW222755   5.516   2.866   2.407
 7286SOL     OW22756   1.567   1.160   0.895
 7286SOL    HW122757   1.629   1.236   0.874
 7286SOL    HW222758   1.484   1.196   0.938
 7287SOL     OW22759   0.778   2.545   5.286
 7287SOL    HW122760   0.690   2.506   5.261
 7287SOL    HW222761   0.819   2.590   5.207
 7288SOL     OW22762   1.745   1.485   1.965
 7288SOL    HW122763   1.663   1.437   1.998
 7288SOL    HW222764   1.766   1.454   1.873
 7289SOL     OW22765   5.988   1.778   3.893
 7289SOL    HW122766   6.083   1.767   3.861
 7289SOL    HW222767   5.971   1.715   3.968
 7290SOL     OW22768   3.466   1.770   5.428
 7290SOL    HW122769   3.425   1.861   5.433
 7290SOL    HW222770   3.413   1.706   5.484
 7291SOL     OW22771   0.665   7.005   0.131
 7291SOL    HW122772   0.632   0.071   0.089
 7291SOL    HW222773   0.718   6.953   0.065
 7292SOL     OW22774   3.176   0.277   3.224
 7292SOL    HW122775   3.140   0.366   3.197
 7292SOL    HW222776   3.106   0.225   3.273
 7293SOL     OW22777   1.732   1.746   4.832
 7293SOL    HW122778   1.697   1.684   4.903
 7293SOL    HW222779   1.739   1.839   4.869
 7294SOL     OW22780   2.370   4.407   0.079
 7294SOL    HW122781   2.418   4.495   0.076
 7294SOL    HW222782   2.435   4.333   0.095
 7295SOL     OW22783   6.227   3.921   1.052
 7295SOL    HW122784   6.238   4.020   1.039
 7295SOL    HW222785   6.152   3.889   0.994
 7296SOL     OW22786   3.443   6.272   1.545
 7296SOL    HW122787   3.424   6.191   1.601
 7296SOL    HW222788   3.360   6.301   1.498
 7297SOL     OW22789   3.406   6.975   1.508
 7297SOL    HW122790   3.463   6.934   1.580
 7297SOL    HW222791   3.459   6.983   1.424
 7298SOL     OW22792   4.981   5.124   6.028
 7298SOL    HW122793   4.934   5.191   5.970
 7298SOL    HW222794   4.924   5.102   6.106
 7299SOL     OW22795   0.817   2.495   1.277
 7299SOL    HW122796   0.891   2.525   1.337
 7299SOL    HW222797   0.828   2.397   1.257
 7300SOL     OW22798   0.579   6.970   2.117
 7300SOL    HW122799   0.489   6.926   2.121
 7300SOL    HW222800   0.633   6.928   2.044
 7301SOL     OW22801   6.350   1.702   4.543
 7301SOL    HW122802   6.357   1.724   4.446
 7301SOL    HW222803   6.429   1.738   4.592
 7302SOL     OW22804   1.106   2.317   5.463
 7302SOL    HW122805   1.007   2.312   5.481
 7302SOL    HW222806   1.155   2.261   5.530
 7303SOL     OW22807   4.253   0.723   0.054
 7303SOL    HW122808   4.322   0.751   7.006
 7303SOL    HW222809   4.285   0.642   0.103
 7304SOL     OW22810   3.018   5.647   1.544
 7304SOL    HW122811   2.972   5.569   1.500
 7304SOL    HW222812   3.109   5.618   1.574
 7305SOL     OW22813   5.250   1.772   0.837
 7305SOL    HW122814   5.292   1.858   0.810
 7305SOL    HW222815   5.290   1.740   0.923
 7306SOL     OW22816   4.260   1.619   1.472
 7306SOL    HW122817   4.216   1.697   1.426
 7306SOL    HW222818   4.288   1.647   1.564
 7307SOL     OW22819   2.205   6.464   2.792
 7307SOL    HW122820   2.181   6.526   2.717
 7307SOL    HW222821   2.267   6.394   2.758
 7308SOL     OW22822   0.188   2.785   5.065
 7308SOL    HW122823   0.218   2.872   5.104
 7308SOL    HW222824   0.185   2.793   4.965
 7309SOL     OW22825   3.943   4.929   0.746
 7309SOL    HW122826   4.034   4.968   0.732
 7309SOL    HW222827   3.897   4.919   0.658
 7310SOL     OW22828   2.386   4.071   0.238
 7310SOL    HW122829   2.405   4.157   0.191
 7310SOL    HW222830   2.465   4.044   0.293
 7311SOL     OW22831   1.902   1.731   1.218
 7311SOL    HW122832   1.904   1.633   1.198
 7311SOL    HW222833   1.890   1.782   1.133
 7312SOL     OW22834   1.057   3.278   4.633
 7312SOL    HW122835   1.133   3.302   4.574
 7312SOL    HW222836   1.092   3.233   4.715
 7313SOL     OW22837   2.282   0.951   0.993
 7313SOL    HW122838   2.252   0.880   1.056
 7313SOL    HW222839   2.219   0.955   0.915
 7314SOL     OW22840   0.107   4.987   6.324
 7314SOL    HW122841   0.075   4.930   6.249
 7314SOL    HW222842   0.031   5.043   6.358
 7315SOL     OW22843   5.847   5.686   2.141
 7315SOL    HW122844   5.796   5.761   2.182
 7315SOL    HW222845   5.809   5.599   2.172
 7316SOL     OW22846   3.725   3.256   6.653
 7316SOL    HW122847   3.807   3.208   6.684
 7316SOL    HW222848   3.646   3.224   6.706
 7317SOL     OW22849   4.558   1.445   2.098
 7317SOL    HW122850   4.480   1.491   2.056
 7317SOL    HW222851   4.613   1.512   2.147
 7318SOL     OW22852   2.782   0.428   1.766
 7318SOL    HW122853   2.772   0.527   1.775
 7318SOL    HW222854   2.768   0.384   1.855
 7319SOL     OW22855   6.773   3.819   6.844
 7319SOL    HW122856   6.837   3.892   6.820
 7319SOL    HW222857   6.810   3.764   6.919
 7320SOL     OW22858   0.849   3.495   2.244
 7320SOL    HW122859   0.802   3.462   2.162
 7320SOL    HW222860   0.870   3.592   2.234
 7321SOL     OW22861   1.144   6.394   6.188
 7321SOL    HW122862   1.073   6.435   6.247
 7321SOL    HW222863   1.203   6.336   6.243
 7322SOL     OW22864   6.877   2.932   2.985
 7322SOL    HW122865   6.921   2.895   3.067
 7322SOL    HW222866   6.913   3.024   2.966
 7323SOL     OW22867   1.988   2.563   1.300
 7323SOL    HW122868   2.025   2.592   1.389
 7323SOL    HW222869   2.002   2.465   1.288
 7324SOL     OW22870   5.703   6.111   1.179
 7324SOL    HW122871   5.752   6.186   1.133
 7324SOL    HW222872   5.615   6.095   1.133
 7325SOL     OW22873   2.667   0.144   6.452
 7325SOL    HW122874   2.636   0.056   6.414
 7325SOL    HW222875   2.588   0.198   6.479
 7326SOL     OW22876   2.655   6.358   6.814
 7326SOL    HW122877   2.671   6.323   6.721
 7326SOL    HW222878   2.624   6.453   6.808
 7327SOL     OW22879   6.072   1.957   5.779
 7327SOL    HW122880   5.977   1.926   5.779
 7327SOL    HW222881   6.106   1.958   5.873
 7328SOL     OW22882   3.962   0.165   6.490
 7328SOL    HW122883   3.992   0.256   6.462
 7328SOL    HW222884   4.042   0.105   6.497
 7329SOL     OW22885   1.065   3.893   0.895
 7329SOL    HW122886   1.149   3.932   0.932
 7329SOL    HW222887   0.993   3.963   0.894
 7330SOL     OW22888   1.682   2.674   6.959
 7330SOL    HW122889   1.597   2.714   6.924
 7330SOL    HW222890   1.660   2.604   0.008
 7331SOL     OW22891   5.451   6.505   1.290
 7331SOL    HW122892   5.353   6.526   1.282
 7331SOL    HW222893   5.463   6.416   1.332
 7332SOL     OW22894   3.197   5.685   7.014
 7332SOL    HW122895   3.177   5.629   6.934
 7332SOL    HW222896   3.141   5.768   7.012
 7333SOL     OW22897   6.451   3.137   2.948
 7333SOL    HW122898   6.385   3.173   2.882
 7333SOL    HW222899   6.519   3.207   2.969
 7334SOL     OW22900   1.896   5.762   6.266
 7334SOL    HW122901   1.800   5.759   6.292
 7334SOL    HW222902   1.923   5.674   6.226
 7335SOL     OW22903   0.605   2.777   3.430
 7335SOL    HW122904   0.672   2.837   3.474
 7335SOL    HW222905   0.515   2.791   3.473
 7336SOL     OW22906   1.739   6.673   2.456
 7336SOL    HW122907   1.817   6.634   2.506
 7336SOL    HW222908   1.772   6.741   2.391
 7337SOL     OW22909   0.667   2.895   1.024
 7337SOL    HW122910   0.726   2.958   0.973
 7337SOL    HW222911   0.620   2.945   1.097
 7338SOL     OW22912   4.856   1.391   2.179
 7338SOL    HW122913   4.841   1.422   2.085
 7338SOL    HW222914   4.786   1.431   2.239
 7339SOL     OW22915   5.978   1.010   4.658
 7339SOL    HW122916   5.883   1.024   4.685
 7339SOL    HW222917   6.023   1.098   4.644
 7340SOL     OW22918   3.353   1.224   0.391
 7340SOL    HW122919   3.331   1.226   0.488
 7340SOL    HW222920   3.352   1.129   0.359
 7341SOL     OW22921   0.541   4.340   5.630
 7341SOL    HW122922   0.611   4.284   5.674
 7341SOL    HW222923   0.534   4.428   5.676
 7342SOL     OW22924   0.248   0.421   0.112
 7342SOL    HW122925   0.179   0.477   0.065
 7342SOL    HW222926   0.232   0.425   0.210
 7343SOL     OW22927   6.162   4.678   2.396
 7343SOL    HW122928   6.257   4.654   2.375
 7343SOL    HW222929   6.138   4.763   2.349
 7344SOL     OW22930   0.714   1.129   6.035
 7344SOL    HW122931   0.785   1.120   6.105
 7344SOL    HW222932   0.625   1.108   6.076
 7345SOL     OW22933   4.879   5.369   5.266
 7345SOL    HW122934   4.854   5.280   5.305
 7345SOL    HW222935   4.870   5.366   5.166
 7346SOL     OW22936   4.653   5.178   1.442
 7346SOL    HW122937   4.663   5.206   1.538
 7346SOL    HW222938   4.623   5.256   1.388
 7347SOL     OW22939   0.289   2.203   0.856
 7347SOL    HW122940   0.341   2.197   0.941
 7347SOL    HW222941   0.307   2.291   0.812
 7348SOL     OW22942   1.462   3.948   4.313
 7348SOL    HW122943   1.554   3.912   4.330
 7348SOL    HW222944   1.409   3.882   4.259
 7349SOL     OW22945   4.707   1.994   1.315
 7349SOL    HW122946   4.655   1.996   1.400
 7349SOL    HW222947   4.790   2.050   1.325
 7350SOL     OW22948   1.977   3.205   5.952
 7350SOL    HW122949   1.960   3.132   5.886
 7350SOL    HW222950   1.923   3.189   6.034
 7351SOL     OW22951   4.945   6.909   4.731
 7351SOL    HW122952   5.041   6.930   4.713
 7351SOL    HW222953   4.889   6.943   4.656
 7352SOL     OW22954   1.884   2.194   3.143
 7352SOL    HW122955   1.952   2.228   3.078
 7352SOL    HW222956   1.927   2.178   3.231
 7353SOL     OW22957   1.012   0.861   6.462
 7353SOL    HW122958   0.935   0.884   6.521
 7353SOL    HW222959   1.091   0.834   6.517
 7354SOL     OW22960   6.997   1.558   5.550
 7354SOL    HW122961   6.915   1.559   5.608
 7354SOL    HW222962   0.049   1.504   5.595
 7355SOL     OW22963   2.180   0.927   0.756
 7355SOL    HW122964   2.152   0.835   0.730
 7355SOL    HW222965   2.264   0.952   0.707
 7356SOL     OW22966   4.106   3.875   5.966
 7356SOL    HW122967   4.010   3.857   5.944
 7356SOL    HW222968   4.155   3.901   5.883
 7357SOL     OW22969   4.255   6.649   1.773
 7357SOL    HW122970   4.271   6.680   1.679
 7357SOL    HW222971   4.199   6.566   1.771
 7358SOL     OW22972   6.369   3.687   3.226
 7358SOL    HW122973   6.367   3.756   3.298
 7358SOL    HW222974   6.426   3.610   3.255
 7359SOL     OW22975   2.526   1.859   6.538
 7359SOL    HW122976   2.495   1.954   6.543
 7359SOL    HW222977   2.622   1.856   6.512
 7360SOL     OW22978   3.216   3.796   5.462
 7360SOL    HW122979   3.292   3.853   5.494
 7360SOL    HW222980   3.251   3.714   5.418
 7361SOL     OW22981   4.508   7.003   1.963
 7361SOL    HW122982   4.537   6.913   1.931
 7361SOL    HW222983   4.567   0.054   1.923
 7362SOL     OW22984   1.529   5.012   4.862
 7362SOL    HW122985   1.621   4.973   4.856
 7362SOL    HW222986   1.464   4.941   4.889
 7363SOL     OW22987   4.435   2.086   1.908
 7363SOL    HW122988   4.375   2.063   1.831
 7363SOL    HW222989   4.380   2.120   1.984
 7364SOL     OW22990   4.245   0.512   1.525
 7364SOL    HW122991   4.150   0.542   1.529
 7364SOL    HW222992   4.300   0.567   1.588
 7365SOL     OW22993   1.061   5.654   1.946
 7365SOL    HW122994   1.143   5.603   1.920
 7365SOL    HW222995   1.084   5.718   2.019
 7366SOL     OW22996   2.288   5.576   6.669
 7366SOL    HW122997   2.201   5.600   6.626
 7366SOL    HW222998   2.296   5.477   6.677
 7367SOL     OW22999   5.002   2.444   0.875
 7367SOL    HW123000   4.963   2.359   0.910
 7367SOL    HW223001   4.932   2.515   0.874
 7368SOL     OW23002   3.815   2.958   2.797
 7368SOL    HW123003   3.915   2.961   2.800
 7368SOL    HW223004   3.781   2.929   2.887
 7369SOL     OW23005   3.976   2.922   0.223
 7369SOL    HW123006   4.033   2.862   0.167
 7369SOL    HW223007   3.951   2.875   0.308
 7370SOL     OW23008   2.280   0.698   4.483
 7370SOL    HW123009   2.225   0.696   4.400
 7370SOL    HW223010   2.355   0.631   4.475
 7371SOL     OW23011   1.868   6.473   3.807
 7371SOL    HW123012   1.816   6.419   3.873
 7371SOL    HW223013   1.807   6.501   3.732
 7372SOL     OW23014   4.543   1.304   4.508
 7372SOL    HW123015   4.474   1.315   4.579
 7372SOL    HW223016   4.508   1.340   4.422
 7373SOL     OW23017   6.156   2.190   4.053
 7373SOL    HW123018   6.061   2.176   4.081
 7373SOL    HW223019   6.183   2.284   4.072
 7374SOL     OW23020   2.585   1.630   5.612
 7374SOL    HW123021   2.567   1.578   5.529
 7374SOL    HW223022   2.593   1.727   5.589
 7375SOL     OW23023   1.741   2.727   3.030
 7375SOL    HW123024   1.771   2.775   2.947
 7375SOL    HW223025   1.799   2.647   3.046
 7376SOL     OW23026   2.676   1.036   0.448
 7376SOL    HW123027   2.621   1.082   0.378
 7376SOL    HW223028   2.773   1.041   0.423
 7377SOL     OW23029   5.834   4.590   0.312
 7377SOL    HW123030   5.927   4.567   0.342
 7377SOL    HW223031   5.775   4.510   0.321
 7378SOL     OW23032   0.050   1.148   5.817
 7378SOL    HW123033   0.133   1.113   5.859
 7378SOL    HW223034   0.001   1.205   5.883
 7379SOL     OW23035   2.958   1.472   3.154
 7379SOL    HW123036   2.882   1.499   3.096
 7379SOL    HW223037   3.027   1.425   3.100
 7380SOL     OW23038   6.708   4.171   4.712
 7380SOL    HW123039   6.796   4.188   4.755
 7380SOL    HW223040   6.704   4.216   4.623
 7381SOL     OW23041   4.498   3.960   1.294
 7381SOL    HW123042   4.475   3.904   1.373
 7381SOL    HW223043   4.550   4.040   1.324
 7382SOL     OW23044   6.880   6.221   5.988
 7382SOL    HW123045   6.946   6.243   5.916
 7382SOL    HW223046   6.787   6.232   5.953
 7383SOL     OW23047   1.733   6.989   1.401
 7383SOL    HW123048   1.686   6.995   1.312
 7383SOL    HW223049   1.830   7.006   1.388
 7384SOL     OW23050   6.047   0.214   2.943
 7384SOL    HW123051   5.950   0.195   2.960
 7384SOL    HW223052   6.055   0.295   2.884
 7385SOL     OW23053   3.962   6.188   2.062
 7385SOL    HW123054   4.050   6.223   2.093
 7385SOL    HW223055   3.956   6.090   2.082
 7386SOL     OW23056   0.932   1.971   6.013
 7386SOL    HW123057   1.010   1.960   6.075
 7386SOL    HW223058   0.959   2.028   5.935
 7387SOL     OW23059   5.510   6.469   4.388
 7387SOL    HW123060   5.520   6.429   4.479
 7387SOL    HW223061   5.591   6.525   4.367
 7388SOL     OW23062   0.249   5.182   2.316
 7388SOL    HW123063   0.332   5.216   2.273
 7388SOL    HW223064   0.220   5.245   2.389
 7389SOL     OW23065   6.707   3.942   6.369
 7389SOL    HW123066   6.788   3.994   6.397
 7389SOL    HW223067   6.734   3.849   6.346
 7390SOL     OW23068   0.939   1.929   6.982
 7390SOL    HW123069   0.845   1.938   7.015
 7390SOL    HW223070   0.957   1.834   6.960
 7391SOL     OW23071   4.076   3.768   4.219
 7391SOL    HW123072   4.076   3.867   4.230
 7391SOL    HW223073   4.096   3.724   4.306
 7392SOL     OW23074   2.177   6.128   0.128
 7392SOL    HW123075   2.257   6.187   0.121
 7392SOL    HW223076   2.126   6.151   0.212
 7393SOL     OW23077   6.090   4.535   3.054
 7393SOL    HW123078   6.015   4.473   3.073
 7393SOL    HW223079   6.057   4.629   3.052
 7394SOL     OW23080   2.463   3.031   6.250
 7394SOL    HW123081   2.476   3.003   6.155
 7394SOL    HW223082   2.434   3.127   6.253
 7395SOL     OW23083   1.661   2.656   0.721
 7395SOL    HW123084   1.691   2.561   0.714
 7395SOL    HW223085   1.729   2.709   0.770
 7396SOL     OW23086   0.891   6.807   0.951
 7396SOL    HW123087   0.953   6.737   0.916
 7396SOL    HW223088   0.939   6.863   1.018
 7397SOL     OW23089   4.394   5.283   4.588
 7397SOL    HW123090   4.455   5.206   4.608
 7397SOL    HW223091   4.443   5.351   4.533
 7398SOL     OW23092   2.404   4.716   4.486
 7398SOL    HW123093   2.395   4.766   4.572
 7398SOL    HW223094   2.383   4.620   4.500
 7399SOL     OW23095   1.347   2.420   5.348
 7399SOL    HW123096   1.405   2.479   5.404
 7399SOL    HW223097   1.268   2.389   5.401
 7400SOL     OW23098   3.705   1.931   5.486
 7400SOL    HW123099   3.619   1.897   5.524
 7400SOL    HW223100   3.686   2.003   5.420
 7401SOL     OW23101   1.567   1.620   4.600
 7401SOL    HW123102   1.587   1.707   4.645
 7401SOL    HW223103   1.569   1.633   4.501
 7402SOL     OW23104   2.606   5.960   6.621
 7402SOL    HW123105   2.511   5.944   6.595
 7402SOL    HW223106   2.636   6.047   6.584
 7403SOL     OW23107   2.021   3.671   2.417
 7403SOL    HW123108   1.966   3.587   2.412
 7403SOL    HW223109   2.051   3.697   2.325
 7404SOL     OW23110   2.648   5.316   1.561
 7404SOL    HW123111   2.737   5.356   1.536
 7404SOL    HW223112   2.577   5.355   1.503
 7405SOL     OW23113   3.869   4.988   4.353
 7405SOL    HW123114   3.907   4.937   4.276
 7405SOL    HW223115   3.769   4.985   4.349
 7406SOL     OW23116   0.121   2.640   3.322
 7406SOL    HW123117   0.135   2.711   3.254
 7406SOL    HW223118   0.210   2.604   3.351
 7407SOL     OW23119   0.877   0.231   5.147
 7407SOL    HW123120   0.916   0.199   5.233
 7407SOL    HW223121   0.941   0.294   5.103
 7408SOL     OW23122   3.447   3.849   6.910
 7408SOL    HW123123   3.463   3.759   6.871
 7408SOL    HW223124   3.422   3.913   6.837
 7409SOL     OW23125   6.132   2.344   0.082
 7409SOL    HW123126   6.221   2.368   0.042
 7409SOL    HW223127   6.130   2.247   0.104
 7410SOL     OW23128   0.007   0.021   0.689
 7410SOL    HW123129   0.072   6.980   0.641
 7410SOL    HW223130   0.038   0.033   0.784
 7411SOL     OW23131   2.106   6.950   6.175
 7411SOL    HW123132   2.186   6.912   6.128
 7411SOL    HW223133   2.023   6.909   6.138
 7412SOL     OW23134   5.117   0.276   2.208
 7412SOL    HW123135   5.060   0.202   2.244
 7412SOL    HW223136   5.195   0.289   2.269
 7413SOL     OW23137   5.522   5.676   3.675
 7413SOL    HW123138   5.547   5.600   3.736
 7413SOL    HW223139   5.450   5.731   3.717
 7414SOL     OW23140   0.459   0.742   3.867
 7414SOL    HW123141   0.395   0.802   3.915
 7414SOL    HW223142   0.472   0.774   3.774
 7415SOL     OW23143   1.975   4.955   3.610
 7415SOL    HW123144   1.934   4.990   3.526
 7415SOL    HW223145   2.031   4.875   3.588
 7416SOL     OW23146   1.815   1.552   2.654
 7416SOL    HW123147   1.716   1.546   2.666
 7416SOL    HW223148   1.851   1.629   2.706
 7417SOL     OW23149   1.733   1.062   0.178
 7417SOL    HW123150   1.636   1.053   0.200
 7417SOL    HW223151   1.761   1.157   0.192
 7418SOL     OW23152   2.317   5.806   0.409
 7418SOL    HW123153   2.343   5.889   0.358
 7418SOL    HW223154   2.294   5.733   0.345
 7419SOL     OW23155   6.624   2.865   4.677
 7419SOL    HW123156   6.571   2.780   4.677
 7419SOL    HW223157   6.713   2.848   4.635
 7420SOL     OW23158   0.638   0.248   1.368
 7420SOL    HW123159   0.561   0.310   1.349
 7420SOL    HW223160   0.604   0.165   1.411
 7421SOL     OW23161   3.993   4.346   0.672
 7421SOL    HW123162   4.030   4.257   0.698
 7421SOL    HW223163   3.925   4.335   0.600
 7422SOL     OW23164   0.204   3.074   2.059
 7422SOL    HW123165   0.237   2.982   2.081
 7422SOL    HW223166   0.117   3.090   2.106
 7423SOL     OW23167   5.626   2.881   5.704
 7423SOL    HW123168   5.659   2.946   5.773
 7423SOL    HW223169   5.700   2.862   5.639
 7424SOL     OW23170   6.454   6.486   5.730
 7424SOL    HW123171   6.387   6.419   5.698
 7424SOL    HW223172   6.413   6.577   5.732
 7425SOL     OW23173   4.266   6.049   6.736
 7425SOL    HW123174   4.200   6.108   6.688
 7425SOL    HW223175   4.219   6.000   6.809
 7426SOL     OW23176   3.396   1.538   5.597
 7426SOL    HW123177   3.314   1.485   5.617
 7426SOL    HW223178   3.462   1.482   5.547
 7427SOL     OW23179   4.136   0.616   3.478
 7427SOL    HW123180   4.071   0.548   3.512
 7427SOL    HW223181   4.227   0.574   3.473
 7428SOL     OW23182   4.366   1.627   5.209
 7428SOL    HW123183   4.362   1.659   5.303
 7428SOL    HW223184   4.461   1.629   5.177
 7429SOL     OW23185   0.418   6.263   4.537
 7429SOL    HW123186   0.441   6.330   4.608
 7429SOL    HW223187   0.340   6.208   4.568
 7430SOL     OW23188   1.156   3.001   0.189
 7430SOL    HW123189   1.121   2.932   0.253
 7430SOL    HW223190   1.188   3.081   0.241
 7431SOL     OW23191   1.680   2.707   3.580
 7431SOL    HW123192   1.730   2.793   3.573
 7431SOL    HW223193   1.628   2.704   3.665
 7432SOL     OW23194   0.732   1.135   3.040
 7432SOL    HW123195   0.654   1.170   2.989
 7432SOL    HW223196   0.813   1.191   3.020
 7433SOL     OW23197   4.400   6.187   5.833
 7433SOL    HW123198   4.328   6.248   5.866
 7433SOL    HW223199   4.475   6.183   5.899
 7434SOL     OW23200   5.227   6.161   5.762
 7434SOL    HW123201   5.267   6.110   5.838
 7434SOL    HW223202   5.151   6.110   5.723
 7435SOL     OW23203   3.270   5.920   0.715
 7435SOL    HW123204   3.217   5.990   0.762
 7435SOL    HW223205   3.278   5.839   0.774
 7436SOL     OW23206   5.269   3.768   5.887
 7436SOL    HW123207   5.185   3.720   5.912
 7436SOL    HW223208   5.274   3.777   5.788
 7437SOL     OW23209   1.756   6.166   0.209
 7437SOL    HW123210   1.680   6.171   0.274
 7437SOL    HW223211   1.799   6.076   0.215
 7438SOL     OW23212   1.217   6.004   0.255
 7438SOL    HW123213   1.183   5.957   0.336
 7438SOL    HW223214   1.198   5.948   0.174
 7439SOL     OW23215   1.876   6.302   5.727
 7439SOL    HW123216   1.863   6.277   5.631
 7439SOL    HW223217   1.787   6.305   5.772
 7440SOL     OW23218   0.065   2.686   4.206
 7440SOL    HW123219   0.061   2.781   4.174
 7440SOL    HW223220   6.994   2.660   4.241
 7441SOL     OW23221   5.070   6.952   4.372
 7441SOL    HW123222   4.979   6.956   4.413
 7441SOL    HW223223   5.082   0.012   4.311
 7442SOL     OW23224   6.463   1.272   5.838
 7442SOL    HW123225   6.469   1.174   5.858
 7442SOL    HW223226   6.491   1.324   5.918
 7443SOL     OW23227   0.067   6.150   1.915
 7443SOL    HW123228   0.120   6.126   1.834
 7443SOL    HW223229   7.003   6.198   1.888
 7444SOL     OW23230   5.486   2.340   5.737
 7444SOL    HW123231   5.389   2.363   5.749
 7444SOL    HW223232   5.503   2.314   5.642
 7445SOL     OW23233   4.088   0.743   1.176
 7445SOL    HW123234   4.145   0.748   1.095
 7445SOL    HW223235   4.005   0.798   1.163
 7446SOL     OW23236   5.940   3.497   0.853
 7446SOL    HW123237   5.948   3.418   0.914
 7446SOL    HW223238   5.869   3.558   0.887
 7447SOL     OW23239   0.047   3.361   6.950
 7447SOL    HW123240   6.986   3.382   7.006
 7447SOL    HW223241   0.129   3.402   6.991
 7448SOL     OW23242   6.346   6.740   5.078
 7448SOL    HW123243   6.298   6.699   5.001
 7448SOL    HW223244   6.442   6.712   5.076
 7449SOL     OW23245   0.626   4.255   1.898
 7449SOL    HW123246   0.548   4.236   1.956
 7449SOL    HW223247   0.675   4.170   1.877
 7450SOL     OW23248   5.383   2.636   4.667
 7450SOL    HW123249   5.410   2.541   4.647
 7450SOL    HW223250   5.286   2.639   4.688
 7451SOL     OW23251   6.991   6.998   2.828
 7451SOL    HW123252   0.013   6.980   2.918
 7451SOL    HW223253   0.029   0.042   2.777
 7452SOL     OW23254   6.596   6.668   4.802
 7452SOL    HW123255   6.500   6.648   4.821
 7452SOL    HW223256   6.612   6.662   4.703
 7453SOL     OW23257   4.762   6.737   5.795
 7453SOL    HW123258   4.732   6.810   5.734
 7453SOL    HW223259   4.726   6.753   5.887
 7454SOL     OW23260   0.747   2.572   1.867
 7454SOL    HW123261   0.781   2.478   1.873
 7454SOL    HW223262   0.685   2.590   1.943
 7455SOL     OW23263   6.515   2.589   2.094
 7455SOL    HW123264   6.449   2.648   2.047
 7455SOL    HW223265   6.548   2.636   2.176
 7456SOL     OW23266   0.870   1.200   4.112
 7456SOL    HW123267   0.890   1.298   4.122
 7456SOL    HW223268   0.794   1.176   4.172
 7457SOL     OW23269   3.633   0.185   5.933
 7457SOL    HW123270   3.672   0.126   5.862
 7457SOL    HW223271   3.685   0.172   6.018
 7458SOL     OW23272   1.257   6.338   5.667
 7458SOL    HW123273   1.258   6.349   5.766
 7458SOL    HW223274   1.327   6.273   5.640
 7459SOL     OW23275   4.423   0.423   2.377
 7459SOL    HW123276   4.466   0.333   2.377
 7459SOL    HW223277   4.488   0.491   2.342
 7460SOL     OW23278   1.104   5.333   0.713
 7460SOL    HW123279   1.035   5.392   0.670
 7460SOL    HW223280   1.195   5.370   0.696
 7461SOL     OW23281   5.795   0.858   6.023
 7461SOL    HW123282   5.802   0.809   5.936
 7461SOL    HW223283   5.779   0.955   6.005
 7462SOL     OW23284   1.863   4.050   2.241
 7462SOL    HW123285   1.878   3.977   2.173
 7462SOL    HW223286   1.772   4.040   2.280
 7463SOL     OW23287   2.690   4.951   0.597
 7463SOL    HW123288   2.745   4.913   0.671
 7463SOL    HW223289   2.686   5.051   0.606
 7464SOL     OW23290   5.382   0.128   5.788
 7464SOL    HW123291   5.336   0.198   5.843
 7464SOL    HW223292   5.479   0.151   5.780
 7465SOL     OW23293   1.820   5.528   0.011
 7465SOL    HW123294   1.898   5.542   6.968
 7465SOL    HW223295   1.736   5.557   6.984
 7466SOL     OW23296   6.843   0.887   5.171
 7466SOL    HW123297   6.853   0.788   5.157
 7466SOL    HW223298   6.933   0.926   5.189
 7467SOL     OW23299   0.744   1.349   0.860
 7467SOL    HW123300   0.802   1.404   0.800
 7467SOL    HW223301   0.657   1.397   0.874
 7468SOL     OW23302   6.051   2.583   3.181
 7468SOL    HW123303   5.972   2.592   3.242
 7468SOL    HW223304   6.135   2.586   3.234
 7469SOL     OW23305   6.266   0.437   0.652
 7469SOL    HW123306   6.283   0.478   0.741
 7469SOL    HW223307   6.170   0.410   0.645
 7470SOL     OW23308   6.454   3.855   3.016
 7470SOL    HW123309   6.437   3.800   3.098
 7470SOL    HW223310   6.434   3.951   3.035
 7471SOL     OW23311   5.251   6.652   5.771
 7471SOL    HW123312   5.348   6.652   5.748
 7471SOL    HW223313   5.210   6.565   5.744
 7472SOL     OW23314   6.066   0.034   5.279
 7472SOL    HW123315   6.106   6.964   5.257
 7472SOL    HW223316   5.981   0.045   5.228
 7473SOL     OW23317   6.087   5.380   3.854
 7473SOL    HW123318   6.169   5.378   3.797
 7473SOL    HW223319   6.082   5.296   3.909
 7474SOL     OW23320   0.901   1.732   5.929
 7474SOL    HW123321   0.907   1.831   5.944
 7474SOL    HW223322   0.847   1.690   6.001
 7475SOL     OW23323   5.153   2.442   2.466
 7475SOL    HW123324   5.121   2.412   2.376
 7475SOL    HW223325   5.157   2.542   2.469
 7476SOL     OW23326   3.152   0.377   4.096
 7476SOL    HW123327   3.123   0.297   4.148
 7476SOL    HW223328   3.127   0.460   4.145
 7477SOL     OW23329   0.528   1.518   5.693
 7477SOL    HW123330   0.431   1.498   5.698
 7477SOL    HW223331   0.559   1.510   5.598
 7478SOL     OW23332   5.521   4.342   5.757
 7478SOL    HW123333   5.610   4.385   5.776
 7478SOL    HW223334   5.461   4.354   5.835
 7479SOL     OW23335   3.646   2.052   2.312
 7479SOL    HW123336   3.639   2.109   2.230
 7479SOL    HW223337   3.554   2.033   2.347
 7480SOL     OW23338   1.120   4.110   2.471
 7480SOL    HW123339   1.134   4.011   2.479
 7480SOL    HW223340   1.032   4.128   2.427
 7481SOL     OW23341   6.125   5.582   1.166
 7481SOL    HW123342   6.213   5.605   1.124
 7481SOL    HW223343   6.115   5.634   1.251
 7482SOL     OW23344   4.853   2.781   3.073
 7482SOL    HW123345   4.829   2.721   3.149
 7482SOL    HW223346   4.863   2.727   2.990
 7483SOL     OW23347   4.818   3.101   4.368
 7483SOL    HW123348   4.806   3.049   4.284
 7483SOL    HW223349   4.790   3.196   4.353
 7484SOL     OW23350   1.576   6.857   4.657
 7484SOL    HW123351   1.536   6.878   4.568
 7484SOL    HW223352   1.596   6.942   4.706
 7485SOL     OW23353   3.386   0.024   4.698
 7485SOL    HW123354   3.297   0.049   4.661
 7485SOL    HW223355   3.443   0.106   4.704
 7486SOL     OW23356   1.992   6.513   0.446
 7486SOL    HW123357   1.948   6.514   0.536
 7486SOL    HW223358   1.994   6.420   0.410
 7487SOL     OW23359   1.953   6.761   3.499
 7487SOL    HW123360   1.967   6.713   3.412
 7487SOL    HW223361   1.863   6.738   3.536
 7488SOL     OW23362   2.599   6.362   4.278
 7488SOL    HW123363   2.565   6.394   4.367
 7488SOL    HW223364   2.668   6.426   4.244
 7489SOL     OW23365   5.594   2.549   5.345
 7489SOL    HW123366   5.534   2.627   5.362
 7489SOL    HW223367   5.624   2.549   5.250
 7490SOL     OW23368   1.473   0.222   2.650
 7490SOL    HW123369   1.396   0.212   2.713
 7490SOL    HW223370   1.559   0.217   2.701
 7491SOL     OW23371   5.322   2.681   6.910
 7491SOL    HW123372   5.395   2.628   6.867
 7491SOL    HW223373   5.233   2.649   6.876
 7492SOL     OW23374   1.727   0.679   3.218
 7492SOL    HW123375   1.790   0.666   3.142
 7492SOL    HW223376   1.777   0.717   3.296
 7493SOL     OW23377   0.370   3.566   6.684
 7493SOL    HW123378   0.423   3.543   6.765
 7493SOL    HW223379   0.364   3.486   6.624
 7494SOL     OW23380   5.129   1.584   2.731
 7494SOL    HW123381   5.188   1.653   2.773
 7494SOL    HW223382   5.097   1.520   2.800
 7495SOL     OW23383   1.521   1.955   6.588
 7495SOL    HW123384   1.527   2.008   6.504
 7495SOL    HW223385   1.578   1.997   6.659
 7496SOL     OW23386   6.257   3.463   4.422
 7496SOL    HW123387   6.208   3.376   4.428
 7496SOL    HW223388   6.346   3.448   4.379
 7497SOL     OW23389   2.510   4.446   6.455
 7497SOL    HW123390   2.496   4.515   6.526
 7497SOL    HW223391   2.480   4.482   6.367
 7498SOL     OW23392   3.107   0.624   5.119
 7498SOL    HW123393   3.093   0.713   5.161
 7498SOL    HW223394   3.183   0.577   5.164
 7499SOL     OW23395   3.335   1.246   3.173
 7499SOL    HW123396   3.401   1.177   3.202
 7499SOL    HW223397   3.291   1.285   3.254
 7500SOL     OW23398   3.331   5.960   2.939
 7500SOL    HW123399   3.397   5.885   2.942
 7500SOL    HW223400   3.246   5.928   2.897
 7501SOL     OW23401   5.153   3.645   4.945
 7501SOL    HW123402   5.176   3.607   5.035
 7501SOL    HW223403   5.064   3.609   4.916
 7502SOL     OW23404   3.038   0.682   4.655
 7502SOL    HW123405   2.951   0.716   4.619
 7502SOL    HW223406   3.024   0.592   4.697
 7503SOL     OW23407   1.744   0.380   0.990
 7503SOL    HW123408   1.830   0.401   0.942
 7503SOL    HW223409   1.675   0.448   0.965
 7504SOL     OW23410   0.990   6.691   3.350
 7504SOL    HW123411   1.087   6.707   3.331
 7504SOL    HW223412   0.941   6.777   3.348
 7505SOL     OW23413   1.627   3.049   6.109
 7505SOL    HW123414   1.599   3.143   6.093
 7505SOL    HW223415   1.703   3.025   6.047
 7506SOL     OW23416   4.798   1.250   3.632
 7506SOL    HW123417   4.725   1.183   3.649
 7506SOL    HW223418   4.859   1.216   3.560
 7507SOL     OW23419   6.843   1.550   3.031
 7507SOL    HW123420   6.937   1.544   2.995
 7507SOL    HW223421   6.834   1.489   3.109
 7508SOL     OW23422   1.238   6.923   1.441
 7508SOL    HW123423   1.316   6.886   1.491
 7508SOL    HW223424   1.153   6.896   1.486
 7509SOL     OW23425   6.036   4.211   0.574
 7509SOL    HW123426   6.089   4.183   0.494
 7509SOL    HW223427   6.091   4.200   0.657
 7510SOL     OW23428   3.691   3.465   5.551
 7510SOL    HW123429   3.677   3.551   5.601
 7510SOL    HW223430   3.785   3.461   5.517
 7511SOL     OW23431   2.546   6.170   4.105
 7511SOL    HW123432   2.564   6.239   4.175
 7511SOL    HW223433   2.454   6.183   4.068
 7512SOL     OW23434   2.567   6.630   6.568
 7512SOL    HW123435   2.621   6.705   6.608
 7512SOL    HW223436   2.572   6.636   6.468
 7513SOL     OW23437   1.841   0.823   1.435
 7513SOL    HW123438   1.896   0.836   1.353
 7513SOL    HW223439   1.769   0.893   1.438
 7514SOL     OW23440   2.645   5.530   1.752
 7514SOL    HW123441   2.656   5.450   1.693
 7514SOL    HW223442   2.689   5.609   1.710
 7515SOL     OW23443   6.928   5.332   4.709
 7515SOL    HW123444   6.891   5.355   4.619
 7515SOL    HW223445   0.001   5.295   4.700
 7516SOL     OW23446   6.660   6.107   5.716
 7516SOL    HW123447   6.654   6.109   5.617
 7516SOL    HW223448   6.666   6.013   5.748
 7517SOL     OW23449   0.583   2.253   0.470
 7517SOL    HW123450   0.672   2.298   0.461
 7517SOL    HW223451   0.560   2.243   0.567
 7518SOL     OW23452   4.240   4.656   3.837
 7518SOL    HW123453   4.234   4.752   3.809
 7518SOL    HW223454   4.148   4.623   3.860
 7519SOL     OW23455   0.430   6.141   3.834
 7519SOL    HW123456   0.521   6.104   3.853
 7519SOL    HW223457   0.403   6.116   3.740
 7520SOL     OW23458   2.093   6.944   2.398
 7520SOL    HW123459   2.000   6.934   2.362
 7520SOL    HW223460   2.157   6.949   2.321
 7521SOL     OW23461   4.735   3.377   5.854
 7521SOL    HW123462   4.828   3.365   5.819
 7521SOL    HW223463   4.712   3.301   5.915
 7522SOL     OW23464   1.598   1.376   5.575
 7522SOL    HW123465   1.581   1.442   5.648
 7522SOL    HW223466   1.546   1.401   5.494
 7523SOL     OW23467   6.012   0.131   6.515
 7523SOL    HW123468   6.082   0.192   6.477
 7523SOL    HW223469   5.937   0.185   6.552
 7524SOL     OW23470   1.459   2.713   5.103
 7524SOL    HW123471   1.475   2.624   5.060
 7524SOL    HW223472   1.534   2.775   5.080
 7525SOL     OW23473   3.434   0.840   6.274
 7525SOL    HW123474   3.397   0.932   6.262
 7525SOL    HW223475   3.369   0.773   6.239
 7526SOL     OW23476   3.478   3.362   1.555
 7526SOL    HW123477   3.482   3.268   1.522
 7526SOL    HW223478   3.567   3.387   1.595
 7527SOL     OW23479   3.057   5.894   3.317
 7527SOL    HW123480   2.962   5.865   3.323
 7527SOL    HW223481   3.066   5.989   3.347
 7528SOL     OW23482   6.138   2.492   0.793
 7528SOL    HW123483   6.064   2.545   0.752
 7528SOL    HW223484   6.117   2.394   0.786
 7529SOL     OW23485   5.191   1.775   4.619
 7529SOL    HW123486   5.155   1.856   4.573
 7529SOL    HW223487   5.241   1.719   4.554
 7530SOL     OW23488   0.247   2.808   2.132
 7530SOL    HW123489   0.312   2.807   2.207
 7530SOL    HW223490   0.296   2.807   2.045
 7531SOL     OW23491   5.714   3.389   4.647
 7531SOL    HW123492   5.669   3.332   4.715
 7531SOL    HW223493   5.747   3.333   4.571
 7532SOL     OW23494   4.735   5.652   6.932
 7532SOL    HW123495   4.810   5.639   6.866
 7532SOL    HW223496   4.651   5.674   6.883
 7533SOL     OW23497   3.329   1.244   1.689
 7533SOL    HW123498   3.414   1.242   1.637
 7533SOL    HW223499   3.258   1.192   1.640
 7534SOL     OW23500   4.110   6.646   5.223
 7534SOL    HW123501   4.132   6.551   5.200
 7534SOL    HW223502   4.176   6.707   5.181
 7535SOL     OW23503   1.949   0.741   4.727
 7535SOL    HW123504   1.912   0.651   4.708
 7535SOL    HW223505   1.990   0.779   4.645
 7536SOL     OW23506   5.061   4.651   3.924
 7536SOL    HW123507   5.082   4.556   3.898
 7536SOL    HW223508   5.127   4.712   3.881
 7537SOL     OW23509   2.789   5.727   1.663
 7537SOL    HW123510   2.777   5.797   1.733
 7537SOL    HW223511   2.887   5.714   1.645
 7538SOL     OW23512   1.813   2.534   1.088
 7538SOL    HW123513   1.861   2.570   1.168
 7538SOL    HW223514   1.856   2.569   1.005
 7539SOL     OW23515   1.809   3.781   3.914
 7539SOL    HW123516   1.825   3.774   3.816
 7539SOL    HW223517   1.748   3.859   3.932
 7540SOL     OW23518   3.994   0.510   4.843
 7540SOL    HW123519   4.030   0.517   4.750
 7540SOL    HW223520   3.988   0.413   4.868
 7541SOL     OW23521   0.402   4.599   5.374
 7541SOL    HW123522   0.307   4.605   5.403
 7541SOL    HW223523   0.427   4.503   5.362
 7542SOL     OW23524   1.218   4.996   6.833
 7542SOL    HW123525   1.290   4.937   6.797
 7542SOL    HW223526   1.241   5.092   6.816
 7543SOL     OW23527   4.307   1.270   5.920
 7543SOL    HW123528   4.329   1.208   5.844
 7543SOL    HW223529   4.352   1.358   5.904
 7544SOL     OW23530   6.640   2.209   2.628
 7544SOL    HW123531   6.546   2.241   2.642
 7544SOL    HW223532   6.704   2.275   2.669
 7545SOL     OW23533   0.301   5.129   0.370
 7545SOL    HW123534   0.394   5.112   0.338
 7545SOL    HW223535   0.249   5.176   0.298
 7546SOL     OW23536   3.313   2.091   1.123
 7546SOL    HW123537   3.407   2.074   1.151
 7546SOL    HW223538   3.272   2.159   1.185
 7547SOL     OW23539   4.827   1.575   0.584
 7547SOL    HW123540   4.919   1.536   0.572
 7547SOL    HW223541   4.790   1.546   0.673
 7548SOL     OW23542   4.496   1.818   0.159
 7548SOL    HW123543   4.450   1.844   0.074
 7548SOL    HW223544   4.521   1.900   0.210
 7549SOL     OW23545   3.689   2.946   6.904
 7549SOL    HW123546   3.760   3.007   6.939
 7549SOL    HW223547   3.599   2.988   6.920
 7550SOL     OW23548   2.385   5.048   3.522
 7550SOL    HW123549   2.454   5.110   3.485
 7550SOL    HW223550   2.352   5.082   3.610
 7551SOL     OW23551   5.554   3.237   6.390
 7551SOL    HW123552   5.534   3.307   6.459
 7551SOL    HW223553   5.576   3.151   6.436
 7552SOL     OW23554   1.369   5.944   2.818
 7552SOL    HW123555   1.333   5.867   2.766
 7552SOL    HW223556   1.464   5.924   2.844
 7553SOL     OW23557   4.172   6.382   5.195
 7553SOL    HW123558   4.250   6.378   5.257
 7553SOL    HW223559   4.097   6.326   5.231
 7554SOL     OW23560   4.998   1.104   6.938
 7554SOL    HW123561   5.082   1.158   6.946
 7554SOL    HW223562   4.933   1.151   6.878
 7555SOL     OW23563   2.282   4.904   6.263
 7555SOL    HW123564   2.204   4.860   6.307
 7555SOL    HW223565   2.348   4.933   6.332
 7556SOL     OW23566   2.471   2.785   0.481
 7556SOL    HW123567   2.395   2.741   0.432
 7556SOL    HW223568   2.482   2.742   0.571
 7557SOL     OW23569   5.227   0.538   5.699
 7557SOL    HW123570   5.129   0.548   5.716
 7557SOL    HW223571   5.243   0.455   5.647
 7558SOL     OW23572   2.020   2.493   4.217
 7558SOL    HW123573   1.970   2.419   4.172
 7558SOL    HW223574   2.004   2.488   4.316
 7559SOL     OW23575   4.750   3.695   0.635
 7559SOL    HW123576   4.773   3.660   0.544
 7559SOL    HW223577   4.786   3.634   0.705
 7560SOL     OW23578   5.131   6.316   1.103
 7560SOL    HW123579   5.162   6.242   1.163
 7560SOL    HW223580   5.157   6.294   1.009
 7561SOL     OW23581   0.598   2.869   6.659
 7561SOL    HW123582   0.635   2.943   6.715
 7561SOL    HW223583   0.668   2.836   6.596
 7562SOL     OW23584   0.587   5.644   4.666
 7562SOL    HW123585   0.526   5.658   4.744
 7562SOL    HW223586   0.644   5.564   4.682
 7563SOL     OW23587   3.117   0.284   1.443
 7563SOL    HW123588   3.148   0.219   1.373
 7563SOL    HW223589   3.163   0.263   1.530
 7564SOL     OW23590   3.682   6.980   3.399
 7564SOL    HW123591   3.635   6.895   3.426
 7564SOL    HW223592   3.769   6.957   3.356
 7565SOL     OW23593   5.573   3.126   6.937
 7565SOL    HW123594   5.627   3.047   6.911
 7565SOL    HW223595   5.512   3.151   6.862
 7566SOL     OW23596   6.750   4.747   3.267
 7566SOL    HW123597   6.826   4.733   3.204
 7566SOL    HW223598   6.691   4.666   3.268
 7567SOL     OW23599   1.807   1.866   5.293
 7567SOL    HW123600   1.774   1.840   5.383
 7567SOL    HW223601   1.777   1.959   5.272
 7568SOL     OW23602   5.315   5.294   3.090
 7568SOL    HW123603   5.260   5.355   3.033
 7568SOL    HW223604   5.266   5.276   3.175
 7569SOL     OW23605   3.472   5.283   5.940
 7569SOL    HW123606   3.524   5.345   5.999
 7569SOL    HW223607   3.406   5.231   5.994
 7570SOL     OW23608   5.145   3.820   5.358
 7570SOL    HW123609   5.137   3.746   5.292
 7570SOL    HW223610   5.201   3.894   5.319
 7571SOL     OW23611   4.239   4.753   2.570
 7571SOL    HW123612   4.167   4.746   2.639
 7571SOL    HW223613   4.305   4.679   2.582
 7572SOL     OW23614   4.389   1.110   1.754
 7572SOL    HW123615   4.424   1.123   1.846
 7572SOL    HW223616   4.441   1.167   1.690
 7573SOL     OW23617   0.230   0.318   5.430
 7573SOL    HW123618   0.313   0.263   5.444
 7573SOL    HW223619   0.252   0.415   5.441
 7574SOL     OW23620   5.156   0.662   5.158
 7574SOL    HW123621   5.165   0.665   5.059
 7574SOL    HW223622   5.173   0.569   5.190
 7575SOL     OW23623   5.442   1.049   6.051
 7575SOL    HW123624   5.437   1.092   6.141
 7575SOL    HW223625   5.398   1.108   5.984
 7576SOL     OW23626   5.453   2.792   0.582
 7576SOL    HW123627   5.419   2.772   0.490
 7576SOL    HW223628   5.510   2.874   0.580
 7577SOL     OW23629   0.423   6.698   6.847
 7577SOL    HW123630   0.398   6.625   6.784
 7577SOL    HW223631   0.456   6.777   6.795
 7578SOL     OW23632   3.250   5.702   1.765
 7578SOL    HW123633   3.225   5.798   1.776
 7578SOL    HW223634   3.228   5.651   1.848
 7579SOL     OW23635   0.365   0.945   2.589
 7579SOL    HW123636   0.296   0.898   2.534
 7579SOL    HW223637   0.424   0.877   2.633
 7580SOL     OW23638   0.786   4.004   4.241
 7580SOL    HW123639   0.819   4.043   4.327
 7580SOL    HW223640   0.734   3.921   4.260
 7581SOL     OW23641   0.052   1.780   2.362
 7581SOL    HW123642   0.004   1.813   2.281
 7581SOL    HW223643   0.088   1.857   2.414
 7582SOL     OW23644   3.844   1.431   2.112
 7582SOL    HW123645   3.896   1.385   2.040
 7582SOL    HW223646   3.907   1.470   2.179
 7583SOL     OW23647   5.601   2.669   2.194
 7583SOL    HW123648   5.582   2.701   2.101
 7583SOL    HW223649   5.524   2.693   2.253
 7584SOL     OW23650   3.368   0.540   2.684
 7584SOL    HW123651   3.403   0.623   2.641
 7584SOL    HW223652   3.309   0.564   2.761
 7585SOL     OW23653   1.809   2.600   6.519
 7585SOL    HW123654   1.846   2.690   6.544
 7585SOL    HW223655   1.710   2.601   6.528
 7586SOL     OW23656   2.667   0.181   3.902
 7586SOL    HW123657   2.630   0.089   3.908
 7586SOL    HW223658   2.761   0.182   3.937
 7587SOL     OW23659   2.137   2.061   6.635
 7587SOL    HW123660   2.227   2.045   6.676
 7587SOL    HW223661   2.072   2.087   6.706
 7588SOL     OW23662   1.276   2.808   3.733
 7588SOL    HW123663   1.222   2.723   3.735
 7588SOL    HW223664   1.366   2.791   3.773
 7589SOL     OW23665   0.382   0.484   2.305
 7589SOL    HW123666   0.431   0.503   2.220
 7589SOL    HW223667   0.289   0.455   2.284
 7590SOL     OW23668   3.881   2.485   6.776
 7590SOL    HW123669   3.865   2.465   6.679
 7590SOL    HW223670   3.836   2.571   6.800
 7591SOL     OW23671   6.657   3.748   0.848
 7591SOL    HW123672   6.579   3.809   0.842
 7591SOL    HW223673   6.716   3.776   0.924
 7592SOL     OW23674   6.961   5.562   5.082
 7592SOL    HW123675   7.001   5.574   4.991
 7592SOL    HW223676   0.014   5.541   5.148
 7593SOL     OW23677   6.494   2.712   0.173
 7593SOL    HW123678   6.515   2.617   0.149
 7593SOL    HW223679   6.416   2.713   0.235
 7594SOL     OW23680   1.477   4.420   2.397
 7594SOL    HW123681   1.559   4.368   2.373
 7594SOL    HW223682   1.484   4.513   2.360
 7595SOL     OW23683   6.134   2.739   5.770
 7595SOL    HW123684   6.092   2.822   5.806
 7595SOL    HW223685   6.145   2.747   5.671
 7596SOL     OW23686   3.620   6.020   3.223
 7596SOL    HW123687   3.642   6.118   3.226
 7596SOL    HW223688   3.540   6.002   3.280
 7597SOL     OW23689   1.999   6.749   3.173
 7597SOL    HW123690   1.991   6.656   3.208
 7597SOL    HW223691   2.044   6.747   3.083
 7598SOL     OW23692   6.413   1.075   3.132
 7598SOL    HW123693   6.366   1.129   3.063
 7598SOL    HW223694   6.358   0.994   3.153
 7599SOL     OW23695   5.554   1.951   2.317
 7599SOL    HW123696   5.538   2.028   2.255
 7599SOL    HW223697   5.652   1.937   2.328
 7600SOL     OW23698   1.332   1.490   3.459
 7600SOL    HW123699   1.362   1.565   3.519
 7600SOL    HW223700   1.371   1.502   3.368
 7601SOL     OW23701   1.947   4.475   2.345
 7601SOL    HW123702   1.985   4.485   2.437
 7601SOL    HW223703   1.863   4.421   2.349
 7602SOL     OW23704   2.546   3.816   6.927
 7602SOL    HW123705   2.489   3.775   6.856
 7602SOL    HW223706   2.595   3.895   6.890
 7603SOL     OW23707   1.318   5.974   6.355
 7603SOL    HW123708   1.402   6.021   6.383
 7603SOL    HW223709   1.306   5.891   6.409
 7604SOL     OW23710   1.834   3.308   4.350
 7604SOL    HW123711   1.838   3.391   4.295
 7604SOL    HW223712   1.897   3.240   4.312
 7605SOL     OW23713   1.139   1.043   1.259
 7605SOL    HW123714   1.167   0.981   1.185
 7605SOL    HW223715   1.171   1.006   1.347
 7606SOL     OW23716   5.994   3.922   4.741
 7606SOL    HW123717   6.053   3.842   4.742
 7606SOL    HW223718   6.022   3.985   4.814
 7607SOL     OW23719   3.562   4.909   6.996
 7607SOL    HW123720   3.511   4.922   6.910
 7607SOL    HW223721   3.618   4.990   7.014
 7608SOL     OW23722   3.878   4.068   1.335
 7608SOL    HW123723   3.783   4.099   1.343
 7608SOL    HW223724   3.883   3.970   1.356
 7609SOL     OW23725   1.722   2.698   4.420
 7609SOL    HW123726   1.624   2.711   4.430
 7609SOL    HW223727   1.739   2.618   4.363
 7610SOL     OW23728   4.203   4.678   6.225
 7610SOL    HW123729   4.297   4.684   6.192
 7610SOL    HW223730   4.162   4.591   6.195
 7611SOL     OW23731   5.853   4.073   1.743
 7611SOL    HW123732   5.912   4.114   1.673
 7611SOL    HW223733   5.760   4.064   1.707
 7612SOL     OW23734   5.175   3.276   2.493
 7612SOL    HW123735   5.115   3.212   2.541
 7612SOL    HW223736   5.120   3.349   2.452
 7613SOL     OW23737   0.025   2.335   1.040
 7613SOL    HW123738   6.957   2.350   1.088
 7613SOL    HW223739   0.049   2.239   1.045
 7614SOL     OW23740   5.662   3.317   1.001
 7614SOL    HW123741   5.592   3.255   0.964
 7614SOL    HW223742   5.656   3.318   1.100
 7615SOL     OW23743   4.054   4.896   0.122
 7615SOL    HW123744   4.093   4.851   0.042
 7615SOL    HW223745   4.075   4.994   0.119
 7616SOL     OW23746   6.276   6.269   4.574
 7616SOL    HW123747   6.308   6.295   4.665
 7616SOL    HW223748   6.231   6.180   4.579
 7617SOL     OW23749   3.886   6.196   3.042
 7617SOL    HW123750   3.950   6.252   2.989
 7617SOL    HW223751   3.935   6.150   3.116
 7618SOL     OW23752   0.012   2.451   6.089
 7618SOL    HW123753   0.024   2.372   6.030
 7618SOL    HW223754   0.008   2.534   6.033
 7619SOL     OW23755   6.859   3.180   4.769
 7619SOL    HW123756   6.909   3.119   4.708
 7619SOL    HW223757   6.762   3.177   4.747
 7620SOL     OW23758   3.979   5.831   1.632
 7620SOL    HW123759   4.050   5.875   1.688
 7620SOL    HW223760   4.022   5.791   1.551
 7621SOL     OW23761   6.553   0.933   0.850
 7621SOL    HW123762   6.554   1.032   0.832
 7621SOL    HW223763   6.523   0.885   0.768
 7622SOL     OW23764   4.130   5.061   6.753
 7622SOL    HW123765   4.192   4.982   6.760
 7622SOL    HW223766   4.055   5.039   6.690
 7623SOL     OW23767   5.023   3.340   6.475
 7623SOL    HW123768   4.996   3.326   6.570
 7623SOL    HW223769   4.953   3.302   6.415
 7624SOL     OW23770   6.948   4.007   5.085
 7624SOL    HW123771   6.881   3.965   5.023
 7624SOL    HW223772   6.909   4.090   5.125
 7625SOL     OW23773   5.128   1.134   0.323
 7625SOL    HW123774   5.203   1.126   0.258
 7625SOL    HW223775   5.056   1.192   0.285
 7626SOL     OW23776   6.271   0.024   4.610
 7626SOL    HW123777   6.186   0.036   4.661
 7626SOL    HW223778   6.349   0.049   4.668
 7627SOL     OW23779   4.955   2.986   0.485
 7627SOL    HW123780   4.951   2.888   0.465
 7627SOL    HW223781   5.028   3.028   0.431
 7628SOL     OW23782   3.238   2.459   1.654
 7628SOL    HW123783   3.155   2.403   1.646
 7628SOL    HW223784   3.317   2.400   1.671
 7629SOL     OW23785   0.435   4.920   3.609
 7629SOL    HW123786   0.502   4.977   3.562
 7629SOL    HW223787   0.441   4.934   3.708
 7630SOL     OW23788   0.860   0.435   1.404
 7630SOL    HW123789   0.811   0.348   1.400
 7630SOL    HW223790   0.918   0.443   1.323
 7631SOL     OW23791   0.742   1.629   6.110
 7631SOL    HW123792   0.736   1.599   6.205
 7631SOL    HW223793   0.712   1.724   6.103
 7632SOL     OW23794   5.024   4.318   1.137
 7632SOL    HW123795   5.070   4.343   1.222
 7632SOL    HW223796   4.989   4.224   1.144
 7633SOL     OW23797   5.329   0.145   1.867
 7633SOL    HW123798   5.376   0.229   1.894
 7633SOL    HW223799   5.311   0.090   1.949
 7634SOL     OW23800   2.016   1.591   1.949
 7634SOL    HW123801   1.924   1.554   1.950
 7634SOL    HW223802   2.057   1.583   2.040
 7635SOL     OW23803   3.675   4.865   5.178
 7635SOL    HW123804   3.694   4.840   5.273
 7635SOL    HW223805   3.576   4.862   5.163
 7636SOL     OW23806   1.774   3.193   3.965
 7636SOL    HW123807   1.799   3.117   4.025
 7636SOL    HW223808   1.702   3.247   4.009
 7637SOL     OW23809   3.051   6.458   2.170
 7637SOL    HW123810   3.077   6.383   2.231
 7637SOL    HW223811   3.055   6.426   2.075
 7638SOL     OW23812   1.977   6.044   1.498
 7638SOL    HW123813   2.025   5.985   1.433
 7638SOL    HW223814   1.916   5.987   1.555
 7639SOL     OW23815   0.375   1.728   1.373
 7639SOL    HW123816   0.404   1.738   1.278
 7639SOL    HW223817   0.283   1.766   1.384
 7640SOL     OW23818   3.296   1.830   5.836
 7640SOL    HW123819   3.394   1.813   5.826
 7640SOL    HW223820   3.277   1.928   5.829
 7641SOL     OW23821   1.586   4.019   2.348
 7641SOL    HW123822   1.532   4.081   2.292
 7641SOL    HW223823   1.591   3.930   2.303
 7642SOL     OW23824   3.517   2.144   2.707
 7642SOL    HW123825   3.586   2.074   2.686
 7642SOL    HW223826   3.562   2.233   2.716
 7643SOL     OW23827   4.869   2.372   3.293
 7643SOL    HW123828   4.817   2.288   3.314
 7643SOL    HW223829   4.959   2.367   3.335
 7644SOL     OW23830   4.319   2.389   1.938
 7644SOL    HW123831   4.279   2.377   1.847
 7644SOL    HW223832   4.396   2.452   1.932
 7645SOL     OW23833   5.198   3.507   5.199
 7645SOL    HW123834   5.114   3.551   5.230
 7645SOL    HW223835   5.206   3.417   5.241
 7646SOL     OW23836   2.046   2.843   3.655
 7646SOL    HW123837   2.013   2.766   3.710
 7646SOL    HW223838   1.968   2.889   3.611
 7647SOL     OW23839   0.184   2.310   3.453
 7647SOL    HW123840   0.243   2.389   3.433
 7647SOL    HW223841   0.143   2.322   3.544
 7648SOL     OW23842   2.770   1.790   2.766
 7648SOL    HW123843   2.824   1.858   2.814
 7648SOL    HW223844   2.754   1.821   2.672
 7649SOL     OW23845   0.910   0.835   3.523
 7649SOL    HW123846   0.958   0.780   3.591
 7649SOL    HW223847   0.908   0.930   3.552
 7650SOL     OW23848   5.671   1.295   0.813
 7650SOL    HW123849   5.745   1.327   0.755
 7650SOL    HW223850   5.584   1.328   0.776
 7651SOL     OW23851   1.950   0.382   3.997
 7651SOL    HW123852   2.040   0.338   4.007
 7651SOL    HW223853   1.880   0.312   3.990
 7652SOL     OW23854   6.561   3.145   4.627
 7652SOL    HW123855   6.465   3.172   4.634
 7652SOL    HW223856   6.567   3.045   4.624
 7653SOL     OW23857   0.243   1.918   6.715
 7653SOL    HW123858   0.205   1.827   6.729
 7653SOL    HW223859   0.212   1.955   6.628
 7654SOL     OW23860   4.876   3.112   4.661
 7654SOL    HW123861   4.859   3.208   4.682
 7654SOL    HW223862   4.845   3.092   4.568
 7655SOL     OW23863   4.513   6.682   2.976
 7655SOL    HW123864   4.494   6.768   3.022
 7655SOL    HW223865   4.527   6.610   3.045
 7656SOL     OW23866   3.853   3.842   6.865
 7656SOL    HW123867   3.809   3.856   6.954
 7656SOL    HW223868   3.785   3.810   6.799
 7657SOL     OW23869   1.220   1.963   3.585
 7657SOL    HW123870   1.250   1.868   3.594
 7657SOL    HW223871   1.247   2.015   3.666
 7658SOL     OW23872   2.823   0.358   6.758
 7658SOL    HW123873   2.906   0.302   6.767
 7658SOL    HW223874   2.812   0.386   6.662
 7659SOL     OW23875   5.467   4.666   6.221
 7659SOL    HW123876   5.388   4.617   6.185
 7659SOL    HW223877   5.469   4.759   6.185
 7660SOL     OW23878   0.325   5.696   3.280
 7660SOL    HW123879   0.335   5.689   3.379
 7660SOL    HW223880   0.298   5.607   3.243
 7661SOL     OW23881   5.517   2.282   5.436
 7661SOL    HW123882   5.550   2.361   5.386
 7661SOL    HW223883   5.436   2.245   5.391
 7662SOL     OW23884   1.895   3.016   4.643
 7662SOL    HW123885   1.825   3.002   4.713
 7662SOL    HW223886   1.929   3.110   4.649
 7663SOL     OW23887   6.402   5.054   6.060
 7663SOL    HW123888   6.445   5.118   5.996
 7663SOL    HW223889   6.401   4.963   6.020
 7664SOL     OW23890   4.263   0.709   1.918
 7664SOL    HW123891   4.343   0.765   1.897
 7664SOL    HW223892   4.292   0.628   1.970
 7665SOL     OW23893   5.680   0.978   4.659
 7665SOL    HW123894   5.678   1.028   4.573
 7665SOL    HW223895   5.587   0.967   4.694
 7666SOL     OW23896   0.637   4.851   2.310
 7666SOL    HW123897   0.607   4.853   2.215
 7666SOL    HW223898   0.689   4.767   2.327
 7667SOL     OW23899   4.257   0.149   2.743
 7667SOL    HW123900   4.318   0.109   2.811
 7667SOL    HW223901   4.238   0.244   2.766
 7668SOL     OW23902   3.113   5.060   0.450
 7668SOL    HW123903   3.046   4.986   0.442
 7668SOL    HW223904   3.065   5.148   0.452
 7669SOL     OW23905   4.775   0.856   5.084
 7669SOL    HW123906   4.845   0.896   5.024
 7669SOL    HW223907   4.684   0.879   5.050
 7670SOL     OW23908   0.910   4.563   0.374
 7670SOL    HW123909   0.844   4.539   0.304
 7670SOL    HW223910   0.863   4.596   0.456
 7671SOL     OW23911   3.594   1.391   1.978
 7671SOL    HW123912   3.675   1.415   2.032
 7671SOL    HW223913   3.582   1.292   1.977
 7672SOL     OW23914   0.200   6.347   3.050
 7672SOL    HW123915   0.197   6.316   2.955
 7672SOL    HW223916   0.193   6.268   3.111
 7673SOL     OW23917   1.529   6.600   1.462
 7673SOL    HW123918   1.609   6.622   1.406
 7673SOL    HW223919   1.496   6.682   1.507
 7674SOL     OW23920   4.495   1.121   3.576
 7674SOL    HW123921   4.452   1.045   3.527
 7674SOL    HW223922   4.424   1.178   3.617
 7675SOL     OW23923   6.399   6.916   3.035
 7675SOL    HW123924   6.445   6.957   2.956
 7675SOL    HW223925   6.448   6.943   3.118
 7676SOL     OW23926   2.497   1.789   0.411
 7676SOL    HW123927   2.583   1.832   0.384
 7676SOL    HW223928   2.431   1.796   0.335
 7677SOL     OW23929   1.211   4.413   1.371
 7677SOL    HW123930   1.225   4.441   1.466
 7677SOL    HW223931   1.296   4.427   1.319
 7678SOL     OW23932   2.450   2.774   5.276
 7678SOL    HW123933   2.450   2.874   5.267
 7678SOL    HW223934   2.366   2.737   5.235
 7679SOL     OW23935   3.157   6.545   5.796
 7679SOL    HW123936   3.246   6.571   5.833
 7679SOL    HW223937   3.132   6.607   5.723
 7680SOL     OW23938   1.564   0.451   0.658
 7680SOL    HW123939   1.536   0.485   0.568
 7680SOL    HW223940   1.517   0.504   0.729
 7681SOL     OW23941   2.771   0.685   1.045
 7681SOL    HW123942   2.755   0.595   1.005
 7681SOL    HW223943   2.744   0.684   1.142
 7682SOL     OW23944   3.501   0.379   2.297
 7682SOL    HW123945   3.578   0.388   2.360
 7682SOL    HW223946   3.446   0.462   2.299
 7683SOL     OW23947   6.270   2.448   4.128
 7683SOL    HW123948   6.362   2.432   4.165
 7683SOL    HW223949   6.277   2.472   4.031
 7684SOL     OW23950   3.954   1.810   1.531
 7684SOL    HW123951   3.915   1.728   1.572
 7684SOL    HW223952   3.905   1.891   1.565
 7685SOL     OW23953   3.097   1.678   5.722
 7685SOL    HW123954   3.176   1.729   5.758
 7685SOL    HW223955   3.095   1.587   5.765
 7686SOL     OW23956   0.313   6.061   3.608
 7686SOL    HW123957   0.273   6.142   3.565
 7686SOL    HW223958   0.257   5.981   3.588
 7687SOL     OW23959   6.088   5.462   4.141
 7687SOL    HW123960   6.003   5.487   4.186
 7687SOL    HW223961   6.072   5.447   4.044
 7688SOL     OW23962   0.808   5.923   5.345
 7688SOL    HW123963   0.767   6.014   5.338
 7688SOL    HW223964   0.898   5.925   5.301
 7689SOL     OW23965   5.919   6.524   2.670
 7689SOL    HW123966   6.009   6.563   2.686
 7689SOL    HW223967   5.894   6.536   2.573
 7690SOL     OW23968   6.001   4.367   0.024
 7690SOL    HW123969   5.941   4.446   0.040
 7690SOL    HW223970   5.985   4.331   6.952
 7691SOL     OW23971   4.797   3.940   3.792
 7691SOL    HW123972   4.858   3.916   3.717
 7691SOL    HW223973   4.767   3.856   3.839
 7692SOL     OW23974   0.924   6.106   1.800
 7692SOL    HW123975   0.890   6.013   1.809
 7692SOL    HW223976   0.878   6.151   1.723
 7693SOL     OW23977   3.082   6.981   1.753
 7693SOL    HW123978   3.165   6.989   1.807
 7693SOL    HW223979   3.040   0.052   1.743
 7694SOL     OW23980   4.813   3.966   4.162
 7694SOL    HW123981   4.828   3.869   4.145
 7694SOL    HW223982   4.837   4.018   4.080
 7695SOL     OW23983   4.320   0.033   0.993
 7695SOL    HW123984   4.254   6.990   0.950
 7695SOL    HW223985   4.372   7.001   1.062
 7696SOL     OW23986   0.447   1.347   6.188
 7696SOL    HW123987   0.495   1.386   6.109
 7696SOL    HW223988   0.464   1.249   6.191
 7697SOL     OW23989   2.359   0.219   3.414
 7697SOL    HW123990   2.394   0.148   3.353
 7697SOL    HW223991   2.269   0.192   3.449
 7698SOL     OW23992   5.641   1.927   3.755
 7698SOL    HW123993   5.695   2.009   3.774
 7698SOL    HW223994   5.703   1.851   3.736
 7699SOL     OW23995   3.089   6.408   6.019
 7699SOL    HW123996   3.020   6.457   6.072
 7699SOL    HW223997   3.110   6.459   5.936
 7700SOL     OW23998   5.041   5.766   3.076
 7700SOL    HW123999   5.080   5.719   2.997
 7700SOL    HW224000   4.946   5.738   3.089
 7701SOL     OW24001   6.267   2.131   6.673
 7701SOL    HW124002   6.178   2.176   6.677
 7701SOL    HW224003   6.299   2.129   6.578
 7702SOL     OW24004   3.820   6.317   4.820
 7702SOL    HW124005   3.912   6.277   4.828
 7702SOL    HW224006   3.809   6.388   4.890
 7703SOL     OW24007   6.098   6.525   5.922
 7703SOL    HW124008   6.007   6.566   5.917
 7703SOL    HW224009   6.112   6.485   6.012
 7704SOL     OW24010   5.759   0.399   4.201
 7704SOL    HW124011   5.787   0.306   4.227
 7704SOL    HW224012   5.839   0.451   4.171
 7705SOL     OW24013   2.540   6.230   0.582
 7705SOL    HW124014   2.529   6.279   0.669
 7705SOL    HW224015   2.456   6.237   0.529
 7706SOL     OW24016   3.422   3.848   4.984
 7706SOL    HW124017   3.371   3.933   4.967
 7706SOL    HW224018   3.519   3.870   5.000
 7707SOL     OW24019   0.448   4.001   5.859
 7707SOL    HW124020   0.375   3.935   5.880
 7707SOL    HW224021   0.444   4.076   5.925
 7708SOL     OW24022   0.619   6.688   5.596
 7708SOL    HW124023   0.676   6.709   5.517
 7708SOL    HW224024   0.526   6.724   5.580
 7709SOL     OW24025   6.609   4.908   2.315
 7709SOL    HW124026   6.694   4.891   2.266
 7709SOL    HW224027   6.615   4.866   2.406
 7710SOL     OW24028   3.476   2.553   0.248
 7710SOL    HW124029   3.403   2.521   0.309
 7710SOL    HW224030   3.467   2.652   0.233
 7711SOL     OW24031   5.445   6.482   6.154
 7711SOL    HW124032   5.495   6.459   6.071
 7711SOL    HW224033   5.509   6.519   6.222
 7712SOL     OW24034   6.904   5.189   1.434
 7712SOL    HW124035   6.946   5.200   1.524
 7712SOL    HW224036   6.883   5.279   1.396
 7713SOL     OW24037   1.822   4.210   0.511
 7713SOL    HW124038   1.880   4.289   0.490
 7713SOL    HW224039   1.797   4.164   0.426
 7714SOL     OW24040   0.161   4.540   5.561
 7714SOL    HW124041   0.136   4.463   5.621
 7714SOL    HW224042   0.147   4.514   5.466
 7715SOL     OW24043   2.994   2.539   0.278
 7715SOL    HW124044   3.093   2.557   0.278
 7715SOL    HW224045   2.947   2.609   0.225
 7716SOL     OW24046   0.222   4.966   1.698
 7716SOL    HW124047   0.218   5.040   1.765
 7716SOL    HW224048   0.217   5.004   1.606
 7717SOL     OW24049   1.365   0.869   5.795
 7717SOL    HW124050   1.304   0.794   5.770
 7717SOL    HW224051   1.312   0.946   5.829
 7718SOL     OW24052   6.611   4.408   3.521
 7718SOL    HW124053   6.616   4.462   3.605
 7718SOL    HW224054   6.596   4.469   3.443
 7719SOL     OW24055   0.200   4.022   5.125
 7719SOL    HW124056   0.235   3.931   5.147
 7719SOL    HW224057   0.100   4.022   5.132
 7720SOL     OW24058   6.571   2.561   6.524
 7720SOL    HW124059   6.619   2.506   6.456
 7720SOL    HW224060   6.474   2.537   6.524
 7721SOL     OW24061   0.631   5.384   2.376
 7721SOL    HW124062   0.579   5.408   2.457
 7721SOL    HW224063   0.584   5.311   2.326
 7722SOL     OW24064   1.214   4.065   3.295
 7722SOL    HW124065   1.300   4.107   3.324
 7722SOL    HW224066   1.148   4.136   3.271
 7723SOL     OW24067   4.507   3.462   6.469
 7723SOL    HW124068   4.576   3.515   6.420
 7723SOL    HW224069   4.436   3.432   6.405
 7724SOL     OW24070   2.662   3.644   0.952
 7724SOL    HW124071   2.717   3.582   1.008
 7724SOL    HW224072   2.580   3.671   1.002
 7725SOL     OW24073   6.128   1.450   2.505
 7725SOL    HW124074   6.109   1.539   2.462
 7725SOL    HW224075   6.225   1.428   2.493
 7726SOL     OW24076   1.971   5.297   5.529
 7726SOL    HW124077   1.989   5.343   5.616
 7726SOL    HW224078   2.041   5.324   5.462
 7727SOL     OW24079   6.485   2.603   2.606
 7727SOL    HW124080   6.520   2.600   2.700
 7727SOL    HW224081   6.525   2.528   2.554
 7728SOL     OW24082   2.250   3.010   5.330
 7728SOL    HW124083   2.219   3.083   5.392
 7728SOL    HW224084   2.328   3.042   5.277
 7729SOL     OW24085   5.996   1.818   1.292
 7729SOL    HW124086   6.028   1.862   1.376
 7729SOL    HW224087   5.902   1.845   1.274
 7730SOL     OW24088   6.538   5.054   6.932
 7730SOL    HW124089   6.614   5.042   6.869
 7730SOL    HW224090   6.536   5.149   6.964
 7731SOL     OW24091   6.068   1.071   7.003
 7731SOL    HW124092   6.073   0.975   0.009
 7731SOL    HW224093   6.113   1.086   6.915
 7732SOL     OW24094   4.643   6.641   0.577
 7732SOL    HW124095   4.646   6.664   0.675
 7732SOL    HW224096   4.566   6.687   0.534
 7733SOL     OW24097   5.592   6.207   2.481
 7733SOL    HW124098   5.658   6.171   2.414
 7733SOL    HW224099   5.626   6.190   2.573
 7734SOL     OW24100   1.514   4.685   4.142
 7734SOL    HW124101   1.521   4.734   4.229
 7734SOL    HW224102   1.497   4.751   4.069
 7735SOL     OW24103   5.005   6.421   6.367
 7735SOL    HW124104   5.099   6.453   6.365
 7735SOL    HW224105   4.943   6.499   6.354
 7736SOL     OW24106   2.453   2.724   0.058
 7736SOL    HW124107   2.515   2.755   0.130
 7736SOL    HW224108   2.505   2.686   7.001
 7737SOL     OW24109   2.794   7.002   2.825
 7737SOL    HW124110   2.816   0.054   2.758
 7737SOL    HW224111   2.847   7.018   2.908
 7738SOL     OW24112   3.108   5.457   0.302
 7738SOL    HW124113   3.202   5.444   0.270
 7738SOL    HW224114   3.095   5.551   0.333
 7739SOL     OW24115   0.259   2.403   2.029
 7739SOL    HW124116   0.283   2.435   2.120
 7739SOL    HW224117   0.162   2.419   2.012
 7740SOL     OW24118   2.749   0.678   3.389
 7740SOL    HW124119   2.811   0.640   3.457
 7740SOL    HW224120   2.792   0.674   3.299
 7741SOL     OW24121   0.066   4.766   5.866
 7741SOL    HW124122   0.150   4.729   5.828
 7741SOL    HW224123   0.069   4.866   5.865
 7742SOL     OW24124   4.334   2.318   2.826
 7742SOL    HW124125   4.401   2.248   2.850
 7742SOL    HW224126   4.243   2.289   2.855
 7743SOL     OW24127   5.196   1.716   0.187
 7743SOL    HW124128   5.116   1.682   0.237
 7743SOL    HW224129   5.232   1.798   0.232
 7744SOL     OW24130   0.635   0.718   4.446
 7744SOL    HW124131   0.580   0.794   4.410
 7744SOL    HW224132   0.732   0.742   4.442
 7745SOL     OW24133   4.144   1.132   6.848
 7745SOL    HW124134   4.102   1.047   6.879
 7745SOL    HW224135   4.244   1.122   6.850
 7746SOL     OW24136   0.926   0.572   0.356
 7746SOL    HW124137   0.828   0.552   0.367
 7746SOL    HW224138   0.979   0.493   0.385
 7747SOL     OW24139   5.799   6.341   1.040
 7747SOL    HW124140   5.853   6.349   0.956
 7747SOL    HW224141   5.714   6.393   1.030
 7748SOL     OW24142   3.265   3.677   4.573
 7748SOL    HW124143   3.243   3.626   4.490
 7748SOL    HW224144   3.316   3.618   4.636
 7749SOL     OW24145   3.405   3.332   5.618
 7749SOL    HW124146   3.465   3.364   5.544
 7749SOL    HW224147   3.379   3.237   5.600
 7750SOL     OW24148   6.851   5.476   0.668
 7750SOL    HW124149   6.899   5.388   0.673
 7750SOL    HW224150   6.864   5.515   0.577
 7751SOL     OW24151   1.482   3.009   2.872
 7751SOL    HW124152   1.391   3.037   2.843
 7751SOL    HW224153   1.534   3.090   2.902
 7752SOL     OW24154   5.887   6.226   5.116
 7752SOL    HW124155   5.944   6.279   5.179
 7752SOL    HW224156   5.906   6.255   5.022
 7753SOL     OW24157   2.003   0.476   4.540
 7753SOL    HW124158   1.923   0.416   4.537
 7753SOL    HW224159   1.986   0.555   4.480
 7754SOL     OW24160   4.916   0.082   1.583
 7754SOL    HW124161   4.999   0.132   1.607
 7754SOL    HW224162   4.930   7.003   1.600
 7755SOL     OW24163   1.494   2.171   5.648
 7755SOL    HW124164   1.509   2.091   5.706
 7755SOL    HW224165   1.557   2.168   5.570
 7756SOL     OW24166   3.442   5.395   1.720
 7756SOL    HW124167   3.381   5.446   1.781
 7756SOL    HW224168   3.401   5.305   1.700
 7757SOL     OW24169   5.655   5.932   5.187
 7757SOL    HW124170   5.559   5.946   5.211
 7757SOL    HW224171   5.674   5.976   5.099
 7758SOL     OW24172   1.440   1.541   6.018
 7758SOL    HW124173   1.539   1.532   6.030
 7758SOL    HW224174   1.393   1.498   6.095
 7759SOL     OW24175   1.170   1.775   5.576
 7759SOL    HW124176   1.150   1.741   5.484
 7759SOL    HW224177   1.087   1.775   5.630
 7760SOL     OW24178   5.516   3.519   2.543
 7760SOL    HW124179   5.514   3.607   2.590
 7760SOL    HW224180   5.555   3.449   2.603
 7761SOL     OW24181   0.985   0.246   6.045
 7761SOL    HW124182   1.003   0.242   5.947
 7761SOL    HW224183   0.897   0.291   6.061
 7762SOL     OW24184   4.377   0.489   3.967
 7762SOL    HW124185   4.299   0.484   3.905
 7762SOL    HW224186   4.348   0.529   4.054
 7763SOL     OW24187   1.052   1.315   0.030
 7763SOL    HW124188   1.101   1.380   0.088
 7763SOL    HW224189   1.003   1.249   0.087
 7764SOL     OW24190   3.537   2.891   3.147
 7764SOL    HW124191   3.569   2.840   3.227
 7764SOL    HW224192   3.609   2.952   3.115
 7765SOL     OW24193   6.244   2.845   4.006
 7765SOL    HW124194   6.323   2.784   4.016
 7765SOL    HW224195   6.175   2.822   4.074
 7766SOL     OW24196   5.948   2.785   6.748
 7766SOL    HW124197   5.981   2.736   6.829
 7766SOL    HW224198   6.019   2.847   6.715
 7767SOL     OW24199   4.411   5.411   2.756
 7767SOL    HW124200   4.391   5.361   2.840
 7767SOL    HW224201   4.433   5.506   2.779
 7768SOL     OW24202   4.351   4.728   2.125
 7768SOL    HW124203   4.267   4.742   2.072
 7768SOL    HW224204   4.416   4.674   2.071
 7769SOL     OW24205   5.150   2.832   3.135
 7769SOL    HW124206   5.061   2.806   3.098
 7769SOL    HW224207   5.150   2.819   3.234
 7770SOL     OW24208   1.853   4.215   2.636
 7770SOL    HW124209   1.912   4.135   2.648
 7770SOL    HW224210   1.760   4.186   2.617
 7771SOL     OW24211   3.432   2.321   5.320
 7771SOL    HW124212   3.351   2.350   5.268
 7771SOL    HW224213   3.472   2.401   5.365
 7772SOL     OW24214   5.150   6.942   2.490
 7772SOL    HW124215   5.173   6.872   2.422
 7772SOL    HW224216   5.098   7.015   2.447
 7773SOL     OW24217   2.342   5.542   4.685
 7773SOL    HW124218   2.411   5.474   4.707
 7773SOL    HW224219   2.252   5.508   4.712
 7774SOL     OW24220   5.616   1.718   5.739
 7774SOL    HW124221   5.537   1.752   5.686
 7774SOL    HW224222   5.613   1.618   5.742
 7775SOL     OW24223   5.234   6.103   2.019
 7775SOL    HW124224   5.181   6.158   2.084
 7775SOL    HW224225   5.326   6.141   2.011
 7776SOL     OW24226   1.454   4.929   6.694
 7776SOL    HW124227   1.526   4.944   6.761
 7776SOL    HW224228   1.441   5.013   6.640
 7777SOL     OW24229   0.475   0.193   4.670
 7777SOL    HW124230   0.522   0.123   4.724
 7777SOL    HW224231   0.496   0.283   4.708
 7778SOL     OW24232   5.421   4.210   0.956
 7778SOL    HW124233   5.355   4.213   0.881
 7778SOL    HW224234   5.396   4.137   1.019
 7779SOL     OW24235   2.601   2.643   1.719
 7779SOL    HW124236   2.535   2.701   1.767
 7779SOL    HW224237   2.667   2.700   1.671
 7780SOL     OW24238   1.208   4.476   5.168
 7780SOL    HW124239   1.113   4.508   5.172
 7780SOL    HW224240   1.257   4.506   5.250
 7781SOL     OW24241   1.199   4.547   0.194
 7781SOL    HW124242   1.263   4.624   0.189
 7781SOL    HW224243   1.172   4.521   0.101
 7782SOL     OW24244   6.568   4.705   4.785
 7782SOL    HW124245   6.607   4.797   4.782
 7782SOL    HW224246   6.641   4.637   4.774
 7783SOL     OW24247   0.857   5.701   4.998
 7783SOL    HW124248   0.912   5.622   4.967
 7783SOL    HW224249   0.760   5.677   4.993
 7784SOL     OW24250   2.846   2.639   1.445
 7784SOL    HW124251   2.908   2.657   1.522
 7784SOL    HW224252   2.831   2.541   1.436
 7785SOL     OW24253   1.999   5.299   4.049
 7785SOL    HW124254   2.029   5.282   3.955
 7785SOL    HW224255   1.906   5.265   4.062
 7786SOL     OW24256   3.007   6.315   0.229
 7786SOL    HW124257   2.965   6.359   0.149
 7786SOL    HW224258   3.093   6.361   0.251
 7787SOL     OW24259   2.242   2.812   6.671
 7787SOL    HW124260   2.280   2.878   6.737
 7787SOL    HW224261   2.310   2.794   6.600
 7788SOL     OW24262   2.448   5.487   1.426
 7788SOL    HW124263   2.479   5.507   1.334
 7788SOL    HW224264   2.398   5.565   1.463
 7789SOL     OW24265   1.869   6.523   6.110
 7789SOL    HW124266   1.852   6.513   6.209
 7789SOL    HW224267   1.789   6.563   6.066
 7790SOL     OW24268   5.928   5.806   3.263
 7790SOL    HW124269   5.881   5.764   3.341
 7790SOL    HW224270   6.027   5.791   3.271
 7791SOL     OW24271   2.052   5.844   3.493
 7791SOL    HW124272   2.083   5.880   3.581
 7791SOL    HW224273   1.997   5.913   3.446
 7792SOL     OW24274   1.713   5.254   4.609
 7792SOL    HW124275   1.771   5.174   4.594
 7792SOL    HW224276   1.701   5.303   4.523
 7793SOL     OW24277   3.640   0.770   0.399
 7793SOL    HW124278   3.669   0.735   0.488
 7793SOL    HW224279   3.669   0.707   0.327
 7794SOL     OW24280   6.360   4.615   2.977
 7794SOL    HW124281   6.442   4.561   2.957
 7794SOL    HW224282   6.298   4.561   3.034
 7795SOL     OW24283   2.012   4.249   5.391
 7795SOL    HW124284   2.072   4.328   5.374
 7795SOL    HW224285   2.031   4.178   5.323
 7796SOL     OW24286   3.920   3.946   3.676
 7796SOL    HW124287   3.847   4.015   3.676
 7796SOL    HW224288   3.926   3.905   3.767
 7797SOL     OW24289   1.161   0.077   3.299
 7797SOL    HW124290   1.090   0.127   3.349
 7797SOL    HW224291   1.186   7.014   3.350
 7798SOL     OW24292   2.297   4.305   5.549
 7798SOL    HW124293   2.273   4.351   5.463
 7798SOL    HW224294   2.348   4.221   5.528
 7799SOL     OW24295   0.932   6.407   2.586
 7799SOL    HW124296   0.941   6.505   2.569
 7799SOL    HW224297   0.946   6.389   2.684
 7800SOL     OW24298   0.938   5.426   1.607
 7800SOL    HW124299   0.885   5.436   1.522
 7800SOL    HW224300   1.010   5.496   1.609
 7801SOL     OW24301   2.318   1.737   1.498
 7801SOL    HW124302   2.219   1.738   1.515
 7801SOL    HW224303   2.364   1.689   1.572
 7802SOL     OW24304   6.109   2.782   1.117
 7802SOL    HW124305   6.132   2.722   1.194
 7802SOL    HW224306   6.047   2.733   1.055
 7803SOL     OW24307   4.658   1.751   5.910
 7803SOL    HW124308   4.575   1.781   5.956
 7803SOL    HW224309   4.694   1.670   5.956
 7804SOL     OW24310   4.941   2.142   3.521
 7804SOL    HW124311   4.847   2.145   3.556
 7804SOL    HW224312   4.943   2.090   3.436
 7805SOL     OW24313   5.683   2.622   1.161
 7805SOL    HW124314   5.606   2.642   1.222
 7805SOL    HW224315   5.668   2.534   1.117
 7806SOL     OW24316   5.583   1.715   0.160
 7806SOL    HW124317   5.502   1.698   0.103
 7806SOL    HW224318   5.644   1.636   0.156
 7807SOL     OW24319   1.882   4.586   5.477
 7807SOL    HW124320   1.908   4.667   5.424
 7807SOL    HW224321   1.848   4.515   5.415
 7808SOL     OW24322   6.411   3.064   3.527
 7808SOL    HW124323   6.384   2.978   3.483
 7808SOL    HW224324   6.358   3.076   3.611
 7809SOL     OW24325   2.964   5.286   3.617
 7809SOL    HW124326   2.945   5.380   3.588
 7809SOL    HW224327   3.026   5.243   3.552
 7810SOL     OW24328   3.398   0.277   4.482
 7810SOL    HW124329   3.387   0.228   4.396
 7810SOL    HW224330   3.464   0.229   4.540
 7811SOL     OW24331   2.076   5.476   2.437
 7811SOL    HW124332   2.134   5.501   2.360
 7811SOL    HW224333   2.017   5.399   2.412
 7812SOL     OW24334   0.367   2.036   4.288
 7812SOL    HW124335   0.383   1.945   4.327
 7812SOL    HW224336   0.314   2.027   4.204
 7813SOL     OW24337   5.039   2.835   6.945
 7813SOL    HW124338   5.074   2.766   6.882
 7813SOL    HW224339   5.003   2.791   0.008
 7814SOL     OW24340   0.135   3.425   2.999
 7814SOL    HW124341   0.171   3.411   3.091
 7814SOL    HW224342   0.187   3.369   2.934
 7815SOL     OW24343   5.581   0.665   5.879
 7815SOL    HW124344   5.497   0.653   5.825
 7815SOL    HW224345   5.583   0.597   5.953
 7816SOL     OW24346   1.959   2.031   6.064
 7816SOL    HW124347   2.038   2.076   6.106
 7816SOL    HW224348   1.883   2.029   6.128
 7817SOL     OW24349   5.616   4.799   3.104
 7817SOL    HW124350   5.596   4.895   3.126
 7817SOL    HW224351   5.623   4.789   3.005
 7818SOL     OW24352   4.239   0.478   2.174
 7818SOL    HW124353   4.297   0.439   2.245
 7818SOL    HW224354   4.211   0.570   2.201
 7819SOL     OW24355   0.379   4.024   1.597
 7819SOL    HW124356   0.311   4.032   1.670
 7819SOL    HW224357   0.464   4.068   1.626
 7820SOL     OW24358   1.739   2.006   6.271
 7820SOL    HW124359   1.642   2.019   6.251
 7820SOL    HW224360   1.768   2.070   6.342
 7821SOL     OW24361   5.657   6.103   0.270
 7821SOL    HW124362   5.576   6.101   0.212
 7821SOL    HW224363   5.696   6.011   0.275
 7822SOL     OW24364   2.432   2.102   6.485
 7822SOL    HW124365   2.346   2.150   6.464
 7822SOL    HW224366   2.507   2.168   6.480
 7823SOL     OW24367   2.676   4.003   5.279
 7823SOL    HW124368   2.582   3.971   5.265
 7823SOL    HW224369   2.695   4.078   5.216
 7824SOL     OW24370   6.056   0.533   4.164
 7824SOL    HW124371   6.128   0.557   4.099
 7824SOL    HW224372   6.097   0.492   4.246
 7825SOL     OW24373   1.617   2.703   1.385
 7825SOL    HW124374   1.636   2.608   1.358
 7825SOL    HW224375   1.521   2.710   1.413
 7826SOL     OW24376   6.332   1.635   0.454
 7826SOL    HW124377   6.242   1.591   0.462
 7826SOL    HW224378   6.335   1.715   0.513
 7827SOL     OW24379   2.542   5.627   0.931
 7827SOL    HW124380   2.631   5.662   0.902
 7827SOL    HW224381   2.489   5.700   0.973
 7828SOL     OW24382   1.212   4.565   6.849
 7828SOL    HW124383   1.136   4.525   6.901
 7828SOL    HW224384   1.214   4.526   6.757
 7829SOL     OW24385   2.900   3.769   1.350
 7829SOL    HW124386   2.807   3.791   1.378
 7829SOL    HW224387   2.964   3.820   1.408
 7830SOL     OW24388   2.432   4.846   5.731
 7830SOL    HW124389   2.382   4.848   5.817
 7830SOL    HW224390   2.399   4.771   5.674
 7831SOL     OW24391   1.668   6.499   0.938
 7831SOL    HW124392   1.641   6.544   1.023
 7831SOL    HW224393   1.735   6.428   0.958
 7832SOL     OW24394   4.559   1.186   3.312
 7832SOL    HW124395   4.620   1.265   3.311
 7832SOL    HW224396   4.548   1.153   3.406
 7833SOL     OW24397   1.084   1.192   6.635
 7833SOL    HW124398   1.137   1.268   6.672
 7833SOL    HW224399   1.063   1.127   6.709
 7834SOL     OW24400   6.487   1.917   3.628
 7834SOL    HW124401   6.587   1.920   3.629
 7834SOL    HW224402   6.455   1.917   3.533
 7835SOL     OW24403   3.680   2.345   5.835
 7835SOL    HW124404   3.713   2.433   5.801
 7835SOL    HW224405   3.681   2.345   5.935
 7836SOL     OW24406   3.248   2.950   4.943
 7836SOL    HW124407   3.221   2.929   5.037
 7836SOL    HW224408   3.170   2.990   4.894
 7837SOL     OW24409   6.848   5.591   0.439
 7837SOL    HW124410   6.912   5.638   0.378
 7837SOL    HW224411   6.757   5.631   0.428
 7838SOL     OW24412   4.119   6.773   0.007
 7838SOL    HW124413   4.083   6.715   0.079
 7838SOL    HW224414   4.152   6.859   0.046
 7839SOL     OW24415   6.034   4.609   4.815
 7839SOL    HW124416   5.996   4.637   4.904
 7839SOL    HW224417   6.065   4.514   4.821
 7840SOL     OW24418   6.735   2.729   4.017
 7840SOL    HW124419   6.812   2.691   3.966
 7840SOL    HW224420   6.708   2.816   3.976
 7841SOL     OW24421   4.139   2.148   6.573
 7841SOL    HW124422   4.157   2.055   6.541
 7841SOL    HW224423   4.053   2.182   6.534
 7842SOL     OW24424   2.536   2.136   2.481
 7842SOL    HW124425   2.537   2.104   2.576
 7842SOL    HW224426   2.452   2.105   2.437
 7843SOL     OW24427   6.610   5.745   2.945
 7843SOL    HW124428   6.552   5.780   2.871
 7843SOL    HW224429   6.703   5.778   2.933
 7844SOL     OW24430   3.840   6.875   2.406
 7844SOL    HW124431   3.934   6.849   2.382
 7844SOL    HW224432   3.840   6.966   2.447
 7845SOL     OW24433   5.389   1.863   3.664
 7845SOL    HW124434   5.478   1.868   3.708
 7845SOL    HW224435   5.397   1.891   3.569
 7846SOL     OW24436   0.913   1.284   2.075
 7846SOL    HW124437   0.955   1.373   2.091
 7846SOL    HW224438   0.818   1.296   2.046
 7847SOL     OW24439   6.668   2.013   3.095
 7847SOL    HW124440   6.615   2.048   3.018
 7847SOL    HW224441   6.675   1.913   3.087
 7848SOL     OW24442   3.972   3.878   0.506
 7848SOL    HW124443   4.015   3.968   0.508
 7848SOL    HW224444   4.042   3.807   0.511
 7849SOL     OW24445   5.589   4.429   4.042
 7849SOL    HW124446   5.611   4.432   4.139
 7849SOL    HW224447   5.490   4.438   4.030
 7850SOL     OW24448   0.799   2.355   4.676
 7850SOL    HW124449   0.736   2.277   4.673
 7850SOL    HW224450   0.820   2.384   4.582
 7851SOL     OW24451   6.657   1.330   1.680
 7851SOL    HW124452   6.701   1.244   1.658
 7851SOL    HW224453   6.704   1.405   1.634
 7852SOL     OW24454   2.620   1.811   6.163
 7852SOL    HW124455   2.535   1.831   6.211
 7852SOL    HW224456   2.686   1.883   6.181
 7853SOL     OW24457   4.603   1.996   1.580
 7853SOL    HW124458   4.600   1.927   1.652
 7853SOL    HW224459   4.660   2.072   1.610
 7854SOL     OW24460   3.953   3.445   0.253
 7854SOL    HW124461   3.904   3.530   0.273
 7854SOL    HW224462   3.964   3.436   0.154
 7855SOL     OW24463   4.550   5.808   3.946
 7855SOL    HW124464   4.544   5.815   3.847
 7855SOL    HW224465   4.565   5.898   3.985
 7856SOL     OW24466   6.465   4.708   5.296
 7856SOL    HW124467   6.526   4.733   5.371
 7856SOL    HW224468   6.372   4.698   5.330
 7857SOL     OW24469   5.659   1.423   5.582
 7857SOL    HW124470   5.734   1.366   5.550
 7857SOL    HW224471   5.574   1.369   5.582
 7858SOL     OW24472   5.520   6.261   4.120
 7858SOL    HW124473   5.465   6.188   4.080
 7858SOL    HW224474   5.524   6.338   4.057
 7859SOL     OW24475   4.410   2.688   6.713
 7859SOL    HW124476   4.477   2.728   6.776
 7859SOL    HW224477   4.335   2.753   6.700
 7860SOL     OW24478   3.281   0.231   2.653
 7860SOL    HW124479   3.316   0.311   2.701
 7860SOL    HW224480   3.251   0.163   2.720
 7861SOL     OW24481   3.634   4.820   1.645
 7861SOL    HW124482   3.626   4.766   1.729
 7861SOL    HW224483   3.722   4.868   1.645
 7862SOL     OW24484   2.175   3.880   1.567
 7862SOL    HW124485   2.230   3.811   1.614
 7862SOL    HW224486   2.235   3.956   1.539
 7863SOL     OW24487   0.453   5.078   3.899
 7863SOL    HW124488   0.470   5.175   3.881
 7863SOL    HW224489   0.367   5.068   3.950
 7864SOL     OW24490   0.443   5.343   5.467
 7864SOL    HW124491   0.468   5.300   5.554
 7864SOL    HW224492   0.450   5.275   5.393
 7865SOL     OW24493   6.246   6.588   3.795
 7865SOL    HW124494   6.161   6.540   3.816
 7865SOL    HW224495   6.276   6.638   3.876
 7866SOL     OW24496   1.618   1.301   6.290
 7866SOL    HW124497   1.694   1.251   6.331
 7866SOL    HW224498   1.582   1.249   6.213
 7867SOL     OW24499   6.201   6.084   3.737
 7867SOL    HW124500   6.141   6.044   3.668
 7867SOL    HW224501   6.156   6.082   3.826
 7868SOL     OW24502   5.092   5.989   1.493
 7868SOL    HW124503   5.111   5.988   1.591
 7868SOL    HW224504   5.003   6.032   1.477
 7869SOL     OW24505   6.088   3.857   0.572
 7869SOL    HW124506   6.152   3.832   0.499
 7869SOL    HW224507   6.019   3.920   0.536
 7870SOL     OW24508   3.962   4.859   3.852
 7870SOL    HW124509   3.878   4.841   3.903
 7870SOL    HW224510   4.023   4.915   3.907
 7871SOL     OW24511   4.893   3.098   2.362
 7871SOL    HW124512   4.863   3.002   2.361
 7871SOL    HW224513   4.928   3.122   2.271
 7872SOL     OW24514   2.278   4.129   3.217
 7872SOL    HW124515   2.227   4.079   3.148
 7872SOL    HW224516   2.244   4.104   3.308
 7873SOL     OW24517   5.672   0.266   5.864
 7873SOL    HW124518   5.721   0.280   5.778
 7873SOL    HW224519   5.718   0.316   5.938
 7874SOL     OW24520   5.022   2.033   0.104
 7874SOL    HW124521   5.013   1.988   0.015
 7874SOL    HW224522   5.110   2.081   0.108
 7875SOL     OW24523   4.588   2.796   6.871
 7875SOL    HW124524   4.624   2.771   6.961
 7875SOL    HW224525   4.594   2.895   6.858
 7876SOL     OW24526   1.088   0.282   4.965
 7876SOL    HW124527   1.162   0.308   5.027
 7876SOL    HW224528   1.108   0.192   4.926
 7877SOL     OW24529   0.736   2.104   2.868
 7877SOL    HW124530   0.732   2.124   2.966
 7877SOL    HW224531   0.665   2.037   2.845
 7878SOL     OW24532   5.615   4.616   4.870
 7878SOL    HW124533   5.657   4.704   4.889
 7878SOL    HW224534   5.519   4.617   4.899
 7879SOL     OW24535   4.230   4.963   3.341
 7879SOL    HW124536   4.163   4.892   3.363
 7879SOL    HW224537   4.290   4.930   3.268
 7880SOL     OW24538   1.508   5.340   0.761
 7880SOL    HW124539   1.507   5.241   0.774
 7880SOL    HW224540   1.505   5.385   0.851
 7881SOL     OW24541   6.646   4.346   4.501
 7881SOL    HW124542   6.567   4.397   4.534
 7881SOL    HW224543   6.625   4.307   4.411
 7882SOL     OW24544   0.973   2.784   1.418
 7882SOL    HW124545   0.968   2.860   1.481
 7882SOL    HW224546   1.058   2.790   1.365
 7883SOL     OW24547   0.968   0.598   0.714
 7883SOL    HW124548   0.981   0.685   0.667
 7883SOL    HW224549   0.885   0.602   0.769
 7884SOL     OW24550   2.044   3.568   4.377
 7884SOL    HW124551   1.967   3.592   4.318
 7884SOL    HW224552   2.116   3.637   4.366
 7885SOL     OW24553   6.700   4.835   1.656
 7885SOL    HW124554   6.779   4.778   1.632
 7885SOL    HW224555   6.687   4.905   1.586
 7886SOL     OW24556   2.890   5.283   6.700
 7886SOL    HW124557   2.869   5.379   6.718
 7886SOL    HW224558   2.989   5.272   6.692
 7887SOL     OW24559   3.542   2.870   5.201
 7887SOL    HW124560   3.533   2.919   5.115
 7887SOL    HW224561   3.513   2.775   5.188
 7888SOL     OW24562   6.348   0.368   5.073
 7888SOL    HW124563   6.308   0.291   5.023
 7888SOL    HW224564   6.396   0.334   5.154
 7889SOL     OW24565   1.611   5.120   0.556
 7889SOL    HW124566   1.647   5.205   0.516
 7889SOL    HW224567   1.643   5.112   0.650
 7890SOL     OW24568   1.368   2.434   3.175
 7890SOL    HW124569   1.433   2.360   3.157
 7890SOL    HW224570   1.414   2.506   3.226
 7891SOL     OW24571   2.179   3.863   3.716
 7891SOL    HW124572   2.194   3.776   3.762
 7891SOL    HW224573   2.209   3.938   3.775
 7892SOL     OW24574   2.082   0.881   3.678
 7892SOL    HW124575   2.042   0.791   3.699
 7892SOL    HW224576   2.109   0.883   3.582
 7893SOL     OW24577   6.814   6.338   2.639
 7893SOL    HW124578   6.757   6.416   2.613
 7893SOL    HW224579   6.757   6.270   2.686
 7894SOL     OW24580   3.818   6.619   0.154
 7894SOL    HW124581   3.827   6.520   0.142
 7894SOL    HW224582   3.765   6.638   0.236
 7895SOL     OW24583   5.672   0.612   4.906
 7895SOL    HW124584   5.712   0.581   4.992
 7895SOL    HW224585   5.732   0.680   4.863
 7896SOL     OW24586   4.849   3.477   0.854
 7896SOL    HW124587   4.922   3.436   0.799
 7896SOL    HW224588   4.787   3.406   0.886
 7897SOL     OW24589   2.827   3.874   0.130
 7897SOL    HW124590   2.915   3.916   0.107
 7897SOL    HW224591   2.767   3.943   0.170
 7898SOL     OW24592   4.248   2.016   2.870
 7898SOL    HW124593   4.184   2.083   2.908
 7898SOL    HW224594   4.229   1.926   2.909
 7899SOL     OW24595   5.846   0.641   1.433
 7899SOL    HW124596   5.943   0.643   1.410
 7899SOL    HW224597   5.819   0.729   1.472
 7900SOL     OW24598   1.767   4.731   1.994
 7900SOL    HW124599   1.849   4.736   2.052
 7900SOL    HW224600   1.719   4.644   2.011
 7901SOL     OW24601   4.892   1.341   6.711
 7901SOL    HW124602   4.937   1.265   6.664
 7901SOL    HW224603   4.960   1.397   6.757
 7902SOL     OW24604   5.907   6.832   1.335
 7902SOL    HW124605   5.878   6.923   1.308
 7902SOL    HW224606   5.826   6.773   1.346
 7903SOL     OW24607   5.592   1.495   1.100
 7903SOL    HW124608   5.633   1.410   1.134
 7903SOL    HW224609   5.536   1.475   1.020
 7904SOL     OW24610   5.426   0.451   3.129
 7904SOL    HW124611   5.420   0.546   3.099
 7904SOL    HW224612   5.488   0.445   3.207
 7905SOL     OW24613   4.623   2.164   0.234
 7905SOL    HW124614   4.682   2.147   0.313
 7905SOL    HW224615   4.641   2.096   0.163
 7906SOL     OW24616   0.310   5.478   0.733
 7906SOL    HW124617   0.261   5.566   0.730
 7906SOL    HW224618   0.337   5.453   0.640
 7907SOL     OW24619   5.504   2.564   3.117
 7907SOL    HW124620   5.445   2.483   3.107
 7907SOL    HW224621   5.600   2.536   3.111
 7908SOL     OW24622   0.963   1.547   5.740
 7908SOL    HW124623   0.941   1.605   5.819
 7908SOL    HW224624   0.904   1.466   5.741
 7909SOL     OW24625   5.498   4.225   4.945
 7909SOL    HW124626   5.450   4.290   5.004
 7909SOL    HW224627   5.442   4.144   4.932
 7910SOL     OW24628   3.043   3.796   5.726
 7910SOL    HW124629   3.037   3.805   5.626
 7910SOL    HW224630   3.100   3.717   5.748
 7911SOL     OW24631   2.147   3.346   6.942
 7911SOL    HW124632   2.239   3.334   6.978
 7911SOL    HW224633   2.113   3.258   6.907
 7912SOL     OW24634   6.900   4.837   0.800
 7912SOL    HW124635   6.990   4.794   0.808
 7912SOL    HW224636   6.886   4.867   0.706
 7913SOL     OW24637   1.566   4.687   0.883
 7913SOL    HW124638   1.614   4.763   0.926
 7913SOL    HW224639   1.631   4.632   0.830
 7914SOL     OW24640   0.385   4.246   0.193
 7914SOL    HW124641   0.326   4.184   0.245
 7914SOL    HW224642   0.356   4.340   0.209
 7915SOL     OW24643   4.926   2.901   1.849
 7915SOL    HW124644   4.986   2.981   1.840
 7915SOL    HW224645   4.838   2.929   1.886
 7916SOL     OW24646   1.160   4.240   5.335
 7916SOL    HW124647   1.181   4.310   5.267
 7916SOL    HW224648   1.079   4.267   5.387
 7917SOL     OW24649   3.819   3.597   4.607
 7917SOL    HW124650   3.867   3.538   4.672
 7917SOL    HW224651   3.772   3.670   4.657
 7918SOL     OW24652   6.958   1.308   6.349
 7918SOL    HW124653   0.017   1.370   6.349
 7918SOL    HW224654   6.974   1.234   6.283
 7919SOL     OW24655   1.831   4.454   2.772
 7919SOL    HW124656   1.731   4.459   2.784
 7919SOL    HW224657   1.853   4.381   2.708
 7920SOL     OW24658   0.289   5.846   1.099
 7920SOL    HW124659   0.198   5.807   1.108
 7920SOL    HW224660   0.316   5.847   1.003
 7921SOL     OW24661   5.325   6.645   0.464
 7921SOL    HW124662   5.232   6.616   0.440
 7921SOL    HW224663   5.331   6.744   0.462
 7922SOL     OW24664   6.744   6.640   0.404
 7922SOL    HW124665   6.765   6.649   0.501
 7922SOL    HW224666   6.829   6.630   0.352
 7923SOL     OW24667   3.075   0.221   2.216
 7923SOL    HW124668   3.095   0.211   2.119
 7923SOL    HW224669   3.158   0.205   2.269
 7924SOL     OW24670   4.072   6.975   2.271
 7924SOL    HW124671   4.081   0.042   2.221
 7924SOL    HW224672   4.102   6.988   2.365
 7925SOL     OW24673   0.655   1.725   6.612
 7925SOL    HW124674   0.705   1.779   6.545
 7925SOL    HW224675   0.605   1.786   6.674
 7926SOL     OW24676   4.890   1.853   5.217
 7926SOL    HW124677   4.984   1.847   5.184
 7926SOL    HW224678   4.830   1.885   5.143
 7927SOL     OW24679   4.160   5.381   2.354
 7927SOL    HW124680   4.153   5.387   2.453
 7927SOL    HW224681   4.154   5.472   2.314
 7928SOL     OW24682   1.508   2.098   4.492
 7928SOL    HW124683   1.444   2.051   4.554
 7928SOL    HW224684   1.461   2.122   4.407
 7929SOL     OW24685   4.190   4.976   6.298
 7929SOL    HW124686   4.124   5.003   6.228
 7929SOL    HW224687   4.180   4.878   6.316
 7930SOL     OW24688   4.381   5.689   4.653
 7930SOL    HW124689   4.360   5.630   4.731
 7930SOL    HW224690   4.373   5.637   4.568
 7931SOL     OW24691   1.932   2.361   6.652
 7931SOL    HW124692   1.905   2.456   6.668
 7931SOL    HW224693   1.942   2.315   6.740
 7932SOL     OW24694   1.593   6.205   6.753
 7932SOL    HW124695   1.679   6.179   6.797
 7932SOL    HW224696   1.537   6.123   6.739
 7933SOL     OW24697   0.216   5.936   6.394
 7933SOL    HW124698   0.149   5.990   6.345
 7933SOL    HW224699   0.184   5.841   6.402
 7934SOL     OW24700   2.338   4.929   0.300
 7934SOL    HW124701   2.383   4.857   0.353
 7934SOL    HW224702   2.376   5.018   0.325
 7935SOL     OW24703   6.120   5.514   0.074
 7935SOL    HW124704   6.083   5.574   0.145
 7935SOL    HW224705   6.067   5.524   7.009
 7936SOL     OW24706   3.939   6.279   2.534
 7936SOL    HW124707   3.937   6.179   2.522
 7936SOL    HW224708   3.889   6.322   2.459
 7937SOL     OW24709   6.457   6.429   3.377
 7937SOL    HW124710   6.365   6.446   3.342
 7937SOL    HW224711   6.464   6.465   3.470
 7938SOL     OW24712   6.482   5.584   4.359
 7938SOL    HW124713   6.558   5.643   4.385
 7938SOL    HW224714   6.505   5.489   4.378
 7939SOL     OW24715   1.795   2.625   5.667
 7939SOL    HW124716   1.760   2.612   5.760
 7939SOL    HW224717   1.789   2.721   5.642
 7940SOL     OW24718   1.680   3.794   2.261
 7940SOL    HW124719   1.700   3.747   2.175
 7940SOL    HW224720   1.700   3.732   2.337
 7941SOL     OW24721   5.913   0.712   0.754
 7941SOL    HW124722   5.873   0.769   0.827
 7941SOL    HW224723   5.985   0.654   0.793
 7942SOL     OW24724   6.641   6.626   2.694
 7942SOL    HW124725   6.687   6.687   2.758
 7942SOL    HW224726   6.558   6.670   2.658
 7943SOL     OW24727   6.212   3.272   0.608
 7943SOL    HW124728   6.276   3.278   0.531
 7943SOL    HW224729   6.182   3.365   0.633
 7944SOL     OW24730   0.452   2.282   1.696
 7944SOL    HW124731   0.395   2.201   1.686
 7944SOL    HW224732   0.490   2.307   1.607
 7945SOL     OW24733   5.881   5.725   1.872
 7945SOL    HW124734   5.879   5.692   1.966
 7945SOL    HW224735   5.934   5.810   1.868
 7946SOL     OW24736   2.514   1.557   5.342
 7946SOL    HW124737   2.419   1.588   5.332
 7946SOL    HW224738   2.540   1.503   5.262
 7947SOL     OW24739   3.562   2.151   6.253
 7947SOL    HW124740   3.598   2.077   6.196
 7947SOL    HW224741   3.540   2.115   6.344
 7948SOL     OW24742   1.072   6.438   0.923
 7948SOL    HW124743   0.991   6.440   0.982
 7948SOL    HW224744   1.054   6.380   0.843
 7949SOL     OW24745   4.418   4.689   4.879
 7949SOL    HW124746   4.392   4.782   4.907
 7949SOL    HW224747   4.397   4.625   4.953
 7950SOL     OW24748   5.845   5.420   4.506
 7950SOL    HW124749   5.913   5.430   4.433
 7950SOL    HW224750   5.891   5.390   4.590
 7951SOL     OW24751   2.368   4.191   1.862
 7951SOL    HW124752   2.325   4.103   1.845
 7951SOL    HW224753   2.453   4.198   1.809
 7952SOL     OW24754   0.421   3.117   6.753
 7952SOL    HW124755   0.375   3.032   6.728
 7952SOL    HW224756   0.423   3.178   6.674
 7953SOL     OW24757   2.139   2.916   4.068
 7953SOL    HW124758   2.139   2.934   4.167
 7953SOL    HW224759   2.056   2.866   4.043
 7954SOL     OW24760   4.543   4.187   5.592
 7954SOL    HW124761   4.559   4.219   5.685
 7954SOL    HW224762   4.557   4.088   5.588
 7955SOL     OW24763   1.439   6.590   6.709
 7955SOL    HW124764   1.394   6.565   6.623
 7955SOL    HW224765   1.385   6.556   6.786
 7956SOL     OW24766   3.903   5.894   2.398
 7956SOL    HW124767   3.936   5.812   2.445
 7956SOL    HW224768   3.806   5.908   2.419
 7957SOL     OW24769   1.026   0.847   1.612
 7957SOL    HW124770   1.111   0.897   1.630
 7957SOL    HW224771   1.048   0.758   1.571
 7958SOL     OW24772   3.771   5.316   4.742
 7958SOL    HW124773   3.806   5.277   4.827
 7958SOL    HW224774   3.827   5.393   4.715
 7959SOL     OW24775   4.182   5.838   1.021
 7959SOL    HW124776   4.183   5.797   0.930
 7959SOL    HW224777   4.120   5.917   1.022
 7960SOL     OW24778   2.805   0.885   0.098
 7960SOL    HW124779   2.806   0.864   0.000
 7960SOL    HW224780   2.890   0.853   0.139
 7961SOL     OW24781   6.853   0.476   1.480
 7961SOL    HW124782   6.879   0.543   1.549
 7961SOL    HW224783   6.935   0.435   1.441
 7962SOL     OW24784   1.275   0.573   0.322
 7962SOL    HW124785   1.210   0.522   0.379
 7962SOL    HW224786   1.287   0.525   0.235
 7963SOL     OW24787   6.645   0.355   3.686
 7963SOL    HW124788   6.581   0.389   3.617
 7963SOL    HW224789   6.722   0.311   3.642
 7964SOL     OW24790   0.038   4.886   3.899
 7964SOL    HW124791   0.072   4.809   3.953
 7964SOL    HW224792   0.057   4.871   3.802
 7965SOL     OW24793   3.504   2.569   6.018
 7965SOL    HW124794   3.452   2.654   6.024
 7965SOL    HW224795   3.593   2.587   5.975
 7966SOL     OW24796   0.882   3.043   5.151
 7966SOL    HW124797   0.926   3.069   5.065
 7966SOL    HW224798   0.929   2.963   5.190
 7967SOL     OW24799   2.967   6.550   3.489
 7967SOL    HW124800   3.017   6.467   3.514
 7967SOL    HW224801   2.949   6.604   3.571
 7968SOL     OW24802   2.049   2.434   3.319
 7968SOL    HW124803   2.052   2.336   3.337
 7968SOL    HW224804   2.001   2.481   3.393
 7969SOL     OW24805   3.785   5.637   0.772
 7969SOL    HW124806   3.784   5.636   0.672
 7969SOL    HW224807   3.726   5.711   0.805
 7970SOL     OW24808   6.845   3.036   2.436
 7970SOL    HW124809   6.752   3.001   2.421
 7970SOL    HW224810   6.857   3.056   2.534
 7971SOL     OW24811   4.078   1.519   0.964
 7971SOL    HW124812   4.164   1.489   0.922
 7971SOL    HW224813   4.051   1.607   0.924
 7972SOL     OW24814   1.919   3.310   0.556
 7972SOL    HW124815   1.864   3.227   0.564
 7972SOL    HW224816   1.902   3.370   0.634
 7973SOL     OW24817   4.793   4.721   3.926
 7973SOL    HW124818   4.890   4.700   3.915
 7973SOL    HW224819   4.752   4.655   3.988
 7974SOL     OW24820   5.348   1.289   5.924
 7974SOL    HW124821   5.372   1.298   5.827
 7974SOL    HW224822   5.358   1.377   5.969
 7975SOL     OW24823   5.786   0.732   2.487
 7975SOL    HW124824   5.809   0.642   2.450
 7975SOL    HW224825   5.865   0.769   2.537
 7976SOL     OW24826   0.329   0.621   6.932
 7976SOL    HW124827   0.313   0.559   7.009
 7976SOL    HW224828   0.390   0.695   6.961
 7977SOL     OW24829   4.775   5.856   1.821
 7977SOL    HW124830   4.846   5.920   1.850
 7977SOL    HW224831   4.758   5.790   1.895
 7978SOL     OW24832   6.204   3.388   6.302
 7978SOL    HW124833   6.148   3.460   6.262
 7978SOL    HW224834   6.150   3.339   6.371
 7979SOL     OW24835   3.614   6.647   5.184
 7979SOL    HW124836   3.705   6.689   5.185
 7979SOL    HW224837   3.597   6.608   5.093
 7980SOL     OW24838   2.472   5.366   6.908
 7980SOL    HW124839   2.384   5.320   6.919
 7980SOL    HW224840   2.518   5.331   6.826
 7981SOL     OW24841   0.728   5.768   2.054
 7981SOL    HW124842   0.730   5.699   2.127
 7981SOL    HW224843   0.712   5.724   1.966
 7982SOL     OW24844   0.227   1.761   0.028
 7982SOL    HW124845   0.240   1.662   0.042
 7982SOL    HW224846   0.257   1.786   6.955
 7983SOL     OW24847   5.824   1.867   2.316
 7983SOL    HW124848   5.853   1.772   2.306
 7983SOL    HW224849   5.902   1.928   2.299
 7984SOL     OW24850   1.705   1.410   0.796
 7984SOL    HW124851   1.763   1.469   0.852
 7984SOL    HW224852   1.611   1.445   0.798
 7985SOL     OW24853   2.263   0.244   3.801
 7985SOL    HW124854   2.178   0.223   3.752
 7985SOL    HW224855   2.331   0.174   3.782
 7986SOL     OW24856   3.562   1.286   6.916
 7986SOL    HW124857   3.474   1.241   6.900
 7986SOL    HW224858   3.636   1.220   6.904
 7987SOL     OW24859   1.327   3.272   0.100
 7987SOL    HW124860   1.312   3.209   0.024
 7987SOL    HW224861   1.398   3.337   0.075
 7988SOL     OW24862   1.294   2.099   3.819
 7988SOL    HW124863   1.382   2.145   3.827
 7988SOL    HW224864   1.221   2.167   3.829
 7989SOL     OW24865   3.545   3.346   5.382
 7989SOL    HW124866   3.596   3.288   5.319
 7989SOL    HW224867   3.608   3.402   5.435
 7990SOL     OW24868   6.932   3.206   3.099
 7990SOL    HW124869   0.000   3.177   3.138
 7990SOL    HW224870   6.857   3.169   3.154
 7991SOL     OW24871   6.147   0.753   3.841
 7991SOL    HW124872   6.106   0.675   3.793
 7991SOL    HW224873   6.161   0.829   3.777
 7992SOL     OW24874   1.230   6.693   1.717
 7992SOL    HW124875   1.246   6.687   1.618
 7992SOL    HW224876   1.184   6.610   1.748
 7993SOL     OW24877   0.471   0.081   6.503
 7993SOL    HW124878   0.407   0.157   6.512
 7993SOL    HW224879   0.421   7.015   6.488
 7994SOL     OW24880   4.618   6.968   3.123
 7994SOL    HW124881   4.550   0.022   3.129
 7994SOL    HW224882   4.710   7.007   3.129
 7995SOL     OW24883   4.321   5.175   3.537
 7995SOL    HW124884   4.364   5.245   3.480
 7995SOL    HW224885   4.309   5.091   3.485
 7996SOL     OW24886   3.116   0.202   4.878
 7996SOL    HW124887   3.186   0.167   4.940
 7996SOL    HW224888   3.026   0.193   4.919
 7997SOL     OW24889   0.457   1.365   1.682
 7997SOL    HW124890   0.413   1.448   1.650
 7997SOL    HW224891   0.534   1.342   1.622
 7998SOL     OW24892   3.535   5.311   1.167
 7998SOL    HW124893   3.630   5.336   1.182
 7998SOL    HW224894   3.503   5.254   1.243
 7999SOL     OW24895   0.750   6.585   6.219
 7999SOL    HW124896   0.657   6.550   6.208
 7999SOL    HW224897   0.749   6.665   6.279
 8000SOL     OW24898   5.570   0.205   0.143
 8000SOL    HW124899   5.524   0.141   0.081
 8000SOL    HW224900   5.506   0.277   0.170
 8001SOL     OW24901   3.280   5.902   1.015
 8001SOL    HW124902   3.351   5.843   1.054
 8001SOL    HW224903   3.252   5.970   1.083
 8002SOL     OW24904   0.814   2.242   5.477
 8002SOL    HW124905   0.821   2.144   5.499
 8002SOL    HW224906   0.723   2.261   5.441
 8003SOL     OW24907   2.709   5.173   2.441
 8003SOL    HW124908   2.660   5.090   2.417
 8003SOL    HW224909   2.804   5.151   2.461
 8004SOL     OW24910   1.954   3.338   3.814
 8004SOL    HW124911   1.897   3.277   3.869
 8004SOL    HW224912   2.046   3.298   3.804
 8005SOL     OW24913   3.820   0.687   2.772
 8005SOL    HW124914   3.846   0.765   2.714
 8005SOL    HW224915   3.746   0.715   2.834
 8006SOL     OW24916   2.521   0.788   6.420
 8006SOL    HW124917   2.488   0.866   6.365
 8006SOL    HW224918   2.582   0.822   6.492
 8007SOL     OW24919   6.854   1.187   4.672
 8007SOL    HW124920   6.909   1.239   4.607
 8007SOL    HW224921   6.907   1.170   4.755
 8008SOL     OW24922   4.770   5.912   5.745
 8008SOL    HW124923   4.834   5.841   5.716
 8008SOL    HW224924   4.816   6.000   5.746
 8009SOL     OW24925   5.742   1.127   2.976
 8009SOL    HW124926   5.812   1.062   3.004
 8009SOL    HW224927   5.686   1.087   2.904
 8010SOL     OW24928   0.383   0.867   0.095
 8010SOL    HW124929   0.322   0.941   0.125
 8010SOL    HW224930   0.442   0.900   0.022
 8011SOL     OW24931   3.355   2.285   0.689
 8011SOL    HW124932   3.434   2.255   0.636
 8011SOL    HW224933   3.273   2.242   0.653
 8012SOL     OW24934   2.236   4.442   1.799
 8012SOL    HW124935   2.316   4.383   1.812
 8012SOL    HW224936   2.262   4.522   1.744
 8013SOL     OW24937   1.426   4.908   3.450
 8013SOL    HW124938   1.433   4.994   3.399
 8013SOL    HW224939   1.339   4.864   3.429
 8014SOL     OW24940   0.999   6.648   5.082
 8014SOL    HW124941   1.057   6.595   5.145
 8014SOL    HW224942   1.045   6.655   4.993
 8015SOL     OW24943   2.539   0.865   0.139
 8015SOL    HW124944   2.637   0.876   0.126
 8015SOL    HW224945   2.490   0.923   0.074
 8016SOL     OW24946   5.173   0.269   5.903
 8016SOL    HW124947   5.089   0.266   5.957
 8016SOL    HW224948   5.151   0.264   5.805
 8017SOL     OW24949   6.243   6.812   1.030
 8017SOL    HW124950   6.200   6.787   1.117
 8017SOL    HW224951   6.295   6.734   0.995
 8018SOL     OW24952   3.153   2.137   6.182
 8018SOL    HW124953   3.118   2.066   6.120
 8018SOL    HW224954   3.233   2.180   6.141
 8019SOL     OW24955   2.410   4.545   5.945
 8019SOL    HW124956   2.398   4.547   6.044
 8019SOL    HW224957   2.321   4.531   5.901
 8020SOL     OW24958   6.115   6.552   0.847
 8020SOL    HW124959   6.183   6.607   0.896
 8020SOL    HW224960   6.024   6.574   0.881
 8021SOL     OW24961   1.502   1.719   0.979
 8021SOL    HW124962   1.533   1.743   1.071
 8021SOL    HW224963   1.536   1.787   0.914
 8022SOL     OW24964   4.910   6.425   2.697
 8022SOL    HW124965   4.900   6.454   2.602
 8022SOL    HW224966   4.989   6.470   2.737
 8023SOL     OW24967   6.321   5.352   3.154
 8023SOL    HW124968   6.335   5.268   3.103
 8023SOL    HW224969   6.297   5.426   3.091
 8024SOL     OW24970   2.866   5.125   6.941
 8024SOL    HW124971   2.854   5.190   6.866
 8024SOL    HW224972   2.912   5.170   7.017
 8025SOL     OW24973   2.507   6.346   6.587
 8025SOL    HW124974   2.516   6.300   6.498
 8025SOL    HW224975   2.543   6.439   6.580
 8026SOL     OW24976   1.106   4.282   6.718
 8026SOL    HW124977   1.199   4.264   6.752
 8026SOL    HW224978   1.110   4.349   6.644
 8027SOL     OW24979   4.529   0.951   5.290
 8027SOL    HW124980   4.449   1.006   5.314
 8027SOL    HW224981   4.593   1.006   5.237
 8028SOL     OW24982   3.277   5.116   4.461
 8028SOL    HW124983   3.233   5.205   4.451
 8028SOL    HW224984   3.207   5.045   4.471
 8029SOL     OW24985   5.165   3.226   1.225
 8029SOL    HW124986   5.091   3.186   1.171
 8029SOL    HW224987   5.200   3.159   1.290
 8030SOL     OW24988   4.270   4.631   0.058
 8030SOL    HW124989   4.199   4.576   0.104
 8030SOL    HW224990   4.356   4.580   0.057
 8031SOL     OW24991   5.305   6.329   2.835
 8031SOL    HW124992   5.303   6.255   2.902
 8031SOL    HW224993   5.254   6.408   2.870
 8032SOL     OW24994   5.930   4.724   6.528
 8032SOL    HW124995   5.973   4.637   6.554
 8032SOL    HW224996   6.001   4.790   6.506
 8033SOL     OW24997   4.718   2.647   6.069
 8033SOL    HW124998   4.772   2.725   6.037
 8033SOL    HW224999   4.702   2.656   6.168
 8034SOL     OW25000   6.090   0.486   4.856
 8034SOL    HW125001   6.097   0.398   4.809
 8034SOL    HW225002   6.018   0.481   4.925
 8035SOL     OW25003   5.065   1.970   4.480
 8035SOL    HW125004   5.020   2.016   4.556
 8035SOL    HW225005   5.131   2.032   4.438
 8036SOL     OW25006   0.872   4.317   2.858
 8036SOL    HW125007   0.811   4.396   2.859
 8036SOL    HW225008   0.845   4.253   2.930
 8037SOL     OW25009   1.721   3.168   0.917
 8037SOL    HW125010   1.768   3.241   0.867
 8037SOL    HW225011   1.788   3.119   0.973
 8038SOL     OW25012   3.566   0.914   3.453
 8038SOL    HW125013   3.558   0.980   3.378
 8038SOL    HW225014   3.650   0.860   3.440
 8039SOL     OW25015   0.801   1.856   4.104
 8039SOL    HW125016   0.768   1.765   4.077
 8039SOL    HW225017   0.811   1.913   4.023
 8040SOL     OW25018   2.035   6.788   0.542
 8040SOL    HW125019   2.054   6.695   0.512
 8040SOL    HW225020   2.005   6.843   0.464
 8041SOL     OW25021   2.829   1.322   1.848
 8041SOL    HW125022   2.857   1.231   1.818
 8041SOL    HW225023   2.785   1.370   1.772
 8042SOL     OW25024   3.563   2.908   3.937
 8042SOL    HW125025   3.490   2.873   3.996
 8042SOL    HW225026   3.523   2.972   3.870
 8043SOL     OW25027   4.417   6.882   2.702
 8043SOL    HW125028   4.394   6.785   2.699
 8043SOL    HW225029   4.374   6.925   2.782
 8044SOL     OW25030   3.849   2.903   1.014
 8044SOL    HW125031   3.781   2.842   0.975
 8044SOL    HW225032   3.829   2.918   1.111
 8045SOL     OW25033   5.535   1.089   1.400
 8045SOL    HW125034   5.483   1.150   1.341
 8045SOL    HW225035   5.478   1.060   1.477
 8046SOL     OW25036   0.337   5.075   0.846
 8046SOL    HW125037   0.268   5.103   0.779
 8046SOL    HW225038   0.394   5.153   0.870
 8047SOL     OW25039   3.322   5.350   4.676
 8047SOL    HW125040   3.329   5.286   4.752
 8047SOL    HW225041   3.226   5.366   4.654
 8048SOL     OW25042   5.065   1.073   5.980
 8048SOL    HW125043   5.083   1.121   6.066
 8048SOL    HW225044   5.082   0.975   5.992
 8049SOL     OW25045   0.698   0.272   0.102
 8049SOL    HW125046   0.772   0.220   0.145
 8049SOL    HW225047   0.658   0.335   0.169
 8050SOL     OW25048   1.674   3.872   2.782
 8050SOL    HW125049   1.764   3.880   2.823
 8050SOL    HW225050   1.648   3.960   2.740
 8051SOL     OW25051   4.816   5.609   2.851
 8051SOL    HW125052   4.830   5.707   2.834
 8051SOL    HW225053   4.848   5.557   2.772
 8052SOL     OW25054   4.595   1.863   1.912
 8052SOL    HW125055   4.544   1.948   1.922
 8052SOL    HW225056   4.533   1.785   1.922
 8053SOL     OW25057   3.049   3.717   3.539
 8053SOL    HW125058   3.146   3.693   3.542
 8053SOL    HW225059   3.033   3.780   3.462
 8054SOL     OW25060   4.437   0.254   4.351
 8054SOL    HW125061   4.463   0.307   4.271
 8054SOL    HW225062   4.503   0.270   4.425
 8055SOL     OW25063   0.636   0.013   5.724
 8055SOL    HW125064   0.667   0.103   5.693
 8055SOL    HW225065   0.536   0.014   5.735
 8056SOL     OW25066   3.964   2.025   3.967
 8056SOL    HW125067   3.925   2.079   3.892
 8056SOL    HW225068   3.965   2.080   4.051
 8057SOL     OW25069   2.916   1.833   3.190
 8057SOL    HW125070   2.846   1.895   3.154
 8057SOL    HW225071   2.898   1.741   3.157
 8058SOL     OW25072   4.634   0.519   2.000
 8058SOL    HW125073   4.633   0.507   2.099
 8058SOL    HW225074   4.541   0.508   1.964
 8059SOL     OW25075   4.296   2.375   4.447
 8059SOL    HW125076   4.348   2.429   4.513
 8059SOL    HW225077   4.276   2.285   4.487
 8060SOL     OW25078   0.836   2.598   3.366
 8060SOL    HW125079   0.745   2.626   3.335
 8060SOL    HW225080   0.881   2.547   3.292
 8061SOL     OW25081   0.129   0.710   2.191
 8061SOL    HW125082   0.057   0.675   2.133
 8061SOL    HW225083   0.128   0.662   2.279
 8062SOL     OW25084   3.575   5.068   4.372
 8062SOL    HW125085   3.494   5.079   4.430
 8062SOL    HW225086   3.628   5.153   4.371
 8063SOL     OW25087   0.744   2.637   0.518
 8063SOL    HW125088   0.834   2.594   0.528
 8063SOL    HW225089   0.675   2.582   0.564
 8064SOL     OW25090   0.242   4.440   1.752
 8064SOL    HW125091   0.214   4.521   1.700
 8064SOL    HW225092   0.334   4.413   1.724
 8065SOL     OW25093   3.312   5.909   4.402
 8065SOL    HW125094   3.356   5.991   4.439
 8065SOL    HW225095   3.361   5.878   4.321
 8066SOL     OW25096   0.562   2.043   5.888
 8066SOL    HW125097   0.490   2.111   5.897
 8066SOL    HW225098   0.523   1.951   5.901
 8067SOL     OW25099   4.683   2.747   1.908
 8067SOL    HW125100   4.757   2.744   1.840
 8067SOL    HW225101   4.694   2.829   1.965
 8068SOL     OW25102   6.940   4.267   0.578
 8068SOL    HW125103   6.991   4.185   0.602
 8068SOL    HW225104   6.968   4.298   0.487
 8069SOL     OW25105   2.056   6.497   1.128
 8069SOL    HW125106   2.054   6.582   1.076
 8069SOL    HW225107   1.966   6.479   1.168
 8070SOL     OW25108   3.260   3.613   0.462
 8070SOL    HW125109   3.209   3.602   0.376
 8070SOL    HW225110   3.234   3.699   0.506
 8071SOL     OW25111   2.810   6.547   4.717
 8071SOL    HW125112   2.892   6.562   4.662
 8071SOL    HW225113   2.813   6.456   4.758
 8072SOL     OW25114   3.779   0.740   0.093
 8072SOL    HW125115   3.797   0.711   7.018
 8072SOL    HW225116   3.844   0.694   0.155
 8073SOL     OW25117   4.088   5.834   5.338
 8073SOL    HW125118   4.130   5.843   5.247
 8073SOL    HW225119   4.159   5.815   5.406
 8074SOL     OW25120   3.872   2.811   0.752
 8074SOL    HW125121   3.793   2.751   0.760
 8074SOL    HW225122   3.900   2.817   0.656
 8075SOL     OW25123   6.324   0.708   0.352
 8075SOL    HW125124   6.236   0.693   0.396
 8075SOL    HW225125   6.359   0.798   0.378
 8076SOL     OW25126   5.036   2.531   5.750
 8076SOL    HW125127   4.947   2.499   5.783
 8076SOL    HW225128   5.035   2.631   5.743
 8077SOL     OW25129   2.085   5.401   1.691
 8077SOL    HW125130   2.090   5.309   1.730
 8077SOL    HW225131   2.175   5.429   1.659
 8078SOL     OW25132   6.262   1.673   0.091
 8078SOL    HW125133   6.319   1.642   0.015
 8078SOL    HW225134   6.187   1.608   0.104
 8079SOL     OW25135   4.976   1.473   3.376
 8079SOL    HW125136   4.938   1.397   3.429
 8079SOL    HW225137   4.907   1.506   3.311
 8080SOL     OW25138   0.327   2.985   0.288
 8080SOL    HW125139   0.349   2.895   0.250
 8080SOL    HW225140   0.390   3.053   0.251
 8081SOL     OW25141   5.532   6.935   4.277
 8081SOL    HW125142   5.547   6.857   4.217
 8081SOL    HW225143   5.477   6.907   4.356
 8082SOL     OW25144   5.188   6.809   1.745
 8082SOL    HW125145   5.258   6.738   1.733
 8082SOL    HW225146   5.204   6.883   1.680
 8083SOL     OW25147   5.134   3.993   2.407
 8083SOL    HW125148   5.188   3.909   2.401
 8083SOL    HW225149   5.181   4.067   2.360
 8084SOL     OW25150   5.003   0.279   6.902
 8084SOL    HW125151   5.092   0.326   6.903
 8084SOL    HW225152   5.007   0.201   6.841
 8085SOL     OW25153   5.487   6.826   2.629
 8085SOL    HW125154   5.541   6.892   2.682
 8085SOL    HW225155   5.544   6.747   2.606
 8086SOL     OW25156   4.273   1.247   3.693
 8086SOL    HW125157   4.209   1.178   3.728
 8086SOL    HW225158   4.226   1.305   3.627
 8087SOL     OW25159   2.993   1.087   0.905
 8087SOL    HW125160   2.934   1.152   0.953
 8087SOL    HW225161   2.975   1.092   0.807
 8088SOL     OW25162   5.534   2.902   1.222
 8088SOL    HW125163   5.512   2.891   1.125
 8088SOL    HW225164   5.630   2.880   1.238
 8089SOL     OW25165   4.981   2.678   0.477
 8089SOL    HW125166   4.983   2.580   0.458
 8089SOL    HW225167   4.983   2.693   0.576
 8090SOL     OW25168   4.238   1.837   6.771
 8090SOL    HW125169   4.187   1.752   6.756
 8090SOL    HW225170   4.230   1.895   6.690
 8091SOL     OW25171   2.554   3.588   6.141
 8091SOL    HW125172   2.495   3.668   6.137
 8091SOL    HW225173   2.535   3.537   6.225
 8092SOL     OW25174   6.998   2.783   5.298
 8092SOL    HW125175   0.060   2.780   5.240
 8092SOL    HW225176   6.952   2.694   5.295
 8093SOL     OW25177   4.738   5.253   2.354
 8093SOL    HW125178   4.669   5.269   2.423
 8093SOL    HW225179   4.746   5.155   2.336
 8094SOL     OW25180   1.491   3.244   5.281
 8094SOL    HW125181   1.484   3.342   5.263
 8094SOL    HW225182   1.562   3.205   5.221
 8095SOL     OW25183   6.441   4.005   4.638
 8095SOL    HW125184   6.392   4.070   4.696
 8095SOL    HW225185   6.539   4.016   4.652
 8096SOL     OW25186   2.762   6.280   3.562
 8096SOL    HW125187   2.787   6.373   3.587
 8096SOL    HW225188   2.663   6.270   3.564
 8097SOL     OW25189   4.645   6.252   3.561
 8097SOL    HW125190   4.618   6.345   3.534
 8097SOL    HW225191   4.662   6.250   3.659
 8098SOL     OW25192   2.298   6.649   4.040
 8098SOL    HW125193   2.229   6.640   3.969
 8098SOL    HW225194   2.285   6.576   4.108
 8099SOL     OW25195   4.472   0.041   3.887
 8099SOL    HW125196   4.400   7.007   3.930
 8099SOL    HW225197   4.491   0.122   3.942
 8100SOL     OW25198   5.972   0.031   0.322
 8100SOL    HW125199   5.877   0.005   0.306
 8100SOL    HW225200   5.990   0.119   0.279
 8101SOL     OW25201   2.311   6.915   3.986
 8101SOL    HW125202   2.360   6.962   3.913
 8101SOL    HW225203   2.337   6.818   3.987
 8102SOL     OW25204   0.538   4.813   4.533
 8102SOL    HW125205   0.519   4.719   4.560
 8102SOL    HW225206   0.470   4.843   4.465
 8103SOL     OW25207   4.559   0.624   0.937
 8103SOL    HW125208   4.540   0.532   0.971
 8103SOL    HW225209   4.598   0.618   0.845
 8104SOL     OW25210   2.805   6.859   6.079
 8104SOL    HW125211   2.903   6.880   6.072
 8104SOL    HW225212   2.753   6.928   6.028
 8105SOL     OW25213   0.874   2.242   3.559
 8105SOL    HW125214   0.844   2.324   3.607
 8105SOL    HW225215   0.834   2.240   3.467
 8106SOL     OW25216   2.233   5.958   3.014
 8106SOL    HW125217   2.199   6.051   3.031
 8106SOL    HW225218   2.161   5.905   2.969
 8107SOL     OW25219   0.234   5.575   5.007
 8107SOL    HW125220   0.220   5.622   4.919
 8107SOL    HW225221   0.330   5.585   5.035
 8108SOL     OW25222   6.824   3.551   4.917
 8108SOL    HW125223   6.831   3.455   4.944
 8108SOL    HW225224   6.731   3.583   4.930
 8109SOL     OW25225   1.641   3.679   4.606
 8109SOL    HW125226   1.567   3.614   4.588
 8109SOL    HW225227   1.685   3.704   4.519
 8110SOL     OW25228   3.055   6.415   0.627
 8110SOL    HW125229   3.055   6.508   0.590
 8110SOL    HW225230   3.009   6.354   0.563
 8111SOL     OW25231   3.886   0.925   4.888
 8111SOL    HW125232   3.847   0.835   4.868
 8111SOL    HW225233   3.812   0.989   4.911
 8112SOL     OW25234   2.359   2.151   4.608
 8112SOL    HW125235   2.273   2.195   4.584
 8112SOL    HW225236   2.424   2.161   4.533
 8113SOL     OW25237   3.566   3.208   1.108
 8113SOL    HW125238   3.544   3.292   1.158
 8113SOL    HW225239   3.665   3.205   1.091
 8114SOL     OW25240   2.313   3.690   1.705
 8114SOL    HW125241   2.398   3.727   1.668
 8114SOL    HW225242   2.334   3.618   1.771
 8115SOL     OW25243   3.700   0.231   0.371
 8115SOL    HW125244   3.664   0.223   0.278
 8115SOL    HW225245   3.797   0.209   0.372
 8116SOL     OW25246   4.492   5.976   5.132
 8116SOL    HW125247   4.428   6.042   5.093
 8116SOL    HW225248   4.582   6.019   5.144
 8117SOL     OW25249   1.730   1.163   4.198
 8117SOL    HW125250   1.821   1.132   4.167
 8117SOL    HW225251   1.739   1.211   4.285
 8118SOL     OW25252   6.058   3.000   5.813
 8118SOL    HW125253   6.107   3.013   5.728
 8118SOL    HW225254   6.121   3.010   5.890
 8119SOL     OW25255   6.243   5.906   5.229
 8119SOL    HW125256   6.152   5.915   5.188
 8119SOL    HW225257   6.248   5.820   5.280
 8120SOL     OW25258   2.964   4.571   6.902
 8120SOL    HW125259   2.881   4.516   6.898
 8120SOL    HW225260   3.004   4.564   6.994
 8121SOL     OW25261   0.451   5.884   1.847
 8121SOL    HW125262   0.470   5.791   1.880
 8121SOL    HW225263   0.510   5.905   1.769
 8122SOL     OW25264   1.782   5.577   2.494
 8122SOL    HW125265   1.815   5.655   2.443
 8122SOL    HW225266   1.846   5.501   2.485
 8123SOL     OW25267   6.622   0.197   0.251
 8123SOL    HW125268   6.592   0.178   0.158
 8123SOL    HW225269   6.643   0.295   0.259
 8124SOL     OW25270   6.709   6.499   0.784
 8124SOL    HW125271   6.751   6.442   0.855
 8124SOL    HW225272   6.774   6.569   0.754
 8125SOL     OW25273   1.506   0.966   3.222
 8125SOL    HW125274   1.519   1.041   3.286
 8125SOL    HW225275   1.487   0.882   3.272
 8126SOL     OW25276   5.538   4.791   2.401
 8126SOL    HW125277   5.516   4.879   2.443
 8126SOL    HW225278   5.606   4.804   2.329
 8127SOL     OW25279   3.277   6.040   0.044
 8127SOL    HW125280   3.186   6.000   0.028
 8127SOL    HW225281   3.287   6.062   0.140
 8128SOL     OW25282   2.743   3.091   1.215
 8128SOL    HW125283   2.688   3.075   1.133
 8128SOL    HW225284   2.839   3.102   1.189
 8129SOL     OW25285   4.386   1.014   5.549
 8129SOL    HW125286   4.480   0.979   5.553
 8129SOL    HW225287   4.332   0.971   5.621
 8130SOL     OW25288   6.907   4.282   6.919
 8130SOL    HW125289   6.865   4.364   6.880
 8130SOL    HW225290   6.862   4.260   7.006
 8131SOL     OW25291   3.666   1.296   1.117
 8131SOL    HW125292   3.684   1.276   1.020
 8131SOL    HW225293   3.746   1.340   1.157
 8132SOL     OW25294   5.432   6.186   6.481
 8132SOL    HW125295   5.491   6.229   6.550
 8132SOL    HW225296   5.446   6.087   6.483
 8133SOL     OW25297   3.004   4.978   1.684
 8133SOL    HW125298   3.025   4.909   1.754
 8133SOL    HW225299   2.957   5.055   1.727
 8134SOL     OW25300   1.220   2.175   4.991
 8134SOL    HW125301   1.189   2.162   4.897
 8134SOL    HW225302   1.145   2.213   5.046
 8135SOL     OW25303   1.675   5.691   0.956
 8135SOL    HW125304   1.693   5.692   0.858
 8135SOL    HW225305   1.744   5.745   1.004
 8136SOL     OW25306   5.188   4.874   2.534
 8136SOL    HW125307   5.170   4.918   2.622
 8136SOL    HW225308   5.120   4.905   2.467
 8137SOL     OW25309   3.013   1.429   4.950
 8137SOL    HW125310   3.022   1.330   4.954
 8137SOL    HW225311   3.085   1.467   4.892
 8138SOL     OW25312   5.542   2.257   0.571
 8138SOL    HW125313   5.469   2.324   0.579
 8138SOL    HW225314   5.514   2.185   0.508
 8139SOL     OW25315   1.710   1.544   4.338
 8139SOL    HW125316   1.803   1.524   4.369
 8139SOL    HW225317   1.713   1.609   4.262
 8140SOL     OW25318   4.512   6.884   0.098
 8140SOL    HW125319   4.528   6.873   0.196
 8140SOL    HW225320   4.569   6.819   0.047
 8141SOL     OW25321   4.106   6.924   5.074
 8141SOL    HW125322   4.203   6.900   5.066
 8141SOL    HW225323   4.080   6.929   5.171
 8142SOL     OW25324   1.694   5.246   0.227
 8142SOL    HW125325   1.753   5.199   0.162
 8142SOL    HW225326   1.746   5.268   0.310
 8143SOL     OW25327   6.319   4.881   0.213
 8143SOL    HW125328   6.372   4.965   0.228
 8143SOL    HW225329   6.368   4.823   0.147
 8144SOL     OW25330   0.743   6.315   5.771
 8144SOL    HW125331   0.767   6.390   5.832
 8144SOL    HW225332   0.710   6.237   5.824
 8145SOL     OW25333   5.876   5.311   0.659
 8145SOL    HW125334   5.882   5.225   0.710
 8145SOL    HW225335   5.794   5.309   0.601
 8146SOL     OW25336   5.300   0.317   5.532
 8146SOL    HW125337   5.328   0.231   5.573
 8146SOL    HW225338   5.380   0.371   5.508
 8147SOL     OW25339   6.171   0.927   1.563
 8147SOL    HW125340   6.186   0.829   1.576
 8147SOL    HW225341   6.220   0.977   1.634
 8148SOL     OW25342   5.616   4.933   0.700
 8148SOL    HW125343   5.702   4.983   0.710
 8148SOL    HW225344   5.558   4.982   0.634
 8149SOL     OW25345   1.712   6.657   3.573
 8149SOL    HW125346   1.678   6.612   3.491
 8149SOL    HW225347   1.640   6.660   3.642
 8150SOL     OW25348   2.003   3.635   0.585
 8150SOL    HW125349   2.041   3.725   0.562
 8150SOL    HW225350   1.906   3.632   0.560
 8151SOL     OW25351   5.957   4.996   3.398
 8151SOL    HW125352   5.982   5.048   3.317
 8151SOL    HW225353   6.021   5.015   3.472
 8152SOL     OW25354   6.309   2.998   3.155
 8152SOL    HW125355   6.364   3.065   3.104
 8152SOL    HW225356   6.355   2.909   3.154
 8153SOL     OW25357   1.229   1.560   3.843
 8153SOL    HW125358   1.236   1.491   3.771
 8153SOL    HW225359   1.156   1.625   3.820
 8154SOL     OW25360   3.648   6.104   2.126
 8154SOL    HW125361   3.572   6.043   2.102
 8154SOL    HW225362   3.624   6.156   2.208
 8155SOL     OW25363   1.476   3.555   2.051
 8155SOL    HW125364   1.450   3.583   2.144
 8155SOL    HW225365   1.541   3.479   2.055
 8156SOL     OW25366   4.426   5.934   0.901
 8156SOL    HW125367   4.344   5.893   0.941
 8156SOL    HW225368   4.435   5.903   0.806
 8157SOL     OW25369   6.536   4.587   6.128
 8157SOL    HW125370   6.612   4.523   6.125
 8157SOL    HW225371   6.545   4.646   6.209
 8158SOL     OW25372   5.094   3.974   0.662
 8158SOL    HW125373   5.007   3.997   0.618
 8158SOL    HW225374   5.127   3.887   0.627
 8159SOL     OW25375   2.528   5.609   3.156
 8159SOL    HW125376   2.578   5.526   3.131
 8159SOL    HW225377   2.450   5.586   3.214
 8160SOL     OW25378   5.227   0.689   3.568
 8160SOL    HW125379   5.316   0.646   3.580
 8160SOL    HW225380   5.177   0.687   3.654
 8161SOL     OW25381   5.840   2.813   6.254
 8161SOL    HW125382   5.935   2.833   6.230
 8161SOL    HW225383   5.784   2.812   6.171
 8162SOL     OW25384   6.457   6.850   6.769
 8162SOL    HW125385   6.391   6.794   6.821
 8162SOL    HW225386   6.542   6.799   6.759
 8163SOL     OW25387   2.779   4.821   5.238
 8163SOL    HW125388   2.786   4.778   5.328
 8163SOL    HW225389   2.797   4.752   5.167
 8164SOL     OW25390   4.831   2.274   0.387
 8164SOL    HW125391   4.902   2.324   0.436
 8164SOL    HW225392   4.844   2.284   0.289
 8165SOL     OW25393   6.861   3.548   5.509
 8165SOL    HW125394   6.879   3.607   5.588
 8165SOL    HW225395   6.945   3.532   5.458
 8166SOL     OW25396   1.048   0.671   3.684
 8166SOL    HW125397   1.031   0.586   3.733
 8166SOL    HW225398   1.134   0.664   3.633
 8167SOL     OW25399   6.923   0.449   3.631
 8167SOL    HW125400   6.941   0.537   3.676
 8167SOL    HW225401   6.900   0.381   3.701
 8168SOL     OW25402   2.417   1.429   1.555
 8168SOL    HW125403   2.371   1.343   1.532
 8168SOL    HW225404   2.507   1.432   1.511
 8169SOL     OW25405   4.790   1.837   0.504
 8169SOL    HW125406   4.794   1.766   0.574
 8169SOL    HW225407   4.694   1.854   0.479
 8170SOL     OW25408   1.479   5.099   1.709
 8170SOL    HW125409   1.520   5.011   1.682
 8170SOL    HW225410   1.444   5.092   1.803
 8171SOL     OW25411   1.842   1.648   6.429
 8171SOL    HW125412   1.791   1.636   6.344
 8171SOL    HW225413   1.887   1.737   6.428
 8172SOL     OW25414   6.914   2.079   2.717
 8172SOL    HW125415   6.972   2.108   2.793
 8172SOL    HW225416   6.824   2.121   2.727
 8173SOL     OW25417   5.474   2.182   1.800
 8173SOL    HW125418   5.570   2.162   1.780
 8173SOL    HW225419   5.419   2.165   1.719
 8174SOL     OW25420   6.745   0.698   2.347
 8174SOL    HW125421   6.764   0.675   2.443
 8174SOL    HW225422   6.681   0.632   2.309
 8175SOL     OW25423   0.297   3.465   5.848
 8175SOL    HW125424   0.254   3.474   5.759
 8175SOL    HW225425   0.388   3.425   5.838
 8176SOL     OW25426   2.566   5.234   1.270
 8176SOL    HW125427   2.658   5.195   1.272
 8176SOL    HW225428   2.513   5.198   1.346
 8177SOL     OW25429   3.726   0.378   3.796
 8177SOL    HW125430   3.783   0.440   3.848
 8177SOL    HW225431   3.677   0.316   3.858
 8178SOL     OW25432   3.114   0.118   0.577
 8178SOL    HW125433   3.204   0.157   0.599
 8178SOL    HW225434   3.050   0.138   0.651
 8179SOL     OW25435   4.623   1.963   4.376
 8179SOL    HW125436   4.641   1.985   4.281
 8179SOL    HW225437   4.665   2.032   4.435
 8180SOL     OW25438   6.181   1.063   5.594
 8180SOL    HW125439   6.167   0.988   5.659
 8180SOL    HW225440   6.151   1.149   5.635
 8181SOL     OW25441   0.793   1.510   0.386
 8181SOL    HW125442   0.763   1.590   0.438
 8181SOL    HW225443   0.739   1.502   0.302
 8182SOL     OW25444   3.173   3.538   5.784
 8182SOL    HW125445   3.272   3.521   5.782
 8182SOL    HW225446   3.129   3.485   5.711
 8183SOL     OW25447   6.177   2.331   4.933
 8183SOL    HW125448   6.088   2.332   4.887
 8183SOL    HW225449   6.179   2.259   5.002
 8184SOL     OW25450   6.452   6.979   0.618
 8184SOL    HW125451   6.545   7.004   0.590
 8184SOL    HW225452   6.388   6.995   0.543
 8185SOL     OW25453   2.077   0.333   6.646
 8185SOL    HW125454   2.022   0.361   6.567
 8185SOL    HW225455   2.146   0.268   6.617
 8186SOL     OW25456   3.408   4.625   5.273
 8186SOL    HW125457   3.378   4.698   5.211
 8186SOL    HW225458   3.328   4.572   5.303
 8187SOL     OW25459   2.555   1.424   4.883
 8187SOL    HW125460   2.501   1.365   4.824
 8187SOL    HW225461   2.547   1.519   4.852
 8188SOL     OW25462   4.965   3.139   3.459
 8188SOL    HW125463   4.918   3.079   3.393
 8188SOL    HW225464   4.956   3.234   3.430
 8189SOL     OW25465   5.349   5.089   2.892
 8189SOL    HW125466   5.302   5.116   2.807
 8189SOL    HW225467   5.341   5.162   2.959
 8190SOL     OW25468   4.895   4.441   4.294
 8190SOL    HW125469   4.851   4.363   4.339
 8190SOL    HW225470   4.832   4.482   4.229
 8191SOL     OW25471   3.740   6.348   1.792
 8191SOL    HW125472   3.786   6.315   1.710
 8191SOL    HW225473   3.808   6.377   1.860
 8192SOL     OW25474   3.367   5.175   0.461
 8192SOL    HW125475   3.297   5.103   0.458
 8192SOL    HW225476   3.334   5.251   0.518
 8193SOL     OW25477   5.687   5.674   5.871
 8193SOL    HW125478   5.628   5.719   5.804
 8193SOL    HW225479   5.681   5.722   5.959
 8194SOL     OW25480   4.992   1.904   1.145
 8194SOL    HW125481   4.986   1.906   1.046
 8194SOL    HW225482   4.935   1.977   1.183
 8195SOL     OW25483   0.940   0.177   3.445
 8195SOL    HW125484   0.894   0.216   3.365
 8195SOL    HW225485   0.997   0.246   3.489
 8196SOL     OW25486   4.453   5.767   6.246
 8196SOL    HW125487   4.404   5.805   6.167
 8196SOL    HW225488   4.446   5.667   6.244
 8197SOL     OW25489   4.311   1.654   0.278
 8197SOL    HW125490   4.395   1.707   0.265
 8197SOL    HW225491   4.240   1.688   0.217
 8198SOL     OW25492   2.812   6.383   2.815
 8198SOL    HW125493   2.858   6.439   2.884
 8198SOL    HW225494   2.713   6.394   2.823
 8199SOL     OW25495   5.891   2.443   6.031
 8199SOL    HW125496   5.985   2.454   6.000
 8199SOL    HW225497   5.874   2.346   6.050
 8200SOL     OW25498   6.004   5.196   2.187
 8200SOL    HW125499   6.034   5.101   2.183
 8200SOL    HW225500   5.998   5.233   2.094
 8201SOL     OW25501   5.656   0.665   4.149
 8201SOL    HW125502   5.608   0.593   4.099
 8201SOL    HW225503   5.744   0.684   4.104
 8202SOL     OW25504   0.198   5.598   3.975
 8202SOL    HW125505   0.269   5.545   3.931
 8202SOL    HW225506   0.220   5.609   4.072
 8203SOL     OW25507   3.674   2.454   0.004
 8203SOL    HW125508   3.695   2.370   6.973
 8203SOL    HW225509   3.686   2.533   6.963
 8204SOL     OW25510   3.478   4.956   6.720
 8204SOL    HW125511   3.381   4.931   6.724
 8204SOL    HW225512   3.529   4.888   6.669
 8205SOL     OW25513   0.816   4.630   0.625
 8205SOL    HW125514   0.801   4.579   0.710
 8205SOL    HW225515   0.763   4.714   0.626
 8206SOL     OW25516   4.995   1.944   6.194
 8206SOL    HW125517   4.900   1.965   6.168
 8206SOL    HW225518   5.041   1.899   6.118
 8207SOL     OW25519   2.906   3.744   4.115
 8207SOL    HW125520   2.897   3.741   4.215
 8207SOL    HW225521   2.889   3.653   4.078
 8208SOL     OW25522   1.444   0.581   1.427
 8208SOL    HW125523   1.467   0.631   1.510
 8208SOL    HW225524   1.430   0.484   1.449
 8209SOL     OW25525   0.717   1.776   5.098
 8209SOL    HW125526   0.721   1.684   5.059
 8209SOL    HW225527   0.718   1.769   5.198
 8210SOL     OW25528   2.009   1.338   1.036
 8210SOL    HW125529   2.020   1.417   0.975
 8210SOL    HW225530   1.924   1.347   1.087
 8211SOL     OW25531   3.831   4.096   1.825
 8211SOL    HW125532   3.771   4.163   1.783
 8211SOL    HW225533   3.891   4.055   1.756
 8212SOL     OW25534   2.079   2.068   1.553
 8212SOL    HW125535   2.038   1.994   1.607
 8212SOL    HW225536   2.129   2.130   1.614
 8213SOL     OW25537   6.605   4.499   2.531
 8213SOL    HW125538   6.695   4.457   2.522
 8213SOL    HW225539   6.538   4.445   2.480
 8214SOL     OW25540   6.096   5.649   4.423
 8214SOL    HW125541   6.191   5.674   4.407
 8214SOL    HW225542   6.038   5.689   4.352
 8215SOL     OW25543   2.917   5.992   6.217
 8215SOL    HW125544   2.874   5.939   6.145
 8215SOL    HW225545   2.979   5.933   6.270
 8216SOL     OW25546   5.359   5.082   3.969
 8216SOL    HW125547   5.407   5.131   4.042
 8216SOL    HW225548   5.325   4.994   4.005
 8217SOL     OW25549   2.246   3.518   0.608
 8217SOL    HW125550   2.161   3.553   0.570
 8217SOL    HW225551   2.254   3.420   0.588
 8218SOL     OW25552   6.761   6.823   5.223
 8218SOL    HW125553   6.714   6.750   5.174
 8218SOL    HW225554   6.787   6.790   5.314
 8219SOL     OW25555   4.294   3.275   0.699
 8219SOL    HW125556   4.210   3.329   0.706
 8219SOL    HW225557   4.374   3.335   0.703
 8220SOL     OW25558   3.032   3.261   3.940
 8220SOL    HW125559   2.959   3.325   3.965
 8220SOL    HW225560   3.118   3.290   3.980
 8221SOL     OW25561   5.642   6.576   3.788
 8221SOL    HW125562   5.593   6.662   3.771
 8221SOL    HW225563   5.589   6.499   3.753
 8222SOL     OW25564   5.735   1.309   1.208
 8222SOL    HW125565   5.768   1.370   1.281
 8222SOL    HW225566   5.768   1.217   1.225
 8223SOL     OW25567   0.805   4.068   5.236
 8223SOL    HW125568   0.793   4.156   5.281
 8223SOL    HW225569   0.843   4.002   5.302
 8224SOL     OW25570   5.494   1.464   2.348
 8224SOL    HW125571   5.503   1.554   2.390
 8224SOL    HW225572   5.528   1.469   2.254
 8225SOL     OW25573   3.364   1.471   1.186
 8225SOL    HW125574   3.442   1.511   1.137
 8225SOL    HW225575   3.371   1.372   1.185
 8226SOL     OW25576   3.570   6.502   0.301
 8226SOL    HW125577   3.516   6.434   0.351
 8226SOL    HW225578   3.513   6.582   0.282
 8227SOL     OW25579   0.078   1.055   2.767
 8227SOL    HW125580   0.022   1.057   2.685
 8227SOL    HW225581   0.175   1.053   2.742
 8228SOL     OW25582   6.488   2.153   6.089
 8228SOL    HW125583   6.532   2.065   6.106
 8228SOL    HW225584   6.507   2.214   6.166
 8229SOL     OW25585   5.081   3.284   0.810
 8229SOL    HW125586   5.115   3.306   0.719
 8229SOL    HW225587   5.157   3.281   0.874
 8230SOL     OW25588   3.528   0.191   5.336
 8230SOL    HW125589   3.583   0.230   5.410
 8230SOL    HW225590   3.567   0.219   5.248
 8231SOL     OW25591   2.990   3.623   0.800
 8231SOL    HW125592   2.962   3.614   0.705
 8231SOL    HW225593   3.027   3.536   0.832
 8232SOL     OW25594   4.322   1.742   1.713
 8232SOL    HW125595   4.227   1.732   1.740
 8232SOL    HW225596   4.339   1.837   1.686
 8233SOL     OW25597   0.566   6.288   5.551
 8233SOL    HW125598   0.499   6.218   5.577
 8233SOL    HW225599   0.631   6.301   5.626
 8234SOL     OW25600   2.899   3.798   6.572
 8234SOL    HW125601   2.895   3.726   6.641
 8234SOL    HW225602   2.809   3.808   6.529
 8235SOL     OW25603   0.781   2.469   0.186
 8235SOL    HW125604   0.683   2.453   0.198
 8235SOL    HW225605   0.794   2.547   0.125
 8236SOL     OW25606   1.025   4.394   0.818
 8236SOL    HW125607   1.005   4.297   0.835
 8236SOL    HW225608   1.116   4.402   0.779
 8237SOL     OW25609   4.730   6.480   5.304
 8237SOL    HW125610   4.776   6.480   5.393
 8237SOL    HW225611   4.791   6.443   5.235
 8238SOL     OW25612   0.640   5.339   6.071
 8238SOL    HW125613   0.565   5.386   6.025
 8238SOL    HW225614   0.687   5.402   6.133
 8239SOL     OW25615   0.132   0.807   5.549
 8239SOL    HW125616   0.075   0.784   5.628
 8239SOL    HW225617   0.203   0.871   5.576
 8240SOL     OW25618   3.248   3.804   2.470
 8240SOL    HW125619   3.294   3.775   2.387
 8240SOL    HW225620   3.151   3.821   2.451
 8241SOL     OW25621   3.547   6.235   6.108
 8241SOL    HW125622   3.608   6.245   6.030
 8241SOL    HW225623   3.599   6.205   6.188
 8242SOL     OW25624   0.503   4.126   6.118
 8242SOL    HW125625   0.558   4.209   6.127
 8242SOL    HW225626   0.406   4.149   6.115
 8243SOL     OW25627   0.459   3.248   0.580
 8243SOL    HW125628   0.419   3.225   0.669
 8243SOL    HW225629   0.396   3.222   0.508
 8244SOL     OW25630   0.294   0.952   4.760
 8244SOL    HW125631   0.297   1.041   4.715
 8244SOL    HW225632   0.256   0.884   4.697
 8245SOL     OW25633   3.942   1.841   2.210
 8245SOL    HW125634   3.855   1.813   2.171
 8245SOL    HW225635   3.941   1.825   2.309
 8246SOL     OW25636   1.296   3.206   5.861
 8246SOL    HW125637   1.360   3.147   5.813
 8246SOL    HW225638   1.223   3.234   5.798
 8247SOL     OW25639   1.563   1.071   2.720
 8247SOL    HW125640   1.576   1.169   2.713
 8247SOL    HW225641   1.578   1.042   2.815
 8248SOL     OW25642   6.987   5.016   4.733
 8248SOL    HW125643   0.003   5.072   4.808
 8248SOL    HW225644   6.890   5.035   4.720
 8249SOL     OW25645   2.089   2.295   5.924
 8249SOL    HW125646   2.127   2.236   5.995
 8249SOL    HW225647   2.063   2.383   5.963
 8250SOL     OW25648   3.212   3.716   1.462
 8250SOL    HW125649   3.135   3.763   1.506
 8250SOL    HW225650   3.264   3.666   1.531
 8251SOL     OW25651   4.872   3.367   4.738
 8251SOL    HW125652   4.829   3.320   4.815
 8251SOL    HW225653   4.897   3.460   4.765
 8252SOL     OW25654   3.582   1.382   5.494
 8252SOL    HW125655   3.643   1.366   5.572
 8252SOL    HW225656   3.636   1.403   5.413
 8253SOL     OW25657   4.768   5.320   5.926
 8253SOL    HW125658   4.729   5.411   5.935
 8253SOL    HW225659   4.747   5.283   5.835
 8254SOL     OW25660   4.580   4.225   5.217
 8254SOL    HW125661   4.538   4.135   5.208
 8254SOL    HW225662   4.655   4.233   5.151
 8255SOL     OW25663   1.818   0.221   5.126
 8255SOL    HW125664   1.821   0.211   5.026
 8255SOL    HW225665   1.835   0.132   5.168
 8256SOL     OW25666   6.859   6.247   1.707
 8256SOL    HW125667   6.784   6.301   1.746
 8256SOL    HW225668   6.937   6.307   1.690
 8257SOL     OW25669   5.411   4.055   2.957
 8257SOL    HW125670   5.473   4.129   2.981
 8257SOL    HW225671   5.415   3.985   3.028
 8258SOL     OW25672   5.329   2.347   1.343
 8258SOL    HW125673   5.270   2.286   1.290
 8258SOL    HW225674   5.410   2.297   1.373
 8259SOL     OW25675   3.706   1.745   4.400
 8259SOL    HW125676   3.747   1.791   4.321
 8259SOL    HW225677   3.662   1.812   4.459
 8260SOL     OW25678   2.438   6.695   0.845
 8260SOL    HW125679   2.400   6.729   0.759
 8260SOL    HW225680   2.514   6.753   0.873
 8261SOL     OW25681   5.725   0.284   1.853
 8261SOL    HW125682   5.636   0.330   1.844
 8261SOL    HW225683   5.723   0.225   1.934
 8262SOL     OW25684   0.835   2.500   6.686
 8262SOL    HW125685   0.877   2.447   6.759
 8262SOL    HW225686   0.749   2.539   6.719
 8263SOL     OW25687   0.668   2.670   6.342
 8263SOL    HW125688   0.728   2.747   6.366
 8263SOL    HW225689   0.574   2.693   6.364
 8264SOL     OW25690   1.914   6.209   1.888
 8264SOL    HW125691   1.846   6.281   1.895
 8264SOL    HW225692   1.985   6.236   1.823
 8265SOL     OW25693   6.389   0.827   1.073
 8265SOL    HW125694   6.389   0.900   1.142
 8265SOL    HW225695   6.428   0.861   0.988
 8266SOL     OW25696   2.508   1.477   4.220
 8266SOL    HW125697   2.412   1.475   4.246
 8266SOL    HW225698   2.544   1.383   4.218
 8267SOL     OW25699   1.944   3.431   1.048
 8267SOL    HW125700   1.887   3.384   1.116
 8267SOL    HW225701   2.039   3.400   1.057
 8268SOL     OW25702   2.029   6.637   5.925
 8268SOL    HW125703   1.987   6.722   5.892
 8268SOL    HW225704   1.960   6.581   5.970
 8269SOL     OW25705   4.504   1.225   2.253
 8269SOL    HW125706   4.585   1.212   2.311
 8269SOL    HW225707   4.513   1.310   2.202
 8270SOL     OW25708   3.139   6.143   5.187
 8270SOL    HW125709   3.088   6.141   5.101
 8270SOL    HW225710   3.112   6.224   5.239
 8271SOL     OW25711   0.410   6.427   3.744
 8271SOL    HW125712   0.369   6.493   3.680
 8271SOL    HW225713   0.349   6.348   3.753
 8272SOL     OW25714   6.524   1.829   2.823
 8272SOL    HW125715   6.438   1.785   2.798
 8272SOL    HW225716   6.550   1.801   2.916
 8273SOL     OW25717   2.537   0.903   1.159
 8273SOL    HW125718   2.542   0.818   1.108
 8273SOL    HW225719   2.450   0.948   1.139
 8274SOL     OW25720   4.456   5.256   3.988
 8274SOL    HW125721   4.448   5.157   3.976
 8274SOL    HW225722   4.438   5.280   4.083
 8275SOL     OW25723   6.056   1.302   4.753
 8275SOL    HW125724   6.084   1.336   4.663
 8275SOL    HW225725   5.967   1.341   4.777
 8276SOL     OW25726   0.579   2.243   4.356
 8276SOL    HW125727   0.584   2.342   4.369
 8276SOL    HW225728   0.510   2.205   4.418
 8277SOL     OW25729   0.526   6.190   6.149
 8277SOL    HW125730   0.490   6.170   6.240
 8277SOL    HW225731   0.539   6.104   6.099
 8278SOL     OW25732   3.241   1.222   6.616
 8278SOL    HW125733   3.165   1.178   6.568
 8278SOL    HW225734   3.263   1.308   6.572
 8279SOL     OW25735   1.003   6.189   4.496
 8279SOL    HW125736   0.930   6.256   4.510
 8279SOL    HW225737   1.080   6.233   4.450
 8280SOL     OW25738   2.723   2.843   0.656
 8280SOL    HW125739   2.737   2.933   0.614
 8280SOL    HW225740   2.786   2.777   0.616
 8281SOL     OW25741   2.753   4.200   1.689
 8281SOL    HW125742   2.664   4.243   1.680
 8281SOL    HW225743   2.816   4.262   1.736
 8282SOL     OW25744   4.972   3.888   0.073
 8282SOL    HW125745   5.022   3.823   0.131
 8282SOL    HW225746   4.882   3.905   0.113
 8283SOL     OW25747   1.330   5.284   5.244
 8283SOL    HW125748   1.274   5.270   5.325
 8283SOL    HW225749   1.395   5.358   5.261
 8284SOL     OW25750   1.137   3.652   1.474
 8284SOL    HW125751   1.200   3.700   1.412
 8284SOL    HW225752   1.162   3.674   1.568
 8285SOL     OW25753   3.266   4.064   4.832
 8285SOL    HW125754   3.257   4.106   4.922
 8285SOL    HW225755   3.175   4.039   4.798
 8286SOL     OW25756   5.368   1.842   5.631
 8286SOL    HW125757   5.302   1.917   5.642
 8286SOL    HW225758   5.362   1.806   5.538
 8287SOL     OW25759   1.356   4.790   4.634
 8287SOL    HW125760   1.454   4.799   4.616
 8287SOL    HW225761   1.338   4.704   4.681
 8288SOL     OW25762   3.077   2.170   2.195
 8288SOL    HW125763   3.112   2.096   2.137
 8288SOL    HW225764   3.031   2.238   2.139
 8289SOL     OW25765   0.670   6.334   6.793
 8289SOL    HW125766   0.720   6.248   6.784
 8289SOL    HW225767   0.576   6.315   6.819
 8290SOL     OW25768   5.178   1.587   1.073
 8290SOL    HW125769   5.238   1.585   1.153
 8290SOL    HW225770   5.083   1.578   1.102
 8291SOL     OW25771   4.187   5.658   4.983
 8291SOL    HW125772   4.234   5.591   4.925
 8291SOL    HW225773   4.146   5.612   5.061
 8292SOL     OW25774   3.030   6.510   6.728
 8292SOL    HW125775   3.108   6.486   6.671
 8292SOL    HW225776   3.014   6.438   6.795
 8293SOL     OW25777   1.971   5.598   0.676
 8293SOL    HW125778   1.956   5.503   0.703
 8293SOL    HW225779   2.068   5.620   0.686
 8294SOL     OW25780   5.687   3.828   5.282
 8294SOL    HW125781   5.669   3.910   5.336
 8294SOL    HW225782   5.712   3.854   5.189
 8295SOL     OW25783   4.969   5.198   1.641
 8295SOL    HW125784   4.888   5.240   1.680
 8295SOL    HW225785   4.975   5.103   1.671
 8296SOL     OW25786   1.669   4.945   6.870
 8296SOL    HW125787   1.755   4.996   6.861
 8296SOL    HW225788   1.682   4.870   6.935
 8297SOL     OW25789   0.135   2.890   2.745
 8297SOL    HW125790   0.114   2.837   2.663
 8297SOL    HW225791   0.127   2.987   2.724
 8298SOL     OW25792   6.271   1.570   0.778
 8298SOL    HW125793   6.346   1.632   0.804
 8298SOL    HW225794   6.212   1.616   0.712
 8299SOL     OW25795   0.349   2.475   2.285
 8299SOL    HW125796   0.279   2.436   2.345
 8299SOL    HW225797   0.439   2.441   2.312
 8300SOL     OW25798   6.865   5.453   4.204
 8300SOL    HW125799   6.771   5.450   4.170
 8300SOL    HW225800   6.909   5.537   4.172
 8301SOL     OW25801   3.770   1.450   0.627
 8301SOL    HW125802   3.747   1.410   0.717
 8301SOL    HW225803   3.866   1.476   0.627
 8302SOL     OW25804   5.803   0.060   6.313
 8302SOL    HW125805   5.731   7.017   6.345
 8302SOL    HW225806   5.885   0.048   6.368
 8303SOL     OW25807   5.879   0.659   4.007
 8303SOL    HW125808   5.880   0.591   3.934
 8303SOL    HW225809   5.960   0.647   4.065
 8304SOL     OW25810   5.982   3.316   1.076
 8304SOL    HW125811   5.924   3.277   1.147
 8304SOL    HW225812   6.069   3.266   1.072
 8305SOL     OW25813   4.256   4.693   3.515
 8305SOL    HW125814   4.183   4.656   3.457
 8305SOL    HW225815   4.217   4.752   3.585
 8306SOL     OW25816   5.732   1.620   4.919
 8306SOL    HW125817   5.823   1.639   4.883
 8306SOL    HW225818   5.722   1.666   5.008
 8307SOL     OW25819   3.353   4.869   1.577
 8307SOL    HW125820   3.313   4.802   1.515
 8307SOL    HW225821   3.453   4.865   1.571
 8308SOL     OW25822   2.378   5.749   1.119
 8308SOL    HW125823   2.434   5.694   1.180
 8308SOL    HW225824   2.282   5.724   1.131
 8309SOL     OW25825   6.765   5.565   3.277
 8309SOL    HW125826   6.748   5.476   3.233
 8309SOL    HW225827   6.819   5.551   3.360
 8310SOL     OW25828   0.721   5.636   1.411
 8310SOL    HW125829   0.636   5.688   1.403
 8310SOL    HW225830   0.785   5.686   1.469
 8311SOL     OW25831   0.579   2.196   5.311
 8311SOL    HW125832   0.597   2.293   5.294
 8311SOL    HW225833   0.646   2.140   5.263
 8312SOL     OW25834   4.689   0.083   6.583
 8312SOL    HW125835   4.726   0.174   6.567
 8312SOL    HW225836   4.732   0.042   6.664
 8313SOL     OW25837   5.363   0.053   0.035
 8313SOL    HW125838   5.411   0.006   6.980
 8313SOL    HW225839   5.265   0.048   0.019
 8314SOL     OW25840   5.255   0.238   0.498
 8314SOL    HW125841   5.248   0.242   0.598
 8314SOL    HW225842   5.177   0.188   0.461
 8315SOL     OW25843   4.297   3.105   1.480
 8315SOL    HW125844   4.215   3.083   1.428
 8315SOL    HW225845   4.273   3.119   1.576
 8316SOL     OW25846   1.731   2.084   1.978
 8316SOL    HW125847   1.830   2.070   1.977
 8316SOL    HW225848   1.689   2.034   1.902
 8317SOL     OW25849   1.429   2.760   2.512
 8317SOL    HW125850   1.372   2.804   2.443
 8317SOL    HW225851   1.385   2.677   2.545
 8318SOL     OW25852   4.401   1.664   5.744
 8318SOL    HW125853   4.444   1.582   5.782
 8318SOL    HW225854   4.307   1.671   5.777
 8319SOL     OW25855   1.354   1.673   0.405
 8319SOL    HW125856   1.260   1.657   0.436
 8319SOL    HW225857   1.414   1.605   0.445
 8320SOL     OW25858   3.138   3.513   2.280
 8320SOL    HW125859   3.118   3.415   2.267
 8320SOL    HW225860   3.213   3.523   2.345
 8321SOL     OW25861   6.648   0.002   6.522
 8321SOL    HW125862   6.573   6.986   6.465
 8321SOL    HW225863   6.721   6.953   6.525
 8322SOL     OW25864   6.185   0.039   0.693
 8322SOL    HW125865   6.134   0.102   0.634
 8322SOL    HW225866   6.184   6.967   0.654
 8323SOL     OW25867   5.553   5.554   1.901
 8323SOL    HW125868   5.558   5.616   1.979
 8323SOL    HW225869   5.623   5.483   1.911
 8324SOL     OW25870   5.776   6.737   1.678
 8324SOL    HW125871   5.830   6.751   1.595
 8324SOL    HW225872   5.813   6.659   1.729
 8325SOL     OW25873   2.283   3.781   5.294
 8325SOL    HW125874   2.241   3.745   5.210
 8325SOL    HW225875   2.338   3.862   5.272
 8326SOL     OW25876   4.832   3.186   6.341
 8326SOL    HW125877   4.759   3.180   6.409
 8326SOL    HW225878   4.878   3.098   6.332
 8327SOL     OW25879   0.033   0.299   5.988
 8327SOL    HW125880   0.019   0.278   6.085
 8327SOL    HW225881   7.017   0.391   5.969
 8328SOL     OW25882   2.439   6.280   6.309
 8328SOL    HW125883   2.363   6.216   6.312
 8328SOL    HW225884   2.405   6.374   6.313
 8329SOL     OW25885   1.269   2.800   5.927
 8329SOL    HW125886   1.333   2.807   5.851
 8329SOL    HW225887   1.320   2.787   6.012
 8330SOL     OW25888   2.831   1.139   6.244
 8330SOL    HW125889   2.874   1.169   6.159
 8330SOL    HW225890   2.791   1.218   6.290
 8331SOL     OW25891   3.321   0.474   1.561
 8331SOL    HW125892   3.369   0.420   1.492
 8331SOL    HW225893   3.222   0.465   1.549
 8332SOL     OW25894   5.291   5.243   2.670
 8332SOL    HW125895   5.355   5.300   2.720
 8332SOL    HW225896   5.240   5.299   2.605
 8333SOL     OW25897   0.059   5.534   6.295
 8333SOL    HW125898   0.031   5.513   6.388
 8333SOL    HW225899   0.158   5.526   6.287
 8334SOL     OW25900   3.940   1.245   4.193
 8334SOL    HW125901   3.863   1.182   4.182
 8334SOL    HW225902   4.000   1.238   4.113
 8335SOL     OW25903   5.452   0.902   0.263
 8335SOL    HW125904   5.459   0.962   0.343
 8335SOL    HW225905   5.356   0.880   0.247
 8336SOL     OW25906   0.381   4.496   3.298
 8336SOL    HW125907   0.422   4.554   3.368
 8336SOL    HW225908   0.296   4.538   3.265
 8337SOL     OW25909   1.941   6.496   3.309
 8337SOL    HW125910   1.844   6.520   3.307
 8337SOL    HW225911   1.956   6.412   3.257
 8338SOL     OW25912   3.798   5.099   1.815
 8338SOL    HW125913   3.801   5.035   1.892
 8338SOL    HW225914   3.813   5.049   1.730
 8339SOL     OW25915   6.613   0.436   1.791
 8339SOL    HW125916   6.552   0.453   1.714
 8339SOL    HW225917   6.705   0.417   1.757
 8340SOL     OW25918   5.317   3.272   1.001
 8340SOL    HW125919   5.257   3.264   1.080
 8340SOL    HW225920   5.363   3.361   1.004
 8341SOL     OW25921   3.238   6.961   0.125
 8341SOL    HW125922   3.181   6.974   0.206
 8341SOL    HW225923   3.324   7.010   0.136
 8342SOL     OW25924   4.359   6.392   0.681
 8342SOL    HW125925   4.370   6.311   0.738
 8342SOL    HW225926   4.345   6.472   0.740
 8343SOL     OW25927   0.983   5.272   4.856
 8343SOL    HW125928   0.955   5.177   4.861
 8343SOL    HW225929   1.082   5.277   4.839
 8344SOL     OW25930   4.842   5.694   4.965
 8344SOL    HW125931   4.749   5.730   4.964
 8344SOL    HW225932   4.844   5.604   4.921
 8345SOL     OW25933   3.998   1.525   2.850
 8345SOL    HW125934   4.029   1.457   2.917
 8345SOL    HW225935   3.990   1.482   2.760
 8346SOL     OW25936   4.246   4.847   0.396
 8346SOL    HW125937   4.215   4.771   0.339
 8346SOL    HW225938   4.171   4.876   0.456
 8347SOL     OW25939   3.934   5.900   3.776
 8347SOL    HW125940   3.910   5.983   3.725
 8347SOL    HW225941   3.977   5.834   3.714
 8348SOL     OW25942   1.924   1.405   1.523
 8348SOL    HW125943   1.927   1.315   1.481
 8348SOL    HW225944   2.010   1.453   1.508
 8349SOL     OW25945   6.276   6.966   1.990
 8349SOL    HW125946   6.219   6.896   1.948
 8349SOL    HW225947   6.372   6.948   1.970
 8350SOL     OW25948   3.076   6.838   6.033
 8350SOL    HW125949   3.058   6.768   5.963
 8350SOL    HW225950   3.129   6.797   6.107
 8351SOL     OW25951   5.755   5.145   4.438
 8351SOL    HW125952   5.732   5.238   4.468
 8351SOL    HW225953   5.671   5.096   4.414
 8352SOL     OW25954   0.274   0.139   3.888
 8352SOL    HW125955   0.338   0.161   3.814
 8352SOL    HW225956   0.207   0.212   3.897
 8353SOL     OW25957   0.097   3.689   1.530
 8353SOL    HW125958   0.131   3.745   1.605
 8353SOL    HW225959   0.070   3.748   1.454
 8354SOL     OW25960   4.342   6.776   5.151
 8354SOL    HW125961   4.424   6.798   5.203
 8354SOL    HW225962   4.367   6.755   5.056
 8355SOL     OW25963   2.448   0.666   6.157
 8355SOL    HW125964   2.406   0.757   6.154
 8355SOL    HW225965   2.487   0.650   6.247
 8356SOL     OW25966   0.633   6.920   0.964
 8356SOL    HW125967   0.710   6.856   0.962
 8356SOL    HW225968   0.667   7.012   0.947
 8357SOL     OW25969   3.325   6.934   4.984
 8357SOL    HW125970   3.405   6.976   4.940
 8357SOL    HW225971   3.250   6.929   4.918
 8358SOL     OW25972   1.431   4.354   4.535
 8358SOL    HW125973   1.413   4.257   4.519
 8358SOL    HW225974   1.427   4.404   4.448
 8359SOL     OW25975   2.798   0.803   5.142
 8359SOL    HW125976   2.807   0.899   5.169
 8359SOL    HW225977   2.865   0.782   5.071
 8360SOL     OW25978   4.085   5.977   0.732
 8360SOL    HW125979   4.056   5.998   0.826
 8360SOL    HW225980   4.108   6.062   0.685
 8361SOL     OW25981   2.982   0.537   2.664
 8361SOL    HW125982   2.979   0.440   2.640
 8361SOL    HW225983   3.076   0.570   2.657
 8362SOL     OW25984   3.937   1.877   0.939
 8362SOL    HW125985   3.985   1.924   1.013
 8362SOL    HW225986   3.838   1.880   0.955
 8363SOL     OW25987   5.803   2.726   6.487
 8363SOL    HW125988   5.812   2.770   6.398
 8363SOL    HW225989   5.874   2.760   6.549
 8364SOL     OW25990   1.122   2.583   3.545
 8364SOL    HW125991   1.044   2.618   3.596
 8364SOL    HW225992   1.174   2.660   3.507
 8365SOL     OW25993   1.404   2.759   2.106
 8365SOL    HW125994   1.307   2.736   2.118
 8365SOL    HW225995   1.418   2.800   2.016
 8366SOL     OW25996   2.122   5.768   1.859
 8366SOL    HW125997   2.214   5.735   1.840
 8366SOL    HW225998   2.092   5.830   1.787
 8367SOL     OW25999   4.395   5.605   4.070
 8367SOL    HW126000   4.441   5.685   4.030
 8367SOL    HW226001   4.425   5.522   4.022
 8368SOL     OW26002   1.875   6.172   6.526
 8368SOL    HW126003   1.876   6.243   6.597
 8368SOL    HW226004   1.814   6.200   6.452
 8369SOL     OW26005   1.149   6.749   6.429
 8369SOL    HW126006   1.171   6.751   6.332
 8369SOL    HW226007   1.050   6.755   6.441
 8370SOL     OW26008   3.081   1.361   6.193
 8370SOL    HW126009   3.004   1.325   6.140
 8370SOL    HW226010   3.161   1.368   6.134
 8371SOL     OW26011   2.137   4.782   0.743
 8371SOL    HW126012   2.149   4.769   0.841
 8371SOL    HW226013   2.040   4.797   0.722
 8372SOL     OW26014   1.895   5.114   1.705
 8372SOL    HW126015   1.835   5.185   1.741
 8372SOL    HW226016   1.984   5.120   1.750
 8373SOL     OW26017   1.654   0.249   4.574
 8373SOL    HW126018   1.718   0.203   4.512
 8373SOL    HW226019   1.581   0.186   4.599
 8374SOL     OW26020   0.074   0.872   5.301
 8374SOL    HW126021   0.084   0.807   5.225
 8374SOL    HW226022   0.093   0.825   5.387
 8375SOL     OW26023   2.919   6.659   5.131
 8375SOL    HW126024   2.853   6.588   5.107
 8375SOL    HW226025   3.012   6.626   5.112
 8376SOL     OW26026   1.127   1.151   4.215
 8376SOL    HW126027   1.115   1.053   4.228
 8376SOL    HW226028   1.046   1.189   4.171
 8377SOL     OW26029   5.169   5.812   0.531
 8377SOL    HW126030   5.204   5.897   0.492
 8377SOL    HW226031   5.243   5.744   0.535
 8378SOL     OW26032   4.506   5.257   2.539
 8378SOL    HW126033   4.431   5.220   2.484
 8378SOL    HW226034   4.469   5.322   2.605
 8379SOL     OW26035   5.697   3.339   1.267
 8379SOL    HW126036   5.776   3.278   1.281
 8379SOL    HW226037   5.627   3.319   1.336
 8380SOL     OW26038   0.413   0.484   2.576
 8380SOL    HW126039   0.492   0.533   2.613
 8380SOL    HW226040   0.406   0.500   2.478
 8381SOL     OW26041   0.417   2.851   5.257
 8381SOL    HW126042   0.487   2.852   5.186
 8381SOL    HW226043   0.369   2.939   5.258
 8382SOL     OW26044   2.825   0.343   2.927
 8382SOL    HW126045   2.741   0.394   2.907
 8382SOL    HW226046   2.845   0.280   2.852
 8383SOL     OW26047   2.593   0.040   5.998
 8383SOL    HW126048   2.566   0.125   6.043
 8383SOL    HW226049   2.655   0.061   5.922
 8384SOL     OW26050   6.143   0.616   1.421
 8384SOL    HW126051   6.138   0.674   1.340
 8384SOL    HW226052   6.226   0.638   1.472
 8385SOL     OW26053   5.899   2.440   1.286
 8385SOL    HW126054   5.913   2.383   1.205
 8385SOL    HW226055   5.863   2.529   1.258
 8386SOL     OW26056   2.355   5.611   2.081
 8386SOL    HW126057   2.285   5.544   2.105
 8386SOL    HW226058   2.313   5.685   2.027
 8387SOL     OW26059   1.112   1.394   1.444
 8387SOL    HW126060   1.124   1.367   1.539
 8387SOL    HW226061   1.028   1.354   1.408
 8388SOL     OW26062   1.989   6.242   0.358
 8388SOL    HW126063   1.909   6.218   0.304
 8388SOL    HW226064   2.025   6.160   0.402
 8389SOL     OW26065   0.477   3.350   2.680
 8389SOL    HW126066   0.424   3.376   2.599
 8389SOL    HW226067   0.550   3.417   2.695
 8390SOL     OW26068   4.768   1.215   0.412
 8390SOL    HW126069   4.776   1.174   0.503
 8390SOL    HW226070   4.765   1.143   0.343
 8391SOL     OW26071   6.322   5.225   1.103
 8391SOL    HW126072   6.276   5.138   1.087
 8391SOL    HW226073   6.270   5.299   1.060
 8392SOL     OW26074   6.552   4.401   4.904
 8392SOL    HW126075   6.577   4.348   4.985
 8392SOL    HW226076   6.629   4.459   4.878
 8393SOL     OW26077   0.510   6.333   2.725
 8393SOL    HW126078   0.584   6.269   2.708
 8393SOL    HW226079   0.526   6.417   2.674
 8394SOL     OW26080   6.538   3.031   2.056
 8394SOL    HW126081   6.528   3.028   1.957
 8394SOL    HW226082   6.458   3.076   2.096
 8395SOL     OW26083   2.033   6.595   5.128
 8395SOL    HW126084   2.036   6.525   5.056
 8395SOL    HW226085   1.943   6.593   5.172
 8396SOL     OW26086   5.079   5.212   2.032
 8396SOL    HW126087   5.138   5.285   2.068
 8396SOL    HW226088   4.990   5.251   2.010
 8397SOL     OW26089   1.784   0.616   2.797
 8397SOL    HW126090   1.792   0.654   2.705
 8397SOL    HW226091   1.702   0.653   2.841
 8398SOL     OW26092   3.911   1.810   6.720
 8398SOL    HW126093   3.916   1.750   6.799
 8398SOL    HW226094   3.860   1.765   6.647
 8399SOL     OW26095   5.858   6.039   6.880
 8399SOL    HW126096   5.916   6.095   6.939
 8399SOL    HW226097   5.857   5.945   6.915
 8400SOL     OW26098   1.730   1.428   4.674
 8400SOL    HW126099   1.686   1.514   4.648
 8400SOL    HW226100   1.745   1.372   4.593
 8401SOL     OW26101   2.657   1.581   6.347
 8401SOL    HW126102   2.663   1.672   6.307
 8401SOL    HW226103   2.570   1.571   6.395
 8402SOL     OW26104   4.442   1.775   5.467
 8402SOL    HW126105   4.406   1.743   5.555
 8402SOL    HW226106   4.542   1.774   5.470
 8403SOL     OW26107   1.137   2.625   4.577
 8403SOL    HW126108   1.136   2.579   4.666
 8403SOL    HW226109   1.231   2.634   4.545
 8404SOL     OW26110   4.390   6.834   5.559
 8404SOL    HW126111   4.388   6.829   5.659
 8404SOL    HW226112   4.340   6.757   5.521
 8405SOL     OW26113   1.725   0.934   5.568
 8405SOL    HW126114   1.767   0.849   5.599
 8405SOL    HW226115   1.744   1.007   5.634
 8406SOL     OW26116   4.978   0.153   0.442
 8406SOL    HW126117   4.962   0.220   0.514
 8406SOL    HW226118   4.913   0.078   0.452
 8407SOL     OW26119   3.604   6.251   3.794
 8407SOL    HW126120   3.510   6.228   3.768
 8407SOL    HW226121   3.618   6.230   3.891
 8408SOL     OW26122   6.208   3.792   1.834
 8408SOL    HW126123   6.121   3.819   1.792
 8408SOL    HW226124   6.189   3.731   1.911
 8409SOL     OW26125   5.813   2.652   3.357
 8409SOL    HW126126   5.765   2.721   3.411
 8409SOL    HW226127   5.833   2.572   3.414
 8410SOL     OW26128   4.881   0.866   2.215
 8410SOL    HW126129   4.972   0.828   2.199
 8410SOL    HW226130   4.889   0.963   2.238
 8411SOL     OW26131   0.504   4.885   0.106
 8411SOL    HW126132   0.561   4.897   0.024
 8411SOL    HW226133   0.542   4.940   0.181
 8412SOL     OW26134   3.164   1.390   1.422
 8412SOL    HW126135   3.127   1.482   1.430
 8412SOL    HW226136   3.163   1.361   1.326
 8413SOL     OW26137   4.326   5.479   6.933
 8413SOL    HW126138   4.416   5.434   6.937
 8413SOL    HW226139   4.265   5.426   6.874
 8414SOL     OW26140   3.527   5.117   3.163
 8414SOL    HW126141   3.500   5.060   3.241
 8414SOL    HW226142   3.619   5.153   3.179
 8415SOL     OW26143   0.060   6.175   4.050
 8415SOL    HW126144   6.979   6.179   4.057
 8415SOL    HW226145   0.101   6.213   4.133
 8416SOL     OW26146   5.569   3.845   2.074
 8416SOL    HW126147   5.649   3.890   2.113
 8416SOL    HW226148   5.582   3.746   2.075
 8417SOL     OW26149   1.596   4.130   5.522
 8417SOL    HW126150   1.635   4.194   5.456
 8417SOL    HW226151   1.670   4.078   5.566
 8418SOL     OW26152   5.967   5.213   1.020
 8418SOL    HW126153   5.995   5.118   1.009
 8418SOL    HW226154   6.028   5.272   0.967
 8419SOL     OW26155   5.670   6.887   1.911
 8419SOL    HW126156   5.643   6.806   1.963
 8419SOL    HW226157   5.733   6.860   1.837
 8420SOL     OW26158   4.185   0.001   0.184
 8420SOL    HW126159   4.214   0.004   0.279
 8420SOL    HW226160   4.229   0.075   0.133
 8421SOL     OW26161   1.780   5.268   6.882
 8421SOL    HW126162   1.815   5.176   6.867
 8421SOL    HW226163   1.816   5.304   6.968
 8422SOL     OW26164   3.804   1.080   1.591
 8422SOL    HW126165   3.881   1.136   1.621
 8422SOL    HW226166   3.818   1.052   1.496
 8423SOL     OW26167   3.161   4.828   5.480
 8423SOL    HW126168   3.083   4.866   5.530
 8423SOL    HW226169   3.128   4.768   5.407
 8424SOL     OW26170   2.745   2.104   2.288
 8424SOL    HW126171   2.677   2.084   2.359
 8424SOL    HW226172   2.737   2.200   2.261
 8425SOL     OW26173   5.017   4.862   5.832
 8425SOL    HW126174   5.002   4.890   5.927
 8425SOL    HW226175   5.066   4.935   5.784
 8426SOL     OW26176   3.639   3.489   3.387
 8426SOL    HW126177   3.571   3.496   3.313
 8426SOL    HW226178   3.603   3.431   3.460
 8427SOL     OW26179   3.663   4.227   5.022
 8427SOL    HW126180   3.619   4.176   4.948
 8427SOL    HW226181   3.674   4.323   4.996
 8428SOL     OW26182   0.764   5.357   1.404
 8428SOL    HW126183   0.690   5.302   1.443
 8428SOL    HW226184   0.731   5.450   1.387
 8429SOL     OW26185   1.278   5.783   3.907
 8429SOL    HW126186   1.284   5.694   3.953
 8429SOL    HW226187   1.193   5.787   3.854
 8430SOL     OW26188   3.491   5.309   3.432
 8430SOL    HW126189   3.402   5.355   3.427
 8430SOL    HW226190   3.515   5.273   3.342
 8431SOL     OW26191   2.981   4.588   0.429
 8431SOL    HW126192   2.906   4.558   0.488
 8431SOL    HW226193   3.043   4.646   0.481
 8432SOL     OW26194   5.521   6.888   5.848
 8432SOL    HW126195   5.470   6.972   5.832
 8432SOL    HW226196   5.478   6.836   5.922
 8433SOL     OW26197   5.257   2.412   0.312
 8433SOL    HW126198   5.343   2.363   0.295
 8433SOL    HW226199   5.252   2.491   0.251
 8434SOL     OW26200   2.665   6.177   4.979
 8434SOL    HW126201   2.737   6.190   4.910
 8434SOL    HW226202   2.576   6.178   4.935
 8435SOL     OW26203   6.333   0.794   1.916
 8435SOL    HW126204   6.272   0.873   1.914
 8435SOL    HW226205   6.331   0.753   2.008
 8436SOL     OW26206   3.594   6.315   3.285
 8436SOL    HW126207   3.518   6.263   3.323
 8436SOL    HW226208   3.560   6.402   3.248
 8437SOL     OW26209   2.490   1.271   4.426
 8437SOL    HW126210   2.509   1.288   4.523
 8437SOL    HW226211   2.560   1.315   4.370
 8438SOL     OW26212   2.321   4.563   2.391
 8438SOL    HW126213   2.405   4.532   2.436
 8438SOL    HW226214   2.242   4.536   2.446
 8439SOL     OW26215   6.752   4.863   2.841
 8439SOL    HW126216   6.769   4.902   2.931
 8439SOL    HW226217   6.664   4.894   2.806
 8440SOL     OW26218   1.660   2.128   3.631
 8440SOL    HW126219   1.631   2.208   3.683
 8440SOL    HW226220   1.760   2.122   3.630
 8441SOL     OW26221   6.298   6.326   0.416
 8441SOL    HW126222   6.219   6.274   0.449
 8441SOL    HW226223   6.268   6.391   0.346
 8442SOL     OW26224   2.998   2.147   4.849
 8442SOL    HW126225   3.053   2.184   4.924
 8442SOL    HW226226   2.969   2.054   4.872
 8443SOL     OW26227   2.350   4.798   3.395
 8443SOL    HW126228   2.366   4.890   3.430
 8443SOL    HW226229   2.252   4.780   3.392
 8444SOL     OW26230   3.171   6.174   4.007
 8444SOL    HW126231   3.170   6.267   3.971
 8444SOL    HW226232   3.139   6.110   3.937
 8445SOL     OW26233   3.709   6.518   1.161
 8445SOL    HW126234   3.758   6.455   1.100
 8445SOL    HW226235   3.729   6.494   1.256
 8446SOL     OW26236   4.760   4.753   6.590
 8446SOL    HW126237   4.832   4.702   6.638
 8446SOL    HW226238   4.709   4.809   6.655
 8447SOL     OW26239   4.696   1.171   2.451
 8447SOL    HW126240   4.749   1.220   2.520
 8447SOL    HW226241   4.758   1.125   2.387
 8448SOL     OW26242   4.382   5.720   4.316
 8448SOL    HW126243   4.294   5.759   4.342
 8448SOL    HW226244   4.378   5.689   4.221
 8449SOL     OW26245   0.039   2.814   3.750
 8449SOL    HW126246   0.117   2.877   3.759
 8449SOL    HW226247   7.017   2.825   3.660
 8450SOL     OW26248   0.377   6.760   1.416
 8450SOL    HW126249   0.339   6.850   1.392
 8450SOL    HW226250   0.314   6.688   1.388
 8451SOL     OW26251   3.913   1.718   0.377
 8451SOL    HW126252   3.872   1.672   0.456
 8451SOL    HW226253   3.852   1.791   0.346
 8452SOL     OW26254   5.961   1.643   2.739
 8452SOL    HW126255   5.892   1.696   2.689
 8452SOL    HW226256   6.050   1.657   2.697
 8453SOL     OW26257   0.569   3.965   6.796
 8453SOL    HW126258   0.577   4.025   6.876
 8453SOL    HW226259   0.485   3.912   6.803
 8454SOL     OW26260   6.664   6.413   1.824
 8454SOL    HW126261   6.724   6.468   1.882
 8454SOL    HW226262   6.573   6.455   1.821
 8455SOL     OW26263   5.962   2.372   2.293
 8455SOL    HW126264   5.976   2.352   2.196
 8455SOL    HW226265   5.871   2.412   2.306
 8456SOL     OW26266   3.826   5.652   2.966
 8456SOL    HW126267   3.918   5.637   2.931
 8456SOL    HW226268   3.792   5.569   3.008
 8457SOL     OW26269   6.377   6.814   4.467
 8457SOL    HW126270   6.361   6.903   4.509
 8457SOL    HW226271   6.319   6.804   4.386
 8458SOL     OW26272   3.386   0.845   6.743
 8458SOL    HW126273   3.293   0.881   6.749
 8458SOL    HW226274   3.388   0.751   6.776
 8459SOL     OW26275   2.863   5.898   2.115
 8459SOL    HW126276   2.870   5.914   2.214
 8459SOL    HW226277   2.862   5.800   2.096
 8460SOL     OW26278   4.027   4.240   5.304
 8460SOL    HW126279   4.121   4.271   5.286
 8460SOL    HW226280   3.983   4.216   5.218
 8461SOL     OW26281   0.519   3.923   4.433
 8461SOL    HW126282   0.511   3.887   4.526
 8461SOL    HW226283   0.579   3.864   4.379
 8462SOL     OW26284   2.724   2.850   6.926
 8462SOL    HW126285   2.684   2.939   6.950
 8462SOL    HW226286   2.779   2.860   6.843
 8463SOL     OW26287   6.548   0.123   1.344
 8463SOL    HW126288   6.562   0.042   1.286
 8463SOL    HW226289   6.472   0.177   1.308
 8464SOL     OW26290   5.369   3.773   4.387
 8464SOL    HW126291   5.369   3.721   4.301
 8464SOL    HW226292   5.406   3.715   4.461
 8465SOL     OW26293   0.927   2.973   0.873
 8465SOL    HW126294   0.873   2.925   0.804
 8465SOL    HW226295   0.985   2.907   0.921
 8466SOL     OW26296   0.367   6.306   4.060
 8466SOL    HW126297   0.391   6.253   3.979
 8466SOL    HW226298   0.317   6.388   4.033
 8467SOL     OW26299   4.434   0.086   0.000
 8467SOL    HW126300   4.516   0.122   6.975
 8467SOL    HW226301   4.458   0.004   0.053
 8468SOL     OW26302   3.731   2.207   6.864
 8468SOL    HW126303   3.689   2.129   6.911
 8468SOL    HW226304   3.814   2.177   6.817
 8469SOL     OW26305   3.281   2.047   6.820
 8469SOL    HW126306   3.193   2.086   6.846
 8469SOL    HW226307   3.333   2.026   6.903
 8470SOL     OW26308   1.577   3.938   6.912
 8470SOL    HW126309   1.588   3.890   7.000
 8470SOL    HW226310   1.488   3.916   6.873
 8471SOL     OW26311   2.878   0.996   3.730
 8471SOL    HW126312   2.956   1.058   3.723
 8471SOL    HW226313   2.851   0.966   3.639
 8472SOL     OW26314   6.719   0.823   4.591
 8472SOL    HW126315   6.683   0.807   4.683
 8472SOL    HW226316   6.679   0.907   4.554
 8473SOL     OW26317   6.506   6.299   6.406
 8473SOL    HW126318   6.432   6.335   6.463
 8473SOL    HW226319   6.489   6.322   6.310
 8474SOL     OW26320   3.161   2.939   1.852
 8474SOL    HW126321   3.180   2.894   1.939
 8474SOL    HW226322   3.207   2.889   1.778
 8475SOL     OW26323   0.445   2.548   3.496
 8475SOL    HW126324   0.395   2.584   3.574
 8475SOL    HW226325   0.522   2.608   3.474
 8476SOL     OW26326   6.823   2.266   0.760
 8476SOL    HW126327   6.759   2.335   0.793
 8476SOL    HW226328   6.807   2.180   0.806
 8477SOL     OW26329   4.781   6.713   1.342
 8477SOL    HW126330   4.704   6.751   1.393
 8477SOL    HW226331   4.772   6.737   1.245
 8478SOL     OW26332   1.122   6.639   5.993
 8478SOL    HW126333   1.080   6.607   5.909
 8478SOL    HW226334   1.122   6.565   6.061
 8479SOL     OW26335   0.489   2.682   1.200
 8479SOL    HW126336   0.529   2.746   1.265
 8479SOL    HW226337   0.529   2.591   1.213
 8480SOL     OW26338   4.622   1.212   0.083
 8480SOL    HW126339   4.549   1.154   0.120
 8480SOL    HW226340   4.608   1.307   0.114
 8481SOL     OW26341   4.311   2.190   3.663
 8481SOL    HW126342   4.321   2.093   3.643
 8481SOL    HW226343   4.247   2.202   3.739
 8482SOL     OW26344   4.357   5.665   1.689
 8482SOL    HW126345   4.404   5.752   1.683
 8482SOL    HW226346   4.405   5.605   1.753
 8483SOL     OW26347   4.207   6.270   2.161
 8483SOL    HW126348   4.222   6.361   2.201
 8483SOL    HW226349   4.295   6.228   2.141
 8484SOL     OW26350   0.916   5.993   3.355
 8484SOL    HW126351   0.955   5.933   3.424
 8484SOL    HW226352   0.938   5.958   3.264
 8485SOL     OW26353   3.830   3.343   0.576
 8485SOL    HW126354   3.738   3.316   0.603
 8485SOL    HW226355   3.859   3.288   0.497
 8486SOL     OW26356   3.802   0.769   3.421
 8486SOL    HW126357   3.825   0.682   3.377
 8486SOL    HW226358   3.835   0.845   3.365
 8487SOL     OW26359   5.233   2.092   5.735
 8487SOL    HW126360   5.237   2.121   5.831
 8487SOL    HW226361   5.234   2.173   5.676
 8488SOL     OW26362   5.856   5.547   6.906
 8488SOL    HW126363   5.812   5.573   6.820
 8488SOL    HW226364   5.810   5.466   6.944
 8489SOL     OW26365   6.190   1.652   1.207
 8489SOL    HW126366   6.112   1.707   1.235
 8489SOL    HW226367   6.217   1.591   1.281
 8490SOL     OW26368   4.149   6.453   3.770
 8490SOL    HW126369   4.068   6.428   3.717
 8490SOL    HW226370   4.148   6.404   3.857
 8491SOL     OW26371   2.277   6.451   0.649
 8491SOL    HW126372   2.266   6.479   0.553
 8491SOL    HW226373   2.374   6.437   0.669
 8492SOL     OW26374   4.615   4.114   6.223
 8492SOL    HW126375   4.651   4.091   6.132
 8492SOL    HW226376   4.589   4.211   6.224
 8493SOL     OW26377   2.724   2.717   6.429
 8493SOL    HW126378   2.766   2.771   6.356
 8493SOL    HW226379   2.630   2.748   6.444
 8494SOL     OW26380   2.859   5.700   1.119
 8494SOL    HW126381   2.942   5.739   1.158
 8494SOL    HW226382   2.861   5.600   1.131
 8495SOL     OW26383   6.785   4.762   2.095
 8495SOL    HW126384   6.877   4.801   2.088
 8495SOL    HW226385   6.785   4.670   2.056
 8496SOL     OW26386   0.644   2.140   2.165
 8496SOL    HW126387   0.610   2.229   2.132
 8496SOL    HW226388   0.743   2.138   2.156
 8497SOL     OW26389   6.013   0.930   4.030
 8497SOL    HW126390   5.961   0.873   4.093
 8497SOL    HW226391   6.065   0.872   3.967
 8498SOL     OW26392   0.512   6.613   2.994
 8498SOL    HW126393   0.414   6.616   2.975
 8498SOL    HW226394   0.542   6.518   2.998
 8499SOL     OW26395   2.209   4.570   6.573
 8499SOL    HW126396   2.219   4.617   6.661
 8499SOL    HW226397   2.186   4.474   6.589
 8500SOL     OW26398   2.251   6.440   4.840
 8500SOL    HW126399   2.270   6.476   4.749
 8500SOL    HW226400   2.264   6.512   4.908
 8501SOL     OW26401   0.551   1.647   6.938
 8501SOL    HW126402   0.617   1.600   6.879
 8501SOL    HW226403   0.512   1.725   6.889
 8502SOL     OW26404   1.848   4.639   1.338
 8502SOL    HW126405   1.885   4.551   1.365
 8502SOL    HW226406   1.843   4.699   1.417
 8503SOL     OW26407   1.444   6.877   4.166
 8503SOL    HW126408   1.396   6.945   4.110
 8503SOL    HW226409   1.443   6.789   4.118
 8504SOL     OW26410   2.638   5.244   2.736
 8504SOL    HW126411   2.600   5.334   2.756
 8504SOL    HW226412   2.646   5.234   2.636
 8505SOL     OW26413   4.998   3.433   3.649
 8505SOL    HW126414   4.949   3.430   3.562
 8505SOL    HW226415   4.970   3.355   3.705
 8506SOL     OW26416   6.685   1.393   6.908
 8506SOL    HW126417   6.720   1.395   6.815
 8506SOL    HW226418   6.708   1.478   6.955
 8507SOL     OW26419   3.262   0.755   5.641
 8507SOL    HW126420   3.213   0.824   5.693
 8507SOL    HW226421   3.347   0.732   5.687
 8508SOL     OW26422   6.132   2.071   4.761
 8508SOL    HW126423   6.056   2.135   4.756
 8508SOL    HW226424   6.097   1.978   4.772
 8509SOL     OW26425   4.443   1.804   3.499
 8509SOL    HW126426   4.477   1.789   3.592
 8509SOL    HW226427   4.392   1.724   3.469
 8510SOL     OW26428   6.116   3.890   3.169
 8510SOL    HW126429   6.125   3.795   3.139
 8510SOL    HW226430   6.125   3.894   3.268
 8511SOL     OW26431   6.856   3.763   1.071
 8511SOL    HW126432   6.844   3.667   1.097
 8511SOL    HW226433   6.900   3.812   1.147
 8512SOL     OW26434   3.193   2.230   1.321
 8512SOL    HW126435   3.240   2.185   1.396
 8512SOL    HW226436   3.221   2.325   1.316
 8513SOL     OW26437   4.950   4.302   1.679
 8513SOL    HW126438   5.034   4.283   1.730
 8513SOL    HW226439   4.871   4.284   1.737
 8514SOL     OW26440   2.503   2.558   3.728
 8514SOL    HW126441   2.448   2.526   3.651
 8514SOL    HW226442   2.453   2.628   3.779
 8515SOL     OW26443   5.652   1.684   0.642
 8515SOL    HW126444   5.681   1.699   0.736
 8515SOL    HW226445   5.607   1.595   0.635
 8516SOL     OW26446   6.561   1.691   1.297
 8516SOL    HW126447   6.485   1.666   1.237
 8516SOL    HW226448   6.580   1.616   1.360
 8517SOL     OW26449   1.758   3.224   6.488
 8517SOL    HW126450   1.667   3.209   6.448
 8517SOL    HW226451   1.788   3.317   6.467
 8518SOL     OW26452   5.185   4.297   0.434
 8518SOL    HW126453   5.141   4.210   0.411
 8518SOL    HW226454   5.175   4.361   0.358
 8519SOL     OW26455   1.463   4.214   1.711
 8519SOL    HW126456   1.487   4.206   1.807
 8519SOL    HW226457   1.483   4.128   1.664
 8520SOL     OW26458   3.350   3.372   0.236
 8520SOL    HW126459   3.379   3.372   0.331
 8520SOL    HW226460   3.322   3.279   0.210
 8521SOL     OW26461   1.750   5.499   5.446
 8521SOL    HW126462   1.812   5.428   5.478
 8521SOL    HW226463   1.790   5.547   5.368
 8522SOL     OW26464   1.115   6.446   1.737
 8522SOL    HW126465   1.175   6.408   1.807
 8522SOL    HW226466   1.078   6.372   1.681
 8523SOL     OW26467   1.976   6.448   6.890
 8523SOL    HW126468   1.942   6.471   6.798
 8523SOL    HW226469   1.961   6.526   6.951
 8524SOL     OW26470   0.523   2.454   5.219
 8524SOL    HW126471   0.509   2.509   5.301
 8524SOL    HW226472   0.440   2.455   5.163
 8525SOL     OW26473   6.529   4.076   2.813
 8525SOL    HW126474   6.488   3.995   2.772
 8525SOL    HW226475   6.488   4.159   2.773
 8526SOL     OW26476   4.163   6.043   6.209
 8526SOL    HW126477   4.179   6.135   6.175
 8526SOL    HW226478   4.207   5.976   6.149
 8527SOL     OW26479   2.699   0.918   6.120
 8527SOL    HW126480   2.714   0.826   6.157
 8527SOL    HW226481   2.703   0.985   6.194
 8528SOL     OW26482   3.849   1.217   6.532
 8528SOL    HW126483   3.881   1.234   6.625
 8528SOL    HW226484   3.770   1.275   6.512
 8529SOL     OW26485   0.782   0.565   0.913
 8529SOL    HW126486   0.776   0.661   0.942
 8529SOL    HW226487   0.750   0.506   0.986
 8530SOL     OW26488   3.809   4.180   5.452
 8530SOL    HW126489   3.890   4.192   5.395
 8530SOL    HW226490   3.835   4.145   5.542
 8531SOL     OW26491   6.411   5.174   2.683
 8531SOL    HW126492   6.422   5.252   2.745
 8531SOL    HW226493   6.434   5.203   2.590
 8532SOL     OW26494   4.322   5.028   4.819
 8532SOL    HW126495   4.351   5.007   4.725
 8532SOL    HW226496   4.247   5.093   4.816
 8533SOL     OW26497   1.109   0.014   6.890
 8533SOL    HW126498   1.144   0.018   6.797
 8533SOL    HW226499   1.169   6.977   6.946
 8534SOL     OW26500   6.964   3.072   3.973
 8534SOL    HW126501   6.968   2.972   3.963
 8534SOL    HW226502   6.922   3.112   3.892
 8535SOL     OW26503   6.216   2.255   4.394
 8535SOL    HW126504   6.145   2.315   4.431
 8535SOL    HW226505   6.285   2.310   4.348
 8536SOL     OW26506   0.251   2.535   5.146
 8536SOL    HW126507   0.160   2.508   5.177
 8536SOL    HW226508   0.254   2.634   5.132
 8537SOL     OW26509   4.920   1.131   2.266
 8537SOL    HW126510   4.923   1.227   2.240
 8537SOL    HW226511   4.943   1.122   2.363
 8538SOL     OW26512   0.545   0.667   0.199
 8538SOL    HW126513   0.476   0.717   0.146
 8538SOL    HW226514   0.632   0.714   0.193
 8539SOL     OW26515   5.226   0.664   2.866
 8539SOL    HW126516   5.241   0.679   2.768
 8539SOL    HW226517   5.313   0.666   2.914
 8540SOL     OW26518   4.625   0.424   6.355
 8540SOL    HW126519   4.715   0.380   6.344
 8540SOL    HW226520   4.637   0.521   6.373
 8541SOL     OW26521   2.723   1.536   4.026
 8541SOL    HW126522   2.787   1.460   4.031
 8541SOL    HW226523   2.650   1.522   4.093
 8542SOL     OW26524   3.940   5.019   6.578
 8542SOL    HW126525   3.855   4.984   6.618
 8542SOL    HW226526   3.970   4.958   6.504
 8543SOL     OW26527   3.448   0.659   1.242
 8543SOL    HW126528   3.386   0.722   1.290
 8543SOL    HW226529   3.411   0.566   1.247
 8544SOL     OW26530   5.258   3.355   4.770
 8544SOL    HW126531   5.296   3.439   4.807
 8544SOL    HW226532   5.169   3.338   4.813
 8545SOL     OW26533   4.843   6.646   4.962
 8545SOL    HW126534   4.825   6.706   4.884
 8545SOL    HW226535   4.894   6.565   4.931
 8546SOL     OW26536   6.827   1.544   3.678
 8546SOL    HW126537   6.780   1.563   3.764
 8546SOL    HW226538   6.804   1.451   3.648
 8547SOL     OW26539   1.380   0.062   6.360
 8547SOL    HW126540   1.281   0.068   6.342
 8547SOL    HW226541   1.426   0.031   6.277
 8548SOL     OW26542   5.709   3.321   5.754
 8548SOL    HW126543   5.677   3.297   5.663
 8548SOL    HW226544   5.745   3.239   5.800
 8549SOL     OW26545   1.433   2.527   4.281
 8549SOL    HW126546   1.399   2.586   4.354
 8549SOL    HW226547   1.530   2.508   4.296
 8550SOL     OW26548   1.660   4.753   0.263
 8550SOL    HW126549   1.723   4.817   0.308
 8550SOL    HW226550   1.695   4.732   0.172
 8551SOL     OW26551   3.291   3.343   6.893
 8551SOL    HW126552   3.354   3.407   6.937
 8551SOL    HW226553   3.259   3.381   6.806
 8552SOL     OW26554   2.434   0.570   4.120
 8552SOL    HW126555   2.407   0.637   4.051
 8552SOL    HW226556   2.440   0.479   4.078
 8553SOL     OW26557   4.330   4.293   7.004
 8553SOL    HW126558   4.287   4.278   6.915
 8553SOL    HW226559   4.425   4.260   7.000
 8554SOL     OW26560   1.148   4.728   0.473
 8554SOL    HW126561   1.113   4.795   0.408
 8554SOL    HW226562   1.121   4.753   0.566
 8555SOL     OW26563   1.900   1.454   3.443
 8555SOL    HW126564   1.861   1.514   3.373
 8555SOL    HW226565   1.832   1.386   3.470
 8556SOL     OW26566   1.442   6.202   4.977
 8556SOL    HW126567   1.506   6.276   4.995
 8556SOL    HW226568   1.476   6.146   4.901
 8557SOL     OW26569   5.716   6.821   3.178
 8557SOL    HW126570   5.805   6.862   3.199
 8557SOL    HW226571   5.711   6.799   3.081
 8558SOL     OW26572   3.045   4.846   3.408
 8558SOL    HW126573   3.044   4.746   3.417
 8558SOL    HW226574   2.956   4.877   3.375
 8559SOL     OW26575   1.007   0.278   2.760
 8559SOL    HW126576   0.977   0.213   2.691
 8559SOL    HW226577   0.963   0.367   2.743
 8560SOL     OW26578   6.617   6.208   1.981
 8560SOL    HW126579   6.606   6.237   2.075
 8560SOL    HW226580   6.634   6.287   1.923
 8561SOL     OW26581   3.173   0.865   2.633
 8561SOL    HW126582   3.141   0.952   2.672
 8561SOL    HW226583   3.269   0.851   2.657
 8562SOL     OW26584   4.050   6.100   5.389
 8562SOL    HW126585   4.035   6.021   5.330
 8562SOL    HW226586   4.148   6.119   5.395
 8563SOL     OW26587   1.860   4.470   6.643
 8563SOL    HW126588   1.886   4.383   6.602
 8563SOL    HW226589   1.871   4.543   6.575
 8564SOL     OW26590   2.936   1.370   5.281
 8564SOL    HW126591   2.927   1.401   5.186
 8564SOL    HW226592   3.003   1.428   5.329
 8565SOL     OW26593   3.782   5.472   1.201
 8565SOL    HW126594   3.826   5.542   1.145
 8565SOL    HW226595   3.836   5.456   1.284
 8566SOL     OW26596   1.954   0.603   1.137
 8566SOL    HW126597   1.969   0.698   1.164
 8566SOL    HW226598   1.868   0.571   1.175
 8567SOL     OW26599   0.273   2.465   2.756
 8567SOL    HW126600   0.325   2.497   2.677
 8567SOL    HW226601   0.282   2.366   2.765
 8568SOL     OW26602   5.255   1.344   6.461
 8568SOL    HW126603   5.225   1.438   6.476
 8568SOL    HW226604   5.178   1.282   6.472
 8569SOL     OW26605   4.965   0.973   6.310
 8569SOL    HW126606   4.978   0.880   6.277
 8569SOL    HW226607   4.867   0.991   6.322
 8570SOL     OW26608   1.810   2.143   5.226
 8570SOL    HW126609   1.771   2.212   5.165
 8570SOL    HW226610   1.908   2.159   5.236
 8571SOL     OW26611   1.229   5.653   5.231
 8571SOL    HW126612   1.272   5.631   5.143
 8571SOL    HW226613   1.156   5.720   5.217
 8572SOL     OW26614   3.000   4.580   6.482
 8572SOL    HW126615   2.933   4.508   6.502
 8572SOL    HW226616   2.965   4.668   6.514
 8573SOL     OW26617   3.435   6.074   6.333
 8573SOL    HW126618   3.393   6.075   6.242
 8573SOL    HW226619   3.366   6.057   6.402
 8574SOL     OW26620   6.476   5.678   5.834
 8574SOL    HW126621   6.485   5.587   5.876
 8574SOL    HW226622   6.557   5.733   5.856
 8575SOL     OW26623   2.224   2.634   4.864
 8575SOL    HW126624   2.315   2.593   4.857
 8575SOL    HW226625   2.203   2.654   4.960
 8576SOL     OW26626   1.797   5.303   6.601
 8576SOL    HW126627   1.802   5.310   6.701
 8576SOL    HW226628   1.746   5.221   6.576
 8577SOL     OW26629   6.957   6.775   4.475
 8577SOL    HW126630   0.026   6.818   4.456
 8577SOL    HW226631   6.883   6.840   4.459
 8578SOL     OW26632   5.179   0.751   4.208
 8578SOL    HW126633   5.274   0.759   4.179
 8578SOL    HW226634   5.123   0.817   4.158
 8579SOL     OW26635   1.808   0.477   2.198
 8579SOL    HW126636   1.845   0.533   2.124
 8579SOL    HW226637   1.803   0.382   2.170
 8580SOL     OW26638   1.852   6.954   1.978
 8580SOL    HW126639   1.897   0.006   1.924
 8580SOL    HW226640   1.773   6.918   1.928
 8581SOL     OW26641   3.336   4.069   2.042
 8581SOL    HW126642   3.266   3.998   2.029
 8581SOL    HW226643   3.333   4.103   2.136
 8582SOL     OW26644   4.476   4.601   2.986
 8582SOL    HW126645   4.495   4.585   3.083
 8582SOL    HW226646   4.441   4.517   2.945
 8583SOL     OW26647   5.489   0.504   4.452
 8583SOL    HW126648   5.447   0.530   4.539
 8583SOL    HW226649   5.571   0.559   4.437
 8584SOL     OW26650   1.303   4.311   5.755
 8584SOL    HW126651   1.315   4.265   5.667
 8584SOL    HW226652   1.392   4.319   5.801
 8585SOL     OW26653   0.555   5.941   6.029
 8585SOL    HW126654   0.637   5.963   5.976
 8585SOL    HW226655   0.492   5.888   5.973
 8586SOL     OW26656   2.596   0.058   2.581
 8586SOL    HW126657   2.620   0.046   2.485
 8586SOL    HW226658   2.532   7.005   2.609
 8587SOL     OW26659   1.086   6.766   4.437
 8587SOL    HW126660   1.038   6.764   4.525
 8587SOL    HW226661   1.055   6.690   4.380
 8588SOL     OW26662   2.986   1.080   0.438
 8588SOL    HW126663   3.004   1.108   0.344
 8588SOL    HW226664   3.030   0.992   0.456
 8589SOL     OW26665   4.874   2.998   5.053
 8589SOL    HW126666   4.913   2.911   5.084
 8589SOL    HW226667   4.830   3.044   5.130
 8590SOL     OW26668   6.742   6.016   4.167
 8590SOL    HW126669   6.728   5.948   4.095
 8590SOL    HW226670   6.840   6.028   4.182
 8591SOL     OW26671   0.408   3.845   0.039
 8591SOL    HW126672   0.395   3.774   0.108
 8591SOL    HW226673   0.484   3.904   0.065
 8592SOL     OW26674   0.068   2.778   6.257
 8592SOL    HW126675   0.046   2.857   6.314
 8592SOL    HW226676   0.001   2.772   6.182
 8593SOL     OW26677   2.698   0.463   0.892
 8593SOL    HW126678   2.776   0.411   0.857
 8593SOL    HW226679   2.615   0.407   0.888
 8594SOL     OW26680   4.256   2.200   5.427
 8594SOL    HW126681   4.166   2.222   5.467
 8594SOL    HW226682   4.327   2.251   5.476
 8595SOL     OW26683   0.855   2.950   3.298
 8595SOL    HW126684   0.924   2.888   3.334
 8595SOL    HW226685   0.803   2.904   3.226
 8596SOL     OW26686   0.431   5.419   3.339
 8596SOL    HW126687   0.383   5.458   3.418
 8596SOL    HW226688   0.405   5.323   3.329
 8597SOL     OW26689   4.321   1.532   1.120
 8597SOL    HW126690   4.279   1.465   1.181
 8597SOL    HW226691   4.266   1.541   1.038
 8598SOL     OW26692   5.852   6.632   0.951
 8598SOL    HW126693   5.853   6.684   0.865
 8598SOL    HW226694   5.757   6.610   0.975
 8599SOL     OW26695   1.174   2.974   4.518
 8599SOL    HW126696   1.160   2.875   4.529
 8599SOL    HW226697   1.235   2.991   4.441
 8600SOL     OW26698   4.519   5.123   5.238
 8600SOL    HW126699   4.571   5.081   5.313
 8600SOL    HW226700   4.432   5.074   5.227
 8601SOL     OW26701   0.518   1.309   5.076
 8601SOL    HW126702   0.592   1.264   5.026
 8601SOL    HW226703   0.525   1.286   5.173
 8602SOL     OW26704   2.847   5.492   2.387
 8602SOL    HW126705   2.820   5.422   2.321
 8602SOL    HW226706   2.913   5.454   2.452
 8603SOL     OW26707   3.812   5.719   0.484
 8603SOL    HW126708   3.846   5.807   0.517
 8603SOL    HW226709   3.738   5.733   0.419
 8604SOL     OW26710   0.426   2.620   4.597
 8604SOL    HW126711   0.351   2.637   4.533
 8604SOL    HW226712   0.417   2.527   4.634
 8605SOL     OW26713   2.821   5.639   4.386
 8605SOL    HW126714   2.785   5.550   4.417
 8605SOL    HW226715   2.798   5.653   4.290
 8606SOL     OW26716   1.603   3.611   6.205
 8606SOL    HW126717   1.660   3.580   6.128
 8606SOL    HW226718   1.512   3.570   6.197
 8607SOL     OW26719   3.696   6.143   0.600
 8607SOL    HW126720   3.598   6.129   0.615
 8607SOL    HW226721   3.735   6.063   0.554
 8608SOL     OW26722   4.043   5.152   2.723
 8608SOL    HW126723   3.948   5.178   2.710
 8608SOL    HW226724   4.099   5.233   2.738
 8609SOL     OW26725   5.223   1.377   3.020
 8609SOL    HW126726   5.319   1.372   2.994
 8609SOL    HW226727   5.166   1.348   2.943
 8610SOL     OW26728   2.083   2.553   2.695
 8610SOL    HW126729   2.047   2.482   2.756
 8610SOL    HW226730   2.027   2.556   2.612
 8611SOL     OW26731   3.000   1.869   4.489
 8611SOL    HW126732   2.924   1.913   4.536
 8611SOL    HW226733   2.983   1.869   4.390
 8612SOL     OW26734   3.515   3.139   1.384
 8612SOL    HW126735   3.464   3.057   1.410
 8612SOL    HW226736   3.504   3.156   1.286
 8613SOL     OW26737   2.253   1.815   1.141
 8613SOL    HW126738   2.255   1.896   1.083
 8613SOL    HW226739   2.335   1.813   1.198
 8614SOL     OW26740   1.159   2.579   2.105
 8614SOL    HW126741   1.084   2.514   2.094
 8614SOL    HW226742   1.244   2.529   2.120
 8615SOL     OW26743   4.853   1.505   5.099
 8615SOL    HW126744   4.855   1.412   5.061
 8615SOL    HW226745   4.927   1.558   5.058
 8616SOL     OW26746   3.077   4.547   1.658
 8616SOL    HW126747   3.147   4.581   1.721
 8616SOL    HW226748   3.002   4.506   1.711
 8617SOL     OW26749   6.722   1.001   6.649
 8617SOL    HW126750   6.696   1.080   6.593
 8617SOL    HW226751   6.806   1.023   6.700
 8618SOL     OW26752   6.151   5.668   0.541
 8618SOL    HW126753   6.069   5.641   0.592
 8618SOL    HW226754   6.199   5.587   0.509
 8619SOL     OW26755   3.803   4.918   2.025
 8619SOL    HW126756   3.815   4.892   2.120
 8619SOL    HW226757   3.742   4.853   1.980
 8620SOL     OW26758   1.279   0.176   4.257
 8620SOL    HW126759   1.241   0.220   4.339
 8620SOL    HW226760   1.233   0.088   4.243
 8621SOL     OW26761   5.793   1.686   2.970
 8621SOL    HW126762   5.860   1.689   2.896
 8621SOL    HW226763   5.719   1.751   2.951
 8622SOL     OW26764   5.395   3.450   0.149
 8622SOL    HW126765   5.326   3.409   0.089
 8622SOL    HW226766   5.441   3.377   0.201
 8623SOL     OW26767   0.966   3.377   4.102
 8623SOL    HW126768   0.888   3.387   4.040
 8623SOL    HW226769   0.932   3.356   4.194
 8624SOL     OW26770   1.168   3.959   4.962
 8624SOL    HW126771   1.101   4.033   4.968
 8624SOL    HW226772   1.258   3.993   4.989
 8625SOL     OW26773   4.503   0.339   6.116
 8625SOL    HW126774   4.578   0.329   6.182
 8625SOL    HW226775   4.474   0.249   6.084
 8626SOL     OW26776   4.155   3.095   5.488
 8626SOL    HW126777   4.186   3.139   5.404
 8626SOL    HW226778   4.149   3.163   5.561
 8627SOL     OW26779   0.436   1.264   3.355
 8627SOL    HW126780   0.407   1.214   3.437
 8627SOL    HW226781   0.444   1.362   3.377
 8628SOL     OW26782   6.568   6.335   0.440
 8628SOL    HW126783   6.615   6.311   0.355
 8628SOL    HW226784   6.470   6.335   0.424
 8629SOL     OW26785   1.262   5.086   5.063
 8629SOL    HW126786   1.278   5.148   5.140
 8629SOL    HW226787   1.308   5.121   4.982
 8630SOL     OW26788   5.170   4.165   3.712
 8630SOL    HW126789   5.233   4.157   3.634
 8630SOL    HW226790   5.219   4.146   3.797
 8631SOL     OW26791   1.599   5.047   6.098
 8631SOL    HW126792   1.642   4.957   6.110
 8631SOL    HW226793   1.500   5.036   6.087
 8632SOL     OW26794   3.791   5.469   4.113
 8632SOL    HW126795   3.844   5.537   4.163
 8632SOL    HW226796   3.714   5.514   4.067
 8633SOL     OW26797   4.822   1.457   5.361
 8633SOL    HW126798   4.830   1.458   5.261
 8633SOL    HW226799   4.912   1.441   5.401
 8634SOL     OW26800   5.526   3.232   0.392
 8634SOL    HW126801   5.616   3.275   0.388
 8634SOL    HW226802   5.521   3.159   0.324
 8635SOL     OW26803   5.554   4.478   6.406
 8635SOL    HW126804   5.501   4.548   6.357
 8635SOL    HW226805   5.542   4.390   6.360
 8636SOL     OW26806   4.941   5.831   1.182
 8636SOL    HW126807   4.935   5.735   1.156
 8636SOL    HW226808   4.975   5.839   1.276
 8637SOL     OW26809   2.229   1.043   0.126
 8637SOL    HW126810   2.265   0.966   0.177
 8637SOL    HW226811   2.140   1.019   0.087
 8638SOL     OW26812   2.553   3.328   6.611
 8638SOL    HW126813   2.550   3.341   6.710
 8638SOL    HW226814   2.488   3.256   6.584
 8639SOL     OW26815   5.127   2.423   1.527
 8639SOL    HW126816   5.199   2.392   1.466
 8639SOL    HW226817   5.102   2.517   1.504
 8640SOL     OW26818   4.840   4.041   0.296
 8640SOL    HW126819   4.779   4.120   0.290
 8640SOL    HW226820   4.830   3.998   0.386
 8641SOL     OW26821   5.349   4.899   4.203
 8641SOL    HW126822   5.405   4.933   4.279
 8641SOL    HW226823   5.394   4.820   4.161
 8642SOL     OW26824   2.545   6.647   3.139
 8642SOL    HW126825   2.583   6.670   3.228
 8642SOL    HW226826   2.542   6.729   3.081
 8643SOL     OW26827   2.842   0.010   6.612
 8643SOL    HW126828   2.897   6.982   6.543
 8643SOL    HW226829   2.769   0.062   6.567
 8644SOL     OW26830   5.183   1.898   5.402
 8644SOL    HW126831   5.124   1.960   5.453
 8644SOL    HW226832   5.151   1.892   5.307
 8645SOL     OW26833   4.677   4.864   1.635
 8645SOL    HW126834   4.668   4.794   1.563
 8645SOL    HW226835   4.734   4.939   1.601
 8646SOL     OW26836   6.776   1.107   1.547
 8646SOL    HW126837   6.752   1.106   1.450
 8646SOL    HW226838   6.751   1.019   1.588
 8647SOL     OW26839   2.796   5.857   5.999
 8647SOL    HW126840   2.697   5.849   6.007
 8647SOL    HW226841   2.834   5.771   5.965
 8648SOL     OW26842   6.182   0.625   3.397
 8648SOL    HW126843   6.217   0.585   3.482
 8648SOL    HW226844   6.196   0.562   3.321
 8649SOL     OW26845   5.230   5.246   6.071
 8649SOL    HW126846   5.261   5.300   5.993
 8649SOL    HW226847   5.155   5.187   6.043
 8650SOL     OW26848   2.323   5.221   4.953
 8650SOL    HW126849   2.290   5.314   4.960
 8650SOL    HW226850   2.310   5.173   5.040
 8651SOL     OW26851   3.429   0.489   0.329
 8651SOL    HW126852   3.363   0.413   0.337
 8651SOL    HW226853   3.420   0.531   0.239
 8652SOL     OW26854   1.769   4.191   4.088
 8652SOL    HW126855   1.824   4.134   4.148
 8652SOL    HW226856   1.782   4.287   4.112
 8653SOL     OW26857   6.035   0.462   6.253
 8653SOL    HW126858   6.015   0.397   6.180
 8653SOL    HW226859   5.969   0.450   6.327
 8654SOL     OW26860   1.439   4.842   1.485
 8654SOL    HW126861   1.366   4.909   1.473
 8654SOL    HW226862   1.467   4.839   1.581
 8655SOL     OW26863   6.390   1.659   3.714
 8655SOL    HW126864   6.457   1.718   3.759
 8655SOL    HW226865   6.316   1.715   3.677
 8656SOL     OW26866   6.395   0.546   0.852
 8656SOL    HW126867   6.457   0.504   0.786
 8656SOL    HW226868   6.422   0.521   0.945
 8657SOL     OW26869   5.213   4.572   0.619
 8657SOL    HW126870   5.220   4.573   0.520
 8657SOL    HW226871   5.290   4.521   0.658
 8658SOL     OW26872   4.929   6.720   0.522
 8658SOL    HW126873   4.830   6.704   0.517
 8658SOL    HW226874   4.978   6.641   0.486
 8659SOL     OW26875   4.436   1.711   2.732
 8659SOL    HW126876   4.398   1.622   2.756
 8659SOL    HW226877   4.405   1.738   2.641
 8660SOL     OW26878   6.443   4.523   1.699
 8660SOL    HW126879   6.520   4.476   1.656
 8660SOL    HW226880   6.423   4.480   1.787
 8661SOL     OW26881   5.896   4.043   1.156
 8661SOL    HW126882   5.919   4.074   1.064
 8661SOL    HW226883   5.978   4.044   1.213
 8662SOL     OW26884   4.339   6.192   1.171
 8662SOL    HW126885   4.305   6.179   1.078
 8662SOL    HW226886   4.437   6.170   1.174
 8663SOL     OW26887   3.514   5.839   1.585
 8663SOL    HW126888   3.556   5.752   1.608
 8663SOL    HW226889   3.430   5.823   1.534
 8664SOL     OW26890   1.820   6.015   1.028
 8664SOL    HW126891   1.857   6.004   0.936
 8664SOL    HW226892   1.857   6.098   1.069
 8665SOL     OW26893   5.033   6.446   4.874
 8665SOL    HW126894   5.101   6.469   4.805
 8665SOL    HW226895   5.075   6.448   4.965
 8666SOL     OW26896   5.036   2.120   4.086
 8666SOL    HW126897   5.072   2.050   4.024
 8666SOL    HW226898   5.110   2.181   4.114
 8667SOL     OW26899   4.511   2.528   2.913
 8667SOL    HW126900   4.455   2.456   2.871
 8667SOL    HW226901   4.559   2.490   2.992
 8668SOL     OW26902   5.491   3.706   3.445
 8668SOL    HW126903   5.493   3.619   3.494
 8668SOL    HW226904   5.558   3.704   3.371
 8669SOL     OW26905   1.703   6.447   0.031
 8669SOL    HW126906   1.701   6.491   0.120
 8669SOL    HW226907   1.625   6.386   0.022
 8670SOL     OW26908   3.888   4.118   5.103
 8670SOL    HW126909   3.796   4.150   5.082
 8670SOL    HW226910   3.944   4.120   5.020
 8671SOL     OW26911   5.386   1.596   3.730
 8671SOL    HW126912   5.303   1.582   3.784
 8671SOL    HW226913   5.391   1.691   3.701
 8672SOL     OW26914   1.963   4.724   4.151
 8672SOL    HW126915   2.036   4.743   4.216
 8672SOL    HW226916   1.932   4.809   4.109
 8673SOL     OW26917   5.973   2.791   0.360
 8673SOL    HW126918   6.013   2.803   0.270
 8673SOL    HW226919   6.045   2.773   0.427
 8674SOL     OW26920   6.148   5.901   3.512
 8674SOL    HW126921   6.206   5.825   3.541
 8674SOL    HW226922   6.197   5.959   3.448
 8675SOL     OW26923   2.666   2.400   4.200
 8675SOL    HW126924   2.761   2.410   4.172
 8675SOL    HW226925   2.662   2.339   4.280
 8676SOL     OW26926   4.171   0.427   2.495
 8676SOL    HW126927   4.182   0.435   2.594
 8676SOL    HW226928   4.261   0.415   2.453
 8677SOL     OW26929   1.783   5.909   5.390
 8677SOL    HW126930   1.860   5.899   5.453
 8677SOL    HW226931   1.800   5.853   5.309
 8678SOL     OW26932   6.422   0.562   1.178
 8678SOL    HW126933   6.405   0.655   1.146
 8678SOL    HW226934   6.507   0.560   1.232
 8679SOL     OW26935   0.248   2.387   3.122
 8679SOL    HW126936   0.175   2.331   3.162
 8679SOL    HW226937   0.331   2.333   3.114
 8680SOL     OW26938   1.325   3.826   1.329
 8680SOL    HW126939   1.378   3.746   1.301
 8680SOL    HW226940   1.383   3.907   1.323
 8681SOL     OW26941   5.226   5.219   0.365
 8681SOL    HW126942   5.146   5.165   0.341
 8681SOL    HW226943   5.269   5.181   0.447
 8682SOL     OW26944   5.197   6.740   2.259
 8682SOL    HW126945   5.105   6.730   2.222
 8682SOL    HW226946   5.214   6.668   2.327
 8683SOL     OW26947   1.277   2.082   2.932
 8683SOL    HW126948   1.329   2.042   3.007
 8683SOL    HW226949   1.183   2.101   2.962
 8684SOL     OW26950   0.251   3.056   5.223
 8684SOL    HW126951   0.206   3.105   5.298
 8684SOL    HW226952   0.240   3.108   5.138
 8685SOL     OW26953   0.174   1.879   5.846
 8685SOL    HW126954   0.137   1.949   5.784
 8685SOL    HW226955   0.204   1.800   5.793
 8686SOL     OW26956   0.207   1.809   2.106
 8686SOL    HW126957   0.201   1.878   2.178
 8686SOL    HW226958   0.292   1.821   2.056
 8687SOL     OW26959   4.816   5.350   2.124
 8687SOL    HW126960   4.735   5.382   2.074
 8687SOL    HW226961   4.788   5.324   2.217
 8688SOL     OW26962   2.483   5.633   0.004
 8688SOL    HW126963   2.414   5.700   6.994
 8688SOL    HW226964   2.484   5.557   6.958
 8689SOL     OW26965   3.996   4.050   1.608
 8689SOL    HW126966   4.056   4.008   1.676
 8689SOL    HW226967   3.979   3.986   1.534
 8690SOL     OW26968   1.676   3.217   2.944
 8690SOL    HW126969   1.773   3.203   2.963
 8690SOL    HW226970   1.651   3.311   2.969
 8691SOL     OW26971   3.000   1.919   6.054
 8691SOL    HW126972   2.928   1.890   5.991
 8691SOL    HW226973   3.089   1.895   6.016
 8692SOL     OW26974   2.354   1.858   4.406
 8692SOL    HW126975   2.435   1.916   4.418
 8692SOL    HW226976   2.364   1.775   4.460
 8693SOL     OW26977   5.713   1.158   0.461
 8693SOL    HW126978   5.724   1.257   0.466
 8693SOL    HW226979   5.758   1.123   0.379
 8694SOL     OW26980   4.812   1.244   4.970
 8694SOL    HW126981   4.712   1.246   4.963
 8694SOL    HW226982   4.844   1.150   4.956
 8695SOL     OW26983   4.231   2.773   5.843
 8695SOL    HW126984   4.146   2.821   5.864
 8695SOL    HW226985   4.271   2.810   5.760
 8696SOL     OW26986   2.112   5.293   6.960
 8696SOL    HW126987   2.145   5.229   6.890
 8696SOL    HW226988   2.071   5.372   6.917
 8697SOL     OW26989   6.828   2.854   6.431
 8697SOL    HW126990   6.795   2.921   6.365
 8697SOL    HW226991   6.818   2.762   6.393
 8698SOL     OW26992   5.231   6.459   5.404
 8698SOL    HW126993   5.198   6.443   5.496
 8698SOL    HW226994   5.168   6.521   5.356
 8699SOL     OW26995   2.235   2.525   5.631
 8699SOL    HW126996   2.191   2.436   5.646
 8699SOL    HW226997   2.266   2.531   5.536
 8700SOL     OW26998   0.566   0.934   4.655
 8700SOL    HW126999   0.491   0.938   4.721
 8700SOL    HW227000   0.623   0.854   4.674
 8701SOL     OW27001   0.473   1.476   0.940
 8701SOL    HW127002   0.424   1.501   1.024
 8701SOL    HW227003   0.415   1.416   0.885
 8702SOL     OW27004   5.717   5.384   1.504
 8702SOL    HW127005   5.775   5.316   1.459
 8702SOL    HW227006   5.623   5.349   1.509
 8703SOL     OW27007   2.430   4.790   6.942
 8703SOL    HW127008   2.482   4.707   6.965
 8703SOL    HW227009   2.482   4.870   6.968
 8704SOL     OW27010   0.448   3.612   3.046
 8704SOL    HW127011   0.515   3.545   3.077
 8704SOL    HW227012   0.396   3.576   2.969
 8705SOL     OW27013   5.194   1.586   6.174
 8705SOL    HW127014   5.210   1.590   6.272
 8705SOL    HW227015   5.201   1.677   6.134
 8706SOL     OW27016   4.903   2.160   6.720
 8706SOL    HW127017   4.832   2.162   6.650
 8706SOL    HW227018   4.901   2.247   6.771
 8707SOL     OW27019   6.955   1.972   6.478
 8707SOL    HW127020   6.957   2.012   6.569
 8707SOL    HW227021   6.878   2.010   6.426
 8708SOL     OW27022   4.489   2.119   2.889
 8708SOL    HW127023   4.420   2.047   2.895
 8708SOL    HW227024   4.561   2.101   2.956
 8709SOL     OW27025   0.110   6.672   0.226
 8709SOL    HW127026   0.194   6.695   0.176
 8709SOL    HW227027   0.054   6.755   0.237
 8710SOL     OW27028   2.151   3.468   4.053
 8710SOL    HW127029   2.193   3.385   4.016
 8710SOL    HW227030   2.152   3.464   4.153
 8711SOL     OW27031   1.585   6.882   3.260
 8711SOL    HW127032   1.681   6.899   3.240
 8711SOL    HW227033   1.573   6.789   3.295
 8712SOL     OW27034   4.201   2.204   4.813
 8712SOL    HW127035   4.204   2.273   4.885
 8712SOL    HW227036   4.109   2.164   4.810
 8713SOL     OW27037   6.857   2.587   4.297
 8713SOL    HW127038   6.765   2.624   4.285
 8713SOL    HW227039   6.877   2.578   4.395
 8714SOL     OW27040   1.063   1.108   6.389
 8714SOL    HW127041   1.043   1.010   6.394
 8714SOL    HW227042   1.077   1.144   6.481
 8715SOL     OW27043   4.818   0.401   0.895
 8715SOL    HW127044   4.755   0.340   0.944
 8715SOL    HW227045   4.836   0.482   0.952
 8716SOL     OW27046   6.984   6.862   1.857
 8716SOL    HW127047   6.958   6.907   1.943
 8716SOL    HW227048   6.905   6.860   1.796
 8717SOL     OW27049   3.647   3.482   4.103
 8717SOL    HW127050   3.645   3.514   4.198
 8717SOL    HW227051   3.624   3.557   4.042
 8718SOL     OW27052   1.288   3.624   5.363
 8718SOL    HW127053   1.349   3.655   5.290
 8718SOL    HW227054   1.193   3.638   5.335
 8719SOL     OW27055   3.451   0.036   6.072
 8719SOL    HW127056   3.375   0.085   6.114
 8719SOL    HW227057   3.508   0.099   6.020
 8720SOL     OW27058   6.631   5.210   5.975
 8720SOL    HW127059   6.637   5.133   5.911
 8720SOL    HW227060   6.669   5.183   6.063
 8721SOL     OW27061   6.979   3.062   2.192
 8721SOL    HW127062   6.919   3.034   2.118
 8721SOL    HW227063   6.925   3.082   2.274
 8722SOL     OW27064   3.736   1.502   0.139
 8722SOL    HW127065   3.790   1.516   0.056
 8722SOL    HW227066   3.795   1.468   0.212
 8723SOL     OW27067   5.314   5.774   0.919
 8723SOL    HW127068   5.220   5.807   0.922
 8723SOL    HW227069   5.356   5.787   1.009
 8724SOL     OW27070   4.738   0.064   5.308
 8724SOL    HW127071   4.652   0.112   5.289
 8724SOL    HW227072   4.731   6.989   5.274
 8725SOL     OW27073   1.692   6.128   6.017
 8725SOL    HW127074   1.752   6.058   5.979
 8725SOL    HW227075   1.655   6.184   5.943
 8726SOL     OW27076   0.140   0.839   2.465
 8726SOL    HW127077   0.067   0.788   2.513
 8726SOL    HW227078   0.105   0.928   2.436
 8727SOL     OW27079   0.074   6.286   2.582
 8727SOL    HW127080   0.084   6.277   2.483
 8727SOL    HW227081   6.997   6.305   2.604
 8728SOL     OW27082   5.506   0.642   2.694
 8728SOL    HW127083   5.513   0.648   2.594
 8728SOL    HW227084   5.531   0.550   2.724
 8729SOL     OW27085   4.716   5.950   4.781
 8729SOL    HW127086   4.642   6.017   4.770
 8729SOL    HW227087   4.804   5.998   4.784
 8730SOL     OW27088   0.082   3.895   1.970
 8730SOL    HW127089   0.088   3.802   2.007
 8730SOL    HW227090   0.041   3.956   2.039
 8731SOL     OW27091   1.946   2.894   2.504
 8731SOL    HW127092   2.007   2.906   2.583
 8731SOL    HW227093   1.854   2.873   2.536
 8732SOL     OW27094   5.878   5.108   1.388
 8732SOL    HW127095   5.877   5.193   1.335
 8732SOL    HW227096   5.973   5.083   1.408
 8733SOL     OW27097   1.302   5.617   0.865
 8733SOL    HW127098   1.365   5.590   0.938
 8733SOL    HW227099   1.211   5.631   0.904
 8734SOL     OW27100   1.780   3.954   1.897
 8734SOL    HW127101   1.709   4.014   1.933
 8734SOL    HW227102   1.741   3.864   1.878
 8735SOL     OW27103   1.277   2.306   0.714
 8735SOL    HW127104   1.353   2.327   0.652
 8735SOL    HW227105   1.282   2.211   0.743
 8736SOL     OW27106   0.212   5.700   6.564
 8736SOL    HW127107   0.127   5.651   6.584
 8736SOL    HW227108   0.277   5.638   6.521
 8737SOL     OW27109   1.839   6.549   6.653
 8737SOL    HW127110   1.888   6.625   6.609
 8737SOL    HW227111   1.769   6.586   6.715
 8738SOL     OW27112   2.211   5.222   4.550
 8738SOL    HW127113   2.209   5.313   4.508
 8738SOL    HW227114   2.210   5.153   4.478
 8739SOL     OW27115   5.400   5.463   6.607
 8739SOL    HW127116   5.301   5.462   6.588
 8739SOL    HW227117   5.435   5.369   6.601
 8740SOL     OW27118   4.946   1.043   4.377
 8740SOL    HW127119   4.853   1.078   4.370
 8740SOL    HW227120   4.972   1.035   4.473
 8741SOL     OW27121   2.458   1.431   2.146
 8741SOL    HW127122   2.553   1.400   2.144
 8741SOL    HW227123   2.439   1.475   2.234
 8742SOL     OW27124   6.063   6.403   1.181
 8742SOL    HW127125   5.975   6.437   1.149
 8742SOL    HW227126   6.127   6.398   1.104
 8743SOL     OW27127   0.969   0.123   2.476
 8743SOL    HW127128   1.037   0.052   2.460
 8743SOL    HW227129   0.888   0.106   2.420
 8744SOL     OW27130   3.502   2.800   6.471
 8744SOL    HW127131   3.554   2.717   6.451
 8744SOL    HW227132   3.417   2.799   6.419
 8745SOL     OW27133   5.703   2.503   6.613
 8745SOL    HW127134   5.734   2.587   6.568
 8745SOL    HW227135   5.647   2.450   6.549
 8746SOL     OW27136   4.947   4.894   4.431
 8746SOL    HW127137   5.015   4.896   4.357
 8746SOL    HW227138   4.884   4.819   4.416
 8747SOL     OW27139   0.744   2.841   3.045
 8747SOL    HW127140   0.775   2.789   2.965
 8747SOL    HW227141   0.649   2.867   3.034
 8748SOL     OW27142   6.915   1.379   4.907
 8748SOL    HW127143   6.975   1.300   4.897
 8748SOL    HW227144   6.942   1.450   4.842
 8749SOL     OW27145   2.539   0.855   5.732
 8749SOL    HW127146   2.539   0.778   5.796
 8749SOL    HW227147   2.445   0.886   5.717
 8750SOL     OW27148   3.595   3.742   5.685
 8750SOL    HW127149   3.675   3.801   5.677
 8750SOL    HW227150   3.514   3.797   5.706
 8751SOL     OW27151   5.559   1.185   2.118
 8751SOL    HW127152   5.605   1.273   2.104
 8751SOL    HW227153   5.627   1.116   2.145
 8752SOL     OW27154   2.818   3.328   0.679
 8752SOL    HW127155   2.903   3.331   0.627
 8752SOL    HW227156   2.767   3.413   0.664
 8753SOL     OW27157   3.964   1.924   5.543
 8753SOL    HW127158   4.015   1.962   5.466
 8753SOL    HW227159   3.866   1.940   5.529
 8754SOL     OW27160   1.732   3.552   5.938
 8754SOL    HW127161   1.782   3.512   5.860
 8754SOL    HW227162   1.780   3.634   5.969
 8755SOL     OW27163   2.231   0.468   0.660
 8755SOL    HW127164   2.326   0.479   0.691
 8755SOL    HW227165   2.210   0.371   0.647
 8756SOL     OW27166   1.425   3.157   3.398
 8756SOL    HW127167   1.368   3.153   3.480
 8756SOL    HW227168   1.426   3.067   3.354
 8757SOL     OW27169   4.099   5.656   6.251
 8757SOL    HW127170   4.145   5.602   6.181
 8757SOL    HW227171   4.160   5.667   6.330
 8758SOL     OW27172   4.811   5.868   2.716
 8758SOL    HW127173   4.804   5.874   2.616
 8758SOL    HW227174   4.824   5.960   2.754
 8759SOL     OW27175   4.456   2.580   0.445
 8759SOL    HW127176   4.369   2.604   0.402
 8759SOL    HW227177   4.513   2.533   0.378
 8760SOL     OW27178   2.234   1.121   5.109
 8760SOL    HW127179   2.227   1.044   5.046
 8760SOL    HW227180   2.328   1.155   5.110
 8761SOL     OW27181   6.090   2.141   1.837
 8761SOL    HW127182   6.027   2.074   1.798
 8761SOL    HW227183   6.167   2.155   1.775
 8762SOL     OW27184   1.869   3.693   2.724
 8762SOL    HW127185   1.844   3.604   2.763
 8762SOL    HW227186   1.789   3.753   2.724
 8763SOL     OW27187   0.268   0.251   6.130
 8763SOL    HW127188   0.232   0.262   6.223
 8763SOL    HW227189   0.261   0.338   6.081
 8764SOL     OW27190   4.863   0.248   4.486
 8764SOL    HW127191   4.898   0.245   4.580
 8764SOL    HW227192   4.776   0.297   4.484
 8765SOL     OW27193   5.426   6.520   3.977
 8765SOL    HW127194   5.339   6.471   3.977
 8765SOL    HW227195   5.419   6.600   3.918
 8766SOL     OW27196   4.628   4.355   3.624
 8766SOL    HW127197   4.677   4.358   3.710
 8766SOL    HW227198   4.537   4.396   3.636
 8767SOL     OW27199   5.140   6.056   2.657
 8767SOL    HW127200   5.072   6.123   2.685
 8767SOL    HW227201   5.207   6.044   2.730
 8768SOL     OW27202   1.254   2.443   0.379
 8768SOL    HW127203   1.340   2.393   0.367
 8768SOL    HW227204   1.194   2.425   0.301
 8769SOL     OW27205   0.189   0.800   4.577
 8769SOL    HW127206   0.133   0.831   4.500
 8769SOL    HW227207   0.253   0.730   4.545
 8770SOL     OW27208   4.683   4.350   2.493
 8770SOL    HW127209   4.676   4.258   2.457
 8770SOL    HW227210   4.778   4.382   2.489
 8771SOL     OW27211   0.892   1.414   6.612
 8771SOL    HW127212   0.943   1.329   6.607
 8771SOL    HW227213   0.794   1.394   6.610
 8772SOL     OW27214   5.160   0.407   6.249
 8772SOL    HW127215   5.239   0.454   6.208
 8772SOL    HW227216   5.103   0.368   6.176
 8773SOL     OW27217   4.599   2.441   3.180
 8773SOL    HW127218   4.698   2.432   3.193
 8773SOL    HW227219   4.563   2.504   3.248
 8774SOL     OW27220   1.013   0.967   6.888
 8774SOL    HW127221   0.962   0.928   6.965
 8774SOL    HW227222   1.104   0.993   6.918
 8775SOL     OW27223   5.834   6.881   4.966
 8775SOL    HW127224   5.786   6.946   4.906
 8775SOL    HW227225   5.869   6.805   4.911
 8776SOL     OW27226   3.447   3.080   6.562
 8776SOL    HW127227   3.362   3.090   6.510
 8776SOL    HW227228   3.514   3.031   6.506
 8777SOL     OW27229   0.027   4.295   1.684
 8777SOL    HW127230   0.042   4.344   1.598
 8777SOL    HW227231   0.101   4.316   1.747
 8778SOL     OW27232   6.185   2.745   4.843
 8778SOL    HW127233   6.180   2.704   4.934
 8778SOL    HW227234   6.119   2.701   4.783
 8779SOL     OW27235   3.111   5.450   2.488
 8779SOL    HW127236   3.148   5.535   2.525
 8779SOL    HW227237   3.170   5.374   2.516
 8780SOL     OW27238   0.896   6.293   2.313
 8780SOL    HW127239   0.898   6.336   2.403
 8780SOL    HW227240   0.820   6.330   2.259
 8781SOL     OW27241   5.216   1.543   3.267
 8781SOL    HW127242   5.242   1.473   3.200
 8781SOL    HW227243   5.132   1.514   3.314
 8782SOL     OW27244   5.990   6.238   1.744
 8782SOL    HW127245   6.035   6.171   1.685
 8782SOL    HW227246   6.024   6.228   1.837
 8783SOL     OW27247   6.549   4.199   3.233
 8783SOL    HW127248   6.471   4.137   3.223
 8783SOL    HW227249   6.604   4.170   3.312
 8784SOL     OW27250   5.931   4.233   6.304
 8784SOL    HW127251   6.009   4.211   6.363
 8784SOL    HW227252   5.909   4.330   6.313
 8785SOL     OW27253   5.884   3.302   0.154
 8785SOL    HW127254   5.921   3.287   0.246
 8785SOL    HW227255   5.857   3.398   0.145
 8786SOL     OW27256   2.018   0.499   0.185
 8786SOL    HW127257   1.939   0.522   0.129
 8786SOL    HW227258   2.034   0.571   0.253
 8787SOL     OW27259   3.035   2.020   1.325
 8787SOL    HW127260   3.088   2.099   1.294
 8787SOL    HW227261   3.088   1.936   1.310
 8788SOL     OW27262   6.646   1.897   6.058
 8788SOL    HW127263   6.649   1.843   5.974
 8788SOL    HW227264   6.706   1.855   6.126
 8789SOL     OW27265   6.164   0.185   4.976
 8789SOL    HW127266   6.198   0.091   4.966
 8789SOL    HW227267   6.065   0.186   4.963
 8790SOL     OW27268   0.360   0.181   0.079
 8790SOL    HW127269   0.454   0.199   0.107
 8790SOL    HW227270   0.306   0.265   0.087
 8791SOL     OW27271   5.357   0.320   4.704
 8791SOL    HW127272   5.423   0.278   4.767
 8791SOL    HW227273   5.381   0.417   4.692
 8792SOL     OW27274   2.645   6.833   3.386
 8792SOL    HW127275   2.715   6.902   3.406
 8792SOL    HW227276   2.682   6.742   3.405
 8793SOL     OW27277   1.568   4.239   3.258
 8793SOL    HW127278   1.610   4.325   3.289
 8793SOL    HW227279   1.513   4.200   3.332
 8794SOL     OW27280   4.681   6.560   2.053
 8794SOL    HW127281   4.662   6.468   2.087
 8794SOL    HW227282   4.667   6.626   2.126
 8795SOL     OW27283   1.281   5.284   5.525
 8795SOL    HW127284   1.357   5.343   5.500
 8795SOL    HW227285   1.206   5.339   5.562
 8796SOL     OW27286   3.734   2.014   4.627
 8796SOL    HW127287   3.642   2.051   4.638
 8796SOL    HW227288   3.735   1.917   4.653
 8797SOL     OW27289   6.661   6.661   6.906
 8797SOL    HW127290   6.694   6.744   6.952
 8797SOL    HW227291   6.611   6.605   6.972
 8798SOL     OW27292   4.902   5.675   5.670
 8798SOL    HW127293   4.930   5.703   5.578
 8798SOL    HW227294   4.977   5.627   5.714
 8799SOL     OW27295   2.703   5.094   3.616
 8799SOL    HW127296   2.766   5.150   3.561
 8799SOL    HW227297   2.746   5.006   3.636
 8800SOL     OW27298   6.361   3.747   5.454
 8800SOL    HW127299   6.333   3.761   5.549
 8800SOL    HW227300   6.459   3.727   5.450
 8801SOL     OW27301   0.403   1.929   5.187
 8801SOL    HW127302   0.385   1.905   5.092
 8801SOL    HW227303   0.348   2.008   5.213
 8802SOL     OW27304   1.777   0.009   0.494
 8802SOL    HW127305   1.863   7.018   0.444
 8802SOL    HW227306   1.795   0.057   0.581
 8803SOL     OW27307   6.573   5.996   6.897
 8803SOL    HW127308   6.550   6.062   6.969
 8803SOL    HW227309   6.648   6.033   6.841
 8804SOL     OW27310   2.598   0.114   1.908
 8804SOL    HW127311   2.605   0.089   1.812
 8804SOL    HW227312   2.546   0.199   1.917
 8805SOL     OW27313   2.890   6.895   4.353
 8805SOL    HW127314   2.946   6.910   4.272
 8805SOL    HW227315   2.862   6.984   4.391
 8806SOL     OW27316   2.926   5.877   2.400
 8806SOL    HW127317   3.009   5.922   2.433
 8806SOL    HW227318   2.911   5.792   2.451
 8807SOL     OW27319   5.182   0.471   6.876
 8807SOL    HW127320   5.162   0.537   6.803
 8807SOL    HW227321   5.259   0.503   6.930
 8808SOL     OW27322   5.726   2.841   6.913
 8808SOL    HW127323   5.790   2.897   6.966
 8808SOL    HW227324   5.774   2.801   6.835
 8809SOL     OW27325   4.905   5.362   3.378
 8809SOL    HW127326   4.946   5.436   3.431
 8809SOL    HW227327   4.806   5.362   3.392
 8810SOL     OW27328   5.071   0.744   5.956
 8810SOL    HW127329   5.023   0.663   5.990
 8810SOL    HW227330   5.160   0.752   6.001
 8811SOL     OW27331   2.871   0.799   3.165
 8811SOL    HW127332   2.906   0.830   3.076
 8811SOL    HW227333   2.798   0.860   3.195
 8812SOL     OW27334   2.253   0.292   1.038
 8812SOL    HW127335   2.233   0.356   1.112
 8812SOL    HW227336   2.167   0.254   1.002
 8813SOL     OW27337   2.374   4.808   1.441
 8813SOL    HW127338   2.470   4.788   1.457
 8813SOL    HW227339   2.342   4.759   1.360
 8814SOL     OW27340   5.451   6.973   1.721
 8814SOL    HW127341   5.513   6.926   1.784
 8814SOL    HW227342   5.392   0.017   1.772
 8815SOL     OW27343   5.418   6.802   0.747
 8815SOL    HW127344   5.455   6.718   0.786
 8815SOL    HW227345   5.335   6.781   0.695
 8816SOL     OW27346   1.194   6.700   0.052
 8816SOL    HW127347   1.245   6.748   0.123
 8816SOL    HW227348   1.103   6.678   0.086
 8817SOL     OW27349   0.586   5.039   4.703
 8817SOL    HW127350   0.681   5.045   4.674
 8817SOL    HW227351   0.546   4.953   4.671
 8818SOL     OW27352   0.258   4.237   4.955
 8818SOL    HW127353   0.249   4.188   5.042
 8818SOL    HW227354   0.189   4.204   4.891
 8819SOL     OW27355   5.680   5.178   4.950
 8819SOL    HW127356   5.641   5.228   4.873
 8819SOL    HW227357   5.678   5.236   5.032
 8820SOL     OW27358   2.015   1.033   5.239
 8820SOL    HW127359   2.081   1.097   5.199
 8820SOL    HW227360   1.960   1.079   5.308
 8821SOL     OW27361   2.112   5.972   0.485
 8821SOL    HW127362   2.182   5.905   0.511
 8821SOL    HW227363   2.026   5.924   0.467
 8822SOL     OW27364   0.183   6.883   4.441
 8822SOL    HW127365   0.211   6.957   4.502
 8822SOL    HW227366   0.244   6.879   4.363
 8823SOL     OW27367   2.240   0.765   1.224
 8823SOL    HW127368   2.291   0.780   1.309
 8823SOL    HW227369   2.300   0.724   1.156
 8824SOL     OW27370   1.185   2.071   0.432
 8824SOL    HW127371   1.097   2.024   0.444
 8824SOL    HW227372   1.187   2.154   0.487
 8825SOL     OW27373   2.321   0.986   1.608
 8825SOL    HW127374   2.222   0.984   1.594
 8825SOL    HW227375   2.342   0.960   1.702
 8826SOL     OW27376   6.655   3.300   0.586
 8826SOL    HW127377   6.662   3.377   0.649
 8826SOL    HW227378   6.729   3.235   0.605
 8827SOL     OW27379   3.894   1.761   2.763
 8827SOL    HW127380   3.947   1.779   2.681
 8827SOL    HW227381   3.917   1.670   2.799
 8828SOL     OW27382   4.927   6.173   5.798
 8828SOL    HW127383   4.861   6.237   5.838
 8828SOL    HW227384   5.014   6.181   5.846
 8829SOL     OW27385   5.375   2.498   0.579
 8829SOL    HW127386   5.326   2.511   0.493
 8829SOL    HW227387   5.417   2.585   0.606
 8830SOL     OW27388   1.352   1.708   2.550
 8830SOL    HW127389   1.319   1.726   2.457
 8830SOL    HW227390   1.420   1.777   2.575
 8831SOL     OW27391   3.980   2.202   4.207
 8831SOL    HW127392   3.939   2.292   4.221
 8831SOL    HW227393   4.001   2.161   4.295
 8832SOL     OW27394   0.157   5.888   3.163
 8832SOL    HW127395   0.090   5.843   3.105
 8832SOL    HW227396   0.229   5.822   3.189
 8833SOL     OW27397   2.547   5.309   5.867
 8833SOL    HW127398   2.502   5.299   5.778
 8833SOL    HW227399   2.580   5.220   5.898
 8834SOL     OW27400   5.419   3.726   4.994
 8834SOL    HW127401   5.323   3.701   4.986
 8834SOL    HW227402   5.430   3.797   5.064
 8835SOL     OW27403   4.853   0.836   5.794
 8835SOL    HW127404   4.944   0.800   5.817
 8835SOL    HW227405   4.847   0.931   5.825
 8836SOL     OW27406   5.548   2.789   0.085
 8836SOL    HW127407   5.638   2.790   0.042
 8836SOL    HW227408   5.479   2.763   0.018
 8837SOL     OW27409   0.253   6.278   2.786
 8837SOL    HW127410   0.340   6.312   2.751
 8837SOL    HW227411   0.182   6.287   2.716
 8838SOL     OW27412   2.047   5.652   3.283
 8838SOL    HW127413   1.962   5.601   3.295
 8838SOL    HW227414   2.053   5.723   3.353
 8839SOL     OW27415   5.982   5.206   3.243
 8839SOL    HW127416   5.955   5.172   3.153
 8839SOL    HW227417   6.047   5.281   3.231
 8840SOL     OW27418   6.685   2.161   2.375
 8840SOL    HW127419   6.661   2.246   2.327
 8840SOL    HW227420   6.680   2.176   2.474
 8841SOL     OW27421   0.861   1.280   5.512
 8841SOL    HW127422   0.805   1.274   5.595
 8841SOL    HW227423   0.825   1.353   5.453
 8842SOL     OW27424   3.704   3.178   2.217
 8842SOL    HW127425   3.758   3.262   2.223
 8842SOL    HW227426   3.732   3.115   2.289
 8843SOL     OW27427   1.695   3.366   5.575
 8843SOL    HW127428   1.786   3.362   5.616
 8843SOL    HW227429   1.632   3.411   5.638
 8844SOL     OW27430   6.755   2.165   6.417
 8844SOL    HW127431   6.663   2.124   6.420
 8844SOL    HW227432   6.773   2.212   6.503
 8845SOL     OW27433   4.220   3.711   0.476
 8845SOL    HW127434   4.311   3.746   0.456
 8845SOL    HW227435   4.217   3.677   0.570
 8846SOL     OW27436   3.522   5.261   4.062
 8846SOL    HW127437   3.506   5.172   4.103
 8846SOL    HW227438   3.614   5.264   4.023
 8847SOL     OW27439   2.439   0.756   3.309
 8847SOL    HW127440   2.384   0.697   3.250
 8847SOL    HW227441   2.522   0.784   3.261
 8848SOL     OW27442   2.472   1.633   1.730
 8848SOL    HW127443   2.453   1.548   1.681
 8848SOL    HW227444   2.571   1.641   1.746
 8849SOL     OW27445   2.964   6.150   3.386
 8849SOL    HW127446   2.881   6.177   3.436
 8849SOL    HW227447   3.044   6.188   3.432
 8850SOL     OW27448   1.172   2.056   6.963
 8850SOL    HW127449   1.221   2.042   0.030
 8850SOL    HW227450   1.087   2.003   6.965
 8851SOL     OW27451   1.022   4.229   3.180
 8851SOL    HW127452   1.083   4.291   3.131
 8851SOL    HW227453   0.929   4.242   3.148
 8852SOL     OW27454   6.941   2.700   4.882
 8852SOL    HW127455   6.914   2.756   4.959
 8852SOL    HW227456   0.002   2.740   4.837
 8853SOL     OW27457   2.996   1.020   1.320
 8853SOL    HW127458   2.897   1.025   1.330
 8853SOL    HW227459   3.025   0.925   1.317
 8854SOL     OW27460   3.197   2.602   5.823
 8854SOL    HW127461   3.135   2.565   5.891
 8854SOL    HW227462   3.145   2.644   5.749
 8855SOL     OW27463   0.206   5.391   1.628
 8855SOL    HW127464   0.150   5.309   1.624
 8855SOL    HW227465   0.205   5.427   1.721
 8856SOL     OW27466   0.209   6.775   6.195
 8856SOL    HW127467   0.110   6.784   6.182
 8856SOL    HW227468   0.254   6.859   6.165
 8857SOL     OW27469   6.895   1.735   4.051
 8857SOL    HW127470   6.980   1.683   4.041
 8857SOL    HW227471   6.906   1.825   4.008
 8858SOL     OW27472   1.040   3.581   5.252
 8858SOL    HW127473   1.050   3.486   5.222
 8858SOL    HW227474   1.016   3.638   5.173
 8859SOL     OW27475   0.409   0.494   3.990
 8859SOL    HW127476   0.484   0.429   4.001
 8859SOL    HW227477   0.441   0.574   3.939
 8860SOL     OW27478   6.593   2.699   2.323
 8860SOL    HW127479   6.647   2.782   2.330
 8860SOL    HW227480   6.541   2.685   2.408
 8861SOL     OW27481   4.402   1.371   6.223
 8861SOL    HW127482   4.359   1.328   6.303
 8861SOL    HW227483   4.495   1.399   6.246
 8862SOL     OW27484   4.972   0.533   3.445
 8862SOL    HW127485   4.887   0.506   3.490
 8862SOL    HW227486   5.017   0.604   3.499
 8863SOL     OW27487   2.267   4.828   3.784
 8863SOL    HW127488   2.342   4.853   3.724
 8863SOL    HW227489   2.254   4.729   3.783
 8864SOL     OW27490   2.613   5.160   6.484
 8864SOL    HW127491   2.646   5.233   6.424
 8864SOL    HW227492   2.686   5.133   6.547
 8865SOL     OW27493   3.018   0.436   4.790
 8865SOL    HW127494   3.070   0.351   4.798
 8865SOL    HW227495   2.944   0.437   4.857
 8866SOL     OW27496   5.048   6.977   2.985
 8866SOL    HW127497   5.096   6.918   3.049
 8866SOL    HW227498   4.957   6.941   2.967
 8867SOL     OW27499   6.013   4.810   3.067
 8867SOL    HW127500   5.967   4.809   2.978
 8867SOL    HW227501   5.944   4.818   3.139
 8868SOL     OW27502   0.080   3.036   1.395
 8868SOL    HW127503   0.082   3.130   1.430
 8868SOL    HW227504   0.173   3.001   1.388
 8869SOL     OW27505   3.840   5.768   5.243
 8869SOL    HW127506   3.822   5.670   5.252
 8869SOL    HW227507   3.931   5.789   5.279
 8870SOL     OW27508   2.671   0.100   0.997
 8870SOL    HW127509   2.603   0.173   0.985
 8870SOL    HW227510   2.711   0.076   0.909
 8871SOL     OW27511   2.147   1.029   3.883
 8871SOL    HW127512   2.246   1.015   3.887
 8871SOL    HW227513   2.107   0.963   3.819
 8872SOL     OW27514   1.724   4.571   5.177
 8872SOL    HW127515   1.810   4.532   5.145
 8872SOL    HW227516   1.655   4.499   5.182
 8873SOL     OW27517   0.457   6.579   1.959
 8873SOL    HW127518   0.441   6.639   2.037
 8873SOL    HW227519   0.453   6.484   1.989
 8874SOL     OW27520   2.083   6.239   2.907
 8874SOL    HW127521   2.031   6.188   2.838
 8874SOL    HW227522   2.115   6.325   2.867
 8875SOL     OW27523   0.457   3.654   4.894
 8875SOL    HW127524   0.455   3.554   4.892
 8875SOL    HW227525   0.504   3.685   4.977
 8876SOL     OW27526   2.097   6.455   5.567
 8876SOL    HW127527   2.097   6.395   5.647
 8876SOL    HW227528   2.106   6.399   5.484
 8877SOL     OW27529   2.626   1.986   4.066
 8877SOL    HW127530   2.683   1.905   4.055
 8877SOL    HW227531   2.567   1.974   4.147
 8878SOL     OW27532   6.180   5.010   0.979
 8878SOL    HW127533   6.193   4.915   1.006
 8878SOL    HW227534   6.223   5.026   0.890
 8879SOL     OW27535   5.052   4.459   2.656
 8879SOL    HW127536   5.001   4.503   2.582
 8879SOL    HW227537   5.078   4.367   2.628
 8880SOL     OW27538   4.299   6.511   4.933
 8880SOL    HW127539   4.286   6.468   5.022
 8880SOL    HW227540   4.214   6.504   4.880
 8881SOL     OW27541   5.191   6.533   3.546
 8881SOL    HW127542   5.230   6.450   3.585
 8881SOL    HW227543   5.121   6.569   3.607
 8882SOL     OW27544   4.954   0.875   1.170
 8882SOL    HW127545   5.039   0.854   1.219
 8882SOL    HW227546   4.908   0.790   1.145
 8883SOL     OW27547   1.681   6.231   6.302
 8883SOL    HW127548   1.646   6.320   6.273
 8883SOL    HW227549   1.715   6.181   6.222
 8884SOL     OW27550   6.275   4.132   5.059
 8884SOL    HW127551   6.330   4.061   5.104
 8884SOL    HW227552   6.319   4.158   4.973
 8885SOL     OW27553   6.066   4.257   1.620
 8885SOL    HW127554   6.164   4.241   1.632
 8885SOL    HW227555   6.027   4.289   1.706
 8886SOL     OW27556   2.865   5.902   4.860
 8886SOL    HW127557   2.783   5.873   4.811
 8886SOL    HW227558   2.943   5.845   4.831
 8887SOL     OW27559   3.986   0.283   0.492
 8887SOL    HW127560   4.036   0.205   0.530
 8887SOL    HW227561   4.008   0.365   0.546
 8888SOL     OW27562   1.980   1.490   5.717
 8888SOL    HW127563   1.987   1.532   5.627
 8888SOL    HW227564   2.072   1.483   5.758
 8889SOL     OW27565   6.563   6.940   0.265
 8889SOL    HW127566   6.556   0.017   0.290
 8889SOL    HW227567   6.599   6.888   0.342
 8890SOL     OW27568   0.235   6.303   5.591
 8890SOL    HW127569   0.249   6.386   5.645
 8890SOL    HW227570   0.237   6.326   5.494
 8891SOL     OW27571   3.986   3.128   6.716
 8891SOL    HW127572   3.986   3.064   6.639
 8891SOL    HW227573   4.021   3.083   6.798
 8892SOL     OW27574   3.482   5.371   2.259
 8892SOL    HW127575   3.530   5.290   2.225
 8892SOL    HW227576   3.547   5.444   2.278
 8893SOL     OW27577   0.753   5.526   4.107
 8893SOL    HW127578   0.694   5.468   4.163
 8893SOL    HW227579   0.760   5.617   4.149
 8894SOL     OW27580   3.351   2.540   6.867
 8894SOL    HW127581   3.413   2.616   6.850
 8894SOL    HW227582   3.285   2.533   6.792
 8895SOL     OW27583   6.619   2.974   2.314
 8895SOL    HW127584   6.583   3.053   2.363
 8895SOL    HW227585   6.580   2.970   2.222
 8896SOL     OW27586   2.253   3.057   5.768
 8896SOL    HW127587   2.243   2.958   5.758
 8896SOL    HW227588   2.234   3.082   5.864
 8897SOL     OW27589   2.387   2.766   3.399
 8897SOL    HW127590   2.398   2.670   3.425
 8897SOL    HW227591   2.386   2.822   3.482
 8898SOL     OW27592   5.072   3.637   2.633
 8898SOL    HW127593   5.165   3.622   2.599
 8898SOL    HW227594   5.007   3.620   2.558
 8899SOL     OW27595   1.252   5.253   1.700
 8899SOL    HW127596   1.204   5.208   1.625
 8899SOL    HW227597   1.348   5.225   1.701
 8900SOL     OW27598   5.760   2.830   2.868
 8900SOL    HW127599   5.744   2.836   2.770
 8900SOL    HW227600   5.859   2.829   2.886
 8901SOL     OW27601   1.412   0.817   4.779
 8901SOL    HW127602   1.467   0.879   4.834
 8901SOL    HW227603   1.328   0.863   4.749
 8902SOL     OW27604   0.832   5.957   0.603
 8902SOL    HW127605   0.766   5.907   0.658
 8902SOL    HW227606   0.817   5.936   0.506
 8903SOL     OW27607   0.632   1.942   4.309
 8903SOL    HW127608   0.551   1.980   4.264
 8903SOL    HW227609   0.711   1.949   4.247
 8904SOL     OW27610   6.416   1.043   4.762
 8904SOL    HW127611   6.465   0.984   4.826
 8904SOL    HW227612   6.473   1.060   4.681
 8905SOL     OW27613   2.075   3.731   3.039
 8905SOL    HW127614   2.043   3.639   3.017
 8905SOL    HW227615   2.105   3.734   3.134
 8906SOL     OW27616   0.868   6.230   0.017
 8906SOL    HW127617   0.892   6.185   0.104
 8906SOL    HW227618   0.885   6.328   0.025
 8907SOL     OW27619   2.774   2.848   5.487
 8907SOL    HW127620   2.775   2.947   5.496
 8907SOL    HW227621   2.705   2.809   5.548
 8908SOL     OW27622   1.082   5.078   0.031
 8908SOL    HW127623   1.143   5.062   6.972
 8908SOL    HW227624   1.006   5.136   0.003
 8909SOL     OW27625   2.295   1.438   5.641
 8909SOL    HW127626   2.329   1.384   5.564
 8909SOL    HW227627   2.337   1.406   5.726
 8910SOL     OW27628   0.511   2.808   5.757
 8910SOL    HW127629   0.498   2.817   5.856
 8910SOL    HW227630   0.504   2.711   5.732
 8911SOL     OW27631   4.687   2.713   4.476
 8911SOL    HW127632   4.651   2.657   4.401
 8911SOL    HW227633   4.759   2.772   4.440
 8912SOL     OW27634   3.745   3.424   6.937
 8912SOL    HW127635   3.653   3.448   6.968
 8912SOL    HW227636   3.739   3.369   6.854
 8913SOL     OW27637   4.469   5.537   5.857
 8913SOL    HW127638   4.425   5.452   5.883
 8913SOL    HW227639   4.551   5.551   5.914
 8914SOL     OW27640   4.198   6.607   4.377
 8914SOL    HW127641   4.192   6.701   4.342
 8914SOL    HW227642   4.277   6.600   4.438
 8915SOL     OW27643   1.055   2.245   3.796
 8915SOL    HW127644   0.985   2.216   3.861
 8915SOL    HW227645   1.021   2.232   3.703
 8916SOL     OW27646   6.860   3.082   1.080
 8916SOL    HW127647   6.950   3.126   1.080
 8916SOL    HW227648   6.797   3.133   1.139
 8917SOL     OW27649   6.412   3.304   0.442
 8917SOL    HW127650   6.432   3.222   0.388
 8917SOL    HW227651   6.491   3.326   0.499
 8918SOL     OW27652   6.994   3.883   0.849
 8918SOL    HW127653   6.982   3.826   0.768
 8918SOL    HW227654   6.942   3.845   0.926
 8919SOL     OW27655   4.454   4.283   0.495
 8919SOL    HW127656   4.377   4.326   0.542
 8919SOL    HW227657   4.422   4.204   0.444
 8920SOL     OW27658   0.090   1.377   6.771
 8920SOL    HW127659   0.152   1.349   6.698
 8920SOL    HW227660   0.107   1.474   6.793
 8921SOL     OW27661   1.982   2.557   1.770
 8921SOL    HW127662   1.896   2.516   1.740
 8921SOL    HW227663   2.050   2.549   1.697
 8922SOL     OW27664   4.454   4.945   1.409
 8922SOL    HW127665   4.375   4.971   1.353
 8922SOL    HW227666   4.521   5.019   1.408
 8923SOL     OW27667   2.351   1.932   6.761
 8923SOL    HW127668   2.356   1.891   6.670
 8923SOL    HW227669   2.435   1.910   6.811
 8924SOL     OW27670   4.344   6.090   5.371
 8924SOL    HW127671   4.437   6.110   5.340
 8924SOL    HW227672   4.336   5.992   5.391
 8925SOL     OW27673   1.257   0.962   3.092
 8925SOL    HW127674   1.210   0.910   3.162
 8925SOL    HW227675   1.354   0.969   3.115
 8926SOL     OW27676   0.034   2.701   5.926
 8926SOL    HW127677   0.061   2.735   5.836
 8926SOL    HW227678   6.956   2.676   5.924
 8927SOL     OW27679   6.969   0.928   4.722
 8927SOL    HW127680   6.871   0.908   4.713
 8927SOL    HW227681   7.006   0.954   4.633
 8928SOL     OW27682   1.182   6.844   6.139
 8928SOL    HW127683   1.157   6.762   6.087
 8928SOL    HW227684   1.278   6.866   6.122
 8929SOL     OW27685   5.989   1.621   5.265
 8929SOL    HW127686   5.993   1.616   5.365
 8929SOL    HW227687   6.001   1.716   5.236
 8930SOL     OW27688   1.737   2.713   4.848
 8930SOL    HW127689   1.680   2.637   4.816
 8930SOL    HW227690   1.833   2.693   4.828
 8931SOL     OW27691   3.126   3.341   0.830
 8931SOL    HW127692   3.217   3.320   0.796
 8931SOL    HW227693   3.064   3.265   0.809
 8932SOL     OW27694   6.308   2.128   1.704
 8932SOL    HW127695   6.365   2.194   1.752
 8932SOL    HW227696   6.364   2.050   1.676
 8933SOL     OW27697   2.415   3.007   6.809
 8933SOL    HW127698   2.442   3.039   6.900
 8933SOL    HW227699   2.497   2.983   6.757
 8934SOL     OW27700   2.475   5.379   4.315
 8934SOL    HW127701   2.488   5.415   4.222
 8934SOL    HW227702   2.427   5.291   4.309
 8935SOL     OW27703   0.574   4.379   0.437
 8935SOL    HW127704   0.647   4.401   0.373
 8935SOL    HW227705   0.549   4.283   0.429
 8936SOL     OW27706   1.261   3.358   2.347
 8936SOL    HW127707   1.297   3.445   2.314
 8936SOL    HW227708   1.214   3.372   2.434
 8937SOL     OW27709   0.592   0.406   5.821
 8937SOL    HW127710   0.655   0.427   5.747
 8937SOL    HW227711   0.514   0.354   5.786
 8938SOL     OW27712   0.489   6.267   0.554
 8938SOL    HW127713   0.418   6.216   0.602
 8938SOL    HW227714   0.487   6.244   0.457
 8939SOL     OW27715   5.179   4.410   4.279
 8939SOL    HW127716   5.084   4.442   4.284
 8939SOL    HW227717   5.180   4.310   4.278
 8940SOL     OW27718   0.378   1.064   2.127
 8940SOL    HW127719   0.398   1.120   2.047
 8940SOL    HW227720   0.384   0.967   2.103
 8941SOL     OW27721   5.984   2.627   5.485
 8941SOL    HW127722   5.963   2.537   5.523
 8941SOL    HW227723   5.907   2.688   5.502
 8942SOL     OW27724   6.015   5.262   5.515
 8942SOL    HW127725   6.044   5.354   5.491
 8942SOL    HW227726   6.012   5.253   5.615
 8943SOL     OW27727   3.857   5.353   6.731
 8943SOL    HW127728   3.861   5.424   6.661
 8943SOL    HW227729   3.780   5.292   6.712
 8944SOL     OW27730   5.613   5.382   5.830
 8944SOL    HW127731   5.660   5.319   5.891
 8944SOL    HW227732   5.634   5.476   5.856
 8945SOL     OW27733   0.933   0.697   2.983
 8945SOL    HW127734   0.989   0.780   2.982
 8945SOL    HW227735   0.990   0.618   2.964
 8946SOL     OW27736   3.051   1.880   5.059
 8946SOL    HW127737   3.113   1.811   5.094
 8946SOL    HW227738   3.060   1.964   5.112
 8947SOL     OW27739   1.883   2.981   6.469
 8947SOL    HW127740   1.847   2.927   6.393
 8947SOL    HW227741   1.820   3.056   6.489
 8948SOL     OW27742   5.720   5.997   4.878
 8948SOL    HW127743   5.722   6.096   4.882
 8948SOL    HW227744   5.813   5.962   4.872
 8949SOL     OW27745   2.830   6.274   0.539
 8949SOL    HW127746   2.859   6.187   0.501
 8949SOL    HW227747   2.731   6.271   0.558
 8950SOL     OW27748   4.867   4.317   6.494
 8950SOL    HW127749   4.825   4.355   6.412
 8950SOL    HW227750   4.889   4.221   6.480
 8951SOL     OW27751   1.311   1.292   5.209
 8951SOL    HW127752   1.363   1.209   5.231
 8951SOL    HW227753   1.237   1.269   5.146
 8952SOL     OW27754   1.620   6.367   2.431
 8952SOL    HW127755   1.637   6.463   2.455
 8952SOL    HW227756   1.596   6.316   2.513
 8953SOL     OW27757   1.622   4.156   6.758
 8953SOL    HW127758   1.616   4.073   6.812
 8953SOL    HW227759   1.611   4.134   6.661
 8954SOL     OW27760   0.652   6.643   4.345
 8954SOL    HW127761   0.683   6.657   4.439
 8954SOL    HW227762   0.674   6.723   4.290
 8955SOL     OW27763   7.019   5.205   2.629
 8955SOL    HW127764   0.056   5.264   2.570
 8955SOL    HW227765   6.965   5.261   2.691
 8956SOL     OW27766   1.832   1.187   6.387
 8956SOL    HW127767   1.922   1.142   6.385
 8956SOL    HW227768   1.832   1.258   6.457
 8957SOL     OW27769   2.772   4.788   0.804
 8957SOL    HW127770   2.677   4.770   0.832
 8957SOL    HW227771   2.801   4.876   0.841
 8958SOL     OW27772   0.217   1.761   4.585
 8958SOL    HW127773   0.291   1.751   4.651
 8958SOL    HW227774   0.218   1.683   4.522
 8959SOL     OW27775   1.732   4.310   2.276
 8959SOL    HW127776   1.794   4.236   2.251
 8959SOL    HW227777   1.687   4.345   2.194
 8960SOL     OW27778   4.589   4.938   2.520
 8960SOL    HW127779   4.554   4.860   2.468
 8960SOL    HW227780   4.513   4.985   2.565
 8961SOL     OW27781   2.697   0.966   4.168
 8961SOL    HW127782   2.629   0.915   4.221
 8961SOL    HW227783   2.701   0.930   4.075
 8962SOL     OW27784   0.013   5.684   2.660
 8962SOL    HW127785   0.104   5.722   2.677
 8962SOL    HW227786   6.966   5.729   2.719
 8963SOL     OW27787   4.063   6.168   4.340
 8963SOL    HW127788   4.003   6.123   4.406
 8963SOL    HW227789   4.063   6.118   4.254
 8964SOL     OW27790   5.223   3.483   3.211
 8964SOL    HW127791   5.208   3.570   3.259
 8964SOL    HW227792   5.217   3.498   3.112
 8965SOL     OW27793   2.713   4.640   0.378
 8965SOL    HW127794   2.761   4.659   0.292
 8965SOL    HW227795   2.636   4.703   0.387
 8966SOL     OW27796   0.125   4.495   0.371
 8966SOL    HW127797   0.157   4.517   0.279
 8966SOL    HW227798   0.198   4.510   0.437
 8967SOL     OW27799   4.051   0.242   1.309
 8967SOL    HW127800   4.042   0.145   1.328
 8967SOL    HW227801   4.137   0.259   1.260
 8968SOL     OW27802   4.609   5.179   2.842
 8968SOL    HW127803   4.578   5.207   2.751
 8968SOL    HW227804   4.655   5.257   2.886
 8969SOL     OW27805   6.614   1.078   4.570
 8969SOL    HW127806   6.573   1.146   4.510
 8969SOL    HW227807   6.707   1.107   4.595
 8970SOL     OW27808   2.628   2.799   0.271
 8970SOL    HW127809   2.622   2.896   0.246
 8970SOL    HW227810   2.559   2.779   0.341
 8971SOL     OW27811   5.895   5.358   1.249
 8971SOL    HW127812   5.899   5.293   1.174
 8971SOL    HW227813   5.852   5.442   1.219
 8972SOL     OW27814   5.257   4.221   0.100
 8972SOL    HW127815   5.222   4.180   0.015
 8972SOL    HW227816   5.286   4.315   0.082
 8973SOL     OW27817   0.607   2.808   2.557
 8973SOL    HW127818   0.556   2.860   2.626
 8973SOL    HW227819   0.659   2.735   2.602
 8974SOL     OW27820   1.511   4.551   4.955
 8974SOL    HW127821   1.426   4.562   4.903
 8974SOL    HW227822   1.530   4.636   5.005
 8975SOL     OW27823   1.454   6.539   5.888
 8975SOL    HW127824   1.432   6.556   5.792
 8975SOL    HW227825   1.387   6.476   5.927
 8976SOL     OW27826   6.737   5.289   5.657
 8976SOL    HW127827   6.658   5.270   5.716
 8976SOL    HW227828   6.708   5.352   5.584
 8977SOL     OW27829   6.320   2.833   7.004
 8977SOL    HW127830   6.356   2.922   6.975
 8977SOL    HW227831   6.393   2.780   0.028
 8978SOL     OW27832   5.412   6.739   3.790
 8978SOL    HW127833   5.375   6.757   3.699
 8978SOL    HW227834   5.391   6.816   3.850
 8979SOL     OW27835   1.167   4.146   4.583
 8979SOL    HW127836   1.138   4.212   4.513
 8979SOL    HW227837   1.262   4.120   4.567
 8980SOL     OW27838   3.777   2.639   5.348
 8980SOL    HW127839   3.764   2.737   5.333
 8980SOL    HW227840   3.853   2.624   5.411
 8981SOL     OW27841   3.864   1.002   5.856
 8981SOL    HW127842   3.808   0.970   5.779
 8981SOL    HW227843   3.909   1.087   5.831
 8982SOL     OW27844   0.731   2.050   1.691
 8982SOL    HW127845   0.754   2.140   1.727
 8982SOL    HW227846   0.689   1.994   1.763
 8983SOL     OW27847   0.897   5.676   6.769
 8983SOL    HW127848   0.988   5.698   6.735
 8983SOL    HW227849   0.904   5.629   6.857
 8984SOL     OW27850   6.496   6.888   3.704
 8984SOL    HW127851   6.426   6.919   3.769
 8984SOL    HW227852   6.469   6.916   3.612
 8985SOL     OW27853   2.687   1.895   0.744
 8985SOL    HW127854   2.779   1.877   0.780
 8985SOL    HW227855   2.691   1.974   0.682
 8986SOL     OW27856   4.387   5.003   1.690
 8986SOL    HW127857   4.440   5.008   1.606
 8986SOL    HW227858   4.396   4.911   1.730
 8987SOL     OW27859   5.235   6.732   1.005
 8987SOL    HW127860   5.206   6.751   0.911
 8987SOL    HW227861   5.303   6.799   1.034
 8988SOL     OW27862   1.206   3.630   6.387
 8988SOL    HW127863   1.275   3.683   6.437
 8988SOL    HW227864   1.242   3.605   6.298
 8989SOL     OW27865   4.768   3.972   1.881
 8989SOL    HW127866   4.851   3.999   1.930
 8989SOL    HW227867   4.790   3.900   1.815
 8990SOL     OW27868   1.970   5.778   3.045
 8990SOL    HW127869   1.889   5.726   3.017
 8990SOL    HW227870   2.015   5.731   3.122
 8991SOL     OW27871   1.572   1.686   6.529
 8991SOL    HW127872   1.667   1.709   6.509
 8991SOL    HW227873   1.528   1.763   6.576
 8992SOL     OW27874   6.205   2.067   0.108
 8992SOL    HW127875   6.155   1.999   0.054
 8992SOL    HW227876   6.298   2.076   0.072
 8993SOL     OW27877   4.513   2.401   2.339
 8993SOL    HW127878   4.436   2.407   2.402
 8993SOL    HW227879   4.518   2.309   2.300
 8994SOL     OW27880   1.436   5.144   4.639
 8994SOL    HW127881   1.462   5.089   4.718
 8994SOL    HW227882   1.518   5.184   4.598
 8995SOL     OW27883   0.738   2.297   6.884
 8995SOL    HW127884   0.819   2.298   6.943
 8995SOL    HW227885   0.658   2.325   6.937
 8996SOL     OW27886   6.378   5.091   1.388
 8996SOL    HW127887   6.445   5.031   1.345
 8996SOL    HW227888   6.404   5.187   1.372
 8997SOL     OW27889   4.597   1.216   5.991
 8997SOL    HW127890   4.574   1.287   5.924
 8997SOL    HW227891   4.560   1.128   5.960
 8998SOL     OW27892   6.780   3.865   4.916
 8998SOL    HW127893   6.726   3.795   4.962
 8998SOL    HW227894   6.816   3.829   4.830
 8999SOL     OW27895   5.081   5.966   0.161
 8999SOL    HW127896   5.064   5.876   0.200
 8999SOL    HW227897   5.112   6.028   0.233
 9000SOL     OW27898   2.341   3.952   0.715
 9000SOL    HW127899   2.257   3.957   0.769
 9000SOL    HW227900   2.419   3.944   0.776
 9001SOL     OW27901   0.894   5.286   2.658
 9001SOL    HW127902   0.855   5.375   2.633
 9001SOL    HW227903   0.968   5.263   2.594
 9002SOL     OW27904   0.353   5.193   5.240
 9002SOL    HW127905   0.373   5.096   5.244
 9002SOL    HW227906   0.274   5.209   5.180
 9003SOL     OW27907   5.181   2.789   1.054
 9003SOL    HW127908   5.232   2.799   0.969
 9003SOL    HW227909   5.150   2.694   1.063
 9004SOL     OW27910   4.223   6.438   1.242
 9004SOL    HW127911   4.275   6.354   1.255
 9004SOL    HW227912   4.280   6.517   1.266
 9005SOL     OW27913   5.383   2.470   4.412
 9005SOL    HW127914   5.337   2.431   4.492
 9005SOL    HW227915   5.352   2.564   4.397
 9006SOL     OW27916   2.795   6.609   0.722
 9006SOL    HW127917   2.784   6.661   0.807
 9006SOL    HW227918   2.842   6.523   0.742
 9007SOL     OW27919   3.762   1.019   4.214
 9007SOL    HW127920   3.760   0.940   4.276
 9007SOL    HW227921   3.710   0.997   4.131
 9008SOL     OW27922   1.075   5.882   3.068
 9008SOL    HW127923   0.993   5.829   3.093
 9008SOL    HW227924   1.153   5.847   3.119
 9009SOL     OW27925   3.088   0.789   0.419
 9009SOL    HW127926   3.005   0.735   0.433
 9009SOL    HW227927   3.166   0.742   0.461
 9010SOL     OW27928   1.434   6.385   3.752
 9010SOL    HW127929   1.334   6.387   3.758
 9010SOL    HW227930   1.465   6.291   3.743
 9011SOL     OW27931   5.003   2.497   1.959
 9011SOL    HW127932   5.024   2.591   1.986
 9011SOL    HW227933   4.912   2.472   1.994
 9012SOL     OW27934   2.683   4.186   1.394
 9012SOL    HW127935   2.766   4.228   1.358
 9012SOL    HW227936   2.702   4.149   1.485
 9013SOL     OW27937   6.792   6.276   5.357
 9013SOL    HW127938   6.801   6.354   5.419
 9013SOL    HW227939   6.719   6.216   5.391
 9014SOL     OW27940   6.850   1.968   0.182
 9014SOL    HW127941   6.878   2.045   0.125
 9014SOL    HW227942   6.896   1.885   0.150
 9015SOL     OW27943   5.437   1.775   1.103
 9015SOL    HW127944   5.451   1.872   1.084
 9015SOL    HW227945   5.450   1.757   1.200
 9016SOL     OW27946   0.879   6.928   6.525
 9016SOL    HW127947   0.881   0.006   6.551
 9016SOL    HW227948   0.861   6.873   6.606
 9017SOL     OW27949   4.265   1.949   2.619
 9017SOL    HW127950   4.262   1.985   2.712
 9017SOL    HW227951   4.226   2.015   2.556
 9018SOL     OW27952   3.941   1.929   0.090
 9018SOL    HW127953   3.999   2.006   0.064
 9018SOL    HW227954   3.998   1.848   0.105
 9019SOL     OW27955   1.497   0.217   2.171
 9019SOL    HW127956   1.594   0.194   2.171
 9019SOL    HW227957   1.486   0.311   2.136
 9020SOL     OW27958   0.880   4.048   1.584
 9020SOL    HW127959   0.867   3.949   1.570
 9020SOL    HW227960   0.973   4.073   1.557
 9021SOL     OW27961   6.513   0.139   4.254
 9021SOL    HW127962   6.575   0.153   4.331
 9021SOL    HW227963   6.420   0.164   4.282
 9022SOL     OW27964   3.095   2.253   0.170
 9022SOL    HW127965   3.167   2.314   0.136
 9022SOL    HW227966   3.027   2.306   0.220
 9023SOL     OW27967   3.083   3.135   2.555
 9023SOL    HW127968   3.039   3.133   2.645
 9023SOL    HW227969   3.167   3.189   2.560
 9024SOL     OW27970   0.338   4.722   5.104
 9024SOL    HW127971   0.387   4.720   5.017
 9024SOL    HW227972   0.387   4.666   5.171
 9025SOL     OW27973   0.554   5.079   0.304
 9025SOL    HW127974   0.591   5.166   0.271
 9025SOL    HW227975   0.630   5.019   0.328
 9026SOL     OW27976   4.439   3.333   1.436
 9026SOL    HW127977   4.448   3.236   1.458
 9026SOL    HW227978   4.377   3.376   1.502
 9027SOL     OW27979   1.079   2.591   4.276
 9027SOL    HW127980   1.129   2.570   4.360
 9027SOL    HW227981   1.096   2.520   4.208
 9028SOL     OW27982   2.514   3.299   5.741
 9028SOL    HW127983   2.529   3.202   5.725
 9028SOL    HW227984   2.602   3.344   5.759
 9029SOL     OW27985   3.459   6.219   5.266
 9029SOL    HW127986   3.366   6.195   5.240
 9029SOL    HW227987   3.463   6.238   5.364
 9030SOL     OW27988   1.861   1.852   3.541
 9030SOL    HW127989   1.933   1.831   3.475
 9030SOL    HW227990   1.902   1.894   3.623
 9031SOL     OW27991   4.135   5.979   4.749
 9031SOL    HW127992   4.213   5.977   4.686
 9031SOL    HW227993   4.169   5.986   4.843
 9032SOL     OW27994   4.245   3.497   0.321
 9032SOL    HW127995   4.153   3.459   0.311
 9032SOL    HW227996   4.240   3.588   0.362
 9033SOL     OW27997   0.842   3.674   3.502
 9033SOL    HW127998   0.755   3.722   3.505
 9033SOL    HW227999   0.901   3.706   3.576
 9034SOL     OW28000   2.740   0.119   5.782
 9034SOL    HW128001   2.817   0.168   5.822
 9034SOL    HW228002   2.774   0.047   5.721
 9035SOL     OW28003   1.479   4.893   5.780
 9035SOL    HW128004   1.451   4.875   5.873
 9035SOL    HW228005   1.399   4.900   5.721
 9036SOL     OW28006   1.828   1.328   5.396
 9036SOL    HW128007   1.753   1.350   5.459
 9036SOL    HW228008   1.896   1.402   5.399
 9037SOL     OW28009   1.445   3.980   5.253
 9037SOL    HW128010   1.487   4.034   5.326
 9037SOL    HW228011   1.449   4.031   5.167
 9038SOL     OW28012   4.342   6.762   5.838
 9038SOL    HW128013   4.391   6.677   5.857
 9038SOL    HW228014   4.329   6.813   5.924
 9039SOL     OW28015   2.939   5.225   4.956
 9039SOL    HW128016   2.892   5.314   4.966
 9039SOL    HW228017   3.006   5.215   5.029
 9040SOL     OW28018   3.183   1.783   2.771
 9040SOL    HW128019   3.165   1.808   2.676
 9040SOL    HW228020   3.100   1.797   2.825
 9041SOL     OW28021   1.046   2.530   1.440
 9041SOL    HW128022   1.010   2.623   1.451
 9041SOL    HW228023   1.107   2.508   1.516
 9042SOL     OW28024   2.883   0.213   4.021
 9042SOL    HW128025   2.834   0.291   4.058
 9042SOL    HW228026   2.955   0.185   4.085
 9043SOL     OW28027   1.186   1.061   0.226
 9043SOL    HW128028   1.115   0.991   0.220
 9043SOL    HW228029   1.153   1.137   0.282
 9044SOL     OW28030   6.137   1.142   0.728
 9044SOL    HW128031   6.068   1.185   0.786
 9044SOL    HW228032   6.205   1.210   0.702
 9045SOL     OW28033   2.377   1.705   2.749
 9045SOL    HW128034   2.301   1.682   2.811
 9045SOL    HW228035   2.347   1.776   2.685
 9046SOL     OW28036   3.797   3.678   3.496
 9046SOL    HW128037   3.732   3.617   3.452
 9046SOL    HW228038   3.786   3.672   3.596
 9047SOL     OW28039   1.440   3.054   5.660
 9047SOL    HW128040   1.354   3.049   5.609
 9047SOL    HW228041   1.515   3.075   5.597
 9048SOL     OW28042   5.535   2.700   6.293
 9048SOL    HW128043   5.502   2.660   6.379
 9048SOL    HW228044   5.574   2.627   6.236
 9049SOL     OW28045   3.765   6.968   5.774
 9049SOL    HW128046   3.842   6.976   5.838
 9049SOL    HW228047   3.775   6.884   5.721
 9050SOL     OW28048   0.454   3.339   0.215
 9050SOL    HW128049   0.444   3.280   0.135
 9050SOL    HW228050   0.548   3.334   0.249
 9051SOL     OW28051   4.133   6.221   0.604
 9051SOL    HW128052   4.210   6.267   0.648
 9051SOL    HW228053   4.082   6.287   0.548
 9052SOL     OW28054   2.127   2.424   3.847
 9052SOL    HW128055   2.185   2.379   3.780
 9052SOL    HW228056   2.183   2.452   3.926
 9053SOL     OW28057   2.161   1.579   2.887
 9053SOL    HW128058   2.135   1.644   2.958
 9053SOL    HW228059   2.095   1.505   2.884
 9054SOL     OW28060   2.438   5.823   2.826
 9054SOL    HW128061   2.371   5.755   2.797
 9054SOL    HW228062   2.393   5.888   2.888
 9055SOL     OW28063   5.542   3.044   4.153
 9055SOL    HW128064   5.544   2.966   4.216
 9055SOL    HW228065   5.626   3.045   4.099
 9056SOL     OW28066   0.372   1.218   2.322
 9056SOL    HW128067   0.344   1.152   2.253
 9056SOL    HW228068   0.298   1.284   2.337
 9057SOL     OW28069   5.621   5.050   5.582
 9057SOL    HW128070   5.659   5.113   5.514
 9057SOL    HW228071   5.661   4.960   5.570
 9058SOL     OW28072   2.798   2.151   2.704
 9058SOL    HW128073   2.738   2.090   2.652
 9058SOL    HW228074   2.870   2.186   2.644
 9059SOL     OW28075   1.078   2.125   4.350
 9059SOL    HW128076   1.038   2.043   4.391
 9059SOL    HW228077   1.175   2.129   4.372
 9060SOL     OW28078   6.313   2.739   3.450
 9060SOL    HW128079   6.394   2.681   3.455
 9060SOL    HW228080   6.251   2.715   3.524
 9061SOL     OW28081   2.598   5.795   2.111
 9061SOL    HW128082   2.672   5.728   2.111
 9061SOL    HW228083   2.519   5.757   2.062
 9062SOL     OW28084   1.705   6.034   1.850
 9062SOL    HW128085   1.643   6.061   1.924
 9062SOL    HW228086   1.787   6.091   1.852
 9063SOL     OW28087   1.745   0.252   3.300
 9063SOL    HW128088   1.816   0.267   3.232
 9063SOL    HW228089   1.743   0.156   3.327
 9064SOL     OW28090   6.165   2.104   5.117
 9064SOL    HW128091   6.238   2.040   5.094
 9064SOL    HW228092   6.187   2.149   5.204
 9065SOL     OW28093   3.172   6.980   5.706
 9065SOL    HW128094   3.214   6.890   5.697
 9065SOL    HW228095   3.189   7.016   5.798
 9066SOL     OW28096   4.784   6.303   0.658
 9066SOL    HW128097   4.834   6.225   0.619
 9066SOL    HW228098   4.745   6.357   0.584
 9067SOL     OW28099   6.639   0.755   4.265
 9067SOL    HW128100   6.571   0.694   4.307
 9067SOL    HW228101   6.726   0.706   4.257
 9068SOL     OW28102   2.013   6.288   4.733
 9068SOL    HW128103   2.078   6.359   4.761
 9068SOL    HW228104   1.921   6.327   4.730
 9069SOL     OW28105   1.641   3.091   1.831
 9069SOL    HW128106   1.597   3.005   1.806
 9069SOL    HW228107   1.726   3.101   1.779
 9070SOL     OW28108   1.386   4.111   5.019
 9070SOL    HW128109   1.325   4.180   4.979
 9070SOL    HW228110   1.461   4.092   4.956
 9071SOL     OW28111   5.217   0.404   1.474
 9071SOL    HW128112   5.177   0.312   1.469
 9071SOL    HW228113   5.198   0.453   1.389
 9072SOL     OW28114   0.439   1.413   2.112
 9072SOL    HW128115   0.348   1.448   2.089
 9072SOL    HW228116   0.436   1.370   2.202
 9073SOL     OW28117   2.880   6.852   2.441
 9073SOL    HW128118   2.881   6.951   2.448
 9073SOL    HW228119   2.820   6.824   2.366
 9074SOL     OW28120   1.682   1.739   1.743
 9074SOL    HW128121   1.765   1.698   1.780
 9074SOL    HW228122   1.605   1.677   1.760
 9075SOL     OW28123   0.890   1.085   2.267
 9075SOL    HW128124   0.967   1.142   2.236
 9075SOL    HW228125   0.808   1.142   2.272
 9076SOL     OW28126   6.136   2.205   5.686
 9076SOL    HW128127   6.183   2.255   5.759
 9076SOL    HW228128   6.106   2.116   5.720
 9077SOL     OW28129   4.828   0.314   0.110
 9077SOL    HW128130   4.747   0.270   0.071
 9077SOL    HW228131   4.909   0.286   0.058
 9078SOL     OW28132   4.451   3.794   6.023
 9078SOL    HW128133   4.467   3.707   5.976
 9078SOL    HW228134   4.458   3.780   6.122
 9079SOL     OW28135   3.195   0.449   4.490
 9079SOL    HW128136   3.205   0.455   4.390
 9079SOL    HW228137   3.252   0.375   4.525
 9080SOL     OW28138   4.568   2.501   6.875
 9080SOL    HW128139   4.516   2.443   6.937
 9080SOL    HW228140   4.513   2.580   6.849
 9081SOL     OW28141   3.746   6.479   2.442
 9081SOL    HW128142   3.681   6.551   2.464
 9081SOL    HW228143   3.809   6.511   2.371
 9082SOL     OW28144   2.002   0.293   5.808
 9082SOL    HW128145   1.980   0.251   5.896
 9082SOL    HW228146   1.938   0.260   5.739
 9083SOL     OW28147   3.182   6.149   6.092
 9083SOL    HW128148   3.132   6.234   6.079
 9083SOL    HW228149   3.131   6.073   6.052
 9084SOL     OW28150   3.131   4.008   4.429
 9084SOL    HW128151   3.048   3.958   4.404
 9084SOL    HW228152   3.202   3.991   4.361
 9085SOL     OW28153   2.510   6.205   1.510
 9085SOL    HW128154   2.525   6.131   1.576
 9085SOL    HW228155   2.449   6.272   1.550
 9086SOL     OW28156   1.079   4.247   0.417
 9086SOL    HW128157   1.055   4.198   0.500
 9086SOL    HW228158   1.165   4.211   0.381
 9087SOL     OW28159   4.406   2.267   1.613
 9087SOL    HW128160   4.468   2.247   1.688
 9087SOL    HW228161   4.332   2.326   1.646
 9088SOL     OW28162   6.641   6.784   0.988
 9088SOL    HW128163   6.639   6.753   0.893
 9088SOL    HW228164   6.650   6.704   1.048
 9089SOL     OW28165   4.966   5.808   5.387
 9089SOL    HW128166   5.064   5.786   5.380
 9089SOL    HW228167   4.912   5.728   5.359
 9090SOL     OW28168   0.241   1.118   4.214
 9090SOL    HW128169   0.292   1.143   4.296
 9090SOL    HW228170   0.239   1.196   4.151
 9091SOL     OW28171   3.275   4.333   6.783
 9091SOL    HW128172   3.293   4.364   6.877
 9091SOL    HW228173   3.269   4.412   6.722
 9092SOL     OW28174   6.886   0.967   0.202
 9092SOL    HW128175   6.809   0.949   0.263
 9092SOL    HW228176   6.873   0.917   0.116
 9093SOL     OW28177   0.996   6.204   5.985
 9093SOL    HW128178   0.910   6.254   5.987
 9093SOL    HW228179   1.056   6.239   6.057
 9094SOL     OW28180   6.751   5.034   3.044
 9094SOL    HW128181   6.774   5.110   2.982
 9094SOL    HW228182   6.656   5.043   3.073
 9095SOL     OW28183   4.915   4.528   5.939
 9095SOL    HW128184   4.852   4.605   5.931
 9095SOL    HW228185   4.924   4.482   5.851
 9096SOL     OW28186   5.915   5.087   2.951
 9096SOL    HW128187   5.822   5.091   2.915
 9096SOL    HW228188   5.980   5.110   2.879
 9097SOL     OW28189   1.237   1.764   0.790
 9097SOL    HW128190   1.308   1.724   0.848
 9097SOL    HW228191   1.227   1.710   0.706
 9098SOL     OW28192   3.249   2.007   4.837
 9098SOL    HW128193   3.281   2.037   4.927
 9098SOL    HW228194   3.160   2.047   4.818
 9099SOL     OW28195   3.484   3.005   5.794
 9099SOL    HW128196   3.411   3.035   5.732
 9099SOL    HW228197   3.568   3.054   5.772
 9100SOL     OW28198   0.360   3.044   3.477
 9100SOL    HW128199   0.375   2.969   3.541
 9100SOL    HW228200   0.445   3.064   3.429
 9101SOL     OW28201   2.679   2.378   1.777
 9101SOL    HW128202   2.640   2.470   1.777
 9101SOL    HW228203   2.773   2.381   1.812
 9102SOL     OW28204   3.390   6.056   1.721
 9102SOL    HW128205   3.410   6.068   1.819
 9102SOL    HW228206   3.427   5.968   1.691
 9103SOL     OW28207   6.125   2.883   6.424
 9103SOL    HW128208   6.161   2.963   6.473
 9103SOL    HW228209   6.118   2.904   6.326
 9104SOL     OW28210   0.022   5.922   2.070
 9104SOL    HW128211   0.099   5.879   2.022
 9104SOL    HW228212   0.015   6.018   2.042
 9105SOL     OW28213   0.485   1.247   6.462
 9105SOL    HW128214   0.556   1.181   6.440
 9105SOL    HW228215   0.492   1.326   6.401
 9106SOL     OW28216   6.177   4.293   1.308
 9106SOL    HW128217   6.162   4.195   1.314
 9106SOL    HW228218   6.137   4.338   1.389
 9107SOL     OW28219   2.546   0.527   6.721
 9107SOL    HW128220   2.633   0.486   6.695
 9107SOL    HW228221   2.482   0.522   6.645
 9108SOL     OW28222   5.248   4.641   5.033
 9108SOL    HW128223   5.150   4.623   5.042
 9108SOL    HW228224   5.262   4.723   4.977
 9109SOL     OW28225   6.620   3.532   3.284
 9109SOL    HW128226   6.637   3.597   3.358
 9109SOL    HW228227   6.698   3.532   3.221
 9110SOL     OW28228   2.147   4.758   4.352
 9110SOL    HW128229   2.081   4.732   4.422
 9110SOL    HW228230   2.239   4.736   4.383
 9111SOL     OW28231   4.944   2.724   0.160
 9111SOL    HW128232   4.847   2.697   0.165
 9111SOL    HW228233   4.974   2.757   0.249
 9112SOL     OW28234   1.702   5.982   2.764
 9112SOL    HW128235   1.717   6.068   2.715
 9112SOL    HW228236   1.677   5.910   2.699
 9113SOL     OW28237   5.119   2.719   2.440
 9113SOL    HW128238   5.160   2.806   2.410
 9113SOL    HW228239   5.050   2.738   2.509
 9114SOL     OW28240   0.145   5.569   3.500
 9114SOL    HW128241   0.147   5.537   3.405
 9114SOL    HW228242   0.051   5.594   3.525
 9115SOL     OW28243   6.468   5.544   5.093
 9115SOL    HW128244   6.487   5.492   5.009
 9115SOL    HW228245   6.403   5.493   5.150
 9116SOL     OW28246   0.523   7.014   2.969
 9116SOL    HW128247   0.590   0.060   3.005
 9116SOL    HW228248   0.571   6.935   2.931
 9117SOL     OW28249   3.383   2.799   5.940
 9117SOL    HW128250   3.321   2.750   5.879
 9117SOL    HW228251   3.445   2.856   5.886
 9118SOL     OW28252   6.591   3.616   6.774
 9118SOL    HW128253   6.636   3.703   6.791
 9118SOL    HW228254   6.577   3.568   6.860
 9119SOL     OW28255   3.497   0.863   2.297
 9119SOL    HW128256   3.526   0.902   2.384
 9119SOL    HW228257   3.575   0.816   2.255
 9120SOL     OW28258   0.090   2.247   5.907
 9120SOL    HW128259   0.106   2.241   5.808
 9120SOL    HW228260   0.162   2.197   5.955
 9121SOL     OW28261   3.380   6.354   4.810
 9121SOL    HW128262   3.293   6.310   4.786
 9121SOL    HW228263   3.433   6.293   4.869
 9122SOL     OW28264   2.393   4.489   2.100
 9122SOL    HW128265   2.485   4.529   2.090
 9122SOL    HW228266   2.361   4.504   2.193
 9123SOL     OW28267   1.950   0.685   4.387
 9123SOL    HW128268   1.910   0.645   4.304
 9123SOL    HW228269   2.014   0.757   4.361
 9124SOL     OW28270   3.894   5.259   0.432
 9124SOL    HW128271   3.815   5.317   0.410
 9124SOL    HW228272   3.929   5.285   0.522
 9125SOL     OW28273   4.335   4.686   1.026
 9125SOL    HW128274   4.389   4.767   1.004
 9125SOL    HW228275   4.246   4.713   1.062
 9126SOL     OW28276   5.585   4.057   1.654
 9126SOL    HW128277   5.599   3.974   1.600
 9126SOL    HW228278   5.516   4.114   1.610
 9127SOL     OW28279   6.598   1.662   5.875
 9127SOL    HW128280   6.611   1.588   5.941
 9127SOL    HW228281   6.505   1.698   5.882
 9128SOL     OW28282   6.385   2.341   5.272
 9128SOL    HW128283   6.383   2.247   5.239
 9128SOL    HW228284   6.294   2.367   5.306
 9129SOL     OW28285   6.456   2.273   0.357
 9129SOL    HW128286   6.513   2.191   0.346
 9129SOL    HW228287   6.444   2.292   0.454
 9130SOL     OW28288   1.532   4.432   6.506
 9130SOL    HW128289   1.561   4.458   6.598
 9130SOL    HW228290   1.582   4.350   6.477
 9131SOL     OW28291   5.518   3.307   6.135
 9131SOL    HW128292   5.430   3.355   6.136
 9131SOL    HW228293   5.534   3.266   6.225
 9132SOL     OW28294   0.858   5.042   4.233
 9132SOL    HW128295   0.766   5.079   4.244
 9132SOL    HW228296   0.910   5.055   4.317
 9133SOL     OW28297   3.678   6.974   0.953
 9133SOL    HW128298   3.663   6.895   1.012
 9133SOL    HW228299   3.768   7.013   0.971
 9134SOL     OW28300   3.913   5.281   1.002
 9134SOL    HW128301   3.850   5.256   0.929
 9134SOL    HW228302   3.880   5.364   1.047
 9135SOL     OW28303   0.805   0.169   1.643
 9135SOL    HW128304   0.787   0.071   1.636
 9135SOL    HW228305   0.719   0.219   1.644
 9136SOL     OW28306   4.722   6.326   5.897
 9136SOL    HW128307   4.665   6.397   5.854
 9136SOL    HW228308   4.678   6.294   5.980
 9137SOL     OW28309   4.070   0.323   6.959
 9137SOL    HW128310   4.169   0.324   6.972
 9137SOL    HW228311   4.026   0.358   0.022
 9138SOL     OW28312   0.848   4.297   6.732
 9138SOL    HW128313   0.946   4.299   6.753
 9138SOL    HW228314   0.811   4.389   6.737
 9139SOL     OW28315   1.203   1.210   2.401
 9139SOL    HW128316   1.174   1.143   2.469
 9139SOL    HW228317   1.165   1.300   2.423
 9140SOL     OW28318   0.871   4.008   2.085
 9140SOL    HW128319   0.837   4.100   2.104
 9140SOL    HW228320   0.814   3.964   2.016
 9141SOL     OW28321   6.119   6.668   1.280
 9141SOL    HW128322   6.051   6.736   1.307
 9141SOL    HW228323   6.081   6.576   1.291
 9142SOL     OW28324   0.881   4.088   1.184
 9142SOL    HW128325   0.898   4.179   1.222
 9142SOL    HW228326   0.786   4.061   1.202
 9143SOL     OW28327   6.982   3.509   0.866
 9143SOL    HW128328   6.961   3.582   0.801
 9143SOL    HW228329   6.912   3.506   0.937
 9144SOL     OW28330   3.544   5.336   4.519
 9144SOL    HW128331   3.573   5.286   4.602
 9144SOL    HW228332   3.448   5.361   4.528
 9145SOL     OW28333   0.437   6.101   6.427
 9145SOL    HW128334   0.362   6.035   6.418
 9145SOL    HW228335   0.520   6.053   6.457
 9146SOL     OW28336   5.209   3.591   2.973
 9146SOL    HW128337   5.241   3.502   2.940
 9146SOL    HW228338   5.275   3.661   2.944
 9147SOL     OW28339   6.754   0.525   5.346
 9147SOL    HW128340   6.832   0.464   5.359
 9147SOL    HW228341   6.723   0.521   5.251
 9148SOL     OW28342   5.671   6.657   2.523
 9148SOL    HW128343   5.639   6.585   2.461
 9148SOL    HW228344   5.770   6.664   2.518
 9149SOL     OW28345   5.400   3.452   1.849
 9149SOL    HW128346   5.335   3.430   1.922
 9149SOL    HW228347   5.400   3.550   1.832
 9150SOL     OW28348   3.431   4.228   0.209
 9150SOL    HW128349   3.362   4.268   0.268
 9150SOL    HW228350   3.486   4.162   0.261
 9151SOL     OW28351   2.421   4.365   3.296
 9151SOL    HW128352   2.415   4.268   3.273
 9151SOL    HW228353   2.330   4.405   3.296
 9152SOL     OW28354   2.110   3.827   4.618
 9152SOL    HW128355   2.147   3.919   4.632
 9152SOL    HW228356   2.152   3.787   4.536
 9153SOL     OW28357   0.188   2.846   6.776
 9153SOL    HW128358   0.125   2.812   6.707
 9153SOL    HW228359   0.162   2.940   6.802
 9154SOL     OW28360   4.565   4.450   4.362
 9154SOL    HW128361   4.468   4.470   4.372
 9154SOL    HW228362   4.608   4.449   4.452
 9155SOL     OW28363   2.396   4.957   2.578
 9155SOL    HW128364   2.368   5.046   2.611
 9155SOL    HW228365   2.452   4.911   2.647
 9156SOL     OW28366   6.715   2.007   1.570
 9156SOL    HW128367   6.786   2.075   1.589
 9156SOL    HW228368   6.688   2.013   1.474
 9157SOL     OW28369   3.336   4.037   6.761
 9157SOL    HW128370   3.302   4.130   6.757
 9157SOL    HW228371   3.288   3.980   6.694
 9158SOL     OW28372   6.576   3.643   4.178
 9158SOL    HW128373   6.634   3.672   4.102
 9158SOL    HW228374   6.599   3.697   4.259
 9159SOL     OW28375   2.067   6.989   4.050
 9159SOL    HW128376   2.160   6.964   4.022
 9159SOL    HW228377   2.001   6.940   3.994
 9160SOL     OW28378   0.337   5.902   5.859
 9160SOL    HW128379   0.310   5.998   5.855
 9160SOL    HW228380   0.256   5.844   5.870
 9161SOL     OW28381   6.403   4.928   3.424
 9161SOL    HW128382   6.449   4.901   3.509
 9161SOL    HW228383   6.440   4.874   3.348
 9162SOL     OW28384   3.813   0.211   2.801
 9162SOL    HW128385   3.715   0.229   2.816
 9162SOL    HW228386   3.864   0.297   2.807
 9163SOL     OW28387   6.910   3.316   2.839
 9163SOL    HW128388   6.927   3.266   2.924
 9163SOL    HW228389   6.820   3.291   2.804
 9164SOL     OW28390   1.869   0.689   6.607
 9164SOL    HW128391   1.791   0.655   6.555
 9164SOL    HW228392   1.886   0.629   6.685
 9165SOL     OW28393   4.435   1.822   6.053
 9165SOL    HW128394   4.373   1.759   6.007
 9165SOL    HW228395   4.383   1.882   6.113
 9166SOL     OW28396   4.574   5.410   1.300
 9166SOL    HW128397   4.634   5.423   1.220
 9166SOL    HW228398   4.484   5.447   1.280
 9167SOL     OW28399   1.590   2.411   6.048
 9167SOL    HW128400   1.502   2.374   6.019
 9167SOL    HW228401   1.662   2.347   6.023
 9168SOL     OW28402   6.807   6.288   6.419
 9168SOL    HW128403   6.712   6.313   6.402
 9168SOL    HW228404   6.815   6.189   6.428
 9169SOL     OW28405   6.515   6.410   6.148
 9169SOL    HW128406   6.582   6.370   6.085
 9169SOL    HW228407   6.463   6.481   6.100
 9170SOL     OW28408   1.964   0.438   6.416
 9170SOL    HW128409   1.918   0.492   6.347
 9170SOL    HW228410   1.946   0.341   6.400
 9171SOL     OW28411   3.226   5.366   0.594
 9171SOL    HW128412   3.224   5.363   0.693
 9171SOL    HW228413   3.148   5.419   0.560
 9172SOL     OW28414   4.361   1.876   4.461
 9172SOL    HW128415   4.336   1.802   4.523
 9172SOL    HW228416   4.458   1.872   4.441
 9173SOL     OW28417   5.968   2.992   4.458
 9173SOL    HW128418   5.909   2.923   4.500
 9173SOL    HW228419   6.063   2.968   4.474
 9174SOL     OW28420   0.623   5.712   6.699
 9174SOL    HW128421   0.719   5.735   6.714
 9174SOL    HW228422   0.597   5.740   6.606
 9175SOL     OW28423   1.487   0.021   0.243
 9175SOL    HW128424   1.541   0.103   0.261
 9175SOL    HW228425   1.518   6.997   0.158
 9176SOL     OW28426   2.437   0.258   1.364
 9176SOL    HW128427   2.511   0.312   1.404
 9176SOL    HW228428   2.383   0.216   1.437
 9177SOL     OW28429   1.517   2.681   3.821
 9177SOL    HW128430   1.539   2.747   3.893
 9177SOL    HW228431   1.472   2.601   3.862
 9178SOL     OW28432   2.004   5.522   6.216
 9178SOL    HW128433   1.976   5.446   6.274
 9178SOL    HW228434   2.073   5.491   6.150
 9179SOL     OW28435   1.446   6.005   5.173
 9179SOL    HW128436   1.449   6.079   5.105
 9179SOL    HW228437   1.480   5.921   5.131
 9180SOL     OW28438   6.543   2.615   3.418
 9180SOL    HW128439   6.511   2.528   3.455
 9180SOL    HW228440   6.640   2.628   3.441
 9181SOL     OW28441   4.741   2.962   3.828
 9181SOL    HW128442   4.662   2.908   3.857
 9181SOL    HW228443   4.752   2.955   3.729
 9182SOL     OW28444   3.131   0.375   3.576
 9182SOL    HW128445   3.104   0.359   3.671
 9182SOL    HW228446   3.192   0.302   3.546
 9183SOL     OW28447   5.065   4.377   6.679
 9183SOL    HW128448   5.160   4.350   6.667
 9183SOL    HW228449   5.012   4.350   6.599
 9184SOL     OW28450   3.677   1.826   1.039
 9184SOL    HW128451   3.713   1.737   1.065
 9184SOL    HW228452   3.636   1.820   0.948
 9185SOL     OW28453   0.063   6.706   5.419
 9185SOL    HW128454   0.074   6.800   5.450
 9185SOL    HW228455   0.055   6.646   5.499
 9186SOL     OW28456   4.886   0.673   5.245
 9186SOL    HW128457   4.986   0.666   5.242
 9186SOL    HW228458   4.855   0.732   5.171
 9187SOL     OW28459   4.509   1.852   6.671
 9187SOL    HW128460   4.590   1.821   6.720
 9187SOL    HW228461   4.429   1.844   6.730
 9188SOL     OW28462   1.158   0.705   1.830
 9188SOL    HW128463   1.125   0.667   1.916
 9188SOL    HW228464   1.081   0.718   1.767
 9189SOL     OW28465   2.744   6.910   3.681
 9189SOL    HW128466   2.732   6.820   3.722
 9189SOL    HW228467   2.795   6.901   3.595
 9190SOL     OW28468   6.923   3.236   5.275
 9190SOL    HW128469   6.992   3.197   5.336
 9190SOL    HW228470   6.834   3.235   5.321
 9191SOL     OW28471   5.384   0.031   6.222
 9191SOL    HW128472   5.405   0.098   6.151
 9191SOL    HW228473   5.315   6.986   6.187
 9192SOL     OW28474   6.385   3.332   5.891
 9192SOL    HW128475   6.292   3.368   5.883
 9192SOL    HW228476   6.417   3.301   5.802
 9193SOL     OW28477   3.552   3.725   3.942
 9193SOL    HW128478   3.553   3.790   4.018
 9193SOL    HW228479   3.478   3.749   3.879
 9194SOL     OW28480   3.851   5.915   2.064
 9194SOL    HW128481   3.788   5.993   2.062
 9194SOL    HW228482   3.869   5.886   1.970
 9195SOL     OW28483   1.914   2.717   4.058
 9195SOL    HW128484   1.929   2.640   4.121
 9195SOL    HW228485   1.916   2.684   3.964
 9196SOL     OW28486   5.474   0.200   3.589
 9196SOL    HW128487   5.526   0.124   3.550
 9196SOL    HW228488   5.535   0.261   3.639
 9197SOL     OW28489   3.932   5.305   0.134
 9197SOL    HW128490   3.881   5.245   0.073
 9197SOL    HW228491   3.932   5.267   0.227
 9198SOL     OW28492   5.717   4.622   6.165
 9198SOL    HW128493   5.624   4.638   6.199
 9198SOL    HW228494   5.720   4.643   6.067
 9199SOL     OW28495   0.340   2.621   5.997
 9199SOL    HW128496   0.242   2.639   5.995
 9199SOL    HW228497   0.389   2.705   6.019
 9200SOL     OW28498   1.976   5.806   6.780
 9200SOL    HW128499   1.883   5.818   6.815
 9200SOL    HW228500   1.981   5.842   6.686
 9201SOL     OW28501   0.303   3.686   0.901
 9201SOL    HW128502   0.322   3.589   0.916
 9201SOL    HW228503   0.351   3.717   0.819
 9202SOL     OW28504   1.575   5.823   4.093
 9202SOL    HW128505   1.659   5.870   4.064
 9202SOL    HW228506   1.495   5.877   4.067
 9203SOL     OW28507   5.067   2.109   6.399
 9203SOL    HW128508   5.044   2.054   6.319
 9203SOL    HW228509   4.984   2.124   6.454
 9204SOL     OW28510   4.992   3.850   3.606
 9204SOL    HW128511   5.086   3.875   3.633
 9204SOL    HW228512   4.995   3.790   3.527
 9205SOL     OW28513   5.064   4.164   2.625
 9205SOL    HW128514   5.064   4.131   2.531
 9205SOL    HW228515   5.120   4.103   2.682
 9206SOL     OW28516   3.060   0.183   4.254
 9206SOL    HW128517   3.059   0.086   4.230
 9206SOL    HW228518   2.986   0.203   4.318
 9207SOL     OW28519   3.705   6.005   6.088
 9207SOL    HW128520   3.720   6.073   6.160
 9207SOL    HW228521   3.608   6.001   6.065
 9208SOL     OW28522   6.154   4.420   2.396
 9208SOL    HW128523   6.152   4.519   2.405
 9208SOL    HW228524   6.096   4.392   2.319
 9209SOL     OW28525   4.137   0.199   2.172
 9209SOL    HW128526   4.141   0.274   2.238
 9209SOL    HW228527   4.104   0.234   2.084
 9210SOL     OW28528   0.576   0.974   1.481
 9210SOL    HW128529   0.500   0.911   1.497
 9210SOL    HW228530   0.583   0.994   1.383
 9211SOL     OW28531   5.296   2.866   5.981
 9211SOL    HW128532   5.330   2.960   5.982
 9211SOL    HW228533   5.373   2.803   5.989
 9212SOL     OW28534   4.882   3.923   5.302
 9212SOL    HW128535   4.855   3.918   5.206
 9212SOL    HW228536   4.964   3.867   5.317
 9213SOL     OW28537   5.330   5.779   4.138
 9213SOL    HW128538   5.429   5.781   4.122
 9213SOL    HW228539   5.297   5.684   4.131
 9214SOL     OW28540   0.239   2.382   5.405
 9214SOL    HW128541   0.208   2.382   5.310
 9214SOL    HW228542   0.165   2.351   5.464
 9215SOL     OW28543   0.667   4.942   2.732
 9215SOL    HW128544   0.623   5.005   2.668
 9215SOL    HW228545   0.663   4.849   2.695
 9216SOL     OW28546   2.611   6.751   4.633
 9216SOL    HW128547   2.674   6.674   4.642
 9216SOL    HW228548   2.585   6.761   4.537
 9217SOL     OW28549   5.515   1.826   6.862
 9217SOL    HW128550   5.489   1.825   6.765
 9217SOL    HW228551   5.469   1.901   6.908
 9218SOL     OW28552   4.157   1.378   0.040
 9218SOL    HW128553   4.120   1.329   0.119
 9218SOL    HW228554   4.244   1.335   0.013
 9219SOL     OW28555   4.363   3.744   5.685
 9219SOL    HW128556   4.289   3.677   5.682
 9219SOL    HW228557   4.448   3.698   5.711
 9220SOL     OW28558   2.105   5.867   2.795
 9220SOL    HW128559   2.101   5.827   2.703
 9220SOL    HW228560   2.059   5.806   2.860
 9221SOL     OW28561   2.423   0.186   5.440
 9221SOL    HW128562   2.349   0.251   5.430
 9221SOL    HW228563   2.391   0.094   5.417
 9222SOL     OW28564   2.635   4.598   4.831
 9222SOL    HW128565   2.711   4.592   4.896
 9222SOL    HW228566   2.672   4.601   4.738
 9223SOL     OW28567   1.151   2.453   4.002
 9223SOL    HW128568   1.110   2.522   3.943
 9223SOL    HW228569   1.116   2.363   3.976
 9224SOL     OW28570   1.615   3.360   3.627
 9224SOL    HW128571   1.629   3.408   3.541
 9224SOL    HW228572   1.540   3.295   3.617
 9225SOL     OW28573   3.961   5.928   6.068
 9225SOL    HW128574   3.866   5.960   6.075
 9225SOL    HW228575   4.013   5.963   6.145
 9226SOL     OW28576   1.171   0.373   1.284
 9226SOL    HW128577   1.210   0.290   1.245
 9226SOL    HW228578   1.159   0.361   1.383
 9227SOL     OW28579   1.578   6.366   1.159
 9227SOL    HW128580   1.589   6.282   1.105
 9227SOL    HW228581   1.480   6.386   1.169
 9228SOL     OW28582   1.927   2.576   6.843
 9228SOL    HW128583   1.837   2.589   6.885
 9228SOL    HW228584   1.945   2.649   6.778
 9229SOL     OW28585   0.603   5.102   5.952
 9229SOL    HW128586   0.668   5.087   5.878
 9229SOL    HW228587   0.626   5.187   6.000
 9230SOL     OW28588   4.853   3.052   2.857
 9230SOL    HW128589   4.770   3.012   2.818
 9230SOL    HW228590   4.903   2.982   2.908
 9231SOL     OW28591   0.556   4.059   5.065
 9231SOL    HW128592   0.502   4.119   5.125
 9231SOL    HW228593   0.642   4.036   5.110
 9232SOL     OW28594   2.829   5.973   1.085
 9232SOL    HW128595   2.766   6.029   1.139
 9232SOL    HW228596   2.809   5.876   1.101
 9233SOL     OW28597   0.700   6.920   0.625
 9233SOL    HW128598   0.628   6.862   0.663
 9233SOL    HW228599   0.660   7.007   0.596
 9234SOL     OW28600   1.893   5.927   0.764
 9234SOL    HW128601   1.831   5.861   0.721
 9234SOL    HW228602   1.891   6.013   0.712
 9235SOL     OW28603   2.384   2.685   2.864
 9235SOL    HW128604   2.422   2.692   2.956
 9235SOL    HW228605   2.284   2.682   2.870
 9236SOL     OW28606   2.636   3.674   6.545
 9236SOL    HW128607   2.703   3.634   6.607
 9236SOL    HW228608   2.588   3.601   6.496
 9237SOL     OW28609   0.837   5.781   2.674
 9237SOL    HW128610   0.917   5.822   2.718
 9237SOL    HW228611   0.797   5.712   2.734
 9238SOL     OW28612   2.783   2.662   6.003
 9238SOL    HW128613   2.873   2.627   6.026
 9238SOL    HW228614   2.738   2.600   5.940
 9239SOL     OW28615   6.765   4.467   6.766
 9239SOL    HW128616   6.772   4.542   6.701
 9239SOL    HW228617   6.750   4.381   6.717
 9240SOL     OW28618   5.034   2.778   2.076
 9240SOL    HW128619   4.995   2.843   2.010
 9240SOL    HW228620   4.972   2.770   2.155
 9241SOL     OW28621   0.668   5.789   1.057
 9241SOL    HW128622   0.649   5.825   1.149
 9241SOL    HW228623   0.702   5.695   1.064
 9242SOL     OW28624   2.110   3.248   1.817
 9242SOL    HW128625   2.154   3.172   1.865
 9242SOL    HW228626   2.151   3.334   1.849
 9243SOL     OW28627   0.298   0.585   1.880
 9243SOL    HW128628   0.320   0.493   1.913
 9243SOL    HW228629   0.357   0.608   1.803
 9244SOL     OW28630   2.472   6.643   6.293
 9244SOL    HW128631   2.374   6.624   6.298
 9244SOL    HW228632   2.494   6.679   6.202
 9245SOL     OW28633   0.429   4.303   3.725
 9245SOL    HW128634   0.468   4.287   3.634
 9245SOL    HW228635   0.461   4.390   3.760
 9246SOL     OW28636   5.479   0.851   3.790
 9246SOL    HW128637   5.400   0.912   3.777
 9246SOL    HW228638   5.547   0.897   3.847
 9247SOL     OW28639   3.685   5.080   2.938
 9247SOL    HW128640   3.599   5.107   2.980
 9247SOL    HW228641   3.667   5.025   2.856
 9248SOL     OW28642   2.751   2.053   5.110
 9248SOL    HW128643   2.701   2.047   5.196
 9248SOL    HW228644   2.846   2.080   5.128
 9249SOL     OW28645   4.865   5.754   1.572
 9249SOL    HW128646   4.964   5.741   1.573
 9249SOL    HW228647   4.835   5.782   1.664
 9250SOL     OW28648   0.109   2.958   4.209
 9250SOL    HW128649   0.118   3.049   4.167
 9250SOL    HW228650   0.088   2.968   4.306
 9251SOL     OW28651   4.225   1.723   2.280
 9251SOL    HW128652   4.316   1.762   2.296
 9251SOL    HW228653   4.164   1.794   2.247
 9252SOL     OW28654   5.844   0.759   4.711
 9252SOL    HW128655   5.832   0.696   4.633
 9252SOL    HW228656   5.901   0.836   4.683
 9253SOL     OW28657   5.242   5.755   5.359
 9253SOL    HW128658   5.264   5.691   5.285
 9253SOL    HW228659   5.264   5.713   5.447
 9254SOL     OW28660   4.682   4.982   2.264
 9254SOL    HW128661   4.621   4.963   2.187
 9254SOL    HW228662   4.628   5.002   2.346
 9255SOL     OW28663   5.448   3.197   6.689
 9255SOL    HW128664   5.538   3.156   6.674
 9255SOL    HW228665   5.447   3.289   6.648
 9256SOL     OW28666   1.886   0.143   1.805
 9256SOL    HW128667   1.908   0.236   1.831
 9256SOL    HW228668   1.809   0.143   1.740
 9257SOL     OW28669   6.114   5.526   3.398
 9257SOL    HW128670   6.015   5.522   3.383
 9257SOL    HW228671   6.155   5.591   3.334
 9258SOL     OW28672   3.989   3.470   1.471
 9258SOL    HW128673   4.030   3.380   1.488
 9258SOL    HW228674   3.906   3.480   1.526
 9259SOL     OW28675   2.287   1.133   0.539
 9259SOL    HW128676   2.345   1.157   0.461
 9259SOL    HW228677   2.191   1.135   0.511
 9260SOL     OW28678   6.653   2.653   5.662
 9260SOL    HW128679   6.556   2.629   5.668
 9260SOL    HW228680   6.666   2.747   5.692
 9261SOL     OW28681   4.401   1.027   6.850
 9261SOL    HW128682   4.484   1.080   6.829
 9261SOL    HW228683   4.422   0.930   6.844
 9262SOL     OW28684   0.893   5.863   4.770
 9262SOL    HW128685   0.851   5.796   4.830
 9262SOL    HW228686   0.823   5.908   4.716
 9263SOL     OW28687   3.243   5.288   2.147
 9263SOL    HW128688   3.162   5.339   2.177
 9263SOL    HW228689   3.321   5.316   2.202
 9264SOL     OW28690   5.033   3.394   0.142
 9264SOL    HW128691   5.081   3.342   0.070
 9264SOL    HW228692   5.071   3.486   0.146
 9265SOL     OW28693   4.309   2.376   0.137
 9265SOL    HW128694   4.213   2.397   0.158
 9265SOL    HW228695   4.315   2.342   0.043
 9266SOL     OW28696   0.366   6.286   1.294
 9266SOL    HW128697   0.377   6.256   1.199
 9266SOL    HW228698   0.453   6.279   1.342
 9267SOL     OW28699   1.059   1.884   4.503
 9267SOL    HW128700   1.064   1.824   4.423
 9267SOL    HW228701   1.002   1.841   4.573
 9268SOL     OW28702   1.137   6.928   2.464
 9268SOL    HW128703   1.089   6.843   2.483
 9268SOL    HW228704   1.222   6.931   2.516
 9269SOL     OW28705   3.968   6.849   6.054
 9269SOL    HW128706   3.901   6.793   6.102
 9269SOL    HW228707   3.984   6.812   5.963
 9270SOL     OW28708   3.921   0.198   5.328
 9270SOL    HW128709   4.010   0.219   5.288
 9270SOL    HW228710   3.870   0.137   5.267
 9271SOL     OW28711   5.932   0.383   7.000
 9271SOL    HW128712   5.875   0.303   6.979
 9271SOL    HW228713   5.968   0.376   0.074
 9272SOL     OW28714   0.807   6.486   6.605
 9272SOL    HW128715   0.898   6.475   6.646
 9272SOL    HW228716   0.741   6.433   6.658
 9273SOL     OW28717   6.338   6.061   3.360
 9273SOL    HW128718   6.295   6.110   3.284
 9273SOL    HW228719   6.399   5.991   3.324
 9274SOL     OW28720   6.712   2.325   6.898
 9274SOL    HW128721   6.684   2.280   6.813
 9274SOL    HW228722   6.660   2.409   6.910
 9275SOL     OW28723   6.744   0.006   0.540
 9275SOL    HW128724   6.781   0.071   0.605
 9275SOL    HW228725   6.796   0.010   0.455
 9276SOL     OW28726   1.773   4.703   0.005
 9276SOL    HW128727   1.821   4.647   6.955
 9276SOL    HW228728   1.825   4.702   0.090
 9277SOL     OW28729   4.186   4.995   2.189
 9277SOL    HW128730   4.158   4.912   2.141
 9277SOL    HW228731   4.264   5.036   2.142
 9278SOL     OW28732   1.769   0.678   5.727
 9278SOL    HW128733   1.758   0.596   5.670
 9278SOL    HW228734   1.812   0.654   5.813
 9279SOL     OW28735   3.619   6.650   1.787
 9279SOL    HW128736   3.620   6.577   1.855
 9279SOL    HW228737   3.710   6.658   1.745
 9280SOL     OW28738   2.447   1.609   2.389
 9280SOL    HW128739   2.475   1.558   2.471
 9280SOL    HW228740   2.347   1.614   2.385
 9281SOL     OW28741   3.456   4.383   6.489
 9281SOL    HW128742   3.429   4.297   6.445
 9281SOL    HW228743   3.377   4.423   6.536
 9282SOL     OW28744   4.515   0.849   3.997
 9282SOL    HW128745   4.551   0.864   3.905
 9282SOL    HW228746   4.415   0.843   3.992
 9283SOL     OW28747   5.128   0.372   5.242
 9283SOL    HW128748   5.043   0.320   5.233
 9283SOL    HW228749   5.141   0.399   5.337
 9284SOL     OW28750   2.839   3.568   5.445
 9284SOL    HW128751   2.860   3.586   5.349
 9284SOL    HW228752   2.776   3.491   5.452
 9285SOL     OW28753   5.182   3.661   1.115
 9285SOL    HW128754   5.262   3.606   1.094
 9285SOL    HW228755   5.138   3.689   1.030
 9286SOL     OW28756   5.327   5.076   0.613
 9286SOL    HW128757   5.313   5.104   0.708
 9286SOL    HW228758   5.306   4.979   0.603
 9287SOL     OW28759   3.730   4.625   6.050
 9287SOL    HW128760   3.729   4.683   6.131
 9287SOL    HW228761   3.799   4.659   5.986
 9288SOL     OW28762   4.465   1.833   2.349
 9288SOL    HW128763   4.479   1.932   2.349
 9288SOL    HW228764   4.551   1.788   2.326
 9289SOL     OW28765   4.862   0.675   0.740
 9289SOL    HW128766   4.949   0.695   0.695
 9289SOL    HW228767   4.790   0.667   0.672
 9290SOL     OW28768   6.140   1.188   4.076
 9290SOL    HW128769   6.064   1.252   4.063
 9290SOL    HW228770   6.113   1.098   4.042
 9291SOL     OW28771   1.439   5.680   5.963
 9291SOL    HW128772   1.451   5.747   5.889
 9291SOL    HW228773   1.512   5.691   6.030
 9292SOL     OW28774   2.148   1.760   6.621
 9292SOL    HW128775   2.136   1.776   6.719
 9292SOL    HW228776   2.144   1.847   6.572
 9293SOL     OW28777   5.770   3.682   6.519
 9293SOL    HW128778   5.753   3.603   6.461
 9293SOL    HW228779   5.684   3.713   6.560
 9294SOL     OW28780   5.065   1.153   6.570
 9294SOL    HW128781   4.984   1.162   6.512
 9294SOL    HW228782   5.086   1.056   6.583
 9295SOL     OW28783   6.241   0.789   5.004
 9295SOL    HW128784   6.267   0.693   4.999
 9295SOL    HW228785   6.319   0.846   4.976
 9296SOL     OW28786   1.806   4.932   0.399
 9296SOL    HW128787   1.733   4.986   0.440
 9296SOL    HW228788   1.888   4.989   0.389
 9297SOL     OW28789   0.509   6.981   3.392
 9297SOL    HW128790   0.491   0.060   3.381
 9297SOL    HW228791   0.577   6.968   3.464
 9298SOL     OW28792   1.307   6.521   6.464
 9298SOL    HW128793   1.273   6.439   6.417
 9298SOL    HW228794   1.248   6.599   6.442
 9299SOL     OW28795   0.966   1.737   4.269
 9299SOL    HW128796   0.907   1.804   4.224
 9299SOL    HW228797   1.056   1.738   4.227
 9300SOL     OW28798   6.983   5.214   5.158
 9300SOL    HW128799   0.022   5.291   5.183
 9300SOL    HW228800   6.926   5.189   5.236
 9301SOL     OW28801   6.731   4.642   5.080
 9301SOL    HW128802   6.749   4.736   5.051
 9301SOL    HW228803   6.747   4.579   5.005
 9302SOL     OW28804   2.012   3.433   4.934
 9302SOL    HW128805   2.037   3.476   4.847
 9302SOL    HW228806   2.075   3.357   4.953
 9303SOL     OW28807   2.932   3.958   0.598
 9303SOL    HW128808   2.961   3.937   0.505
 9303SOL    HW228809   3.005   4.007   0.646
 9304SOL     OW28810   4.383   5.362   0.732
 9304SOL    HW128811   4.297   5.356   0.783
 9304SOL    HW228812   4.398   5.278   0.680
 9305SOL     OW28813   4.063   0.731   0.579
 9305SOL    HW128814   4.095   0.638   0.596
 9305SOL    HW228815   3.987   0.728   0.514
 9306SOL     OW28816   1.279   4.557   5.411
 9306SOL    HW128817   1.228   4.576   5.495
 9306SOL    HW228818   1.371   4.525   5.435
 9307SOL     OW28819   1.532   3.962   0.274
 9307SOL    HW128820   1.567   3.921   0.358
 9307SOL    HW228821   1.602   4.022   0.235
 9308SOL     OW28822   1.372   4.169   2.169
 9308SOL    HW128823   1.326   4.082   2.151
 9308SOL    HW228824   1.304   4.242   2.171
 9309SOL     OW28825   3.719   6.249   5.896
 9309SOL    HW128826   3.799   6.216   5.847
 9309SOL    HW228827   3.637   6.228   5.843
 9310SOL     OW28828   5.627   6.439   5.958
 9310SOL    HW128829   5.657   6.383   5.881
 9310SOL    HW228830   5.677   6.526   5.957
 9311SOL     OW28831   5.562   4.547   1.616
 9311SOL    HW128832   5.647   4.495   1.603
 9311SOL    HW228833   5.507   4.540   1.533
 9312SOL     OW28834   1.593   1.894   0.779
 9312SOL    HW128835   1.686   1.922   0.755
 9312SOL    HW228836   1.534   1.901   0.699
 9313SOL     OW28837   0.321   0.215   1.640
 9313SOL    HW128838   0.313   0.137   1.701
 9313SOL    HW228839   0.417   0.226   1.612
 9314SOL     OW28840   6.769   3.256   0.329
 9314SOL    HW128841   6.806   3.163   0.326
 9314SOL    HW228842   6.748   3.281   0.423
 9315SOL     OW28843   6.257   0.037   5.686
 9315SOL    HW128844   6.285   0.062   5.593
 9315SOL    HW228845   6.198   6.975   5.682
 9316SOL     OW28846   5.452   0.092   5.182
 9316SOL    HW128847   5.485   0.072   5.274
 9316SOL    HW228848   5.395   0.174   5.184
 9317SOL     OW28849   4.009   5.411   2.835
 9317SOL    HW128850   3.916   5.387   2.804
 9317SOL    HW228851   4.015   5.397   2.934
 9318SOL     OW28852   4.846   6.970   0.069
 9318SOL    HW128853   4.851   6.888   0.127
 9318SOL    HW228854   4.761   0.000   0.089
 9319SOL     OW28855   2.625   2.816   1.164
 9319SOL    HW128856   2.664   2.761   1.239
 9319SOL    HW228857   2.686   2.813   1.085
 9320SOL     OW28858   4.399   0.685   5.189
 9320SOL    HW128859   4.417   0.742   5.109
 9320SOL    HW228860   4.389   0.590   5.161
 9321SOL     OW28861   0.896   1.020   5.851
 9321SOL    HW128862   0.859   0.928   5.864
 9321SOL    HW228863   0.838   1.087   5.897
 9322SOL     OW28864   0.115   4.404   6.823
 9322SOL    HW128865   0.174   4.333   6.785
 9322SOL    HW228866   0.026   4.366   6.847
 9323SOL     OW28867   2.256   1.695   5.112
 9323SOL    HW128868   2.253   1.704   5.012
 9323SOL    HW228869   2.211   1.610   5.139
 9324SOL     OW28870   2.069   3.861   2.625
 9324SOL    HW128871   1.977   3.830   2.647
 9324SOL    HW228872   2.118   3.789   2.576
 9325SOL     OW28873   0.295   6.942   0.638
 9325SOL    HW128874   0.294   0.023   0.632
 9325SOL    HW228875   0.293   6.903   0.546
 9326SOL     OW28876   3.199   4.914   6.631
 9326SOL    HW128877   3.248   4.862   6.561
 9326SOL    HW228878   3.133   4.855   6.677
 9327SOL     OW28879   4.500   6.611   2.431
 9327SOL    HW128880   4.474   6.618   2.527
 9327SOL    HW228881   4.566   6.538   2.419
 9328SOL     OW28882   1.948   0.906   4.939
 9328SOL    HW128883   1.986   0.865   5.022
 9328SOL    HW228884   1.954   0.841   4.864
 9329SOL     OW28885   6.684   5.641   0.999
 9329SOL    HW128886   6.708   5.699   0.922
 9329SOL    HW228887   6.727   5.551   0.990
 9330SOL     OW28888   0.548   0.615   5.959
 9330SOL    HW128889   0.564   0.534   5.902
 9330SOL    HW228890   0.468   0.601   6.016
 9331SOL     OW28891   1.814   1.395   6.019
 9331SOL    HW128892   1.765   1.474   6.056
 9331SOL    HW228893   1.795   1.386   5.921
 9332SOL     OW28894   4.459   5.607   0.750
 9332SOL    HW128895   4.428   5.514   0.730
 9332SOL    HW228896   4.505   5.645   0.669
 9333SOL     OW28897   3.882   5.559   6.532
 9333SOL    HW128898   3.979   5.574   6.552
 9333SOL    HW228899   3.840   5.645   6.502
 9334SOL     OW28900   4.776   6.605   4.309
 9334SOL    HW128901   4.730   6.693   4.301
 9334SOL    HW228902   4.829   6.602   4.394
 9335SOL     OW28903   1.653   1.583   6.861
 9335SOL    HW128904   1.557   1.599   6.838
 9335SOL    HW228905   1.708   1.660   6.826
 9336SOL     OW28906   5.405   0.216   4.440
 9336SOL    HW128907   5.393   0.278   4.518
 9336SOL    HW228908   5.426   0.269   4.358
 9337SOL     OW28909   4.820   1.262   6.415
 9337SOL    HW128910   4.771   1.277   6.501
 9337SOL    HW228911   4.767   1.200   6.357
 9338SOL     OW28912   6.590   6.523   1.144
 9338SOL    HW128913   6.638   6.437   1.133
 9338SOL    HW228914   6.501   6.506   1.187
 9339SOL     OW28915   5.711   6.244   0.508
 9339SOL    HW128916   5.685   6.235   0.412
 9339SOL    HW228917   5.810   6.236   0.517
 9340SOL     OW28918   4.044   4.841   2.376
 9340SOL    HW128919   4.093   4.825   2.462
 9340SOL    HW228920   4.101   4.895   2.314
 9341SOL     OW28921   6.507   4.063   0.758
 9341SOL    HW128922   6.576   4.129   0.727
 9341SOL    HW228923   6.506   4.061   0.858
 9342SOL     OW28924   2.334   0.828   4.710
 9342SOL    HW128925   2.299   0.766   4.639
 9342SOL    HW228926   2.430   0.848   4.692
 9343SOL     OW28927   4.907   3.662   2.197
 9343SOL    HW128928   4.988   3.712   2.164
 9343SOL    HW228929   4.856   3.719   2.261
 9344SOL     OW28930   5.368   5.404   0.160
 9344SOL    HW128931   5.379   5.343   0.082
 9344SOL    HW228932   5.312   5.359   0.230
 9345SOL     OW28933   0.154   4.676   1.681
 9345SOL    HW128934   0.169   4.774   1.673
 9345SOL    HW228935   0.071   4.659   1.734
 9346SOL     OW28936   5.186   6.916   1.979
 9346SOL    HW128937   5.094   6.937   2.011
 9346SOL    HW228938   5.184   6.892   1.882
 9347SOL     OW28939   2.694   5.852   0.394
 9347SOL    HW128940   2.717   5.818   0.303
 9347SOL    HW228941   2.656   5.777   0.448
 9348SOL     OW28942   2.676   5.619   2.709
 9348SOL    HW128943   2.653   5.657   2.620
 9348SOL    HW228944   2.762   5.661   2.741
 9349SOL     OW28945   6.641   5.548   2.658
 9349SOL    HW128946   6.655   5.526   2.562
 9349SOL    HW228947   6.712   5.613   2.688
 9350SOL     OW28948   0.314   2.259   4.015
 9350SOL    HW128949   0.250   2.194   3.974
 9350SOL    HW228950   0.282   2.352   3.999
 9351SOL     OW28951   2.658   0.397   6.192
 9351SOL    HW128952   2.715   0.316   6.203
 9351SOL    HW228953   2.568   0.370   6.158
 9352SOL     OW28954   3.008   2.988   5.801
 9352SOL    HW128955   3.013   2.898   5.759
 9352SOL    HW228956   2.975   3.055   5.734
 9353SOL     OW28957   2.016   4.023   1.302
 9353SOL    HW128958   2.054   4.033   1.394
 9353SOL    HW228959   2.088   3.993   1.239
 9354SOL     OW28960   6.626   2.032   0.337
 9354SOL    HW128961   6.714   2.006   0.298
 9354SOL    HW228962   6.554   1.973   0.300
 9355SOL     OW28963   6.544   1.778   4.320
 9355SOL    HW128964   6.582   1.739   4.236
 9355SOL    HW228965   6.590   1.864   4.341
 9356SOL     OW28966   4.055   5.799   1.373
 9356SOL    HW128967   4.138   5.744   1.377
 9356SOL    HW228968   4.065   5.871   1.304
 9357SOL     OW28969   3.408   3.364   6.519
 9357SOL    HW128970   3.416   3.269   6.548
 9357SOL    HW228971   3.500   3.405   6.516
 9358SOL     OW28972   6.985   3.335   2.017
 9358SOL    HW128973   6.924   3.327   2.095
 9358SOL    HW228974   0.060   3.343   2.048
 9359SOL     OW28975   1.246   3.558   5.839
 9359SOL    HW128976   1.235   3.460   5.821
 9359SOL    HW228977   1.207   3.610   5.763
 9360SOL     OW28978   0.998   6.926   5.939
 9360SOL    HW128979   1.047   6.920   5.852
 9360SOL    HW228980   1.056   6.891   6.013
 9361SOL     OW28981   2.382   6.222   3.697
 9361SOL    HW128982   2.440   6.264   3.627
 9361SOL    HW228983   2.304   6.282   3.716
 9362SOL     OW28984   1.123   1.914   2.148
 9362SOL    HW128985   1.144   1.910   2.050
 9362SOL    HW228986   1.167   1.994   2.188
 9363SOL     OW28987   3.962   5.476   1.776
 9363SOL    HW128988   3.864   5.453   1.775
 9363SOL    HW228989   4.015   5.392   1.763
 9364SOL     OW28990   4.405   3.224   6.091
 9364SOL    HW128991   4.370   3.131   6.107
 9364SOL    HW228992   4.504   3.221   6.082
 9365SOL     OW28993   2.602   2.309   5.277
 9365SOL    HW128994   2.620   2.404   5.253
 9365SOL    HW228995   2.513   2.281   5.240
 9366SOL     OW28996   2.684   0.783   6.773
 9366SOL    HW128997   2.609   0.719   6.760
 9366SOL    HW228998   2.768   0.732   6.794
 9367SOL     OW28999   0.127   6.163   3.252
 9367SOL    HW129000   0.078   6.081   3.222
 9367SOL    HW229001   0.221   6.139   3.277
 9368SOL     OW29002   2.275   1.525   3.787
 9368SOL    HW129003   2.179   1.533   3.760
 9368SOL    HW229004   2.332   1.573   3.720
 9369SOL     OW29005   6.889   0.622   5.072
 9369SOL    HW129006   6.965   0.562   5.094
 9369SOL    HW229007   6.813   0.569   5.036
 9370SOL     OW29008   4.614   0.372   2.647
 9370SOL    HW129009   4.670   0.326   2.716
 9370SOL    HW229010   4.590   0.307   2.575
 9371SOL     OW29011   2.325   4.984   0.706
 9371SOL    HW129012   2.415   4.941   0.722
 9371SOL    HW229013   2.255   4.913   0.704
 9372SOL     OW29014   5.322   6.120   3.045
 9372SOL    HW129015   5.257   6.073   3.104
 9372SOL    HW229016   5.406   6.139   3.096
 9373SOL     OW29017   4.092   2.226   2.878
 9373SOL    HW129018   4.057   2.294   2.813
 9373SOL    HW229019   4.017   2.192   2.934
 9374SOL     OW29020   0.386   2.941   0.613
 9374SOL    HW129021   0.352   2.918   0.522
 9374SOL    HW229022   0.393   2.858   0.668
 9375SOL     OW29023   6.146   1.651   3.035
 9375SOL    HW129024   6.089   1.706   3.095
 9375SOL    HW229025   6.106   1.560   3.024
 9376SOL     OW29026   2.540   3.989   1.252
 9376SOL    HW129027   2.618   3.968   1.194
 9376SOL    HW229028   2.557   4.073   1.303
 9377SOL     OW29029   1.833   5.373   3.652
 9377SOL    HW129030   1.771   5.337   3.582
 9377SOL    HW229031   1.849   5.471   3.636
 9378SOL     OW29032   1.000   0.538   5.236
 9378SOL    HW129033   1.084   0.559   5.186
 9378SOL    HW229034   0.971   0.617   5.290
 9379SOL     OW29035   4.561   5.763   4.966
 9379SOL    HW129036   4.583   5.819   4.886
 9379SOL    HW229037   4.530   5.822   5.040
 9380SOL     OW29038   5.332   4.382   5.110
 9380SOL    HW129039   5.244   4.344   5.139
 9380SOL    HW229040   5.319   4.476   5.077
 9381SOL     OW29041   3.169   3.059   6.000
 9381SOL    HW129042   3.186   2.975   6.052
 9381SOL    HW229043   3.122   3.037   5.914
 9382SOL     OW29044   3.265   1.133   3.443
 9382SOL    HW129045   3.327   1.092   3.510
 9382SOL    HW229046   3.177   1.087   3.447
 9383SOL     OW29047   2.004   5.938   4.613
 9383SOL    HW129048   1.958   6.021   4.644
 9383SOL    HW229049   1.956   5.858   4.650
 9384SOL     OW29050   2.947   6.191   1.307
 9384SOL    HW129051   2.968   6.142   1.392
 9384SOL    HW229052   2.867   6.149   1.263
 9385SOL     OW29053   4.011   0.889   3.116
 9385SOL    HW129054   3.988   0.935   3.202
 9385SOL    HW229055   3.968   0.799   3.115
 9386SOL     OW29056   2.785   6.245   4.706
 9386SOL    HW129057   2.829   6.256   4.618
 9386SOL    HW229058   2.713   6.175   4.699
 9387SOL     OW29059   2.825   1.548   0.076
 9387SOL    HW129060   2.796   1.499   0.159
 9387SOL    HW229061   2.925   1.553   0.074
 9388SOL     OW29062   1.824   4.996   2.835
 9388SOL    HW129063   1.838   5.008   2.737
 9388SOL    HW229064   1.762   4.919   2.851
 9389SOL     OW29065   1.404   6.618   5.109
 9389SOL    HW129066   1.450   6.587   5.026
 9389SOL    HW229067   1.311   6.647   5.086
 9390SOL     OW29068   3.959   4.958   4.803
 9390SOL    HW129069   3.865   4.931   4.784
 9390SOL    HW229070   3.967   5.058   4.799
 9391SOL     OW29071   2.255   1.079   4.669
 9391SOL    HW129072   2.293   0.988   4.680
 9391SOL    HW229073   2.183   1.094   4.737
 9392SOL     OW29074   6.875   0.453   4.772
 9392SOL    HW129075   6.945   0.524   4.784
 9392SOL    HW229076   6.805   0.464   4.843
 9393SOL     OW29077   2.500   6.499   5.313
 9393SOL    HW129078   2.595   6.489   5.283
 9393SOL    HW229079   2.471   6.594   5.301
 9394SOL     OW29080   0.183   1.528   2.056
 9394SOL    HW129081   0.177   1.626   2.074
 9394SOL    HW229082   0.095   1.485   2.072
 9395SOL     OW29083   2.777   1.411   0.326
 9395SOL    HW129084   2.851   1.417   0.394
 9395SOL    HW229085   2.782   1.322   0.280
 9396SOL     OW29086   2.025   5.216   3.790
 9396SOL    HW129087   1.947   5.261   3.748
 9396SOL    HW229088   2.030   5.121   3.759
 9397SOL     OW29089   3.498   0.182   6.888
 9397SOL    HW129090   3.406   0.178   6.849
 9397SOL    HW229091   3.547   0.098   6.864
 9398SOL     OW29092   0.370   0.753   5.195
 9398SOL    HW129093   0.340   0.682   5.130
 9398SOL    HW229094   0.368   0.842   5.150
 9399SOL     OW29095   6.742   1.706   6.261
 9399SOL    HW129096   6.807   1.650   6.209
 9399SOL    HW229097   6.732   1.668   6.353
 9400SOL     OW29098   3.826   1.263   2.399
 9400SOL    HW129099   3.802   1.250   2.303
 9400SOL    HW229100   3.893   1.194   2.427
 9401SOL     OW29101   5.311   0.207   3.240
 9401SOL    HW129102   5.237   0.235   3.302
 9401SOL    HW229103   5.357   0.288   3.204
 9402SOL     OW29104   1.413   4.625   3.830
 9402SOL    HW129105   1.355   4.551   3.864
 9402SOL    HW229106   1.493   4.586   3.784
 9403SOL     OW29107   6.257   1.732   2.787
 9403SOL    HW129108   6.204   1.710   2.868
 9403SOL    HW229109   6.210   1.802   2.734
 9404SOL     OW29110   1.537   3.288   6.351
 9404SOL    HW129111   1.467   3.244   6.295
 9404SOL    HW229112   1.499   3.367   6.397
 9405SOL     OW29113   1.146   5.247   2.541
 9405SOL    HW129114   1.176   5.188   2.466
 9405SOL    HW229115   1.180   5.340   2.526
 9406SOL     OW29116   6.767   2.659   5.925
 9406SOL    HW129117   6.721   2.650   5.837
 9406SOL    HW229118   6.721   2.729   5.980
 9407SOL     OW29119   2.738   5.392   3.071
 9407SOL    HW129120   2.653   5.341   3.079
 9407SOL    HW229121   2.812   5.340   3.114
 9408SOL     OW29122   4.445   1.827   6.376
 9408SOL    HW129123   4.480   1.788   6.461
 9408SOL    HW229124   4.468   1.767   6.300
 9409SOL     OW29125   6.115   4.904   6.452
 9409SOL    HW129126   6.203   4.947   6.467
 9409SOL    HW229127   6.050   4.971   6.416
 9410SOL     OW29128   2.846   0.269   1.969
 9410SOL    HW129129   2.775   0.198   1.976
 9410SOL    HW229130   2.929   0.229   1.930
 9411SOL     OW29131   3.468   3.337   2.240
 9411SOL    HW129132   3.375   3.304   2.225
 9411SOL    HW229133   3.532   3.260   2.238
 9412SOL     OW29134   6.941   2.610   1.320
 9412SOL    HW129135   7.017   2.570   1.268
 9412SOL    HW229136   6.933   2.707   1.296
 9413SOL     OW29137   3.414   5.814   4.153
 9413SOL    HW129138   3.420   5.717   4.173
 9413SOL    HW229139   3.468   5.835   4.071
 9414SOL     OW29140   2.884   0.541   3.573
 9414SOL    HW129141   2.974   0.510   3.542
 9414SOL    HW229142   2.866   0.504   3.665
 9415SOL     OW29143   2.706   6.717   2.254
 9415SOL    HW129144   2.688   6.771   2.172
 9415SOL    HW229145   2.716   6.621   2.229
 9416SOL     OW29146   0.586   2.259   0.971
 9416SOL    HW129147   0.576   2.217   0.882
 9416SOL    HW229148   0.666   2.319   0.972
 9417SOL     OW29149   4.034   6.744   5.812
 9417SOL    HW129150   4.133   6.734   5.803
 9417SOL    HW229151   3.992   6.654   5.825
 9418SOL     OW29152   3.772   6.263   1.058
 9418SOL    HW129153   3.838   6.211   1.112
 9418SOL    HW229154   3.807   6.275   0.965
 9419SOL     OW29155   3.705   5.629   5.912
 9419SOL    HW129156   3.652   5.615   5.828
 9419SOL    HW229157   3.789   5.679   5.890
 9420SOL     OW29158   6.444   3.109   5.402
 9420SOL    HW129159   6.477   3.067   5.318
 9420SOL    HW229160   6.348   3.133   5.392
 9421SOL     OW29161   2.242   0.080   4.501
 9421SOL    HW129162   2.181   0.087   4.422
 9421SOL    HW229163   2.316   0.016   4.481
 9422SOL     OW29164   4.687   6.103   3.064
 9422SOL    HW129165   4.643   6.152   2.989
 9422SOL    HW229166   4.787   6.110   3.055
 9423SOL     OW29167   3.681   0.666   4.065
 9423SOL    HW129168   3.582   0.671   4.075
 9423SOL    HW229169   3.725   0.668   4.155
 9424SOL     OW29170   4.845   0.558   4.776
 9424SOL    HW129171   4.747   0.541   4.788
 9424SOL    HW229172   4.893   0.471   4.763
 9425SOL     OW29173   6.035   3.344   6.753
 9425SOL    HW129174   5.963   3.407   6.784
 9425SOL    HW229175   6.101   3.394   6.697
 9426SOL     OW29176   3.354   2.380   0.087
 9426SOL    HW129177   3.338   2.412   7.012
 9426SOL    HW229178   3.417   2.443   0.133
 9427SOL     OW29179   3.176   5.553   3.698
 9427SOL    HW129180   3.222   5.576   3.784
 9427SOL    HW229181   3.084   5.520   3.718
 9428SOL     OW29182   5.904   0.665   1.086
 9428SOL    HW129183   5.830   0.728   1.062
 9428SOL    HW229184   5.897   0.582   1.030
 9429SOL     OW29185   2.107   3.345   2.162
 9429SOL    HW129186   2.153   3.391   2.086
 9429SOL    HW229187   2.139   3.250   2.167
 9430SOL     OW29188   0.783   4.415   2.496
 9430SOL    HW129189   0.839   4.340   2.460
 9430SOL    HW229190   0.690   4.383   2.513
 9431SOL     OW29191   6.252   4.191   2.071
 9431SOL    HW129192   6.192   4.119   2.036
 9431SOL    HW229193   6.217   4.223   2.159
 9432SOL     OW29194   4.043   0.388   3.282
 9432SOL    HW129195   3.999   0.369   3.194
 9432SOL    HW229196   3.991   0.459   3.330
 9433SOL     OW29197   3.137   5.257   2.753
 9433SOL    HW129198   3.187   5.262   2.839
 9433SOL    HW229199   3.052   5.309   2.762
 9434SOL     OW29200   5.066   4.933   3.252
 9434SOL    HW129201   5.093   4.837   3.244
 9434SOL    HW229202   4.970   4.937   3.280
 9435SOL     OW29203   0.939   2.915   4.826
 9435SOL    HW129204   0.929   2.816   4.835
 9435SOL    HW229205   0.849   2.957   4.818
 9436SOL     OW29206   1.129   2.685   1.846
 9436SOL    HW129207   1.052   2.748   1.860
 9436SOL    HW229208   1.149   2.638   1.932
 9437SOL     OW29209   2.485   6.168   2.865
 9437SOL    HW129210   2.521   6.254   2.900
 9437SOL    HW229211   2.559   6.102   2.854
 9438SOL     OW29212   0.030   0.289   1.798
 9438SOL    HW129213   0.120   0.301   1.756
 9438SOL    HW229214   0.015   0.360   1.866
 9439SOL     OW29215   0.696   3.463   1.602
 9439SOL    HW129216   0.600   3.478   1.578
 9439SOL    HW229217   0.708   3.371   1.637
 9440SOL     OW29218   3.876   5.147   3.481
 9440SOL    HW129219   3.968   5.147   3.441
 9440SOL    HW229220   3.864   5.067   3.540
 9441SOL     OW29221   1.084   3.297   5.182
 9441SOL    HW129222   1.124   3.366   5.122
 9441SOL    HW229223   1.088   3.208   5.137
 9442SOL     OW29224   4.932   3.343   0.394
 9442SOL    HW129225   4.839   3.309   0.389
 9442SOL    HW229226   4.967   3.359   0.301
 9443SOL     OW29227   2.103   5.680   1.102
 9443SOL    HW129228   2.106   5.580   1.103
 9443SOL    HW229229   2.008   5.710   1.102
 9444SOL     OW29230   1.490   3.716   6.635
 9444SOL    HW129231   1.544   3.800   6.630
 9444SOL    HW229232   1.399   3.737   6.672
 9445SOL     OW29233   5.981   3.488   3.492
 9445SOL    HW129234   5.905   3.479   3.556
 9445SOL    HW229235   6.003   3.398   3.453
 9446SOL     OW29236   6.086   6.216   4.313
 9446SOL    HW129237   6.023   6.160   4.368
 9446SOL    HW229238   6.140   6.273   4.374
 9447SOL     OW29239   5.949   3.554   4.618
 9447SOL    HW129240   5.916   3.623   4.553
 9447SOL    HW229241   5.874   3.494   4.645
 9448SOL     OW29242   6.839   6.571   6.754
 9448SOL    HW129243   6.768   6.595   6.820
 9448SOL    HW229244   6.921   6.626   6.771
 9449SOL     OW29245   6.738   5.955   0.228
 9449SOL    HW129246   6.695   5.882   0.281
 9449SOL    HW229247   6.822   5.920   0.185
 9450SOL     OW29248   3.043   5.743   5.408
 9450SOL    HW129249   2.992   5.802   5.470
 9450SOL    HW229250   3.114   5.797   5.362
 9451SOL     OW29251   4.191   6.364   5.926
 9451SOL    HW129252   4.140   6.410   5.853
 9451SOL    HW229253   4.151   6.388   6.015
 9452SOL     OW29254   1.805   3.860   0.184
 9452SOL    HW129255   1.868   3.881   0.258
 9452SOL    HW229256   1.846   3.884   0.096
 9453SOL     OW29257   2.215   4.661   3.125
 9453SOL    HW129258   2.159   4.739   3.153
 9453SOL    HW229259   2.178   4.577   3.165
 9454SOL     OW29260   2.997   3.247   0.096
 9454SOL    HW129261   2.961   3.337   0.120
 9454SOL    HW229262   2.956   3.217   0.010
 9455SOL     OW29263   3.209   1.597   3.266
 9455SOL    HW129264   3.230   1.545   3.349
 9455SOL    HW229265   3.111   1.590   3.246
 9456SOL     OW29266   1.419   3.573   0.906
 9456SOL    HW129267   1.320   3.569   0.892
 9456SOL    HW229268   1.455   3.480   0.917
 9457SOL     OW29269   2.149   3.664   5.068
 9457SOL    HW129270   2.099   3.580   5.051
 9457SOL    HW229271   2.133   3.729   4.993
 9458SOL     OW29272   1.732   2.962   6.751
 9458SOL    HW129273   1.812   2.911   6.722
 9458SOL    HW229274   1.712   2.943   6.847
 9459SOL     OW29275   5.125   4.367   3.288
 9459SOL    HW129276   5.132   4.337   3.193
 9459SOL    HW229277   5.217   4.382   3.325
 9460SOL     OW29278   0.698   2.423   3.729
 9460SOL    HW129279   0.765   2.463   3.792
 9460SOL    HW229280   0.634   2.493   3.699
 9461SOL     OW29281   5.917   1.322   2.290
 9461SOL    HW129282   6.011   1.335   2.321
 9461SOL    HW229283   5.893   1.225   2.296
 9462SOL     OW29284   2.136   3.576   2.758
 9462SOL    HW129285   2.077   3.650   2.726
 9462SOL    HW229286   2.198   3.611   2.828
 9463SOL     OW29287   6.925   1.145   1.855
 9463SOL    HW129288   6.974   1.154   1.768
 9463SOL    HW229289   6.991   1.142   1.930
 9464SOL     OW29290   6.171   0.479   1.157
 9464SOL    HW129291   6.263   0.520   1.156
 9464SOL    HW229292   6.127   0.499   1.245
 9465SOL     OW29293   1.797   5.388   2.781
 9465SOL    HW129294   1.793   5.345   2.871
 9465SOL    HW229295   1.706   5.422   2.756
 9466SOL     OW29296   4.831   4.708   5.661
 9466SOL    HW129297   4.807   4.763   5.741
 9466SOL    HW229298   4.897   4.759   5.606
 9467SOL     OW29299   1.221   2.505   1.657
 9467SOL    HW129300   1.299   2.457   1.697
 9467SOL    HW229301   1.172   2.554   1.729
 9468SOL     OW29302   5.779   2.676   5.948
 9468SOL    HW129303   5.838   2.608   5.989
 9468SOL    HW229304   5.757   2.650   5.854
 9469SOL     OW29305   6.346   6.069   1.840
 9469SOL    HW129306   6.403   6.002   1.793
 9469SOL    HW229307   6.351   6.156   1.791
 9470SOL     OW29308   4.180   4.001   5.351
 9470SOL    HW129309   4.256   3.970   5.408
 9470SOL    HW229310   4.147   4.089   5.384
 9471SOL     OW29311   6.623   1.990   4.530
 9471SOL    HW129312   6.623   1.914   4.595
 9471SOL    HW229313   6.542   2.047   4.545
 9472SOL     OW29314   5.600   3.497   5.030
 9472SOL    HW129315   5.567   3.404   5.017
 9472SOL    HW229316   5.534   3.562   4.992
 9473SOL     OW29317   2.806   5.718   5.716
 9473SOL    HW129318   2.724   5.661   5.715
 9473SOL    HW229319   2.882   5.667   5.756
 9474SOL     OW29320   0.251   3.230   0.383
 9474SOL    HW129321   0.301   3.280   0.313
 9474SOL    HW229322   0.242   3.134   0.357
 9475SOL     OW29323   3.664   3.474   6.512
 9475SOL    HW129324   3.715   3.412   6.571
 9475SOL    HW229325   3.724   3.509   6.440
 9476SOL     OW29326   2.911   3.933   5.076
 9476SOL    HW129327   2.827   3.954   5.125
 9476SOL    HW229328   2.989   3.976   5.121
 9477SOL     OW29329   0.428   3.621   1.753
 9477SOL    HW129330   0.519   3.585   1.768
 9477SOL    HW229331   0.409   3.626   1.655
 9478SOL     OW29332   5.186   3.220   6.714
 9478SOL    HW129333   5.285   3.225   6.699
 9478SOL    HW229334   5.148   3.144   6.661
 9479SOL     OW29335   4.415   5.956   6.525
 9479SOL    HW129336   4.388   5.988   6.616
 9479SOL    HW229337   4.514   5.948   6.520
 9480SOL     OW29338   4.416   3.957   1.039
 9480SOL    HW129339   4.455   3.873   1.001
 9480SOL    HW229340   4.417   3.952   1.138
 9481SOL     OW29341   5.296   3.717   2.420
 9481SOL    HW129342   5.384   3.756   2.446
 9481SOL    HW229343   5.312   3.635   2.364
 9482SOL     OW29344   6.581   0.625   3.221
 9482SOL    HW129345   6.593   0.532   3.186
 9482SOL    HW229346   6.633   0.635   3.306
 9483SOL     OW29347   0.840   1.705   1.923
 9483SOL    HW129348   0.864   1.612   1.895
 9483SOL    HW229349   0.923   1.754   1.951
 9484SOL     OW29350   3.067   1.185   3.699
 9484SOL    HW129351   3.066   1.284   3.717
 9484SOL    HW229352   3.137   1.142   3.756
 9485SOL     OW29353   0.589   0.353   1.706
 9485SOL    HW129354   0.647   0.434   1.706
 9485SOL    HW229355   0.504   0.373   1.754
 9486SOL     OW29356   3.146   6.158   1.141
 9486SOL    HW129357   3.068   6.161   1.204
 9486SOL    HW229358   3.193   6.246   1.141
 9487SOL     OW29359   3.458   2.994   3.422
 9487SOL    HW129360   3.440   2.963   3.329
 9487SOL    HW229361   3.546   3.041   3.424
 9488SOL     OW29362   1.269   6.547   0.661
 9488SOL    HW129363   1.304   6.639   0.646
 9488SOL    HW229364   1.170   6.551   0.675
 9489SOL     OW29365   4.596   4.430   1.652
 9489SOL    HW129366   4.641   4.342   1.668
 9489SOL    HW229367   4.499   4.422   1.675
 9490SOL     OW29368   0.071   5.667   1.171
 9490SOL    HW129369   0.098   5.611   1.249
 9490SOL    HW229370   0.052   5.608   1.092
 9491SOL     OW29371   6.577   4.567   3.845
 9491SOL    HW129372   6.595   4.640   3.911
 9491SOL    HW229373   6.523   4.603   3.769
 9492SOL     OW29374   3.406   2.879   2.900
 9492SOL    HW129375   3.452   2.878   2.988
 9492SOL    HW229376   3.345   2.800   2.893
 9493SOL     OW29377   3.730   5.209   3.890
 9493SOL    HW129378   3.721   5.112   3.912
 9493SOL    HW229379   3.708   5.223   3.793
 9494SOL     OW29380   4.901   4.743   1.856
 9494SOL    HW129381   4.910   4.674   1.784
 9494SOL    HW229382   4.964   4.720   1.931
 9495SOL     OW29383   6.725   1.674   3.399
 9495SOL    HW129384   6.720   1.608   3.325
 9495SOL    HW229385   6.729   1.626   3.487
 9496SOL     OW29386   6.128   4.998   1.441
 9496SOL    HW129387   6.210   5.023   1.389
 9496SOL    HW229388   6.129   4.900   1.459
 9497SOL     OW29389   5.759   6.091   6.628
 9497SOL    HW129390   5.811   6.071   6.711
 9497SOL    HW229391   5.687   6.022   6.616
 9498SOL     OW29392   5.271   6.526   4.725
 9498SOL    HW129393   5.345   6.460   4.712
 9498SOL    HW229394   5.268   6.589   4.647
 9499SOL     OW29395   1.620   5.136   6.443
 9499SOL    HW129396   1.526   5.156   6.471
 9499SOL    HW229397   1.641   5.182   6.357
 9500SOL     OW29398   5.592   0.726   0.685
 9500SOL    HW129399   5.565   0.694   0.776
 9500SOL    HW229400   5.644   0.810   0.692
 9501SOL     OW29401   2.781   1.519   5.054
 9501SOL    HW129402   2.697   1.479   5.020
 9501SOL    HW229403   2.858   1.490   4.997
 9502SOL     OW29404   6.820   2.570   5.247
 9502SOL    HW129405   6.765   2.556   5.166
 9502SOL    HW229406   6.766   2.547   5.329
 9503SOL     OW29407   0.292   1.471   1.421
 9503SOL    HW129408   0.197   1.496   1.438
 9503SOL    HW229409   0.334   1.539   1.361
 9504SOL     OW29410   6.702   2.369   1.198
 9504SOL    HW129411   6.700   2.399   1.293
 9504SOL    HW229412   6.618   2.396   1.152
 9505SOL     OW29413   5.284   4.910   3.452
 9505SOL    HW129414   5.248   4.849   3.381
 9505SOL    HW229415   5.242   5.001   3.442
 9506SOL     OW29416   0.970   2.511   6.182
 9506SOL    HW129417   1.054   2.557   6.154
 9506SOL    HW229418   0.983   2.411   6.178
 9507SOL     OW29419   1.039   2.096   3.063
 9507SOL    HW129420   1.004   2.008   3.094
 9507SOL    HW229421   1.007   2.168   3.125
 9508SOL     OW29422   6.809   3.448   1.085
 9508SOL    HW129423   6.787   3.476   1.179
 9508SOL    HW229424   6.750   3.373   1.057
 9509SOL     OW29425   0.528   0.694   4.920
 9509SOL    HW129426   0.473   0.770   4.957
 9509SOL    HW229427   0.566   0.641   4.996
 9510SOL     OW29428   1.371   3.611   2.305
 9510SOL    HW129429   1.420   3.630   2.390
 9510SOL    HW229430   1.322   3.692   2.275
 9511SOL     OW29431   0.270   1.119   0.336
 9511SOL    HW129432   0.245   1.175   0.415
 9511SOL    HW229433   0.263   1.022   0.359
 9512SOL     OW29434   5.387   2.047   1.407
 9512SOL    HW129435   5.334   2.106   1.468
 9512SOL    HW229436   5.327   1.978   1.367
 9513SOL     OW29437   1.889   3.183   6.201
 9513SOL    HW129438   1.901   3.113   6.272
 9513SOL    HW229439   1.797   3.222   6.209
 9514SOL     OW29440   2.069   4.768   6.423
 9514SOL    HW129441   2.000   4.729   6.362
 9514SOL    HW229442   2.123   4.695   6.464
 9515SOL     OW29443   1.527   6.176   1.507
 9515SOL    HW129444   1.594   6.248   1.526
 9515SOL    HW229445   1.438   6.217   1.487
 9516SOL     OW29446   5.336   3.988   5.239
 9516SOL    HW129447   5.387   4.068   5.271
 9516SOL    HW229448   5.391   3.906   5.252
 9517SOL     OW29449   1.036   4.640   0.938
 9517SOL    HW129450   1.022   4.556   0.886
 9517SOL    HW229451   1.128   4.640   0.976
 9518SOL     OW29452   1.349   1.578   6.838
 9518SOL    HW129453   1.354   1.674   6.814
 9518SOL    HW229454   1.316   1.569   6.932
 9519SOL     OW29455   3.573   4.170   4.199
 9519SOL    HW129456   3.516   4.162   4.117
 9519SOL    HW229457   3.528   4.231   4.264
 9520SOL     OW29458   0.855   1.305   3.328
 9520SOL    HW129459   0.952   1.282   3.325
 9520SOL    HW229460   0.801   1.224   3.303
 9521SOL     OW29461   5.234   5.075   1.397
 9521SOL    HW129462   5.156   5.020   1.367
 9521SOL    HW229463   5.213   5.172   1.387
 9522SOL     OW29464   4.217   4.976   1.279
 9522SOL    HW129465   4.170   4.901   1.232
 9522SOL    HW229466   4.214   5.058   1.221
 9523SOL     OW29467   2.660   5.045   4.848
 9523SOL    HW129468   2.591   5.027   4.778
 9523SOL    HW229469   2.745   4.997   4.825
 9524SOL     OW29470   3.058   3.371   0.555
 9524SOL    HW129471   3.056   3.464   0.521
 9524SOL    HW229472   3.146   3.353   0.600
 9525SOL     OW29473   2.424   2.105   6.155
 9525SOL    HW129474   2.497   2.100   6.223
 9525SOL    HW229475   2.449   2.049   6.075
 9526SOL     OW29476   6.405   4.772   1.246
 9526SOL    HW129477   6.325   4.766   1.186
 9526SOL    HW229478   6.488   4.781   1.190
 9527SOL     OW29479   0.594   1.511   4.465
 9527SOL    HW129480   0.687   1.479   4.448
 9527SOL    HW229481   0.561   1.472   4.551
 9528SOL     OW29482   6.748   1.685   1.076
 9528SOL    HW129483   6.839   1.723   1.095
 9528SOL    HW229484   6.692   1.690   1.158
 9529SOL     OW29485   6.449   3.527   6.335
 9529SOL    HW129486   6.466   3.606   6.276
 9529SOL    HW229487   6.373   3.474   6.297
 9530SOL     OW29488   1.701   2.953   3.244
 9530SOL    HW129489   1.720   2.863   3.203
 9530SOL    HW229490   1.606   2.978   3.227
 9531SOL     OW29491   5.149   4.576   2.307
 9531SOL    HW129492   5.109   4.552   2.395
 9531SOL    HW229493   5.249   4.568   2.312
 9532SOL     OW29494   0.575   5.892   1.587
 9532SOL    HW129495   0.645   5.930   1.527
 9532SOL    HW229496   0.486   5.927   1.560
 9533SOL     OW29497   0.391   5.567   5.304
 9533SOL    HW129498   0.391   5.495   5.373
 9533SOL    HW229499   0.473   5.623   5.314
 9534SOL     OW29500   6.574   4.255   5.136
 9534SOL    HW129501   6.579   4.173   5.080
 9534SOL    HW229502   6.575   4.229   5.233
 9535SOL     OW29503   1.927   0.641   5.976
 9535SOL    HW129504   2.004   0.665   5.917
 9535SOL    HW229505   1.959   0.636   6.071
 9536SOL     OW29506   2.899   4.192   5.791
 9536SOL    HW129507   2.915   4.134   5.711
 9536SOL    HW229508   2.945   4.280   5.778
 9537SOL     OW29509   2.628   0.132   4.618
 9537SOL    HW129510   2.625   0.049   4.674
 9537SOL    HW229511   2.568   0.201   4.659
 9538SOL     OW29512   5.430   1.224   3.420
 9538SOL    HW129513   5.399   1.316   3.443
 9538SOL    HW229514   5.440   1.170   3.504
 9539SOL     OW29515   3.363   3.344   4.899
 9539SOL    HW129516   3.428   3.297   4.839
 9539SOL    HW229517   3.312   3.277   4.953
 9540SOL     OW29518   6.140   4.345   4.194
 9540SOL    HW129519   6.124   4.431   4.145
 9540SOL    HW229520   6.238   4.335   4.212
 9541SOL     OW29521   3.187   0.622   5.908
 9541SOL    HW129522   3.104   0.634   5.853
 9541SOL    HW229523   3.256   0.690   5.880
 9542SOL     OW29524   4.740   4.125   4.721
 9542SOL    HW129525   4.817   4.181   4.690
 9542SOL    HW229526   4.744   4.035   4.679
 9543SOL     OW29527   3.490   6.994   5.768
 9543SOL    HW129528   3.470   6.955   5.858
 9543SOL    HW229529   3.588   6.993   5.752
 9544SOL     OW29530   0.050   2.164   2.927
 9544SOL    HW129531   0.146   2.163   2.900
 9544SOL    HW229532   0.034   2.095   2.999
 9545SOL     OW29533   5.344   5.853   4.751
 9545SOL    HW129534   5.350   5.814   4.659
 9545SOL    HW229535   5.273   5.805   4.803
 9546SOL     OW29536   4.155   1.821   5.176
 9546SOL    HW129537   4.211   1.739   5.188
 9546SOL    HW229538   4.059   1.798   5.193
 9547SOL     OW29539   2.891   6.094   3.731
 9547SOL    HW129540   2.884   6.002   3.692
 9547SOL    HW229541   2.846   6.159   3.670
 9548SOL     OW29542   6.023   5.312   6.226
 9548SOL    HW129543   6.105   5.255   6.221
 9548SOL    HW229544   6.046   5.400   6.268
 9549SOL     OW29545   2.576   3.085   1.009
 9549SOL    HW129546   2.496   3.107   1.065
 9549SOL    HW229547   2.555   3.003   0.954
 9550SOL     OW29548   0.048   0.921   0.420
 9550SOL    HW129549   0.004   0.931   0.330
 9550SOL    HW229550   0.136   0.875   0.409
 9551SOL     OW29551   6.009   1.895   5.227
 9551SOL    HW129552   6.050   1.972   5.178
 9551SOL    HW229553   5.912   1.912   5.239
 9552SOL     OW29554   1.430   6.840   4.437
 9552SOL    HW129555   1.407   6.749   4.472
 9552SOL    HW229556   1.429   6.839   4.337
 9553SOL     OW29557   6.207   3.105   6.549
 9553SOL    HW129558   6.185   3.082   6.643
 9553SOL    HW229559   6.305   3.122   6.540
 9554SOL     OW29560   2.109   6.941   1.621
 9554SOL    HW129561   2.090   6.922   1.717
 9554SOL    HW229562   2.038   7.000   1.583
 9555SOL     OW29563   1.146   0.477   2.956
 9555SOL    HW129564   1.164   0.380   2.940
 9555SOL    HW229565   1.170   0.530   2.875
 9556SOL     OW29566   1.666   3.375   1.657
 9556SOL    HW129567   1.633   3.286   1.624
 9556SOL    HW229568   1.717   3.362   1.742
 9557SOL     OW29569   0.288   5.884   2.401
 9557SOL    HW129570   0.321   5.924   2.486
 9557SOL    HW229571   0.329   5.931   2.323
 9558SOL     OW29572   5.994   5.955   4.851
 9558SOL    HW129573   6.037   5.965   4.762
 9558SOL    HW229574   6.041   6.014   4.917
 9559SOL     OW29575   0.654   4.289   0.971
 9559SOL    HW129576   0.653   4.268   0.873
 9559SOL    HW229577   0.589   4.230   1.018
 9560SOL     OW29578   1.509   1.405   3.235
 9560SOL    HW129579   1.519   1.391   3.137
 9560SOL    HW229580   1.584   1.461   3.269
 9561SOL     OW29581   1.644   0.523   0.356
 9561SOL    HW129582   1.653   0.435   0.404
 9561SOL    HW229583   1.625   0.506   0.260
 9562SOL     OW29584   2.648   0.166   5.289
 9562SOL    HW129585   2.577   0.185   5.357
 9562SOL    HW229586   2.606   0.128   5.207
 9563SOL     OW29587   6.423   6.018   0.732
 9563SOL    HW129588   6.391   6.069   0.652
 9563SOL    HW229589   6.381   5.927   0.733
 9564SOL     OW29590   2.743   0.053   0.735
 9564SOL    HW129591   2.744   0.136   0.680
 9564SOL    HW229592   2.748   6.992   0.674
 9565SOL     OW29593   3.646   0.228   4.671
 9565SOL    HW129594   3.707   0.193   4.599
 9565SOL    HW229595   3.643   0.327   4.666
 9566SOL     OW29596   1.946   5.149   0.128
 9566SOL    HW129597   1.996   5.225   0.086
 9566SOL    HW229598   2.003   5.067   0.127
 9567SOL     OW29599   5.368   4.797   0.760
 9567SOL    HW129600   5.440   4.854   0.721
 9567SOL    HW229601   5.310   4.762   0.686
 9568SOL     OW29602   4.397   2.158   6.678
 9568SOL    HW129603   4.307   2.182   6.639
 9568SOL    HW229604   4.423   2.067   6.646
 9569SOL     OW29605   0.014   1.344   2.588
 9569SOL    HW129606   6.950   1.396   2.607
 9569SOL    HW229607   0.084   1.368   2.655
 9570SOL     OW29608   1.001   3.019   2.195
 9570SOL    HW129609   0.982   3.060   2.284
 9570SOL    HW229610   1.025   3.090   2.129
 9571SOL     OW29611   4.112   4.436   6.137
 9571SOL    HW129612   4.025   4.387   6.146
 9571SOL    HW229613   4.188   4.371   6.142
 9572SOL     OW29614   2.282   5.009   1.210
 9572SOL    HW129615   2.305   5.029   1.305
 9572SOL    HW229616   2.283   5.093   1.157
 9573SOL     OW29617   0.429   1.917   6.441
 9573SOL    HW129618   0.528   1.935   6.448
 9573SOL    HW229619   0.380   2.004   6.450
 9574SOL     OW29620   4.125   3.204   3.602
 9574SOL    HW129621   4.213   3.196   3.648
 9574SOL    HW229622   4.106   3.300   3.582
 9575SOL     OW29623   0.244   1.177   1.308
 9575SOL    HW129624   0.211   1.233   1.232
 9575SOL    HW229625   0.311   1.229   1.361
 9576SOL     OW29626   2.028   0.380   1.878
 9576SOL    HW129627   2.011   0.462   1.823
 9576SOL    HW229628   2.109   0.332   1.843
 9577SOL     OW29629   1.603   0.779   6.061
 9577SOL    HW129630   1.665   0.816   6.131
 9577SOL    HW229631   1.528   0.731   6.105
 9578SOL     OW29632   0.655   3.950   3.711
 9578SOL    HW129633   0.660   3.853   3.737
 9578SOL    HW229634   0.585   3.996   3.765
 9579SOL     OW29635   1.367   4.875   2.794
 9579SOL    HW129636   1.349   4.787   2.750
 9579SOL    HW229637   1.460   4.875   2.831
 9580SOL     OW29638   4.643   3.055   0.679
 9580SOL    HW129639   4.623   2.968   0.633
 9580SOL    HW229640   4.734   3.051   0.720
 9581SOL     OW29641   0.388   5.584   6.360
 9581SOL    HW129642   0.383   5.490   6.325
 9581SOL    HW229643   0.461   5.633   6.312
 9582SOL     OW29644   4.569   5.157   6.151
 9582SOL    HW129645   4.630   5.219   6.102
 9582SOL    HW229646   4.486   5.206   6.178
 9583SOL     OW29647   3.836   4.522   1.004
 9583SOL    HW129648   3.915   4.555   0.953
 9583SOL    HW229649   3.820   4.582   1.083
 9584SOL     OW29650   6.951   5.878   0.074
 9584SOL    HW129651   6.907   5.808   0.018
 9584SOL    HW229652   7.007   5.937   0.016
 9585SOL     OW29653   6.432   0.432   4.529
 9585SOL    HW129654   6.359   0.479   4.578
 9585SOL    HW229655   6.493   0.388   4.594
 9586SOL     OW29656   5.710   4.621   2.678
 9586SOL    HW129657   5.715   4.618   2.579
 9586SOL    HW229658   5.705   4.528   2.714
 9587SOL     OW29659   6.747   1.339   1.939
 9587SOL    HW129660   6.697   1.399   1.877
 9587SOL    HW229661   6.814   1.286   1.886
 9588SOL     OW29662   6.934   1.650   1.818
 9588SOL    HW129663   7.019   1.599   1.832
 9588SOL    HW229664   6.926   1.677   1.722
 9589SOL     OW29665   2.210   5.135   5.734
 9589SOL    HW129666   2.157   5.155   5.817
 9589SOL    HW229667   2.268   5.056   5.750
 9590SOL     OW29668   6.773   3.260   1.575
 9590SOL    HW129669   6.785   3.289   1.670
 9590SOL    HW229670   6.685   3.213   1.566
 9591SOL     OW29671   3.514   6.330   6.457
 9591SOL    HW129672   3.477   6.252   6.407
 9591SOL    HW229673   3.575   6.298   6.529
 9592SOL     OW29674   3.769   4.085   0.973
 9592SOL    HW129675   3.786   4.039   0.885
 9592SOL    HW229676   3.856   4.106   1.017
 9593SOL     OW29677   0.292   1.347   4.923
 9593SOL    HW129678   0.358   1.312   4.989
 9593SOL    HW229679   0.208   1.373   4.969
 9594SOL     OW29680   1.381   6.418   3.302
 9594SOL    HW129681   1.352   6.332   3.345
 9594SOL    HW229682   1.407   6.400   3.207
 9595SOL     OW29683   1.568   4.326   5.156
 9595SOL    HW129684   1.528   4.371   5.077
 9595SOL    HW229685   1.598   4.234   5.130
 9596SOL     OW29686   0.251   5.469   0.030
 9596SOL    HW129687   0.332   5.452   6.994
 9596SOL    HW229688   0.251   5.563   0.063
 9597SOL     OW29689   0.762   4.495   1.115
 9597SOL    HW129690   0.861   4.506   1.113
 9597SOL    HW229691   0.736   4.411   1.066
 9598SOL     OW29692   1.307   3.524   4.115
 9598SOL    HW129693   1.395   3.561   4.085
 9598SOL    HW229694   1.263   3.590   4.177
 9599SOL     OW29695   3.859   6.756   5.181
 9599SOL    HW129696   3.939   6.704   5.209
 9599SOL    HW229697   3.867   6.780   5.084
 9600SOL     OW29698   2.268   0.043   6.943
 9600SOL    HW129699   2.349   7.007   6.923
 9600SOL    HW229700   2.286   0.138   6.916
 9601SOL     OW29701   6.157   4.035   1.288
 9601SOL    HW129702   6.188   3.989   1.371
 9601SOL    HW229703   6.185   3.982   1.208
 9602SOL     OW29704   6.901   5.108   6.426
 9602SOL    HW129705   6.834   5.096   6.500
 9602SOL    HW229706   6.862   5.167   6.356
 9603SOL     OW29707   3.745   1.731   4.709
 9603SOL    HW129708   3.659   1.680   4.710
 9603SOL    HW229709   3.819   1.672   4.741
 9604SOL     OW29710   4.028   0.391   0.243
 9604SOL    HW129711   4.016   0.333   0.324
 9604SOL    HW229712   3.939   0.404   0.198
 9605SOL     OW29713   0.179   5.107   3.987
 9605SOL    HW129714   0.104   5.041   3.973
 9605SOL    HW229715   0.157   5.165   4.065
 9606SOL     OW29716   2.203   6.587   6.274
 9606SOL    HW129717   2.145   6.573   6.193
 9606SOL    HW229718   2.168   6.532   6.349
 9607SOL     OW29719   1.478   1.455   0.548
 9607SOL    HW129720   1.518   1.368   0.521
 9607SOL    HW229721   1.458   1.453   0.646
 9608SOL     OW29722   6.910   6.456   2.227
 9608SOL    HW129723   6.875   6.520   2.296
 9608SOL    HW229724   7.001   6.425   2.254
 9609SOL     OW29725   2.355   4.234   6.331
 9609SOL    HW129726   2.404   4.307   6.379
 9609SOL    HW229727   2.414   4.153   6.324
 9610SOL     OW29728   1.959   4.963   3.988
 9610SOL    HW129729   1.910   4.946   3.902
 9610SOL    HW229730   1.911   5.032   4.041
 9611SOL     OW29731   0.377   6.847   6.450
 9611SOL    HW129732   0.366   6.848   6.350
 9611SOL    HW229733   0.413   6.758   6.478
 9612SOL     OW29734   0.674   3.958   1.912
 9612SOL    HW129735   0.597   3.930   1.969
 9612SOL    HW229736   0.706   3.880   1.857
 9613SOL     OW29737   4.260   6.146   3.728
 9613SOL    HW129738   4.192   6.183   3.665
 9613SOL    HW229739   4.311   6.073   3.683
 9614SOL     OW29740   4.060   2.389   0.577
 9614SOL    HW129741   4.140   2.348   0.621
 9614SOL    HW229742   3.978   2.370   0.631
 9615SOL     OW29743   0.623   6.868   1.282
 9615SOL    HW129744   0.542   6.819   1.316
 9615SOL    HW229745   0.617   6.877   1.182
 9616SOL     OW29746   4.754   3.863   1.232
 9616SOL    HW129747   4.776   3.807   1.152
 9616SOL    HW229748   4.654   3.872   1.240
 9617SOL     OW29749   1.568   3.418   4.029
 9617SOL    HW129750   1.568   3.498   4.088
 9617SOL    HW229751   1.603   3.444   3.938
 9618SOL     OW29752   3.729   6.992   5.460
 9618SOL    HW129753   3.754   6.905   5.503
 9618SOL    HW229754   3.631   6.990   5.437
 9619SOL     OW29755   0.560   6.823   0.320
 9619SOL    HW129756   0.608   6.735   0.326
 9619SOL    HW229757   0.622   6.892   0.283
 9620SOL     OW29758   4.686   2.688   0.104
 9620SOL    HW129759   4.624   2.609   0.097
 9620SOL    HW229760   4.641   2.760   0.156
 9621SOL     OW29761   1.059   0.847   2.724
 9621SOL    HW129762   1.002   0.877   2.648
 9621SOL    HW229763   1.042   0.904   2.804
 9622SOL     OW29764   6.110   0.576   6.963
 9622SOL    HW129765   6.035   0.510   6.952
 9622SOL    HW229766   6.172   0.544   0.016
 9623SOL     OW29767   4.165   4.849   5.454
 9623SOL    HW129768   4.084   4.897   5.421
 9623SOL    HW229769   4.191   4.777   5.390
 9624SOL     OW29770   5.915   4.449   3.638
 9624SOL    HW129771   5.863   4.397   3.706
 9624SOL    HW229772   6.012   4.445   3.661
 9625SOL     OW29773   5.014   5.560   6.849
 9625SOL    HW129774   5.034   5.463   6.838
 9625SOL    HW229775   5.077   5.599   6.917
 9626SOL     OW29776   2.307   6.475   0.341
 9626SOL    HW129777   2.366   6.556   0.345
 9626SOL    HW229778   2.360   6.398   0.304
 9627SOL     OW29779   6.902   3.929   3.214
 9627SOL    HW129780   6.823   3.892   3.262
 9627SOL    HW229781   6.982   3.871   3.232
 9628SOL     OW29782   6.639   4.834   0.070
 9628SOL    HW129783   6.642   4.922   0.022
 9628SOL    HW229784   6.635   4.760   0.003
 9629SOL     OW29785   0.058   6.971   3.098
 9629SOL    HW129786   0.004   6.983   3.182
 9629SOL    HW229787   0.155   6.968   3.122
 9630SOL     OW29788   6.039   6.396   4.915
 9630SOL    HW129789   6.005   6.463   4.981
 9630SOL    HW229790   5.997   6.414   4.825
 9631SOL     OW29791   5.743   0.888   6.803
 9631SOL    HW129792   5.772   0.960   6.866
 9631SOL    HW229793   5.787   0.902   6.714
 9632SOL     OW29794   2.436   5.199   2.314
 9632SOL    HW129795   2.487   5.235   2.392
 9632SOL    HW229796   2.483   5.119   2.277
 9633SOL     OW29797   5.224   5.013   7.014
 9633SOL    HW129798   5.181   4.997   0.084
 9633SOL    HW229799   5.206   5.107   6.985
 9634SOL     OW29800   0.823   6.428   4.535
 9634SOL    HW129801   0.743   6.397   4.483
 9634SOL    HW229802   0.793   6.467   4.622
 9635SOL     OW29803   2.500   4.638   5.367
 9635SOL    HW129804   2.479   4.580   5.446
 9635SOL    HW229805   2.416   4.681   5.334
 9636SOL     OW29806   4.204   1.686   5.949
 9636SOL    HW129807   4.118   1.726   5.917
 9636SOL    HW229808   4.185   1.612   6.014
 9637SOL     OW29809   2.629   2.284   0.375
 9637SOL    HW129810   2.638   2.381   0.351
 9637SOL    HW229811   2.645   2.228   0.295
 9638SOL     OW29812   6.933   4.063   6.511
 9638SOL    HW129813   6.934   4.020   6.601
 9638SOL    HW229814   7.006   4.023   6.455
 9639SOL     OW29815   4.824   1.764   1.993
 9639SOL    HW129816   4.742   1.788   1.941
 9639SOL    HW229817   4.820   1.808   2.083
 9640SOL     OW29818   3.041   1.353   2.891
 9640SOL    HW129819   3.008   1.423   2.828
 9640SOL    HW229820   2.965   1.295   2.919
 9641SOL     OW29821   5.172   5.973   1.139
 9641SOL    HW129822   5.203   5.983   1.234
 9641SOL    HW229823   5.074   5.954   1.139
 9642SOL     OW29824   2.093   5.714   4.857
 9642SOL    HW129825   1.997   5.726   4.830
 9642SOL    HW229826   2.131   5.637   4.806
 9643SOL     OW29827   6.074   4.727   3.886
 9643SOL    HW129828   6.038   4.820   3.883
 9643SOL    HW229829   6.130   4.709   3.805
 9644SOL     OW29830   0.258   4.869   4.696
 9644SOL    HW129831   0.234   4.944   4.634
 9644SOL    HW229832   0.199   4.872   4.776
 9645SOL     OW29833   2.866   4.815   3.646
 9645SOL    HW129834   2.873   4.747   3.718
 9645SOL    HW229835   2.953   4.862   3.635
 9646SOL     OW29836   2.654   4.629   2.094
 9646SOL    HW129837   2.736   4.616   2.039
 9646SOL    HW229838   2.678   4.667   2.183
 9647SOL     OW29839   0.870   5.428   1.885
 9647SOL    HW129840   0.937   5.492   1.923
 9647SOL    HW229841   0.891   5.411   1.789
 9648SOL     OW29842   3.748   2.483   0.278
 9648SOL    HW129843   3.664   2.508   0.328
 9648SOL    HW229844   3.734   2.499   0.181
 9649SOL     OW29845   2.198   4.727   6.805
 9649SOL    HW129846   2.282   4.746   6.856
 9649SOL    HW229847   2.171   4.810   6.754
 9650SOL     OW29848   4.749   4.437   2.986
 9650SOL    HW129849   4.718   4.361   2.929
 9650SOL    HW229850   4.681   4.510   2.983
 9651SOL     OW29851   6.197   0.885   0.667
 9651SOL    HW129852   6.193   0.818   0.741
 9651SOL    HW229853   6.182   0.977   0.704
 9652SOL     OW29854   2.374   4.478   0.905
 9652SOL    HW129855   2.400   4.501   0.811
 9652SOL    HW229856   2.400   4.383   0.924
 9653SOL     OW29857   4.171   5.234   5.315
 9653SOL    HW129858   4.078   5.202   5.293
 9653SOL    HW229859   4.238   5.168   5.281
 9654SOL     OW29860   3.857   3.394   2.245
 9654SOL    HW129861   3.956   3.383   2.249
 9654SOL    HW229862   3.833   3.451   2.167
 9655SOL     OW29863   6.709   1.628   0.087
 9655SOL    HW129864   6.614   1.616   0.117
 9655SOL    HW229865   6.762   1.668   0.161
 9656SOL     OW29866   4.316   1.787   0.921
 9656SOL    HW129867   4.233   1.801   0.866
 9656SOL    HW229868   4.343   1.875   0.962
 9657SOL     OW29869   6.331   2.484   3.872
 9657SOL    HW129870   6.373   2.407   3.824
 9657SOL    HW229871   6.270   2.532   3.810
 9658SOL     OW29872   5.539   2.200   2.657
 9658SOL    HW129873   5.498   2.260   2.588
 9658SOL    HW229874   5.498   2.109   2.650
 9659SOL     OW29875   6.816   2.717   0.370
 9659SOL    HW129876   6.781   2.641   0.425
 9659SOL    HW229877   6.913   2.701   0.349
 9660SOL     OW29878   0.425   6.726   2.190
 9660SOL    HW129879   0.329   6.749   2.174
 9660SOL    HW229880   0.447   6.739   2.286
 9661SOL     OW29881   3.729   6.222   1.521
 9661SOL    HW129882   3.762   6.134   1.488
 9661SOL    HW229883   3.635   6.213   1.552
 9662SOL     OW29884   4.414   2.850   5.281
 9662SOL    HW129885   4.344   2.788   5.244
 9662SOL    HW229886   4.503   2.804   5.280
 9663SOL     OW29887   6.288   6.696   3.487
 9663SOL    HW129888   6.189   6.685   3.483
 9663SOL    HW229889   6.323   6.657   3.573
 9664SOL     OW29890   5.272   6.261   4.477
 9664SOL    HW129891   5.235   6.339   4.428
 9664SOL    HW229892   5.318   6.199   4.413
 9665SOL     OW29893   5.609   6.369   6.949
 9665SOL    HW129894   5.580   6.336   6.859
 9665SOL    HW229895   5.704   6.344   6.964
 9666SOL     OW29896   6.859   3.936   2.194
 9666SOL    HW129897   6.835   3.858   2.252
 9666SOL    HW229898   6.776   3.989   2.173
 9667SOL     OW29899   3.958   3.582   5.778
 9667SOL    HW129900   3.916   3.649   5.839
 9667SOL    HW229901   3.929   3.490   5.805
 9668SOL     OW29902   0.120   0.535   6.297
 9668SOL    HW129903   0.131   0.594   6.377
 9668SOL    HW229904   0.023   0.511   6.286
 9669SOL     OW29905   1.905   0.463   2.487
 9669SOL    HW129906   1.860   0.387   2.534
 9669SOL    HW229907   1.870   0.470   2.394
 9670SOL     OW29908   6.438   4.682   6.723
 9670SOL    HW129909   6.388   4.761   6.759
 9670SOL    HW229910   6.486   4.637   6.798
 9671SOL     OW29911   6.406   4.597   0.260
 9671SOL    HW129912   6.364   4.622   0.173
 9671SOL    HW229913   6.398   4.498   0.274
 9672SOL     OW29914   1.492   5.482   3.349
 9672SOL    HW129915   1.542   5.397   3.365
 9672SOL    HW229916   1.456   5.517   3.435
 9673SOL     OW29917   5.272   3.734   0.636
 9673SOL    HW129918   5.338   3.796   0.678
 9673SOL    HW229919   5.312   3.693   0.554
 9674SOL     OW29920   2.226   6.983   2.904
 9674SOL    HW129921   2.290   0.040   2.905
 9674SOL    HW229922   2.154   7.002   2.837
 9675SOL     OW29923   5.941   2.565   0.650
 9675SOL    HW129924   5.905   2.651   0.615
 9675SOL    HW229925   5.872   2.493   0.640
 9676SOL     OW29926   1.824   3.951   5.181
 9676SOL    HW129927   1.791   3.906   5.098
 9676SOL    HW229928   1.788   3.905   5.261
 9677SOL     OW29929   0.499   5.479   5.076
 9677SOL    HW129930   0.458   5.506   5.162
 9677SOL    HW229931   0.593   5.447   5.092
 9678SOL     OW29932   3.328   3.819   3.285
 9678SOL    HW129933   3.339   3.869   3.199
 9678SOL    HW229934   3.373   3.730   3.277
 9679SOL     OW29935   2.809   1.213   2.954
 9679SOL    HW129936   2.759   1.265   3.023
 9679SOL    HW229937   2.754   1.134   2.925
 9680SOL     OW29938   4.612   0.957   3.112
 9680SOL    HW129939   4.616   1.042   3.164
 9680SOL    HW229940   4.561   0.973   3.027
 9681SOL     OW29941   3.234   1.498   0.337
 9681SOL    HW129942   3.235   1.399   0.330
 9681SOL    HW229943   3.328   1.533   0.332
 9682SOL     OW29944   5.096   4.506   3.549
 9682SOL    HW129945   5.196   4.495   3.546
 9682SOL    HW229946   5.064   4.483   3.641
 9683SOL     OW29947   2.933   5.274   0.405
 9683SOL    HW129948   2.906   5.307   0.495
 9683SOL    HW229949   2.987   5.344   0.358
 9684SOL     OW29950   0.559   3.357   5.795
 9684SOL    HW129951   0.548   3.427   5.725
 9684SOL    HW229952   0.641   3.376   5.849
 9685SOL     OW29953   3.162   5.042   0.894
 9685SOL    HW129954   3.262   5.049   0.902
 9685SOL    HW229955   3.139   4.966   0.834
 9686SOL     OW29956   6.616   1.765   6.895
 9686SOL    HW129957   6.552   1.703   6.848
 9686SOL    HW229958   6.638   1.728   6.985
 9687SOL     OW29959   1.738   0.910   3.878
 9687SOL    HW129960   1.769   0.821   3.911
 9687SOL    HW229961   1.790   0.982   3.924
 9688SOL     OW29962   0.613   3.132   2.818
 9688SOL    HW129963   0.675   3.164   2.889
 9688SOL    HW229964   0.574   3.210   2.770
 9689SOL     OW29965   1.237   4.904   6.246
 9689SOL    HW129966   1.263   4.854   6.329
 9689SOL    HW229967   1.138   4.914   6.243
 9690SOL     OW29968   5.537   5.069   0.325
 9690SOL    HW129969   5.471   5.081   0.251
 9690SOL    HW229970   5.621   5.028   0.289
 9691SOL     OW29971   2.925   5.390   0.679
 9691SOL    HW129972   2.865   5.310   0.667
 9691SOL    HW229973   2.993   5.370   0.749
 9692SOL     OW29974   3.789   5.273   2.718
 9692SOL    HW129975   3.781   5.209   2.642
 9692SOL    HW229976   3.715   5.257   2.784
 9693SOL     OW29977   6.266   4.949   2.260
 9693SOL    HW129978   6.251   5.015   2.187
 9693SOL    HW229979   6.302   4.864   2.222
 9694SOL     OW29980   2.546   0.832   0.647
 9694SOL    HW129981   2.614   0.848   0.718
 9694SOL    HW229982   2.564   0.893   0.570
 9695SOL     OW29983   0.088   3.153   2.702
 9695SOL    HW129984   0.033   3.236   2.718
 9695SOL    HW229985   0.143   3.165   2.620
 9696SOL     OW29986   5.534   3.800   1.001
 9696SOL    HW129987   5.607   3.851   1.047
 9696SOL    HW229988   5.508   3.721   1.057
 9697SOL     OW29989   0.566   5.422   0.003
 9697SOL    HW129990   0.517   5.335   7.018
 9697SOL    HW229991   0.657   5.411   6.980
 9698SOL     OW29992   4.758   1.546   5.655
 9698SOL    HW129993   4.746   1.633   5.702
 9698SOL    HW229994   4.832   1.495   5.698
 9699SOL     OW29995   6.764   5.084   6.830
 9699SOL    HW129996   6.746   5.179   6.857
 9699SOL    HW229997   6.863   5.069   6.826
 9700SOL     OW29998   4.542   5.338   4.920
 9700SOL    HW129999   4.591   5.365   4.838
 9700SOL    HW230000   4.569   5.245   4.946
 9701SOL     OW30001   4.414   5.055   5.613
 9701SOL    HW130002   4.314   5.061   5.616
 9701SOL    HW230003   4.442   4.960   5.621
 9702SOL     OW30004   4.651   0.405   6.807
 9702SOL    HW130005   4.729   0.457   6.770
 9702SOL    HW230006   4.570   0.425   6.753
 9703SOL     OW30007   4.576   4.565   3.239
 9703SOL    HW130008   4.544   4.624   3.313
 9703SOL    HW230009   4.651   4.509   3.272
 9704SOL     OW30010   3.467   1.016   2.883
 9704SOL    HW130011   3.567   1.021   2.891
 9704SOL    HW230012   3.429   1.108   2.878
 9705SOL     OW30013   5.912   4.862   6.127
 9705SOL    HW130014   5.833   4.810   6.159
 9705SOL    HW230015   5.951   4.913   6.204
 9706SOL     OW30016   1.235   3.600   0.515
 9706SOL    HW130017   1.165   3.672   0.511
 9706SOL    HW230018   1.213   3.529   0.448
 9707SOL     OW30019   6.952   5.006   2.455
 9707SOL    HW130020   6.895   5.042   2.382
 9707SOL    HW230021   6.984   5.082   2.512
 9708SOL     OW30022   1.346   2.041   2.673
 9708SOL    HW130023   1.272   2.067   2.610
 9708SOL    HW230024   1.320   2.064   2.767
 9709SOL     OW30025   6.005   6.349   3.611
 9709SOL    HW130026   6.095   6.369   3.572
 9709SOL    HW230027   5.953   6.434   3.620
 9710SOL     OW30028   6.677   0.924   1.714
 9710SOL    HW130029   6.653   1.014   1.751
 9710SOL    HW230030   6.714   0.867   1.788
 9711SOL     OW30031   2.561   5.580   5.862
 9711SOL    HW130032   2.466   5.591   5.831
 9711SOL    HW230033   2.583   5.483   5.871
 9712SOL     OW30034   5.895   3.878   6.961
 9712SOL    HW130035   5.874   3.808   6.892
 9712SOL    HW230036   5.967   3.938   6.927
 9713SOL     OW30037   1.093   4.653   3.500
 9713SOL    HW130038   1.011   4.604   3.470
 9713SOL    HW230039   1.174   4.596   3.484
 9714SOL     OW30040   3.515   6.886   6.824
 9714SOL    HW130041   3.587   6.817   6.839
 9714SOL    HW230042   3.426   6.841   6.820
 9715SOL     OW30043   5.500   3.664   6.229
 9715SOL    HW130044   5.445   3.580   6.227
 9715SOL    HW230045   5.509   3.700   6.136
 9716SOL     OW30046   4.007   3.745   0.138
 9716SOL    HW130047   3.920   3.795   0.139
 9716SOL    HW230048   4.025   3.710   0.047
 9717SOL     OW30049   5.469   6.684   6.445
 9717SOL    HW130050   5.486   6.777   6.415
 9717SOL    HW230051   5.434   6.685   6.538
 9718SOL     OW30052   4.629   2.486   0.678
 9718SOL    HW130053   4.655   2.390   0.669
 9718SOL    HW230054   4.670   2.538   0.603
 9719SOL     OW30055   6.534   1.676   5.588
 9719SOL    HW130056   6.539   1.592   5.533
 9719SOL    HW230057   6.582   1.662   5.674
 9720SOL     OW30058   0.183   5.363   2.506
 9720SOL    HW130059   0.139   5.444   2.468
 9720SOL    HW230060   0.250   5.390   2.575
 9721SOL     OW30061   7.016   1.811   1.088
 9721SOL    HW130062   0.033   1.735   1.034
 9721SOL    HW230063   7.014   1.894   1.031
 9722SOL     OW30064   6.207   0.810   4.344
 9722SOL    HW130065   6.280   0.756   4.301
 9722SOL    HW230066   6.205   0.792   4.442
 9723SOL     OW30067   2.036   6.877   2.703
 9723SOL    HW130068   2.092   6.828   2.636
 9723SOL    HW230069   1.948   6.901   2.662
 9724SOL     OW30070   1.570   4.565   0.455
 9724SOL    HW130071   1.619   4.636   0.404
 9724SOL    HW230072   1.492   4.605   0.503
 9725SOL     OW30073   3.842   4.815   6.203
 9725SOL    HW130074   3.916   4.874   6.174
 9725SOL    HW230075   3.868   4.767   6.286
 9726SOL     OW30076   5.102   1.302   4.156
 9726SOL    HW130077   5.169   1.304   4.082
 9726SOL    HW230078   5.145   1.333   4.241
 9727SOL     OW30079   1.288   3.939   5.970
 9727SOL    HW130080   1.363   3.938   6.036
 9727SOL    HW230081   1.315   3.888   5.888
 9728SOL     OW30082   0.286   0.574   5.498
 9728SOL    HW130083   0.287   0.571   5.598
 9728SOL    HW230084   0.237   0.656   5.468
 9729SOL     OW30085   0.985   3.817   3.725
 9729SOL    HW130086   1.034   3.814   3.812
 9729SOL    HW230087   0.957   3.911   3.705
 9730SOL     OW30088   1.113   3.381   3.606
 9730SOL    HW130089   1.172   3.365   3.685
 9730SOL    HW230090   1.169   3.392   3.524
 9731SOL     OW30091   4.808   4.460   1.124
 9731SOL    HW130092   4.820   4.535   1.190
 9731SOL    HW230093   4.872   4.387   1.145
 9732SOL     OW30094   6.612   5.941   3.290
 9732SOL    HW130095   6.545   5.878   3.330
 9732SOL    HW230096   6.696   5.891   3.270
 9733SOL     OW30097   5.878   5.042   0.698
 9733SOL    HW130098   5.885   5.027   0.599
 9733SOL    HW230099   5.913   4.962   0.746
 9734SOL     OW30100   6.476   1.775   1.908
 9734SOL    HW130101   6.441   1.828   1.986
 9734SOL    HW230102   6.568   1.742   1.930
 9735SOL     OW30103   2.397   4.372   3.934
 9735SOL    HW130104   2.371   4.320   3.852
 9735SOL    HW230105   2.462   4.443   3.909
 9736SOL     OW30106   6.622   1.423   6.332
 9736SOL    HW130107   6.524   1.405   6.327
 9736SOL    HW230108   6.645   1.459   6.422
 9737SOL     OW30109   5.545   2.626   3.541
 9737SOL    HW130110   5.463   2.658   3.495
 9737SOL    HW230111   5.529   2.533   3.576
 9738SOL     OW30112   1.330   6.897   1.072
 9738SOL    HW130113   1.276   6.815   1.054
 9738SOL    HW230114   1.304   6.970   1.008
 9739SOL     OW30115   5.981   4.869   2.053
 9739SOL    HW130116   5.899   4.826   2.090
 9739SOL    HW230117   5.977   4.870   1.953
 9740SOL     OW30118   6.427   1.611   3.072
 9740SOL    HW130119   6.451   1.518   3.044
 9740SOL    HW230120   6.342   1.638   3.027
 9741SOL     OW30121   3.787   0.962   2.982
 9741SOL    HW130122   3.867   0.965   3.042
 9741SOL    HW230123   3.817   0.963   2.887
 9742SOL     OW30124   4.460   6.910   0.423
 9742SOL    HW130125   4.375   6.962   0.435
 9742SOL    HW230126   4.446   6.817   0.457
 9743SOL     OW30127   0.096   2.036   5.322
 9743SOL    HW130128   0.024   2.062   5.258
 9743SOL    HW230129   0.075   1.946   5.360
 9744SOL     OW30130   0.789   6.824   2.641
 9744SOL    HW130131   0.854   6.800   2.569
 9744SOL    HW230132   0.725   6.893   2.607
 9745SOL     OW30133   5.368   3.202   5.704
 9745SOL    HW130134   5.437   3.199   5.632
 9745SOL    HW230135   5.410   3.173   5.791
 9746SOL     OW30136   6.513   0.296   5.553
 9746SOL    HW130137   6.516   0.357   5.632
 9746SOL    HW230138   6.592   0.235   5.555
 9747SOL     OW30139   1.991   1.193   1.326
 9747SOL    HW130140   1.937   1.144   1.258
 9747SOL    HW230141   2.071   1.234   1.282
 9748SOL     OW30142   0.333   1.620   3.181
 9748SOL    HW130143   0.262   1.550   3.170
 9748SOL    HW230144   0.390   1.596   3.260
 9749SOL     OW30145   2.484   1.328   5.137
 9749SOL    HW130146   2.536   1.245   5.160
 9749SOL    HW230147   2.508   1.358   5.045
 9750SOL     OW30148   5.395   4.548   3.678
 9750SOL    HW130149   5.441   4.462   3.699
 9750SOL    HW230150   5.463   4.617   3.653
 9751SOL     OW30151   0.700   0.856   0.939
 9751SOL    HW130152   0.642   0.938   0.940
 9751SOL    HW230153   0.796   0.883   0.947
 9752SOL     OW30154   4.774   1.910   5.662
 9752SOL    HW130155   4.773   1.866   5.752
 9752SOL    HW230156   4.762   1.842   5.591
 9753SOL     OW30157   5.666   5.733   5.537
 9753SOL    HW130158   5.624   5.822   5.555
 9753SOL    HW230159   5.760   5.746   5.507
 9754SOL     OW30160   0.911   1.243   6.206
 9754SOL    HW130161   0.944   1.333   6.177
 9754SOL    HW230162   0.966   1.210   6.283
 9755SOL     OW30163   4.014   3.152   4.506
 9755SOL    HW130164   4.019   3.223   4.436
 9755SOL    HW230165   4.102   3.106   4.514
 9756SOL     OW30166   6.578   3.630   0.547
 9756SOL    HW130167   6.542   3.720   0.570
 9756SOL    HW230168   6.579   3.573   0.629
 9757SOL     OW30169   5.583   3.672   3.960
 9757SOL    HW130170   5.499   3.620   3.943
 9757SOL    HW230171   5.644   3.617   4.018
 9758SOL     OW30172   2.408   6.629   0.038
 9758SOL    HW130173   2.366   6.563   6.994
 9758SOL    HW230174   2.498   6.596   0.065
 9759SOL     OW30175   1.762   6.913   6.834
 9759SOL    HW130176   1.862   6.923   6.836
 9759SOL    HW230177   1.738   6.817   6.847
 9760SOL     OW30178   4.456   2.485   4.886
 9760SOL    HW130179   4.503   2.559   4.934
 9760SOL    HW230180   4.369   2.465   4.931
 9761SOL     OW30181   5.567   1.167   2.776
 9761SOL    HW130182   5.499   1.129   2.713
 9761SOL    HW230183   5.574   1.265   2.763
 9762SOL     OW30184   3.394   1.368   4.378
 9762SOL    HW130185   3.424   1.462   4.362
 9762SOL    HW230186   3.296   1.366   4.394
 9763SOL     OW30187   5.270   2.273   1.951
 9763SOL    HW130188   5.181   2.270   1.905
 9763SOL    HW230189   5.342   2.251   1.886
 9764SOL     OW30190   0.195   2.661   2.899
 9764SOL    HW130191   0.227   2.578   2.852
 9764SOL    HW230192   0.162   2.726   2.831
 9765SOL     OW30193   6.702   1.444   3.241
 9765SOL    HW130194   6.607   1.451   3.209
 9765SOL    HW230195   6.722   1.349   3.264
 9766SOL     OW30196   2.566   0.034   3.230
 9766SOL    HW130197   2.575   6.975   3.291
 9766SOL    HW230198   2.514   0.007   3.149
 9767SOL     OW30199   5.028   1.157   5.289
 9767SOL    HW130200   4.995   1.106   5.368
 9767SOL    HW230201   5.080   1.096   5.229
 9768SOL     OW30202   5.429   1.934   2.565
 9768SOL    HW130203   5.353   1.998   2.560
 9768SOL    HW230204   5.466   1.918   2.473
 9769SOL     OW30205   3.012   1.082   2.773
 9769SOL    HW130206   3.082   1.122   2.831
 9769SOL    HW230207   2.921   1.100   2.812
 9770SOL     OW30208   5.745   6.987   6.689
 9770SOL    HW130209   5.838   6.949   6.685
 9770SOL    HW230210   5.748   0.061   6.726
 9771SOL     OW30211   2.826   5.631   0.599
 9771SOL    HW130212   2.829   5.682   0.685
 9771SOL    HW230213   2.858   5.538   0.614
 9772SOL     OW30214   1.479   6.232   2.636
 9772SOL    HW130215   1.436   6.275   2.715
 9772SOL    HW230216   1.413   6.173   2.590
 9773SOL     OW30217   5.625   5.623   4.491
 9773SOL    HW130218   5.722   5.619   4.517
 9773SOL    HW230219   5.613   5.586   4.399
 9774SOL     OW30220   0.504   5.100   1.850
 9774SOL    HW130221   0.549   5.035   1.790
 9774SOL    HW230222   0.570   5.169   1.880
 9775SOL     OW30223   2.001   0.460   3.310
 9775SOL    HW130224   1.998   0.504   3.220
 9775SOL    HW230225   2.093   0.471   3.349
 9776SOL     OW30226   1.087   4.591   4.178
 9776SOL    HW130227   1.060   4.666   4.238
 9776SOL    HW230228   1.178   4.557   4.206
 9777SOL     OW30229   5.925   4.937   5.850
 9777SOL    HW130230   5.999   4.989   5.807
 9777SOL    HW230231   5.940   4.934   5.949
 9778SOL     OW30232   0.453   0.831   3.605
 9778SOL    HW130233   0.522   0.866   3.541
 9778SOL    HW230234   0.406   0.753   3.564
 9779SOL     OW30235   2.035   1.413   5.043
 9779SOL    HW130236   2.029   1.474   4.965
 9779SOL    HW230237   2.109   1.443   5.103
 9780SOL     OW30238   2.841   1.735   1.149
 9780SOL    HW130239   2.918   1.769   1.095
 9780SOL    HW230240   2.833   1.788   1.234
 9781SOL     OW30241   1.704   3.741   4.343
 9781SOL    HW130242   1.685   3.699   4.254
 9781SOL    HW230243   1.777   3.809   4.333
 9782SOL     OW30244   6.571   0.934   1.379
 9782SOL    HW130245   6.506   0.880   1.433
 9782SOL    HW230246   6.549   1.031   1.388
 9783SOL     OW30247   5.005   1.642   3.058
 9783SOL    HW130248   5.098   1.628   3.094
 9783SOL    HW230249   4.951   1.691   3.126
 9784SOL     OW30250   4.086   1.511   4.581
 9784SOL    HW130251   4.037   1.546   4.501
 9784SOL    HW230252   4.061   1.415   4.596
 9785SOL     OW30253   0.991   3.416   6.001
 9785SOL    HW130254   1.073   3.471   5.982
 9785SOL    HW230255   0.990   3.336   5.942
 9786SOL     OW30256   2.573   4.215   0.082
 9786SOL    HW130257   2.596   4.179   7.011
 9786SOL    HW230258   2.604   4.153   0.153
 9787SOL     OW30259   4.865   3.554   1.932
 9787SOL    HW130260   4.878   3.579   2.028
 9787SOL    HW230261   4.812   3.625   1.886
 9788SOL     OW30262   0.490   0.389   3.602
 9788SOL    HW130263   0.495   0.352   3.509
 9788SOL    HW230264   0.583   0.411   3.633
 9789SOL     OW30265   1.301   5.513   0.611
 9789SOL    HW130266   1.387   5.469   0.584
 9789SOL    HW230267   1.319   5.576   0.687
 9790SOL     OW30268   6.129   4.386   6.067
 9790SOL    HW130269   6.061   4.371   6.139
 9790SOL    HW230270   6.181   4.469   6.087
 9791SOL     OW30271   0.454   0.755   2.960
 9791SOL    HW130272   0.451   0.759   3.060
 9791SOL    HW230273   0.549   0.769   2.929
 9792SOL     OW30274   5.209   5.315   1.723
 9792SOL    HW130275   5.126   5.268   1.694
 9792SOL    HW230276   5.185   5.395   1.778
 9793SOL     OW30277   5.177   5.818   3.486
 9793SOL    HW130278   5.235   5.780   3.415
 9793SOL    HW230279   5.132   5.901   3.452
 9794SOL     OW30280   6.926   4.147   1.017
 9794SOL    HW130281   6.908   4.083   0.942
 9794SOL    HW230282   6.839   4.183   1.052
 9795SOL     OW30283   2.103   1.941   4.440
 9795SOL    HW130284   2.189   1.902   4.407
 9795SOL    HW230285   2.071   1.890   4.520
 9796SOL     OW30286   4.479   2.342   1.350
 9796SOL    HW130287   4.463   2.318   1.446
 9796SOL    HW230288   4.413   2.411   1.321
 9797SOL     OW30289   2.498   5.153   6.733
 9797SOL    HW130290   2.531   5.134   6.640
 9797SOL    HW230291   2.485   5.066   6.781
 9798SOL     OW30292   2.716   0.484   1.456
 9798SOL    HW130293   2.665   0.496   1.542
 9798SOL    HW230294   2.814   0.489   1.475
 9799SOL     OW30295   3.614   4.084   3.773
 9799SOL    HW130296   3.569   3.998   3.749
 9799SOL    HW230297   3.614   4.145   3.693
 9800SOL     OW30298   3.633   6.549   4.582
 9800SOL    HW130299   3.538   6.578   4.566
 9800SOL    HW230300   3.660   6.482   4.513
 9801SOL     OW30301   4.773   3.584   0.366
 9801SOL    HW130302   4.687   3.536   0.346
 9801SOL    HW230303   4.848   3.537   0.320
 9802SOL     OW30304   0.982   3.093   1.856
 9802SOL    HW130305   1.061   3.104   1.915
 9802SOL    HW230306   0.919   3.026   1.896
 9803SOL     OW30307   0.389   2.438   6.414
 9803SOL    HW130308   0.412   2.438   6.512
 9803SOL    HW230309   0.295   2.469   6.402
 9804SOL     OW30310   0.951   6.894   3.026
 9804SOL    HW130311   1.042   6.857   3.038
 9804SOL    HW230312   0.884   6.820   3.024
 9805SOL     OW30313   0.944   0.133   5.410
 9805SOL    HW130314   0.911   0.075   5.485
 9805SOL    HW230315   0.947   0.228   5.441
 9806SOL     OW30316   1.567   1.243   0.450
 9806SOL    HW130317   1.557   1.172   0.380
 9806SOL    HW230318   1.630   1.212   0.521
 9807SOL     OW30319   2.310   3.079   0.137
 9807SOL    HW130320   2.275   3.110   0.226
 9807SOL    HW230321   2.275   2.987   0.118
 9808SOL     OW30322   4.320   0.721   5.449
 9808SOL    HW130323   4.363   0.811   5.461
 9808SOL    HW230324   4.342   0.686   5.358
 9809SOL     OW30325   0.754   2.042   6.792
 9809SOL    HW130326   0.840   2.005   6.827
 9809SOL    HW230327   0.750   2.140   6.812
 9810SOL     OW30328   2.299   2.781   3.667
 9810SOL    HW130329   2.202   2.798   3.647
 9810SOL    HW230330   2.314   2.786   3.766
 9811SOL     OW30331   5.797   5.266   4.044
 9811SOL    HW130332   5.880   5.226   4.007
 9811SOL    HW230333   5.812   5.362   4.067
 9812SOL     OW30334   3.313   2.135   5.843
 9812SOL    HW130335   3.325   2.197   5.921
 9812SOL    HW230336   3.219   2.142   5.809
 9813SOL     OW30337   5.847   0.737   6.265
 9813SOL    HW130338   5.828   0.798   6.188
 9813SOL    HW230339   5.874   0.647   6.230
 9814SOL     OW30340   0.664   0.524   0.566
 9814SOL    HW130341   0.669   0.620   0.594
 9814SOL    HW230342   0.701   0.466   0.638
 9815SOL     OW30343   5.910   4.051   3.086
 9815SOL    HW130344   5.832   4.016   3.137
 9815SOL    HW230345   5.993   4.006   3.118
 9816SOL     OW30346   6.926   1.557   6.160
 9816SOL    HW130347   6.898   1.471   6.118
 9816SOL    HW230348   7.018   1.548   6.196
 9817SOL     OW30349   2.248   6.087   2.498
 9817SOL    HW130350   2.300   6.134   2.569
 9817SOL    HW230351   2.279   5.992   2.490
 9818SOL     OW30352   1.538   0.699   4.575
 9818SOL    HW130353   1.472   0.728   4.645
 9818SOL    HW230354   1.598   0.775   4.552
 9819SOL     OW30355   5.190   3.088   3.810
 9819SOL    HW130356   5.233   3.037   3.735
 9819SOL    HW230357   5.210   3.186   3.800
 9820SOL     OW30358   4.303   3.376   6.308
 9820SOL    HW130359   4.252   3.460   6.290
 9820SOL    HW230360   4.322   3.329   6.222
 9821SOL     OW30361   5.299   0.577   1.010
 9821SOL    HW130362   5.272   0.558   1.104
 9821SOL    HW230363   5.230   0.635   0.966
 9822SOL     OW30364   2.559   5.926   3.420
 9822SOL    HW130365   2.522   5.972   3.501
 9822SOL    HW230366   2.496   5.937   3.344
 9823SOL     OW30367   2.496   0.367   1.652
 9823SOL    HW130368   2.515   0.271   1.630
 9823SOL    HW230369   2.488   0.378   1.751
 9824SOL     OW30370   1.679   5.681   4.335
 9824SOL    HW130371   1.772   5.711   4.314
 9824SOL    HW230372   1.616   5.716   4.265
 9825SOL     OW30373   5.110   6.678   4.194
 9825SOL    HW130374   5.051   6.650   4.118
 9825SOL    HW230375   5.059   6.736   4.257
 9826SOL     OW30376   3.746   6.026   5.172
 9826SOL    HW130377   3.648   6.040   5.183
 9826SOL    HW230378   3.770   5.934   5.203
 9827SOL     OW30379   1.887   3.613   3.403
 9827SOL    HW130380   1.848   3.551   3.335
 9827SOL    HW230381   1.899   3.563   3.490
 9828SOL     OW30382   3.164   2.604   5.371
 9828SOL    HW130383   3.173   2.530   5.304
 9828SOL    HW230384   3.214   2.579   5.454
 9829SOL     OW30385   4.713   5.849   6.295
 9829SOL    HW130386   4.766   5.837   6.211
 9829SOL    HW230387   4.616   5.835   6.274
 9830SOL     OW30388   5.491   1.471   1.892
 9830SOL    HW130389   5.409   1.418   1.868
 9830SOL    HW230390   5.507   1.541   1.823
 9831SOL     OW30391   1.013   5.079   2.913
 9831SOL    HW130392   1.067   5.028   2.845
 9831SOL    HW230393   1.047   5.057   3.005
 9832SOL     OW30394   5.179   5.409   2.497
 9832SOL    HW130395   5.191   5.492   2.442
 9832SOL    HW230396   5.165   5.331   2.437
 9833SOL     OW30397   3.449   3.877   3.739
 9833SOL    HW130398   3.446   3.822   3.656
 9833SOL    HW230399   3.368   3.936   3.744
 9834SOL     OW30400   2.260   4.642   5.039
 9834SOL    HW130401   2.298   4.715   4.984
 9834SOL    HW230402   2.302   4.555   5.014
 9835SOL     OW30403   3.641   3.227   4.479
 9835SOL    HW130404   3.673   3.143   4.435
 9835SOL    HW230405   3.675   3.306   4.428
 9836SOL     OW30406   0.421   3.838   4.066
 9836SOL    HW130407   0.444   3.934   4.086
 9836SOL    HW230408   0.421   3.823   3.968
 9837SOL     OW30409   4.578   0.677   2.903
 9837SOL    HW130410   4.496   0.705   2.952
 9837SOL    HW230411   4.633   0.617   2.962
 9838SOL     OW30412   1.965   6.912   0.300
 9838SOL    HW130413   1.889   6.898   0.237
 9838SOL    HW230414   2.047   6.935   0.248
 9839SOL     OW30415   4.536   6.556   3.533
 9839SOL    HW130416   4.613   6.602   3.489
 9839SOL    HW230417   4.450   6.592   3.497
 9840SOL     OW30418   5.487   1.907   0.575
 9840SOL    HW130419   5.459   1.932   0.668
 9840SOL    HW230420   5.539   1.822   0.578
 9841SOL     OW30421   0.934   4.453   4.581
 9841SOL    HW130422   1.009   4.437   4.516
 9841SOL    HW230423   0.849   4.417   4.543
 9842SOL     OW30424   3.458   3.416   1.288
 9842SOL    HW130425   3.451   3.367   1.375
 9842SOL    HW230426   3.381   3.478   1.278
 9843SOL     OW30427   6.465   0.136   1.780
 9843SOL    HW130428   6.455   0.078   1.699
 9843SOL    HW230429   6.445   0.231   1.756
 9844SOL     OW30430   6.069   1.390   3.635
 9844SOL    HW130431   6.068   1.324   3.561
 9844SOL    HW230432   5.976   1.402   3.670
 9845SOL     OW30433   1.500   1.643   3.821
 9845SOL    HW130434   1.583   1.593   3.845
 9845SOL    HW230435   1.421   1.598   3.861
 9846SOL     OW30436   4.176   2.183   1.391
 9846SOL    HW130437   4.115   2.183   1.470
 9846SOL    HW230438   4.255   2.124   1.409
 9847SOL     OW30439   3.875   3.553   2.520
 9847SOL    HW130440   3.870   3.493   2.441
 9847SOL    HW230441   3.920   3.505   2.596
 9848SOL     OW30442   4.629   4.677   5.883
 9848SOL    HW130443   4.680   4.676   5.969
 9848SOL    HW230444   4.531   4.673   5.901
 9849SOL     OW30445   1.058   0.204   6.496
 9849SOL    HW130446   1.137   0.263   6.510
 9849SOL    HW230447   1.073   0.145   6.417
 9850SOL     OW30448   6.495   0.742   4.004
 9850SOL    HW130449   6.517   0.731   4.101
 9850SOL    HW230450   6.524   0.832   3.973
 9851SOL     OW30451   1.809   0.129   4.190
 9851SOL    HW130452   1.807   0.079   4.103
 9851SOL    HW230453   1.720   0.170   4.208
 9852SOL     OW30454   1.947   1.555   4.822
 9852SOL    HW130455   1.882   1.628   4.843
 9852SOL    HW230456   1.902   1.485   4.766
 9853SOL     OW30457   6.428   3.473   5.091
 9853SOL    HW130458   6.475   3.400   5.042
 9853SOL    HW230459   6.426   3.452   5.189
 9854SOL     OW30460   0.220   5.926   4.031
 9854SOL    HW130461   0.134   5.881   4.005
 9854SOL    HW230462   0.205   6.024   4.038
 9855SOL     OW30463   2.447   3.195   0.686
 9855SOL    HW130464   2.353   3.197   0.652
 9855SOL    HW230465   2.448   3.225   0.782
 9856SOL     OW30466   5.038   4.384   3.804
 9856SOL    HW130467   5.062   4.294   3.770
 9856SOL    HW230468   4.954   4.378   3.859
 9857SOL     OW30469   5.167   2.420   3.366
 9857SOL    HW130470   5.108   2.448   3.442
 9857SOL    HW230471   5.214   2.500   3.329
 9858SOL     OW30472   0.276   7.014   1.350
 9858SOL    HW130473   0.267   0.021   1.254
 9858SOL    HW230474   0.187   0.001   1.395
 9859SOL     OW30475   6.990   5.450   3.826
 9859SOL    HW130476   0.047   5.479   3.884
 9859SOL    HW230477   6.915   5.515   3.834
 9860SOL     OW30478   2.133   2.223   5.005
 9860SOL    HW130479   2.062   2.287   4.975
 9860SOL    HW230480   2.201   2.212   4.932
 9861SOL     OW30481   2.522   0.471   3.264
 9861SOL    HW130482   2.545   0.555   3.314
 9861SOL    HW230483   2.559   0.392   3.313
 9862SOL     OW30484   2.252   3.905   6.895
 9862SOL    HW130485   2.319   3.832   6.880
 9862SOL    HW230486   2.206   3.891   6.982
 9863SOL     OW30487   2.976   6.014   1.508
 9863SOL    HW130488   2.911   5.962   1.563
 9863SOL    HW230489   3.069   5.986   1.531
 9864SOL     OW30490   3.646   0.839   4.661
 9864SOL    HW130491   3.583   0.911   4.693
 9864SOL    HW230492   3.693   0.799   4.739
 9865SOL     OW30493   1.355   6.304   4.078
 9865SOL    HW130494   1.430   6.314   4.143
 9865SOL    HW230495   1.379   6.350   3.992
 9866SOL     OW30496   5.961   4.606   5.979
 9866SOL    HW130497   6.032   4.544   6.012
 9866SOL    HW230498   5.966   4.691   6.032
 9867SOL     OW30499   6.614   1.525   2.401
 9867SOL    HW130500   6.690   1.582   2.433
 9867SOL    HW230501   6.604   1.535   2.302
 9868SOL     OW30502   0.812   3.398   4.592
 9868SOL    HW130503   0.900   3.365   4.627
 9868SOL    HW230504   0.738   3.345   4.634
 9869SOL     OW30505   0.259   2.096   1.325
 9869SOL    HW130506   0.341   2.150   1.305
 9869SOL    HW230507   0.224   2.120   1.415
 9870SOL     OW30508   4.370   5.816   2.642
 9870SOL    HW130509   4.272   5.813   2.661
 9870SOL    HW230510   4.420   5.759   2.708
 9871SOL     OW30511   6.389   4.152   5.765
 9871SOL    HW130512   6.404   4.247   5.792
 9871SOL    HW230513   6.471   4.099   5.787
 9872SOL     OW30514   3.005   5.309   4.490
 9872SOL    HW130515   2.936   5.262   4.435
 9872SOL    HW230516   3.041   5.388   4.440
 9873SOL     OW30517   2.020   2.412   0.316
 9873SOL    HW130518   2.027   2.432   0.414
 9873SOL    HW230519   2.111   2.419   0.275
 9874SOL     OW30520   0.429   2.617   5.406
 9874SOL    HW130521   0.432   2.715   5.387
 9874SOL    HW230522   0.334   2.586   5.402
 9875SOL     OW30523   6.535   6.400   2.638
 9875SOL    HW130524   6.567   6.484   2.682
 9875SOL    HW230525   6.570   6.321   2.688
 9876SOL     OW30526   5.189   0.500   4.101
 9876SOL    HW130527   5.167   0.593   4.132
 9876SOL    HW230528   5.287   0.485   4.108
 9877SOL     OW30529   0.086   4.444   4.351
 9877SOL    HW130530   0.122   4.362   4.395
 9877SOL    HW230531   7.017   4.468   4.391
 9878SOL     OW30532   2.770   3.427   5.763
 9878SOL    HW130533   2.764   3.509   5.705
 9878SOL    HW230534   2.781   3.454   5.858
 9879SOL     OW30535   6.213   4.711   5.419
 9879SOL    HW130536   6.151   4.668   5.355
 9879SOL    HW230537   6.238   4.646   5.491
 9880SOL     OW30538   2.725   0.919   0.827
 9880SOL    HW130539   2.734   0.850   0.899
 9880SOL    HW230540   2.724   1.010   0.869
 9881SOL     OW30541   6.836   1.728   4.559
 9881SOL    HW130542   6.846   1.684   4.470
 9881SOL    HW230543   6.738   1.742   4.579
 9882SOL     OW30544   3.195   4.027   5.784
 9882SOL    HW130545   3.118   3.968   5.760
 9882SOL    HW230546   3.267   3.972   5.827
 9883SOL     OW30547   0.719   6.622   1.386
 9883SOL    HW130548   0.706   6.694   1.317
 9883SOL    HW230549   0.672   6.648   1.470
 9884SOL     OW30550   4.097   1.792   0.737
 9884SOL    HW130551   4.125   1.870   0.681
 9884SOL    HW230552   4.010   1.813   0.782
 9885SOL     OW30553   0.735   3.244   4.905
 9885SOL    HW130554   0.730   3.241   5.005
 9885SOL    HW230555   0.707   3.156   4.868
 9886SOL     OW30556   0.184   6.391   2.023
 9886SOL    HW130557   0.144   6.322   1.963
 9886SOL    HW230558   0.147   6.481   1.999
 9887SOL     OW30559   3.634   0.214   0.112
 9887SOL    HW130560   3.705   0.144   0.100
 9887SOL    HW230561   3.577   0.218   0.030
 9888SOL     OW30562   5.840   5.518   3.381
 9888SOL    HW130563   5.839   5.606   3.428
 9888SOL    HW230564   5.771   5.457   3.420
 9889SOL     OW30565   0.463   4.807   1.695
 9889SOL    HW130566   0.370   4.842   1.696
 9889SOL    HW230567   0.462   4.707   1.682
 9890SOL     OW30568   0.529   2.729   0.827
 9890SOL    HW130569   0.446   2.693   0.869
 9890SOL    HW230570   0.585   2.772   0.897
 9891SOL     OW30571   6.253   4.699   1.770
 9891SOL    HW130572   6.195   4.622   1.743
 9891SOL    HW230573   6.349   4.672   1.766
 9892SOL     OW30574   1.804   5.499   3.343
 9892SOL    HW130575   1.756   5.419   3.379
 9892SOL    HW230576   1.766   5.525   3.255
 9893SOL     OW30577   6.451   0.137   2.119
 9893SOL    HW130578   6.417   0.089   2.037
 9893SOL    HW230579   6.480   0.069   2.186
 9894SOL     OW30580   2.927   1.576   6.356
 9894SOL    HW130581   2.827   1.569   6.351
 9894SOL    HW230582   2.968   1.501   6.304
 9895SOL     OW30583   6.444   2.356   5.619
 9895SOL    HW130584   6.427   2.454   5.622
 9895SOL    HW230585   6.379   2.313   5.557
 9896SOL     OW30586   4.748   1.694   0.869
 9896SOL    HW130587   4.836   1.740   0.860
 9896SOL    HW230588   4.685   1.752   0.920
 9897SOL     OW30589   4.842   1.037   2.931
 9897SOL    HW130590   4.907   0.972   2.893
 9897SOL    HW230591   4.749   1.008   2.910
 9898SOL     OW30592   0.086   4.812   5.037
 9898SOL    HW130593   0.104   4.891   4.977
 9898SOL    HW230594   0.168   4.755   5.041
 9899SOL     OW30595   6.842   5.137   2.227
 9899SOL    HW130596   6.754   5.133   2.179
 9899SOL    HW230597   6.846   5.220   2.283
 9900SOL     OW30598   1.764   2.620   2.706
 9900SOL    HW130599   1.782   2.702   2.761
 9900SOL    HW230600   1.689   2.569   2.747
 9901SOL     OW30601   2.018   1.390   6.773
 9901SOL    HW130602   1.979   1.357   6.859
 9901SOL    HW230603   2.090   1.457   6.792
 9902SOL     OW30604   3.904   3.686   1.707
 9902SOL    HW130605   3.987   3.645   1.744
 9902SOL    HW230606   3.835   3.695   1.779
 9903SOL     OW30607   4.917   6.704   2.205
 9903SOL    HW130608   4.919   6.653   2.119
 9903SOL    HW230609   4.827   6.747   2.216
 9904SOL     OW30610   6.930   4.011   6.776
 9904SOL    HW130611   6.933   4.105   6.809
 9904SOL    HW230612   7.015   3.964   6.801
 9905SOL     OW30613   1.463   6.254   7.003
 9905SOL    HW130614   1.505   6.215   6.922
 9905SOL    HW230615   1.386   6.312   6.976
 9906SOL     OW30616   2.433   3.687   6.713
 9906SOL    HW130617   2.345   3.682   6.665
 9906SOL    HW230618   2.506   3.701   6.646
 9907SOL     OW30619   1.687   6.864   3.816
 9907SOL    HW130620   1.626   6.785   3.811
 9907SOL    HW230621   1.744   6.867   3.734
 9908SOL     OW30622   0.680   3.671   5.892
 9908SOL    HW130623   0.589   3.687   5.929
 9908SOL    HW230624   0.727   3.603   5.948
 9909SOL     OW30625   3.289   0.208   3.452
 9909SOL    HW130626   3.385   0.234   3.447
 9909SOL    HW230627   3.245   0.226   3.363
 9910SOL     OW30628   1.544   5.482   1.439
 9910SOL    HW130629   1.534   5.570   1.393
 9910SOL    HW230630   1.538   5.495   1.538
 9911SOL     OW30631   4.197   5.644   2.254
 9911SOL    HW130632   4.147   5.653   2.168
 9911SOL    HW230633   4.231   5.734   2.283
 9912SOL     OW30634   4.132   0.840   1.446
 9912SOL    HW130635   4.088   0.774   1.506
 9912SOL    HW230636   4.157   0.795   1.360
 9913SOL     OW30637   6.769   3.320   2.273
 9913SOL    HW130638   6.682   3.284   2.305
 9913SOL    HW230639   6.804   3.386   2.339
 9914SOL     OW30640   0.910   0.513   5.824
 9914SOL    HW130641   0.945   0.442   5.764
 9914SOL    HW230642   0.914   0.483   5.919
 9915SOL     OW30643   4.828   2.983   4.122
 9915SOL    HW130644   4.770   2.949   4.049
 9915SOL    HW230645   4.924   2.965   4.101
 9916SOL     OW30646   2.063   2.165   3.371
 9916SOL    HW130647   2.148   2.126   3.334
 9916SOL    HW230648   2.059   2.146   3.469
 9917SOL     OW30649   3.457   3.508   4.646
 9917SOL    HW130650   3.473   3.414   4.675
 9917SOL    HW230651   3.522   3.568   4.691
 9918SOL     OW30652   0.747   2.197   1.305
 9918SOL    HW130653   0.683   2.164   1.375
 9918SOL    HW230654   0.809   2.123   1.280
 9919SOL     OW30655   2.305   6.083   1.224
 9919SOL    HW130656   2.285   6.153   1.291
 9919SOL    HW230657   2.285   6.117   1.132
 9920SOL     OW30658   3.395   0.392   2.966
 9920SOL    HW130659   3.340   0.470   2.936
 9920SOL    HW230660   3.340   0.333   3.024
 9921SOL     OW30661   4.976   6.179   4.449
 9921SOL    HW130662   4.915   6.100   4.458
 9921SOL    HW230663   5.071   6.150   4.466
 9922SOL     OW30664   4.644   4.484   0.805
 9922SOL    HW130665   4.577   4.431   0.857
 9922SOL    HW230666   4.604   4.514   0.718
 9923SOL     OW30667   6.721   3.377   6.624
 9923SOL    HW130668   6.740   3.326   6.708
 9923SOL    HW230669   6.655   3.450   6.644
 9924SOL     OW30670   5.193   2.150   3.676
 9924SOL    HW130671   5.106   2.162   3.627
 9924SOL    HW230672   5.255   2.095   3.621
 9925SOL     OW30673   1.912   4.350   4.622
 9925SOL    HW130674   1.934   4.278   4.688
 9925SOL    HW230675   1.843   4.411   4.661
 9926SOL     OW30676   3.347   2.629   1.017
 9926SOL    HW130677   3.248   2.616   1.025
 9926SOL    HW230678   3.365   2.717   0.972
 9927SOL     OW30679   0.994   2.103   0.866
 9927SOL    HW130680   0.933   2.048   0.923
 9927SOL    HW230681   1.030   2.179   0.920
 9928SOL     OW30682   5.502   3.448   2.870
 9928SOL    HW130683   5.536   3.402   2.952
 9928SOL    HW230684   5.510   3.386   2.792
 9929SOL     OW30685   3.588   4.422   5.346
 9929SOL    HW130686   3.527   4.498   5.322
 9929SOL    HW230687   3.544   4.336   5.321
 9930SOL     OW30688   0.762   0.379   6.095
 9930SOL    HW130689   0.701   0.439   6.044
 9930SOL    HW230690   0.709   0.324   6.160
 9931SOL     OW30691   6.819   5.183   4.936
 9931SOL    HW130692   6.838   5.240   4.856
 9931SOL    HW230693   6.881   5.208   5.010
 9932SOL     OW30694   1.510   1.359   6.697
 9932SOL    HW130695   1.459   1.430   6.746
 9932SOL    HW230696   1.592   1.398   6.657
 9933SOL     OW30697   1.570   0.953   4.288
 9933SOL    HW130698   1.648   1.005   4.253
 9933SOL    HW230699   1.536   0.892   4.216
 9934SOL     OW30700   6.262   1.882   6.752
 9934SOL    HW130701   6.210   1.861   6.835
 9934SOL    HW230702   6.248   1.977   6.726
 9935SOL     OW30703   2.329   0.875   0.357
 9935SOL    HW130704   2.348   0.960   0.406
 9935SOL    HW230705   2.409   0.849   0.303
 9936SOL     OW30706   6.754   5.343   6.844
 9936SOL    HW130707   6.669   5.396   6.834
 9936SOL    HW230708   6.828   5.404   6.872
 9937SOL     OW30709   1.444   0.794   3.425
 9937SOL    HW130710   1.514   0.747   3.479
 9937SOL    HW230711   1.377   0.835   3.486
 9938SOL     OW30712   5.617   0.345   3.790
 9938SOL    HW130713   5.595   0.316   3.884
 9938SOL    HW230714   5.709   0.315   3.767
 9939SOL     OW30715   2.275   2.838   0.985
 9939SOL    HW130716   2.313   2.855   1.076
 9939SOL    HW230717   2.337   2.876   0.916
 9940SOL     OW30718   0.712   0.551   4.213
 9940SOL    HW130719   0.679   0.582   4.302
 9940SOL    HW230720   0.691   0.620   4.144
 9941SOL     OW30721   3.216   5.660   5.701
 9941SOL    HW130722   3.285   5.710   5.752
 9941SOL    HW230723   3.186   5.714   5.622
 9942SOL     OW30724   4.654   5.266   1.717
 9942SOL    HW130725   4.640   5.361   1.745
 9942SOL    HW230726   4.604   5.205   1.779
 9943SOL     OW30727   1.248   3.979   6.470
 9943SOL    HW130728   1.215   3.987   6.376
 9943SOL    HW230729   1.171   3.966   6.532
 9944SOL     OW30730   6.883   5.762   6.642
 9944SOL    HW130731   6.854   5.854   6.613
 9944SOL    HW230732   6.857   5.696   6.572
 9945SOL     OW30733   5.412   4.099   6.591
 9945SOL    HW130734   5.379   4.006   6.575
 9945SOL    HW230735   5.510   4.097   6.610
 9946SOL     OW30736   6.211   0.364   3.220
 9946SOL    HW130737   6.183   0.354   3.124
 9946SOL    HW230738   6.163   0.296   3.276
 9947SOL     OW30739   2.196   1.345   4.233
 9947SOL    HW130740   2.225   1.260   4.191
 9947SOL    HW230741   2.130   1.392   4.174
 9948SOL     OW30742   6.565   5.751   5.558
 9948SOL    HW130743   6.524   5.716   5.642
 9948SOL    HW230744   6.663   5.764   5.572
 9949SOL     OW30745   6.811   5.023   4.336
 9949SOL    HW130746   6.891   4.971   4.305
 9949SOL    HW230747   6.812   5.029   4.436
 9950SOL     OW30748   6.710   5.840   5.847
 9950SOL    HW130749   6.751   5.858   5.937
 9950SOL    HW230750   6.777   5.862   5.776
 9951SOL     OW30751   1.875   2.335   2.821
 9951SOL    HW130752   1.856   2.333   2.723
 9951SOL    HW230753   1.822   2.263   2.866
 9952SOL     OW30754   1.894   3.990   0.682
 9952SOL    HW130755   1.871   4.058   0.611
 9952SOL    HW230756   1.871   3.899   0.649
 9953SOL     OW30757   5.398   2.888   3.947
 9953SOL    HW130758   5.455   2.865   3.869
 9953SOL    HW230759   5.440   2.965   3.997
 9954SOL     OW30760   1.352   0.322   5.125
 9954SOL    HW130761   1.312   0.410   5.152
 9954SOL    HW230762   1.449   0.322   5.145
 9955SOL     OW30763   4.098   3.814   6.753
 9955SOL    HW130764   4.018   3.831   6.809
 9955SOL    HW230765   4.070   3.804   6.657
 9956SOL     OW30766   0.759   3.329   2.461
 9956SOL    HW130767   0.742   3.373   2.549
 9956SOL    HW230768   0.800   3.394   2.398
 9957SOL     OW30769   5.628   0.092   2.068
 9957SOL    HW130770   5.682   0.093   2.153
 9957SOL    HW230771   5.658   0.015   2.012
 9958SOL     OW30772   3.332   6.236   5.875
 9958SOL    HW130773   3.378   6.239   5.964
 9958SOL    HW230774   3.238   6.268   5.886
 9959SOL     OW30775   4.109   3.633   2.679
 9959SOL    HW130776   4.123   3.650   2.776
 9959SOL    HW230777   4.071   3.714   2.636
 9960SOL     OW30778   0.679   6.351   1.411
 9960SOL    HW130779   0.737   6.325   1.333
 9960SOL    HW230780   0.697   6.446   1.436
 9961SOL     OW30781   2.574   4.514   2.824
 9961SOL    HW130782   2.651   4.565   2.863
 9961SOL    HW230783   2.491   4.570   2.831
 9962SOL     OW30784   3.644   0.642   2.215
 9962SOL    HW130785   3.698   0.559   2.197
 9962SOL    HW230786   3.549   0.625   2.191
 9963SOL     OW30787   2.920   3.224   6.378
 9963SOL    HW130788   3.003   3.254   6.331
 9963SOL    HW230789   2.840   3.248   6.323
 9964SOL     OW30790   4.035   4.969   6.091
 9964SOL    HW130791   3.973   5.038   6.052
 9964SOL    HW230792   4.077   4.918   6.016
 9965SOL     OW30793   3.228   4.966   4.880
 9965SOL    HW130794   3.157   5.036   4.875
 9965SOL    HW230795   3.291   4.978   4.804
 9966SOL     OW30796   2.317   4.980   1.672
 9966SOL    HW130797   2.322   4.973   1.572
 9966SOL    HW230798   2.291   4.891   1.711
 9967SOL     OW30799   6.063   5.172   2.757
 9967SOL    HW130800   6.077   5.268   2.733
 9967SOL    HW230801   6.058   5.117   2.673
 9968SOL     OW30802   4.179   5.873   6.440
 9968SOL    HW130803   4.264   5.907   6.481
 9968SOL    HW230804   4.145   5.941   6.374
 9969SOL     OW30805   1.469   2.921   4.441
 9969SOL    HW130806   1.412   2.945   4.362
 9969SOL    HW230807   1.557   2.966   4.433
 9970SOL     OW30808   0.018   4.857   2.001
 9970SOL    HW130809   0.017   4.953   2.029
 9970SOL    HW230810   0.092   4.810   2.049
 9971SOL     OW30811   2.532   3.964   0.912
 9971SOL    HW130812   2.485   3.885   0.953
 9971SOL    HW230813   2.622   3.935   0.878
 9972SOL     OW30814   3.093   4.497   0.765
 9972SOL    HW130815   3.191   4.477   0.766
 9972SOL    HW230816   3.043   4.414   0.790
 9973SOL     OW30817   3.979   2.060   4.784
 9973SOL    HW130818   3.940   2.053   4.876
 9973SOL    HW230819   3.909   2.038   4.716
 9974SOL     OW30820   6.616   2.916   2.933
 9974SOL    HW130821   6.553   2.994   2.935
 9974SOL    HW230822   6.704   2.944   2.970
 9975SOL     OW30823   0.228   4.744   6.696
 9975SOL    HW130824   0.175   4.741   6.780
 9975SOL    HW230825   0.219   4.656   6.648
 9976SOL     OW30826   0.318   4.923   5.260
 9976SOL    HW130827   0.313   4.864   5.179
 9976SOL    HW230828   0.286   4.872   5.340
 9977SOL     OW30829   6.459   5.427   5.933
 9977SOL    HW130830   6.517   5.346   5.928
 9977SOL    HW230831   6.430   5.443   6.027
 9978SOL     OW30832   6.321   1.758   5.387
 9978SOL    HW130833   6.232   1.789   5.421
 9978SOL    HW230834   6.339   1.665   5.421
 9979SOL     OW30835   6.631   4.284   5.987
 9979SOL    HW130836   6.575   4.346   5.932
 9979SOL    HW230837   6.679   4.337   6.058
 9980SOL     OW30838   1.562   0.602   0.106
 9980SOL    HW130839   1.542   0.657   0.187
 9980SOL    HW230840   1.493   0.619   0.036
 9981SOL     OW30841   2.949   1.933   0.513
 9981SOL    HW130842   3.021   1.966   0.573
 9981SOL    HW230843   2.876   2.002   0.508
 9982SOL     OW30844   0.788   1.623   3.971
 9982SOL    HW130845   0.803   1.531   4.008
 9982SOL    HW230846   0.704   1.622   3.916
 9983SOL     OW30847   0.761   0.976   1.677
 9983SOL    HW130848   0.836   0.921   1.639
 9983SOL    HW230849   0.704   1.011   1.602
 9984SOL     OW30850   0.301   6.901   0.362
 9984SOL    HW130851   0.263   6.938   0.277
 9984SOL    HW230852   0.392   6.864   0.344
 9985SOL     OW30853   3.206   0.042   1.281
 9985SOL    HW130854   3.254   0.029   1.368
 9985SOL    HW230855   3.224   6.982   1.221
 9986SOL     OW30856   5.596   4.660   0.103
 9986SOL    HW130857   5.513   4.685   0.054
 9986SOL    HW230858   5.655   4.741   0.113
 9987SOL     OW30859   6.542   2.089   2.874
 9987SOL    HW130860   6.535   1.994   2.845
 9987SOL    HW230861   6.502   2.148   2.805
 9988SOL     OW30862   0.129   5.049   4.484
 9988SOL    HW130863   0.052   5.011   4.535
 9988SOL    HW230864   0.153   5.138   4.523
 9989SOL     OW30865   5.941   3.695   2.853
 9989SOL    HW130866   5.893   3.611   2.826
 9989SOL    HW230867   6.008   3.674   2.924
 9990SOL     OW30868   2.428   0.010   3.757
 9990SOL    HW130869   2.442   6.940   3.713
 9990SOL    HW230870   2.502   0.072   3.733
 9991SOL     OW30871   1.567   3.229   4.298
 9991SOL    HW130872   1.661   3.253   4.274
 9991SOL    HW230873   1.504   3.294   4.255
 9992SOL     OW30874   4.085   3.868   0.787
 9992SOL    HW130875   4.112   3.782   0.744
 9992SOL    HW230876   4.106   3.865   0.884
 9993SOL     OW30877   3.734   6.475   3.044
 9993SOL    HW130878   3.776   6.386   3.058
 9993SOL    HW230879   3.740   6.500   2.947
 9994SOL     OW30880   0.105   3.787   3.258
 9994SOL    HW130881   0.072   3.751   3.170
 9994SOL    HW230882   0.195   3.828   3.245
 9995SOL     OW30883   3.078   0.038   3.755
 9995SOL    HW130884   3.106   6.975   3.806
 9995SOL    HW230885   3.154   0.104   3.754
 9996SOL     OW30886   2.894   2.980   1.455
 9996SOL    HW130887   2.851   3.032   1.381
 9996SOL    HW230888   2.823   2.945   1.516
 9997SOL     OW30889   5.100   1.137   1.668
 9997SOL    HW130890   5.036   1.214   1.658
 9997SOL    HW230891   5.050   1.051   1.658
 9998SOL     OW30892   5.530   3.846   2.573
 9998SOL    HW130893   5.627   3.857   2.597
 9998SOL    HW230894   5.475   3.904   2.633
 9999SOL     OW30895   0.182   5.775   5.221
 9999SOL    HW130896   0.252   5.707   5.240
 9999SOL    HW230897   0.147   5.762   5.129
10000SOL     OW30898   5.767   1.997   6.446
10000SOL    HW130899   5.785   1.901   6.466
10000SOL    HW230900   5.700   2.004   6.372
10001SOL     OW30901   4.003   0.637   1.563
10001SOL    HW130902   3.944   0.705   1.605
10001SOL    HW230903   3.958   0.548   1.565
10002SOL     OW30904   1.213   1.275   1.694
10002SOL    HW130905   1.174   1.267   1.786
10002SOL    HW230906   1.271   1.195   1.676
10003SOL     OW30907   2.932   2.262   2.488
10003SOL    HW130908   2.970   2.346   2.450
10003SOL    HW230909   2.932   2.191   2.418
10004SOL     OW30910   5.573   3.444   5.348
10004SOL    HW130911   5.657   3.493   5.327
10004SOL    HW230912   5.523   3.425   5.262
10005SOL     OW30913   3.611   6.010   2.577
10005SOL    HW130914   3.557   6.062   2.643
10005SOL    HW230915   3.642   5.924   2.619
10006SOL     OW30916   5.871   1.045   5.726
10006SOL    HW130917   5.855   1.036   5.628
10006SOL    HW230918   5.793   1.007   5.777
10007SOL     OW30919   1.010   3.104   4.322
10007SOL    HW130920   1.045   3.076   4.411
10007SOL    HW230921   1.080   3.155   4.273
10008SOL     OW30922   3.854   1.263   3.201
10008SOL    HW130923   3.902   1.327   3.261
10008SOL    HW230924   3.781   1.311   3.152
10009SOL     OW30925   2.041   4.227   1.618
10009SOL    HW130926   1.972   4.171   1.664
10009SOL    HW230927   2.110   4.256   1.684
10010SOL     OW30928   1.922   5.763   0.460
10010SOL    HW130929   1.940   5.690   0.395
10010SOL    HW230930   1.945   5.732   0.553
10011SOL     OW30931   0.640   3.567   6.265
10011SOL    HW130932   0.679   3.632   6.329
10011SOL    HW230933   0.543   3.553   6.287
10012SOL     OW30934   5.371   6.436   2.154
10012SOL    HW130935   5.427   6.462   2.232
10012SOL    HW230936   5.419   6.365   2.102
10013SOL     OW30937   1.988   1.782   4.204
10013SOL    HW130938   2.081   1.813   4.188
10013SOL    HW230939   1.982   1.740   4.295
10014SOL     OW30940   0.549   1.738   1.588
10014SOL    HW130941   0.501   1.733   1.501
10014SOL    HW230942   0.488   1.708   1.662
10015SOL     OW30943   4.377   4.894   7.011
10015SOL    HW130944   4.343   4.891   6.917
10015SOL    HW230945   4.369   4.803   0.033
10016SOL     OW30946   1.419   0.267   4.872
10016SOL    HW130947   1.404   0.330   4.796
10016SOL    HW230948   1.377   0.303   4.955
10017SOL     OW30949   1.993   1.891   2.636
10017SOL    HW130950   1.960   1.912   2.544
10017SOL    HW230951   2.092   1.878   2.633
10018SOL     OW30952   6.566   4.774   5.934
10018SOL    HW130953   6.490   4.795   5.872
10018SOL    HW230954   6.544   4.693   5.987
10019SOL     OW30955   0.704   2.101   3.186
10019SOL    HW130956   0.771   2.170   3.214
10019SOL    HW230957   0.738   2.010   3.210
10020SOL     OW30958   0.282   0.917   1.453
10020SOL    HW130959   0.298   0.977   1.374
10020SOL    HW230960   0.200   0.862   1.438
10021SOL     OW30961   0.734   1.837   2.542
10021SOL    HW130962   0.765   1.767   2.477
10021SOL    HW230963   0.680   1.794   2.614
10022SOL     OW30964   3.952   0.024   0.975
10022SOL    HW130965   3.965   0.123   0.965
10022SOL    HW230966   4.012   6.996   0.911
10023SOL     OW30967   2.467   4.802   4.952
10023SOL    HW130968   2.519   4.725   4.916
10023SOL    HW230969   2.526   4.857   5.011
10024SOL     OW30970   1.673   6.354   1.855
10024SOL    HW130971   1.660   6.351   1.756
10024SOL    HW230972   1.587   6.379   1.899
10025SOL     OW30973   2.157   2.324   1.637
10025SOL    HW130974   2.234   2.347   1.577
10025SOL    HW230975   2.190   2.323   1.732
10026SOL     OW30976   4.469   6.305   2.573
10026SOL    HW130977   4.561   6.280   2.545
10026SOL    HW230978   4.403   6.250   2.521
10027SOL     OW30979   0.987   3.710   5.008
10027SOL    HW130980   0.959   3.624   4.966
10027SOL    HW230981   1.049   3.759   4.947
10028SOL     OW30982   1.191   1.569   1.985
10028SOL    HW130983   1.121   1.578   2.055
10028SOL    HW230984   1.217   1.472   1.975
10029SOL     OW30985   2.350   1.668   4.043
10029SOL    HW130986   2.401   1.608   4.104
10029SOL    HW230987   2.298   1.613   3.977
10030SOL     OW30988   2.714   0.650   4.313
10030SOL    HW130989   2.655   0.592   4.369
10030SOL    HW230990   2.664   0.733   4.288
10031SOL     OW30991   5.727   4.859   4.106
10031SOL    HW130992   5.781   4.857   4.190
10031SOL    HW230993   5.737   4.947   4.061
10032SOL     OW30994   3.703   0.552   5.188
10032SOL    HW130995   3.714   0.496   5.271
10032SOL    HW230996   3.645   0.504   5.123
10033SOL     OW30997   4.546   2.533   4.327
10033SOL    HW130998   4.526   2.505   4.233
10033SOL    HW230999   4.469   2.508   4.386
10034SOL     OW31000   3.489   0.508   4.322
10034SOL    HW131001   3.484   0.421   4.370
10034SOL    HW231002   3.584   0.532   4.306
10035SOL     OW31003   0.034   4.779   2.307
10035SOL    HW131004   0.125   4.759   2.343
10035SOL    HW231005   7.009   4.850   2.362
10036SOL     OW31006   6.104   0.787   1.218
10036SOL    HW131007   6.030   0.744   1.168
10036SOL    HW231008   6.115   0.882   1.189
10037SOL     OW31009   6.092   1.488   0.463
10037SOL    HW131010   6.060   1.548   0.536
10037SOL    HW231011   6.035   1.502   0.382
10038SOL     OW31012   4.357   0.978   6.529
10038SOL    HW131013   4.308   1.062   6.549
10038SOL    HW231014   4.318   0.903   6.582
10039SOL     OW31015   3.943   0.070   4.938
10039SOL    HW131016   4.013   7.019   4.950
10039SOL    HW231017   3.888   0.076   5.021
10040SOL     OW31018   4.301   5.867   6.030
10040SOL    HW131019   4.262   5.809   5.958
10040SOL    HW231020   4.344   5.947   5.988
10041SOL     OW31021   4.528   5.762   6.787
10041SOL    HW131022   4.505   5.704   6.709
10041SOL    HW231023   4.449   5.769   6.848
10042SOL     OW31024   1.431   1.795   4.993
10042SOL    HW131025   1.499   1.738   5.036
10042SOL    HW231026   1.412   1.875   5.050
10043SOL     OW31027   0.216   2.579   4.420
10043SOL    HW131028   0.161   2.611   4.343
10043SOL    HW231029   0.168   2.504   4.466
10044SOL     OW31030   2.886   1.857   4.852
10044SOL    HW131031   2.911   1.854   4.949
10044SOL    HW231032   2.808   1.919   4.840
10045SOL     OW31033   5.097   6.987   3.552
10045SOL    HW131034   5.001   6.981   3.579
10045SOL    HW231035   5.126   0.064   3.554
10046SOL     OW31036   1.910   3.758   1.631
10046SOL    HW131037   1.984   3.811   1.589
10046SOL    HW231038   1.941   3.717   1.716
10047SOL     OW31039   6.091   3.771   5.005
10047SOL    HW131040   6.061   3.866   5.011
10047SOL    HW231041   6.131   3.744   5.093
10048SOL     OW31042   6.253   1.017   2.614
10048SOL    HW131043   6.259   1.101   2.560
10048SOL    HW231044   6.157   0.992   2.626
10049SOL     OW31045   7.012   6.926   6.725
10049SOL    HW131046   6.939   6.959   6.786
10049SOL    HW231047   0.041   6.850   6.770
10050SOL     OW31048   5.760   2.992   3.988
10050SOL    HW131049   5.797   2.903   3.961
10050SOL    HW231050   5.830   3.063   3.974
10051SOL     OW31051   5.228   2.429   5.112
10051SOL    HW131052   5.241   2.458   5.207
10051SOL    HW231053   5.182   2.501   5.061
10052SOL     OW31054   2.314   2.004   3.005
10052SOL    HW131055   2.366   1.923   2.978
10052SOL    HW231056   2.250   2.027   2.932
10053SOL     OW31057   3.378   5.907   2.478
10053SOL    HW131058   3.473   5.930   2.497
10053SOL    HW231059   3.318   5.982   2.505
10054SOL     OW31060   5.480   5.218   6.538
10054SOL    HW131061   5.411   5.151   6.566
10054SOL    HW231062   5.571   5.177   6.548
10055SOL     OW31063   5.914   2.268   4.828
10055SOL    HW131064   5.871   2.276   4.738
10055SOL    HW231065   5.844   2.271   4.899
10056SOL     OW31066   5.755   3.900   3.251
10056SOL    HW131067   5.735   3.945   3.338
10056SOL    HW231068   5.819   3.825   3.266
10057SOL     OW31069   4.326   1.488   4.920
10057SOL    HW131070   4.359   1.581   4.907
10057SOL    HW231071   4.317   1.470   5.018
10058SOL     OW31072   0.354   3.616   4.356
10058SOL    HW131073   0.289   3.545   4.383
10058SOL    HW231074   0.443   3.597   4.396
10059SOL     OW31075   5.695   0.396   1.362
10059SOL    HW131076   5.725   0.491   1.365
10059SOL    HW231077   5.624   0.381   1.431
10060SOL     OW31078   1.599   1.819   1.215
10060SOL    HW131079   1.634   1.831   1.308
10060SOL    HW231080   1.640   1.887   1.155
10061SOL     OW31081   4.502   1.538   3.931
10061SOL    HW131082   4.525   1.542   3.834
10061SOL    HW231083   4.456   1.623   3.957
10062SOL     OW31084   5.865   0.137   4.150
10062SOL    HW131085   5.880   0.074   4.226
10062SOL    HW231086   5.862   0.086   4.064
10063SOL     OW31087   2.307   0.542   3.770
10063SOL    HW131088   2.258   0.456   3.778
10063SOL    HW231089   2.348   0.549   3.679
10064SOL     OW31090   5.103   0.000   7.014
10064SOL    HW131091   5.003   7.014   0.000
10064SOL    HW231092   5.139   6.936   6.973
10065SOL     OW31093   2.305   0.419   2.186
10065SOL    HW131094   2.273   0.492   2.125
10065SOL    HW231095   2.249   0.419   2.269
10066SOL     OW31096   0.820   2.472   4.002
10066SOL    HW131097   0.853   2.378   4.010
10066SOL    HW231098   0.724   2.476   4.029
10067SOL     OW31099   6.623   4.072   4.958
10067SOL    HW131100   6.701   4.009   4.962
10067SOL    HW231101   6.600   4.090   4.863
10068SOL     OW31102   0.312   3.248   2.863
10068SOL    HW131103   0.374   3.221   2.936
10068SOL    HW231104   0.364   3.289   2.788
10069SOL     OW31105   1.995   4.770   2.562
10069SOL    HW131106   1.977   4.869   2.564
10069SOL    HW231107   2.067   4.751   2.495
10070SOL     OW31108   6.585   6.234   4.936
10070SOL    HW131109   6.570   6.293   4.857
10070SOL    HW231110   6.611   6.290   5.015
10071SOL     OW31111   6.280   5.780   4.692
10071SOL    HW131112   6.364   5.734   4.719
10071SOL    HW231113   6.203   5.740   4.742
10072SOL     OW31114   6.888   6.521   3.689
10072SOL    HW131115   6.879   6.423   3.709
10072SOL    HW231116   6.917   6.569   3.771
10073SOL     OW31117   6.075   4.548   5.260
10073SOL    HW131118   6.142   4.476   5.243
10073SOL    HW231119   5.986   4.507   5.279
10074SOL     OW31120   1.784   0.651   5.318
10074SOL    HW131121   1.837   0.709   5.380
10074SOL    HW231122   1.696   0.694   5.300
10075SOL     OW31123   2.099   2.767   2.922
10075SOL    HW131124   2.059   2.710   2.850
10075SOL    HW231125   2.071   2.862   2.909
10076SOL     OW31126   6.904   0.394   4.319
10076SOL    HW131127   6.835   0.379   4.249
10076SOL    HW231128   6.890   0.330   4.395
10077SOL     OW31129   4.072   2.809   6.237
10077SOL    HW131130   4.151   2.813   6.300
10077SOL    HW231131   3.992   2.776   6.287
10078SOL     OW31132   0.671   6.084   3.429
10078SOL    HW131133   0.605   6.028   3.378
10078SOL    HW231134   0.764   6.065   3.395
10079SOL     OW31135   6.086   3.846   3.747
10079SOL    HW131136   6.114   3.831   3.842
10079SOL    HW231137   6.007   3.789   3.726
10080SOL     OW31138   3.997   0.744   5.662
10080SOL    HW131139   4.033   0.694   5.584
10080SOL    HW231140   4.007   0.688   5.745
10081SOL     OW31141   6.660   0.337   1.134
10081SOL    HW131142   6.580   0.306   1.082
10081SOL    HW231143   6.629   0.382   1.218
10082SOL     OW31144   0.648   5.651   1.800
10082SOL    HW131145   0.684   5.561   1.776
10082SOL    HW231146   0.625   5.701   1.716
10083SOL     OW31147   4.009   1.099   3.534
10083SOL    HW131148   4.040   1.063   3.622
10083SOL    HW231149   3.926   1.154   3.548
10084SOL     OW31150   1.696   1.096   5.354
10084SOL    HW131151   1.750   1.180   5.357
10084SOL    HW231152   1.708   1.045   5.439
10085SOL     OW31153   2.441   5.940   0.927
10085SOL    HW131154   2.434   5.866   0.995
10085SOL    HW231155   2.385   6.018   0.957
10086SOL     OW31156   4.438   6.135   2.131
10086SOL    HW131157   4.436   6.097   2.038
10086SOL    HW231158   4.415   6.062   2.197
10087SOL     OW31159   6.718   6.720   4.062
10087SOL    HW131160   6.803   6.745   4.016
10087SOL    HW231161   6.652   6.686   3.994
10088SOL     OW31162   6.414   7.014   1.565
10088SOL    HW131163   6.319   0.022   1.584
10088SOL    HW231164   6.446   0.045   1.484
10089SOL     OW31165   2.982   1.946   2.842
10089SOL    HW131166   3.021   2.011   2.907
10089SOL    HW231167   2.932   1.996   2.771
10090SOL     OW31168   1.250   4.754   1.828
10090SOL    HW131169   1.221   4.802   1.745
10090SOL    HW231170   1.189   4.779   1.903
10091SOL     OW31171   0.495   4.543   6.622
10091SOL    HW131172   0.473   4.515   6.715
10091SOL    HW231173   0.416   4.524   6.562
10092SOL     OW31174   2.493   2.520   5.725
10092SOL    HW131175   2.567   2.463   5.690
10092SOL    HW231176   2.406   2.490   5.686
10093SOL     OW31177   6.102   3.082   4.991
10093SOL    HW131178   6.109   3.180   5.008
10093SOL    HW231179   6.181   3.052   4.938
10094SOL     OW31180   3.553   5.554   1.379
10094SOL    HW131181   3.599   5.479   1.332
10094SOL    HW231182   3.492   5.516   1.448
10095SOL     OW31183   5.740   2.184   5.556
10095SOL    HW131184   5.648   2.202   5.520
10095SOL    HW231185   5.734   2.162   5.653
10096SOL     OW31186   4.515   5.138   3.095
10096SOL    HW131187   4.497   5.046   3.128
10096SOL    HW231188   4.526   5.137   2.996
10097SOL     OW31189   0.699   1.174   0.036
10097SOL    HW131190   0.721   1.211   0.127
10097SOL    HW231191   0.715   1.244   6.986
10098SOL     OW31192   2.498   6.911   5.096
10098SOL    HW131193   2.573   6.889   5.034
10098SOL    HW231194   2.477   7.009   5.092
10099SOL     OW31195   0.727   5.073   1.241
10099SOL    HW131196   0.725   5.127   1.156
10099SOL    HW231197   0.722   4.976   1.218
10100SOL     OW31198   4.707   6.312   4.901
10100SOL    HW131199   4.677   6.371   4.975
10100SOL    HW231200   4.633   6.249   4.875
10101SOL     OW31201   6.090   3.950   2.169
10101SOL    HW131202   6.137   3.967   2.255
10101SOL    HW231203   6.106   3.856   2.140
10102SOL     OW31204   0.648   1.252   2.298
10102SOL    HW131205   0.639   1.334   2.356
10102SOL    HW231206   0.557   1.220   2.271
10103SOL     OW31207   2.845   0.449   5.743
10103SOL    HW131208   2.889   0.381   5.803
10103SOL    HW231209   2.749   0.458   5.769
10104SOL     OW31210   1.886   1.776   4.576
10104SOL    HW131211   1.854   1.778   4.671
10104SOL    HW231212   1.927   1.687   4.557
10105SOL     OW31213   1.684   0.959   6.666
10105SOL    HW131214   1.783   0.976   6.666
10105SOL    HW231215   1.649   0.964   6.572
10106SOL     OW31216   3.783   6.061   0.160
10106SOL    HW131217   3.764   6.138   0.221
10106SOL    HW231218   3.700   6.038   0.109
10107SOL     OW31219   5.954   1.595   5.532
10107SOL    HW131220   5.899   1.515   5.508
10107SOL    HW231221   5.988   1.585   5.626
10108SOL     OW31222   6.473   0.457   6.952
10108SOL    HW131223   6.441   0.543   6.992
10108SOL    HW231224   6.572   0.460   6.941
10109SOL     OW31225   5.738   0.958   0.672
10109SOL    HW131226   5.723   1.023   0.598
10109SOL    HW231227   5.812   0.895   0.646
10110SOL     OW31228   4.441   4.599   4.599
10110SOL    HW131229   4.516   4.534   4.603
10110SOL    HW231230   4.435   4.649   4.685
10111SOL     OW31231   5.841   3.731   3.725
10111SOL    HW131232   5.768   3.748   3.793
10111SOL    HW231233   5.856   3.632   3.717
10112SOL     OW31234   6.127   3.991   3.433
10112SOL    HW131235   6.036   3.961   3.462
10112SOL    HW231236   6.129   4.091   3.427
10113SOL     OW31237   4.039   0.064   6.893
10113SOL    HW131238   4.136   0.044   6.879
10113SOL    HW231239   4.028   0.161   6.914
10114SOL     OW31240   4.279   2.030   1.706
10114SOL    HW131241   4.179   2.030   1.708
10114SOL    HW231242   4.311   2.104   1.647
10115SOL     OW31243   3.506   0.312   5.067
10115SOL    HW131244   3.494   0.394   5.012
10115SOL    HW231245   3.435   0.308   5.137
10116SOL     OW31246   0.383   6.741   0.120
10116SOL    HW131247   0.465   6.725   0.176
10116SOL    HW231248   0.403   6.719   0.025
10117SOL     OW31249   0.235   6.495   6.293
10117SOL    HW131250   0.140   6.465   6.289
10117SOL    HW231251   0.239   6.594   6.293
10118SOL     OW31252   2.478   4.428   2.584
10118SOL    HW131253   2.517   4.451   2.673
10118SOL    HW231254   2.421   4.347   2.592
10119SOL     OW31255   0.075   6.128   4.828
10119SOL    HW131256   0.087   6.032   4.855
10119SOL    HW231257   0.083   6.187   4.908
10120SOL     OW31258   2.071   3.209   4.219
10120SOL    HW131259   2.124   3.156   4.286
10120SOL    HW231260   2.111   3.199   4.129
10121SOL     OW31261   6.117   3.614   0.038
10121SOL    HW131262   6.046   3.603   0.108
10121SOL    HW231263   6.196   3.558   0.062
10122SOL     OW31264   5.748   3.132   2.430
10122SOL    HW131265   5.819   3.104   2.367
10122SOL    HW231266   5.664   3.082   2.411
10123SOL     OW31267   5.396   5.697   0.671
10123SOL    HW131268   5.368   5.739   0.757
10123SOL    HW231269   5.479   5.740   0.638
10124SOL     OW31270   1.300   4.418   0.582
10124SOL    HW131271   1.322   4.338   0.638
10124SOL    HW231272   1.309   4.501   0.638
10125SOL     OW31273   1.460   1.375   2.007
10125SOL    HW131274   1.403   1.404   2.084
10125SOL    HW231275   1.491   1.281   2.022
10126SOL     OW31276   6.826   6.995   6.887
10126SOL    HW131277   6.793   6.953   6.971
10126SOL    HW231278   6.788   0.069   6.879
10127SOL     OW31279   2.788   4.133   6.385
10127SOL    HW131280   2.738   4.076   6.451
10127SOL    HW231281   2.798   4.083   6.299
10128SOL     OW31282   3.122   0.903   6.790
10128SOL    HW131283   3.070   0.818   6.780
10128SOL    HW231284   3.059   0.980   6.797
10129SOL     OW31285   6.383   1.369   2.418
10129SOL    HW131286   6.472   1.415   2.418
10129SOL    HW231287   6.395   1.275   2.384
10130SOL     OW31288   1.407   2.309   1.209
10130SOL    HW131289   1.403   2.238   1.138
10130SOL    HW231290   1.317   2.320   1.251
10131SOL     OW31291   1.590   6.586   4.658
10131SOL    HW131292   1.615   6.555   4.750
10131SOL    HW231293   1.576   6.685   4.659
10132SOL     OW31294   3.370   0.679   3.828
10132SOL    HW131295   3.281   0.698   3.788
10132SOL    HW231296   3.396   0.584   3.808
10133SOL     OW31297   4.346   6.392   0.375
10133SOL    HW131298   4.255   6.375   0.337
10133SOL    HW231299   4.341   6.465   0.443
10134SOL     OW31300   6.513   6.955   2.295
10134SOL    HW131301   6.515   6.998   2.385
10134SOL    HW231302   6.602   6.912   2.277
10135SOL     OW31303   4.912   3.431   3.382
10135SOL    HW131304   4.995   3.430   3.326
10135SOL    HW231305   4.869   3.521   3.376
10136SOL     OW31306   5.036   1.370   2.548
10136SOL    HW131307   5.065   1.306   2.619
10136SOL    HW231308   5.075   1.460   2.565
10137SOL     OW31309   0.454   3.546   4.099
10137SOL    HW131310   0.401   3.611   4.154
10137SOL    HW231311   0.464   3.460   4.149
10138SOL     OW31312   5.563   4.012   0.498
10138SOL    HW131313   5.493   3.995   0.430
10138SOL    HW231314   5.540   3.964   0.583
10139SOL     OW31315   3.178   3.451   3.237
10139SOL    HW131316   3.082   3.478   3.244
10139SOL    HW231317   3.192   3.363   3.284
10140SOL     OW31318   6.955   6.280   7.004
10140SOL    HW131319   6.889   6.306   6.933
10140SOL    HW231320   6.982   6.361   0.037
10141SOL     OW31321   4.094   0.889   5.990
10141SOL    HW131322   4.097   0.802   6.040
10141SOL    HW231323   4.005   0.898   5.945
10142SOL     OW31324   6.853   0.092   5.714
10142SOL    HW131325   6.803   0.139   5.787
10142SOL    HW231326   6.896   0.160   5.654
10143SOL     OW31327   5.231   1.514   0.724
10143SOL    HW131328   5.171   1.487   0.649
10143SOL    HW231329   5.228   1.613   0.735
10144SOL     OW31330   3.861   0.243   6.173
10144SOL    HW131331   3.912   0.171   6.125
10144SOL    HW231332   3.926   0.308   6.212
10145SOL     OW31333   3.252   5.452   3.456
10145SOL    HW131334   3.180   5.497   3.403
10145SOL    HW231335   3.246   5.481   3.551
10146SOL     OW31336   4.749   4.236   5.006
10146SOL    HW131337   4.680   4.303   4.979
10146SOL    HW231338   4.759   4.167   4.934
10147SOL     OW31339   5.150   4.170   6.394
10147SOL    HW131340   5.222   4.233   6.424
10147SOL    HW231341   5.156   4.156   6.295
10148SOL     OW31342   5.181   4.693   6.512
10148SOL    HW131343   5.181   4.638   6.429
10148SOL    HW231344   5.096   4.677   6.563
10149SOL     OW31345   5.866   3.563   1.736
10149SOL    HW131346   5.928   3.638   1.714
10149SOL    HW231347   5.773   3.587   1.708
10150SOL     OW31348   3.883   3.209   0.987
10150SOL    HW131349   3.882   3.219   1.087
10150SOL    HW231350   3.843   3.291   0.945
10151SOL     OW31351   0.516   5.882   0.147
10151SOL    HW131352   0.558   5.815   0.086
10151SOL    HW231353   0.459   5.945   0.094
10152SOL     OW31354   6.457   6.334   4.145
10152SOL    HW131355   6.460   6.414   4.204
10152SOL    HW231356   6.469   6.251   4.201
10153SOL     OW31357   4.518   5.879   3.029
10153SOL    HW131358   4.441   5.853   3.088
10153SOL    HW231359   4.584   5.932   3.082
10154SOL     OW31360   3.875   5.955   4.928
10154SOL    HW131361   3.778   5.932   4.925
10154SOL    HW231362   3.887   6.046   4.968
10155SOL     OW31363   3.896   2.234   6.456
10155SOL    HW131364   3.847   2.321   6.468
10155SOL    HW231365   3.917   2.220   6.360
10156SOL     OW31366   4.948   0.486   2.271
10156SOL    HW131367   4.992   0.403   2.237
10156SOL    HW231368   5.006   0.565   2.252
10157SOL     OW31369   0.239   2.024   0.164
10157SOL    HW131370   0.223   1.928   0.140
10157SOL    HW231371   0.192   2.046   0.249
10158SOL     OW31372   6.288   5.773   0.753
10158SOL    HW131373   6.190   5.772   0.733
10158SOL    HW231374   6.304   5.739   0.845
10159SOL     OW31375   2.795   2.772   0.907
10159SOL    HW131376   2.766   2.811   0.819
10159SOL    HW231377   2.891   2.747   0.903
10160SOL     OW31378   1.536   2.561   1.999
10160SOL    HW131379   1.474   2.626   2.042
10160SOL    HW231380   1.628   2.574   2.036
10161SOL     OW31381   4.173   4.135   0.727
10161SOL    HW131382   4.136   4.044   0.748
10161SOL    HW231383   4.273   4.131   0.726
10162SOL     OW31384   3.690   4.463   0.440
10162SOL    HW131385   3.770   4.405   0.456
10162SOL    HW231386   3.708   4.522   0.361
10163SOL     OW31387   6.712   3.660   0.278
10163SOL    HW131388   6.679   3.666   0.372
10163SOL    HW231389   6.636   3.673   0.215
10164SOL     OW31390   5.892   3.415   4.253
10164SOL    HW131391   5.916   3.360   4.173
10164SOL    HW231392   5.946   3.499   4.253
10165SOL     OW31393   6.771   1.146   3.898
10165SOL    HW131394   6.801   1.230   3.943
10165SOL    HW231395   6.844   1.077   3.903
10166SOL     OW31396   3.595   1.831   1.644
10166SOL    HW131397   3.510   1.877   1.670
10166SOL    HW231398   3.592   1.735   1.672
10167SOL     OW31399   0.950   4.849   6.959
10167SOL    HW131400   0.903   4.822   0.023
10167SOL    HW231401   0.997   4.936   6.973
10168SOL     OW31402   6.160   2.570   6.236
10168SOL    HW131403   6.243   2.609   6.276
10168SOL    HW231404   6.159   2.588   6.137
10169SOL     OW31405   0.491   3.748   3.506
10169SOL    HW131406   0.460   3.653   3.506
10169SOL    HW231407   0.429   3.804   3.561
10170SOL     OW31408   6.211   5.751   5.741
10170SOL    HW131409   6.121   5.731   5.780
10170SOL    HW231410   6.282   5.729   5.809
10171SOL     OW31411   0.299   2.266   5.008
10171SOL    HW131412   0.247   2.191   4.966
10171SOL    HW231413   0.257   2.290   5.095
10172SOL     OW31414   1.045   5.494   4.977
10172SOL    HW131415   1.138   5.523   4.955
10172SOL    HW231416   1.032   5.400   4.946
10173SOL     OW31417   2.361   2.218   0.391
10173SOL    HW131418   2.315   2.268   0.465
10173SOL    HW231419   2.460   2.226   0.402
10174SOL     OW31420   4.985   5.101   3.026
10174SOL    HW131421   5.030   5.071   3.110
10174SOL    HW231422   4.920   5.030   2.996
10175SOL     OW31423   5.365   2.763   2.943
10175SOL    HW131424   5.410   2.695   3.001
10175SOL    HW231425   5.300   2.815   2.998
10176SOL     OW31426   0.766   3.289   5.153
10176SOL    HW131427   0.751   3.335   5.240
10176SOL    HW231428   0.801   3.197   5.169
10177SOL     OW31429   1.832   1.106   1.091
10177SOL    HW131430   1.900   1.110   1.018
10177SOL    HW231431   1.741   1.122   1.052
10178SOL     OW31432   6.759   0.448   0.272
10178SOL    HW131433   6.678   0.472   0.326
10178SOL    HW231434   6.751   0.487   0.181
10179SOL     OW31435   0.199   2.512   0.111
10179SOL    HW131436   0.211   2.414   0.098
10179SOL    HW231437   0.155   2.552   0.030
10180SOL     OW31438   4.153   0.672   6.127
10180SOL    HW131439   4.252   0.679   6.116
10180SOL    HW231440   4.130   0.664   6.224
10181SOL     OW31441   6.486   3.164   1.594
10181SOL    HW131442   6.520   3.071   1.583
10181SOL    HW231443   6.397   3.161   1.640
10182SOL     OW31444   4.351   0.849   1.627
10182SOL    HW131445   4.285   0.849   1.552
10182SOL    HW231446   4.350   0.939   1.671
10183SOL     OW31447   6.625   2.796   6.113
10183SOL    HW131448   6.531   2.773   6.140
10183SOL    HW231449   6.656   2.875   6.165
10184SOL     OW31450   4.153   1.472   6.088
10184SOL    HW131451   4.232   1.411   6.097
10184SOL    HW231452   4.070   1.423   6.115
10185SOL     OW31453   5.755   6.130   3.338
10185SOL    HW131454   5.710   6.053   3.381
10185SOL    HW231455   5.745   6.211   3.396
10186SOL     OW31456   5.062   4.120   4.275
10186SOL    HW131457   4.965   4.142   4.268
10186SOL    HW231458   5.074   4.021   4.266
10187SOL     OW31459   1.499   4.014   6.547
10187SOL    HW131460   1.537   3.958   6.473
10187SOL    HW231461   1.400   4.015   6.541
10188SOL     OW31462   3.731   4.213   0.102
10188SOL    HW131463   3.679   4.174   0.025
10188SOL    HW231464   3.672   4.217   0.183
10189SOL     OW31465   0.147   0.931   6.840
10189SOL    HW131466   0.164   0.986   6.922
10189SOL    HW231467   0.232   0.921   6.789
10190SOL     OW31468   3.842   3.281   1.250
10190SOL    HW131469   3.835   3.376   1.282
10190SOL    HW231470   3.820   3.219   1.325
10191SOL     OW31471   4.701   5.553   6.486
10191SOL    HW131472   4.610   5.592   6.504
10191SOL    HW231473   4.770   5.605   6.537
10192SOL     OW31474   4.127   1.336   5.377
10192SOL    HW131475   4.198   1.344   5.307
10192SOL    HW231476   4.086   1.426   5.393
10193SOL     OW31477   3.725   2.974   2.002
10193SOL    HW131478   3.659   2.923   2.057
10193SOL    HW231479   3.747   3.060   2.048
10194SOL     OW31480   4.542   0.222   5.669
10194SOL    HW131481   4.574   0.312   5.643
10194SOL    HW231482   4.446   0.211   5.642
10195SOL     OW31483   6.717   6.253   0.656
10195SOL    HW131484   6.656   6.264   0.577
10195SOL    HW231485   6.738   6.343   0.695
10196SOL     OW31486   3.839   2.177   3.763
10196SOL    HW131487   3.879   2.267   3.745
10196SOL    HW231488   3.813   2.134   3.677
10197SOL     OW31489   5.455   1.899   4.890
10197SOL    HW131490   5.462   1.891   4.989
10197SOL    HW231491   5.546   1.914   4.851
10198SOL     OW31492   3.107   6.861   2.199
10198SOL    HW131493   3.115   6.924   2.276
10198SOL    HW231494   3.012   6.831   2.190
10199SOL     OW31495   1.195   2.525   0.889
10199SOL    HW131496   1.204   2.492   0.794
10199SOL    HW231497   1.285   2.530   0.931
10200SOL     OW31498   4.766   3.128   5.259
10200SOL    HW131499   4.667   3.142   5.265
10200SOL    HW231500   4.813   3.208   5.295
10201SOL     OW31501   1.496   5.296   6.947
10201SOL    HW131502   1.472   5.229   7.017
10201SOL    HW231503   1.594   5.293   6.930
10202SOL     OW31504   2.808   4.771   0.144
10202SOL    HW131505   2.787   4.868   0.151
10202SOL    HW231506   2.906   4.759   0.127
10203SOL     OW31507   6.793   3.091   1.911
10203SOL    HW131508   6.855   3.169   1.923
10203SOL    HW231509   6.723   3.093   1.982
10204SOL     OW31510   4.446   5.504   6.241
10204SOL    HW131511   4.537   5.467   6.261
10204SOL    HW231512   4.378   5.430   6.246
10205SOL     OW31513   2.345   1.237   2.434
10205SOL    HW131514   2.258   1.261   2.391
10205SOL    HW231515   2.380   1.316   2.484
10206SOL     OW31516   6.708   0.237   6.773
10206SOL    HW131517   6.789   0.271   6.725
10206SOL    HW231518   6.645   0.196   6.707
10207SOL     OW31519   0.977   1.673   6.895
10207SOL    HW131520   1.048   1.642   6.959
10207SOL    HW231521   1.002   1.644   6.803
10208SOL     OW31522   6.608   5.514   4.090
10208SOL    HW131523   6.531   5.545   4.146
10208SOL    HW231524   6.590   5.421   4.058
10209SOL     OW31525   0.112   6.947   6.448
10209SOL    HW131526   0.104   6.926   6.545
10209SOL    HW231527   0.201   6.916   6.414
10210SOL     OW31528   4.530   6.211   0.805
10210SOL    HW131529   4.613   6.198   0.750
10210SOL    HW231530   4.501   6.123   0.843
10211SOL     OW31531   4.499   6.141   4.860
10211SOL    HW131532   4.414   6.163   4.907
10211SOL    HW231533   4.479   6.083   4.781
10212SOL     OW31534   7.001   0.194   5.488
10212SOL    HW131535   6.975   0.128   5.417
10212SOL    HW231536   0.072   0.231   5.467
10213SOL     OW31537   5.396   2.884   1.802
10213SOL    HW131538   5.353   2.968   1.769
10213SOL    HW231539   5.355   2.857   1.889
10214SOL     OW31540   0.366   1.618   1.828
10214SOL    HW131541   0.338   1.713   1.839
10214SOL    HW231542   0.317   1.561   1.894
10215SOL     OW31543   3.831   3.043   4.017
10215SOL    HW131544   3.746   2.996   3.996
10215SOL    HW231545   3.888   3.048   3.935
10216SOL     OW31546   0.596   1.338   0.500
10216SOL    HW131547   0.545   1.399   0.561
10216SOL    HW231548   0.661   1.392   0.445
10217SOL     OW31549   2.004   1.934   3.780
10217SOL    HW131550   2.072   1.976   3.720
10217SOL    HW231551   1.946   2.006   3.820
10218SOL     OW31552   0.954   0.711   1.252
10218SOL    HW131553   0.975   0.665   1.166
10218SOL    HW231554   0.987   0.655   1.328
10219SOL     OW31555   0.391   2.203   2.820
10219SOL    HW131556   0.398   2.116   2.771
10219SOL    HW231557   0.381   2.186   2.918
10220SOL     OW31558   4.073   1.367   1.947
10220SOL    HW131559   4.093   1.301   1.874
10220SOL    HW231560   4.099   1.458   1.918
10221SOL     OW31561   1.674   3.559   4.837
10221SOL    HW131562   1.671   3.589   4.742
10221SOL    HW231563   1.596   3.499   4.856
10222SOL     OW31564   3.030   4.439   5.789
10222SOL    HW131565   3.122   4.402   5.777
10222SOL    HW231566   3.029   4.535   5.759
10223SOL     OW31567   2.739   5.130   0.225
10223SOL    HW131568   2.826   5.144   0.272
10223SOL    HW231569   2.710   5.216   0.182
10224SOL     OW31570   6.492   2.048   5.242
10224SOL    HW131571   6.561   2.115   5.215
10224SOL    HW231572   6.479   2.052   5.341
10225SOL     OW31573   1.911   5.878   5.696
10225SOL    HW131574   1.821   5.838   5.712
10225SOL    HW231575   1.929   5.948   5.765
10226SOL     OW31576   2.024   0.185   6.091
10226SOL    HW131577   2.055   0.090   6.104
10226SOL    HW231578   1.926   0.191   6.107
10227SOL     OW31579   4.875   4.388   0.083
10227SOL    HW131580   4.861   4.442   0.166
10227SOL    HW231581   4.796   4.329   0.068
10228SOL     OW31582   1.415   5.734   1.978
10228SOL    HW131583   1.378   5.826   1.993
10228SOL    HW231584   1.504   5.741   1.934
10229SOL     OW31585   1.941   2.078   4.243
10229SOL    HW131586   2.006   2.003   4.229
10229SOL    HW231587   1.872   2.050   4.310
10230SOL     OW31588   6.436   6.941   3.423
10230SOL    HW131589   6.520   6.887   3.418
10230SOL    HW231590   6.369   6.903   3.359
10231SOL     OW31591   6.265   5.137   5.339
10231SOL    HW131592   6.169   5.108   5.348
10231SOL    HW231593   6.306   5.093   5.260
10232SOL     OW31594   2.711   1.660   3.786
10232SOL    HW131595   2.622   1.652   3.742
10232SOL    HW231596   2.708   1.613   3.875
10233SOL     OW31597   4.160   3.935   5.690
10233SOL    HW131598   4.231   3.866   5.679
10233SOL    HW231599   4.190   4.021   5.648
10234SOL     OW31600   6.066   1.237   0.220
10234SOL    HW131601   6.072   1.156   0.161
10234SOL    HW231602   6.087   1.211   0.315
10235SOL     OW31603   3.301   1.869   0.973
10235SOL    HW131604   3.286   1.950   1.029
10235SOL    HW231605   3.248   1.792   1.010
10236SOL     OW31606   1.641   1.022   1.425
10236SOL    HW131607   1.560   0.966   1.411
10236SOL    HW231608   1.644   1.094   1.355
10237SOL     OW31609   7.016   4.355   6.506
10237SOL    HW131610   0.019   4.302   6.588
10237SOL    HW231611   6.921   4.336   6.479
10238SOL     OW31612   3.788   3.966   2.392
10238SOL    HW131613   3.695   3.979   2.425
10238SOL    HW231614   3.799   4.014   2.305
10239SOL     OW31615   2.013   3.782   5.711
10239SOL    HW131616   2.065   3.804   5.628
10239SOL    HW231617   1.969   3.693   5.700
10240SOL     OW31618   2.163   4.347   2.806
10240SOL    HW131619   2.130   4.253   2.795
10240SOL    HW231620   2.240   4.348   2.870
10241SOL     OW31621   6.861   6.153   3.423
10241SOL    HW131622   6.946   6.199   3.394
10241SOL    HW231623   6.783   6.197   3.378
10242SOL     OW31624   0.095   1.452   1.698
10242SOL    HW131625   0.190   1.478   1.684
10242SOL    HW231626   0.079   1.360   1.660
10243SOL     OW31627   2.266   4.824   2.392
10243SOL    HW131628   2.303   4.731   2.392
10243SOL    HW231629   2.326   4.884   2.445
10244SOL     OW31630   2.012   4.387   0.474
10244SOL    HW131631   2.088   4.432   0.427
10244SOL    HW231632   2.015   4.409   0.572
10245SOL     OW31633   3.382   4.731   0.420
10245SOL    HW131634   3.305   4.719   0.481
10245SOL    HW231635   3.440   4.805   0.454
10246SOL     OW31636   3.346   3.450   3.643
10246SOL    HW131637   3.417   3.403   3.696
10246SOL    HW231638   3.277   3.487   3.705
10247SOL     OW31639   6.981   3.942   5.896
10247SOL    HW131640   6.954   3.948   5.993
10247SOL    HW231641   6.969   4.031   5.852
10248SOL     OW31642   1.527   0.076   2.966
10248SOL    HW131643   1.504   0.053   3.061
10248SOL    HW231644   1.525   0.175   2.955
10249SOL     OW31645   2.305   6.632   6.704
10249SOL    HW131646   2.287   6.553   6.763
10249SOL    HW231647   2.391   6.618   6.655
10250SOL     OW31648   6.206   3.012   2.088
10250SOL    HW131649   6.257   3.097   2.097
10250SOL    HW231650   6.128   3.027   2.027
10251SOL     OW31651   2.280   1.572   4.501
10251SOL    HW131652   2.237   1.522   4.576
10251SOL    HW231653   2.331   1.507   4.443
10252SOL     OW31654   4.185   5.179   6.490
10252SOL    HW131655   4.165   5.128   6.406
10252SOL    HW231656   4.102   5.184   6.546
10253SOL     OW31657   3.056   0.032   0.307
10253SOL    HW131658   2.959   0.012   0.294
10253SOL    HW231659   3.076   0.037   0.405
10254SOL     OW31660   4.653   0.716   5.400
10254SOL    HW131661   4.596   0.781   5.348
10254SOL    HW231662   4.731   0.689   5.344
10255SOL     OW31663   1.782   6.402   0.623
10255SOL    HW131664   1.682   6.401   0.612
10255SOL    HW231665   1.804   6.420   0.719
10256SOL     OW31666   5.322   1.013   1.604
10256SOL    HW131667   5.238   1.049   1.642
10256SOL    HW231668   5.307   0.920   1.570
10257SOL     OW31669   2.322   4.879   4.710
10257SOL    HW131670   2.361   4.817   4.779
10257SOL    HW231671   2.372   4.966   4.711
10258SOL     OW31672   3.277   1.184   4.091
10258SOL    HW131673   3.317   1.163   4.180
10258SOL    HW231674   3.287   1.282   4.073
10259SOL     OW31675   0.601   5.065   3.450
10259SOL    HW131676   0.660   5.075   3.370
10259SOL    HW231677   0.509   5.096   3.428
10260SOL     OW31678   1.114   0.893   4.268
10260SOL    HW131679   1.039   0.868   4.329
10260SOL    HW231680   1.130   0.819   4.203
10261SOL     OW31681   0.000   5.211   3.040
10261SOL    HW131682   7.010   5.119   3.002
10261SOL    HW231683   7.007   5.208   3.139
10262SOL     OW31684   2.201   6.792   5.206
10262SOL    HW131685   2.217   6.814   5.109
10262SOL    HW231686   2.140   6.713   5.212
10263SOL     OW31687   5.392   0.661   6.993
10263SOL    HW131688   5.476   0.668   0.027
10263SOL    HW231689   5.407   0.696   6.901
10264SOL     OW31690   6.234   0.287   6.999
10264SOL    HW131691   6.162   0.347   0.016
10264SOL    HW231692   6.322   0.334   7.005
10265SOL     OW31693   2.063   2.919   1.508
10265SOL    HW131694   2.084   2.822   1.500
10265SOL    HW231695   2.142   2.973   1.477
10266SOL     OW31696   4.091   3.405   3.909
10266SOL    HW131697   4.075   3.493   3.864
10266SOL    HW231698   4.031   3.395   3.988
10267SOL     OW31699   5.531   2.353   6.476
10267SOL    HW131700   5.540   2.257   6.501
10267SOL    HW231701   5.434   2.375   6.460
10268SOL     OW31702   6.377   6.135   2.269
10268SOL    HW131703   6.328   6.048   2.274
10268SOL    HW231704   6.454   6.133   2.333
10269SOL     OW31705   0.448   3.144   0.041
10269SOL    HW131706   0.534   3.188   0.018
10269SOL    HW231707   0.409   3.100   6.979
10270SOL     OW31708   3.988   4.857   2.724
10270SOL    HW131709   3.901   4.812   2.700
10270SOL    HW231710   3.988   4.950   2.689
10271SOL     OW31711   3.278   2.469   5.580
10271SOL    HW131712   3.264   2.504   5.673
10271SOL    HW231713   3.375   2.447   5.567
10272SOL     OW31714   0.904   1.200   4.674
10272SOL    HW131715   0.993   1.222   4.635
10272SOL    HW231716   0.908   1.210   4.774
10273SOL     OW31717   2.836   5.883   2.733
10273SOL    HW131718   2.858   5.979   2.715
10273SOL    HW231719   2.866   5.827   2.657
10274SOL     OW31720   0.717   5.334   5.137
10274SOL    HW131721   0.809   5.346   5.174
10274SOL    HW231722   0.718   5.259   5.070
10275SOL     OW31723   0.288   6.386   1.546
10275SOL    HW131724   0.312   6.377   1.449
10275SOL    HW231725   0.325   6.471   1.582
10276SOL     OW31726   5.406   5.271   5.433
10276SOL    HW131727   5.440   5.362   5.408
10276SOL    HW231728   5.390   5.267   5.531
10277SOL     OW31729   1.717   5.246   3.434
10277SOL    HW131730   1.666   5.174   3.482
10277SOL    HW231731   1.780   5.204   3.369
10278SOL     OW31732   0.020   1.937   4.639
10278SOL    HW131733   0.094   1.870   4.641
10278SOL    HW231734   6.953   1.892   4.617
10279SOL     OW31735   2.940   5.503   3.834
10279SOL    HW131736   2.966   5.537   3.924
10279SOL    HW231737   2.852   5.456   3.841
10280SOL     OW31738   0.285   2.962   0.914
10280SOL    HW131739   0.363   3.010   0.874
10280SOL    HW231740   0.213   3.028   0.935
10281SOL     OW31741   5.869   1.601   2.290
10281SOL    HW131742   5.939   1.628   2.357
10281SOL    HW231743   5.858   1.501   2.292
10282SOL     OW31744   5.173   3.941   4.748
10282SOL    HW131745   5.152   3.999   4.670
10282SOL    HW231746   5.268   3.956   4.776
10283SOL     OW31747   1.120   3.054   0.696
10283SOL    HW131748   1.217   3.033   0.695
10283SOL    HW231749   1.083   3.040   0.788
10284SOL     OW31750   4.979   2.767   5.212
10284SOL    HW131751   5.074   2.771   5.182
10284SOL    HW231752   4.952   2.672   5.227
10285SOL     OW31753   5.733   0.027   2.431
10285SOL    HW131754   5.636   0.017   2.409
10285SOL    HW231755   5.765   0.116   2.399
10286SOL     OW31756   3.264   2.057   3.566
10286SOL    HW131757   3.260   1.994   3.488
10286SOL    HW231758   3.192   2.126   3.556
10287SOL     OW31759   1.859   0.266   1.214
10287SOL    HW131760   1.816   0.269   1.124
10287SOL    HW231761   1.937   0.329   1.216
10288SOL     OW31762   4.605   6.414   3.118
10288SOL    HW131763   4.703   6.433   3.131
10288SOL    HW231764   4.592   6.367   3.031
10289SOL     OW31765   1.880   6.735   0.958
10289SOL    HW131766   1.949   6.715   0.889
10289SOL    HW231767   1.795   6.688   0.936
10290SOL     OW31768   3.099   3.941   2.862
10290SOL    HW131769   3.164   4.014   2.843
10290SOL    HW231770   3.068   3.900   2.776
10291SOL     OW31771   4.041   1.291   3.003
10291SOL    HW131772   3.970   1.261   3.067
10291SOL    HW231773   4.066   1.215   2.943
10292SOL     OW31774   1.472   1.040   4.993
10292SOL    HW131775   1.482   1.130   4.950
10292SOL    HW231776   1.563   0.999   5.006
10293SOL     OW31777   2.381   4.333   2.942
10293SOL    HW131778   2.408   4.264   3.010
10293SOL    HW231779   2.456   4.397   2.928
10294SOL     OW31780   5.821   2.834   3.164
10294SOL    HW131781   5.736   2.850   3.113
10294SOL    HW231782   5.802   2.771   3.239
10295SOL     OW31783   6.268   4.620   6.112
10295SOL    HW131784   6.230   4.624   6.204
10295SOL    HW231785   6.366   4.599   6.118
10296SOL     OW31786   4.532   1.684   0.730
10296SOL    HW131787   4.459   1.730   0.781
10296SOL    HW231788   4.612   1.673   0.789
10297SOL     OW31789   1.960   6.809   6.568
10297SOL    HW131790   2.041   6.815   6.509
10297SOL    HW231791   1.891   6.874   6.537
10298SOL     OW31792   2.920   4.292   1.304
10298SOL    HW131793   2.913   4.392   1.310
10298SOL    HW231794   2.937   4.266   1.209
10299SOL     OW31795   5.183   4.692   3.269
10299SOL    HW131796   5.204   4.708   3.172
10299SOL    HW231797   5.242   4.620   3.304
10300SOL     OW31798   1.179   3.801   3.494
10300SOL    HW131799   1.133   3.806   3.583
10300SOL    HW231800   1.153   3.881   3.439
10301SOL     OW31801   5.118   2.828   4.841
10301SOL    HW131802   5.058   2.908   4.844
10301SOL    HW231803   5.102   2.777   4.757
10302SOL     OW31804   2.284   6.408   4.191
10302SOL    HW131805   2.230   6.388   4.272
10302SOL    HW231806   2.381   6.401   4.213
10303SOL     OW31807   1.745   6.059   2.503
10303SOL    HW131808   1.805   5.986   2.470
10303SOL    HW231809   1.758   6.140   2.447
10304SOL     OW31810   5.156   0.198   1.639
10304SOL    HW131811   5.180   0.197   1.736
10304SOL    HW231812   5.154   0.104   1.604
10305SOL     OW31813   0.868   4.421   6.372
10305SOL    HW131814   0.956   4.375   6.376
10305SOL    HW231815   0.795   4.354   6.380
10306SOL     OW31816   4.661   6.772   6.043
10306SOL    HW131817   4.699   6.712   6.114
10306SOL    HW231818   4.562   6.780   6.056
10307SOL     OW31819   2.765   2.192   5.690
10307SOL    HW131820   2.709   2.266   5.653
10307SOL    HW231821   2.755   2.189   5.790
10308SOL     OW31822   2.675   4.656   3.538
10308SOL    HW131823   2.674   4.647   3.438
10308SOL    HW231824   2.737   4.730   3.563
10309SOL     OW31825   6.864   1.864   4.948
10309SOL    HW131826   6.856   1.840   5.045
10309SOL    HW231827   6.949   1.827   4.911
10310SOL     OW31828   3.178   4.101   1.283
10310SOL    HW131829   3.248   4.029   1.274
10310SOL    HW231830   3.087   4.060   1.273
10311SOL     OW31831   0.116   6.234   0.410
10311SOL    HW131832   0.058   6.207   0.332
10311SOL    HW231833   0.136   6.332   0.403
10312SOL     OW31834   3.309   6.401   2.420
10312SOL    HW131835   3.223   6.453   2.424
10312SOL    HW231836   3.362   6.419   2.503
10313SOL     OW31837   4.939   6.645   1.711
10313SOL    HW131838   4.970   6.594   1.630
10313SOL    HW231839   5.019   6.686   1.756
10314SOL     OW31840   6.297   0.647   1.669
10314SOL    HW131841   6.302   0.677   1.764
10314SOL    HW231842   6.365   0.576   1.652
10315SOL     OW31843   5.155   6.414   5.123
10315SOL    HW131844   5.081   6.358   5.160
10315SOL    HW231845   5.229   6.356   5.092
10316SOL     OW31846   6.532   2.390   4.263
10316SOL    HW131847   6.532   2.292   4.281
10316SOL    HW231848   6.611   2.413   4.206
10317SOL     OW31849   4.041   5.208   4.843
10317SOL    HW131850   4.074   5.251   4.759
10317SOL    HW231851   4.043   5.274   4.918
10318SOL     OW31852   4.932   6.010   6.065
10318SOL    HW131853   4.921   6.024   6.163
10318SOL    HW231854   4.888   6.085   6.015
10319SOL     OW31855   1.688   2.203   5.466
10319SOL    HW131856   1.675   2.302   5.469
10319SOL    HW231857   1.724   2.176   5.377
10320SOL     OW31858   0.221   0.625   2.968
10320SOL    HW131859   0.194   0.625   3.064
10320SOL    HW231860   0.306   0.677   2.957
10321SOL     OW31861   3.899   0.865   2.539
10321SOL    HW131862   3.993   0.841   2.560
10321SOL    HW231863   3.886   0.864   2.440
10322SOL     OW31864   5.934   5.968   5.943
10322SOL    HW131865   5.937   6.036   5.870
10322SOL    HW231866   5.931   5.876   5.904
10323SOL     OW31867   6.107   3.404   5.816
10323SOL    HW131868   6.064   3.399   5.725
10323SOL    HW231869   6.037   3.425   5.884
10324SOL     OW31870   3.317   3.243   2.626
10324SOL    HW131871   3.389   3.193   2.673
10324SOL    HW231872   3.351   3.333   2.598
10325SOL     OW31873   0.313   3.909   2.715
10325SOL    HW131874   0.385   3.896   2.783
10325SOL    HW231875   0.241   3.968   2.754
10326SOL     OW31876   4.491   3.766   0.489
10326SOL    HW131877   4.579   3.749   0.445
10326SOL    HW231878   4.506   3.790   0.585
10327SOL     OW31879   2.561   2.204   1.615
10327SOL    HW131880   2.568   2.106   1.636
10327SOL    HW231881   2.613   2.256   1.682
10328SOL     OW31882   6.159   2.516   1.224
10328SOL    HW131883   6.168   2.476   1.133
10328SOL    HW231884   6.160   2.443   1.293
10329SOL     OW31885   3.330   0.203   3.776
10329SOL    HW131886   3.355   0.290   3.733
10329SOL    HW231887   3.401   0.135   3.759
10330SOL     OW31888   4.133   7.018   2.528
10330SOL    HW131889   4.214   0.002   2.586
10330SOL    HW231890   4.068   0.069   2.558
10331SOL     OW31891   6.996   1.558   4.719
10331SOL    HW131892   0.026   1.615   4.785
10331SOL    HW231893   6.940   1.616   4.660
10332SOL     OW31894   6.260   1.125   1.098
10332SOL    HW131895   6.164   1.104   1.083
10332SOL    HW231896   6.295   1.180   1.021
10333SOL     OW31897   6.173   4.362   4.686
10333SOL    HW131898   6.112   4.342   4.609
10333SOL    HW231899   6.122   4.352   4.772
10334SOL     OW31900   3.760   6.184   3.572
10334SOL    HW131901   3.731   6.088   3.575
10334SOL    HW231902   3.712   6.235   3.643
10335SOL     OW31903   2.787   4.390   6.482
10335SOL    HW131904   2.693   4.409   6.511
10335SOL    HW231905   2.789   4.303   6.432
10336SOL     OW31906   6.506   0.028   2.570
10336SOL    HW131907   6.444   0.105   2.559
10336SOL    HW231908   6.586   0.057   2.622
10337SOL     OW31909   0.345   6.982   5.755
10337SOL    HW131910   0.377   6.974   5.849
10337SOL    HW231911   0.268   0.027   5.751
10338SOL     OW31912   2.713   6.619   1.921
10338SOL    HW131913   2.781   6.649   1.854
10338SOL    HW231914   2.646   6.560   1.877
10339SOL     OW31915   3.028   5.708   0.380
10339SOL    HW131916   3.070   5.793   0.412
10339SOL    HW231917   2.946   5.689   0.433
10340SOL     OW31918   1.819   5.799   1.168
10340SOL    HW131919   1.746   5.805   1.236
10340SOL    HW231920   1.844   5.891   1.137
10341SOL     OW31921   1.889   3.397   1.843
10341SOL    HW131922   1.949   3.323   1.812
10341SOL    HW231923   1.937   3.484   1.837
10342SOL     OW31924   0.710   6.587   5.073
10342SOL    HW131925   0.800   6.611   5.110
10342SOL    HW231926   0.699   6.487   5.077
10343SOL     OW31927   3.021   5.246   0.125
10343SOL    HW131928   3.118   5.223   0.134
10343SOL    HW231929   2.999   5.319   0.189
10344SOL     OW31930   4.312   4.441   1.709
10344SOL    HW131931   4.335   4.404   1.800
10344SOL    HW231932   4.276   4.534   1.720
10345SOL     OW31933   1.813   1.411   6.561
10345SOL    HW131934   1.883   1.419   6.632
10345SOL    HW231935   1.825   1.484   6.494
10346SOL     OW31936   6.116   6.990   1.571
10346SOL    HW131937   6.025   0.004   1.598
10346SOL    HW231938   6.125   6.894   1.595
10347SOL     OW31939   5.095   2.303   2.211
10347SOL    HW131940   5.111   2.313   2.112
10347SOL    HW231941   5.141   2.220   2.244
10348SOL     OW31942   6.515   1.758   0.198
10348SOL    HW131943   6.416   1.750   0.199
10348SOL    HW231944   6.550   1.750   0.292
10349SOL     OW31945   6.808   1.514   1.541
10349SOL    HW131946   6.814   1.614   1.534
10349SOL    HW231947   6.897   1.476   1.565
10350SOL     OW31948   1.808   6.187   5.485
10350SOL    HW131949   1.874   6.168   5.413
10350SOL    HW231950   1.745   6.110   5.495
10351SOL     OW31951   4.829   5.101   6.275
10351SOL    HW131952   4.835   5.036   6.351
10351SOL    HW231953   4.734   5.109   6.246
10352SOL     OW31954   4.622   2.328   6.669
10352SOL    HW131955   4.566   2.244   6.668
10352SOL    HW231956   4.583   2.393   6.733
10353SOL     OW31957   6.873   2.468   5.715
10353SOL    HW131958   6.795   2.530   5.710
10353SOL    HW231959   6.842   2.377   5.742
10354SOL     OW31960   5.746   2.283   2.503
10354SOL    HW131961   5.672   2.243   2.556
10354SOL    HW231962   5.709   2.332   2.425
10355SOL     OW31963   2.190   0.695   2.120
10355SOL    HW131964   2.217   0.755   2.045
10355SOL    HW231965   2.091   0.684   2.120
10356SOL     OW31966   6.932   3.759   5.670
10356SOL    HW131967   6.965   3.814   5.747
10356SOL    HW231968   6.877   3.816   5.609
10357SOL     OW31969   3.130   2.819   6.587
10357SOL    HW131970   3.140   2.901   6.645
10357SOL    HW231971   3.048   2.828   6.530
10358SOL     OW31972   6.347   3.310   3.857
10358SOL    HW131973   6.300   3.222   3.849
10358SOL    HW231974   6.280   3.382   3.871
10359SOL     OW31975   6.432   1.418   1.832
10359SOL    HW131976   6.502   1.368   1.780
10359SOL    HW231977   6.415   1.506   1.789
10360SOL     OW31978   4.311   5.496   1.240
10360SOL    HW131979   4.305   5.593   1.262
10360SOL    HW231980   4.272   5.442   1.314
10361SOL     OW31981   2.586   1.055   2.902
10361SOL    HW131982   2.588   1.047   2.802
10361SOL    HW231983   2.493   1.075   2.932
10362SOL     OW31984   0.825   5.274   3.842
10362SOL    HW131985   0.812   5.182   3.805
10362SOL    HW231986   0.781   5.341   3.781
10363SOL     OW31987   4.520   2.972   0.947
10363SOL    HW131988   4.545   2.878   0.922
10363SOL    HW231989   4.544   3.033   0.872
10364SOL     OW31990   3.745   3.736   2.204
10364SOL    HW131991   3.765   3.738   2.302
10364SOL    HW231992   3.735   3.830   2.170
10365SOL     OW31993   5.432   4.402   5.490
10365SOL    HW131994   5.469   4.367   5.576
10365SOL    HW231995   5.358   4.343   5.459
10366SOL     OW31996   3.865   0.143   4.082
10366SOL    HW131997   3.957   0.173   4.055
10366SOL    HW231998   3.851   0.049   4.051
10367SOL     OW31999   6.382   1.767   2.352
10367SOL    HW132000   6.386   1.832   2.276
10367SOL    HW232001   6.474   1.745   2.383
10368SOL     OW32002   2.294   0.981   2.740
10368SOL    HW132003   2.316   0.967   2.643
10368SOL    HW232004   2.215   0.925   2.764
10369SOL     OW32005   3.488   0.955   5.685
10369SOL    HW132006   3.568   0.924   5.633
10369SOL    HW232007   3.512   0.966   5.781
10370SOL     OW32008   5.519   1.013   5.404
10370SOL    HW132009   5.518   1.083   5.333
10370SOL    HW232010   5.427   1.002   5.442
10371SOL     OW32011   2.452   5.729   4.471
10371SOL    HW132012   2.428   5.686   4.558
10371SOL    HW232013   2.533   5.787   4.483
10372SOL     OW32014   1.750   1.057   0.696
10372SOL    HW132015   1.682   1.108   0.749
10372SOL    HW232016   1.791   0.986   0.753
10373SOL     OW32017   1.538   6.518   5.326
10373SOL    HW132018   1.454   6.530   5.272
10373SOL    HW232019   1.538   6.428   5.369
10374SOL     OW32020   2.944   1.175   3.317
10374SOL    HW132021   2.904   1.260   3.348
10374SOL    HW232022   3.020   1.194   3.255
10375SOL     OW32023   2.806   1.882   6.460
10375SOL    HW132024   2.898   1.849   6.441
10375SOL    HW232025   2.770   1.930   6.379
10376SOL     OW32026   1.126   5.503   3.630
10376SOL    HW132027   1.084   5.582   3.674
10376SOL    HW232028   1.098   5.419   3.677
10377SOL     OW32029   6.292   0.574   3.995
10377SOL    HW132030   6.372   0.627   4.024
10377SOL    HW232031   6.239   0.628   3.929
10378SOL     OW32032   5.813   0.022   5.180
10378SOL    HW132033   5.834   6.994   5.095
10378SOL    HW232034   5.765   0.107   5.161
10379SOL     OW32035   3.275   6.756   4.277
10379SOL    HW132036   3.270   6.690   4.203
10379SOL    HW232037   3.371   6.771   4.302
10380SOL     OW32038   0.578   2.213   4.940
10380SOL    HW132039   0.521   2.279   4.989
10380SOL    HW232040   0.596   2.246   4.847
10381SOL     OW32041   4.325   4.593   0.750
10381SOL    HW132042   4.342   4.608   0.847
10381SOL    HW232043   4.403   4.625   0.697
10382SOL     OW32044   2.301   4.779   1.039
10382SOL    HW132045   2.270   4.868   1.074
10382SOL    HW232046   2.292   4.710   1.110
10383SOL     OW32047   0.501   3.948   0.764
10383SOL    HW132048   0.450   3.974   0.846
10383SOL    HW232049   0.437   3.920   0.693
10384SOL     OW32050   6.633   0.593   1.354
10384SOL    HW132051   6.573   0.635   1.422
10384SOL    HW232052   6.724   0.581   1.392
10385SOL     OW32053   3.792   6.485   5.640
10385SOL    HW132054   3.737   6.476   5.557
10385SOL    HW232055   3.881   6.442   5.624
10386SOL     OW32056   6.512   1.781   5.199
10386SOL    HW132057   6.512   1.881   5.190
10386SOL    HW232058   6.446   1.755   5.269
10387SOL     OW32059   4.689   1.636   2.266
10387SOL    HW132060   4.755   1.711   2.261
10387SOL    HW232061   4.708   1.580   2.346
10388SOL     OW32062   2.348   5.750   2.398
10388SOL    HW132063   2.432   5.701   2.421
10388SOL    HW232064   2.334   5.747   2.299
10389SOL     OW32065   6.778   6.316   1.264
10389SOL    HW132066   6.731   6.282   1.346
10389SOL    HW232067   6.831   6.398   1.287
10390SOL     OW32068   1.937   2.223   1.201
10390SOL    HW132069   1.928   2.268   1.289
10390SOL    HW232070   1.993   2.140   1.211
10391SOL     OW32071   6.988   5.827   3.818
10391SOL    HW132072   7.004   5.737   3.777
10391SOL    HW232073   0.010   5.897   3.760
10392SOL     OW32074   6.986   4.044   6.168
10392SOL    HW132075   7.008   4.142   6.168
10392SOL    HW232076   0.025   3.997   6.234
10393SOL     OW32077   2.384   2.610   2.412
10393SOL    HW132078   2.329   2.534   2.444
10393SOL    HW232079   2.464   2.575   2.363
10394SOL     OW32080   2.243   5.970   4.851
10394SOL    HW132081   2.210   5.907   4.781
10394SOL    HW232082   2.222   5.933   4.942
10395SOL     OW32083   6.935   0.864   3.566
10395SOL    HW132084   6.864   0.890   3.632
10395SOL    HW232085   7.002   0.805   3.611
10396SOL     OW32086   2.840   0.589   3.864
10396SOL    HW132087   2.931   0.548   3.852
10396SOL    HW232088   2.781   0.525   3.913
10397SOL     OW32089   2.845   2.010   4.263
10397SOL    HW132090   2.858   1.975   4.170
10397SOL    HW232091   2.751   1.993   4.291
10398SOL     OW32092   4.970   2.018   0.454
10398SOL    HW132093   4.904   1.943   0.464
10398SOL    HW232094   4.960   2.059   0.363
10399SOL     OW32095   4.436   1.731   4.864
10399SOL    HW132096   4.505   1.799   4.838
10399SOL    HW232097   4.347   1.775   4.873
10400SOL     OW32098   3.999   5.496   0.705
10400SOL    HW132099   3.918   5.546   0.735
10400SOL    HW232100   4.074   5.512   0.769
10401SOL     OW32101   0.152   0.463   2.618
10401SOL    HW132102   0.250   0.483   2.615
10401SOL    HW232103   0.102   0.546   2.593
10402SOL     OW32104   0.384   2.229   5.933
10402SOL    HW132105   0.383   2.258   5.837
10402SOL    HW232106   0.381   2.310   5.992
10403SOL     OW32107   4.299   1.280   3.077
10403SOL    HW132108   4.202   1.292   3.058
10403SOL    HW232109   4.313   1.196   3.129
10404SOL     OW32110   6.934   0.071   4.389
10404SOL    HW132111   6.913   0.012   4.311
10404SOL    HW232112   0.013   0.071   4.405
10405SOL     OW32113   1.443   5.736   4.784
10405SOL    HW132114   1.346   5.761   4.789
10405SOL    HW232115   1.452   5.636   4.779
10406SOL     OW32116   2.198   3.210   5.540
10406SOL    HW132117   2.218   3.178   5.632
10406SOL    HW232118   2.278   3.257   5.502
10407SOL     OW32119   2.390   0.549   6.489
10407SOL    HW132120   2.293   0.574   6.481
10407SOL    HW232121   2.447   0.628   6.465
10408SOL     OW32122   3.919   6.428   2.002
10408SOL    HW132123   3.923   6.329   2.017
10408SOL    HW232124   3.925   6.475   2.089
10409SOL     OW32125   0.797   3.898   0.416
10409SOL    HW132126   0.830   3.936   0.330
10409SOL    HW232127   0.744   3.966   0.466
10410SOL     OW32128   5.600   2.303   1.390
10410SOL    HW132129   5.691   2.304   1.348
10410SOL    HW232130   5.609   2.311   1.489
10411SOL     OW32131   3.898   5.830   4.662
10411SOL    HW132132   3.969   5.880   4.711
10411SOL    HW232133   3.862   5.758   4.721
10412SOL     OW32134   6.665   0.872   0.385
10412SOL    HW132135   6.674   0.880   0.485
10412SOL    HW232136   6.654   0.776   0.360
10413SOL     OW32137   6.894   1.778   1.589
10413SOL    HW132138   6.833   1.853   1.615
10413SOL    HW232139   6.938   1.799   1.502
10414SOL     OW32140   3.903   5.928   5.642
10414SOL    HW132141   3.953   5.933   5.555
10414SOL    HW232142   3.911   6.016   5.689
10415SOL     OW32143   2.242   4.081   3.860
10415SOL    HW132144   2.306   4.126   3.799
10415SOL    HW232145   2.216   4.145   3.933
10416SOL     OW32146   5.874   0.520   5.104
10416SOL    HW132147   5.898   0.613   5.076
10416SOL    HW232148   5.919   0.498   5.191
10417SOL     OW32149   4.679   5.411   4.234
10417SOL    HW132150   4.740   5.487   4.214
10417SOL    HW232151   4.717   5.326   4.198
10418SOL     OW32152   5.904   4.050   6.064
10418SOL    HW132153   5.927   3.959   6.099
10418SOL    HW232154   5.920   4.118   6.136
10419SOL     OW32155   2.859   7.011   5.285
10419SOL    HW132156   2.794   0.067   5.295
10419SOL    HW232157   2.952   0.029   5.281
10420SOL     OW32158   6.803   3.700   4.036
10420SOL    HW132159   6.871   3.773   4.039
10420SOL    HW232160   6.840   3.618   4.079
10421SOL     OW32161   1.794   3.247   4.859
10421SOL    HW132162   1.820   3.266   4.764
10421SOL    HW232163   1.832   3.318   4.918
10422SOL     OW32164   0.202   3.544   5.143
10422SOL    HW132165   0.156   3.542   5.054
10422SOL    HW232166   0.268   3.469   5.148
10423SOL     OW32167   4.680   4.844   5.144
10423SOL    HW132168   4.751   4.827   5.213
10423SOL    HW232169   4.600   4.788   5.164
10424SOL     OW32170   4.264   3.089   0.492
10424SOL    HW132171   4.276   3.161   0.561
10424SOL    HW232172   4.306   3.119   0.406
10425SOL     OW32173   1.056   5.883   2.794
10425SOL    HW132174   1.142   5.836   2.778
10425SOL    HW232175   1.052   5.913   2.890
10426SOL     OW32176   5.204   4.135   6.116
10426SOL    HW132177   5.218   4.045   6.157
10426SOL    HW232178   5.126   4.131   6.053
10427SOL     OW32179   5.125   0.502   0.131
10427SOL    HW132180   5.085   0.531   0.044
10427SOL    HW232181   5.116   0.403   0.140
10428SOL     OW32182   2.809   1.789   4.078
10428SOL    HW132183   2.908   1.790   4.061
10428SOL    HW232184   2.777   1.695   4.082
10429SOL     OW32185   0.998   3.859   2.970
10429SOL    HW132186   1.072   3.912   3.010
10429SOL    HW232187   1.035   3.800   2.897
10430SOL     OW32188   3.485   6.804   4.590
10430SOL    HW132189   3.449   6.893   4.617
10430SOL    HW232190   3.420   6.733   4.615
10431SOL     OW32191   2.886   0.160   4.484
10431SOL    HW132192   2.909   0.255   4.462
10431SOL    HW232193   2.805   0.158   4.543
10432SOL     OW32194   0.091   1.718   4.923
10432SOL    HW132195   0.058   1.672   5.006
10432SOL    HW232196   0.183   1.753   4.938
10433SOL     OW32197   0.430   6.760   2.517
10433SOL    HW132198   0.334   6.770   2.493
10433SOL    HW232199   0.462   6.841   2.566
10434SOL     OW32200   3.886   6.074   4.532
10434SOL    HW132201   3.807   6.108   4.584
10434SOL    HW232202   3.896   5.975   4.548
10435SOL     OW32203   2.166   2.196   6.196
10435SOL    HW132204   2.161   2.223   6.292
10435SOL    HW232205   2.261   2.177   6.172
10436SOL     OW32206   6.225   4.024   4.392
10436SOL    HW132207   6.189   4.118   4.396
10436SOL    HW232208   6.272   4.002   4.477
10437SOL     OW32209   6.205   4.980   5.093
10437SOL    HW132210   6.137   4.920   5.052
10437SOL    HW232211   6.289   4.928   5.111
10438SOL     OW32212   0.796   6.242   6.181
10438SOL    HW132213   0.697   6.235   6.173
10438SOL    HW232214   0.828   6.324   6.133
10439SOL     OW32215   5.382   1.251   4.979
10439SOL    HW132216   5.293   1.242   5.025
10439SOL    HW232217   5.368   1.287   4.887
10440SOL     OW32218   0.208   6.971   0.092
10440SOL    HW132219   0.244   0.039   0.060
10440SOL    HW232220   0.263   6.896   0.057
10441SOL     OW32221   2.850   1.601   1.533
10441SOL    HW132222   2.808   1.529   1.478
10441SOL    HW232223   2.947   1.607   1.511
10442SOL     OW32224   4.403   6.759   4.883
10442SOL    HW132225   4.416   6.780   4.786
10442SOL    HW232226   4.376   6.663   4.893
10443SOL     OW32227   5.788   2.509   2.894
10443SOL    HW132228   5.819   2.503   2.799
10443SOL    HW232229   5.794   2.604   2.925
10444SOL     OW32230   4.210   5.928   2.025
10444SOL    HW132231   4.168   5.865   1.959
10444SOL    HW232232   4.145   5.947   2.098
10445SOL     OW32233   0.692   3.522   3.180
10445SOL    HW132234   0.749   3.603   3.196
10445SOL    HW232235   0.687   3.469   3.265
10446SOL     OW32236   2.140   3.360   6.344
10446SOL    HW132237   2.051   3.402   6.359
10446SOL    HW232238   2.134   3.262   6.364
10447SOL     OW32239   0.145   0.390   2.872
10447SOL    HW132240   0.127   0.402   2.774
10447SOL    HW232241   0.181   0.475   2.910
10448SOL     OW32242   3.535   0.501   1.965
10448SOL    HW132243   3.630   0.498   1.996
10448SOL    HW232244   3.488   0.416   1.991
10449SOL     OW32245   1.960   5.300   6.350
10449SOL    HW132246   1.980   5.210   6.311
10449SOL    HW232247   1.930   5.290   6.445
10450SOL     OW32248   0.150   1.659   6.703
10450SOL    HW132249   0.065   1.664   6.651
10450SOL    HW232250   0.227   1.650   6.641
10451SOL     OW32251   2.567   6.417   2.965
10451SOL    HW132252   2.660   6.431   2.998
10451SOL    HW232253   2.510   6.495   2.989
10452SOL     OW32254   5.985   3.050   2.961
10452SOL    HW132255   6.010   2.958   2.930
10452SOL    HW232256   5.972   3.049   3.060
10453SOL     OW32257   5.499   6.286   1.456
10453SOL    HW132258   5.594   6.317   1.452
10453SOL    HW232259   5.470   6.279   1.551
10454SOL     OW32260   5.591   2.049   0.302
10454SOL    HW132261   5.619   1.966   0.350
10454SOL    HW232262   5.669   2.086   0.252
10455SOL     OW32263   0.117   6.302   3.578
10455SOL    HW132264   0.050   6.344   3.517
10455SOL    HW232265   0.075   6.284   3.666
10456SOL     OW32266   1.057   5.059   0.841
10456SOL    HW132267   1.072   5.132   0.774
10456SOL    HW232268   1.066   5.097   0.934
10457SOL     OW32269   4.648   3.248   0.463
10457SOL    HW132270   4.644   3.186   0.541
10457SOL    HW232271   4.666   3.197   0.379
10458SOL     OW32272   6.647   0.275   6.182
10458SOL    HW132273   6.716   0.219   6.229
10458SOL    HW232274   6.556   0.244   6.209
10459SOL     OW32275   4.309   5.702   1.397
10459SOL    HW132276   4.405   5.709   1.369
10459SOL    HW232277   4.303   5.705   1.496
10460SOL     OW32278   2.240   3.959   1.837
10460SOL    HW132279   2.256   3.891   1.765
10460SOL    HW232280   2.192   3.915   1.913
10461SOL     OW32281   5.938   4.700   5.063
10461SOL    HW132282   5.977   4.653   5.143
10461SOL    HW232283   5.844   4.727   5.082
10462SOL     OW32284   5.590   2.329   2.909
10462SOL    HW132285   5.606   2.297   2.816
10462SOL    HW232286   5.659   2.398   2.933
10463SOL     OW32287   3.977   2.201   6.140
10463SOL    HW132288   3.965   2.102   6.148
10463SOL    HW232289   4.071   2.221   6.111
10464SOL     OW32290   5.904   6.610   2.372
10464SOL    HW132291   5.949   6.532   2.329
10464SOL    HW232292   5.974   6.676   2.401
10465SOL     OW32293   5.510   5.830   1.140
10465SOL    HW132294   5.488   5.927   1.128
10465SOL    HW232295   5.477   5.799   1.229
10466SOL     OW32296   4.678   4.510   5.259
10466SOL    HW132297   4.721   4.475   5.342
10466SOL    HW232298   4.726   4.592   5.229
10467SOL     OW32299   2.048   1.821   0.190
10467SOL    HW132300   2.136   1.849   0.228
10467SOL    HW232301   2.002   1.758   0.253
10468SOL     OW32302   3.555   4.956   3.392
10468SOL    HW132303   3.610   4.898   3.332
10468SOL    HW232304   3.592   4.952   3.485
10469SOL     OW32305   3.974   4.384   5.830
10469SOL    HW132306   4.070   4.368   5.810
10469SOL    HW232307   3.953   4.350   5.922
10470SOL     OW32308   1.588   1.886   3.540
10470SOL    HW132309   1.679   1.864   3.505
10470SOL    HW232310   1.594   1.964   3.602
10471SOL     OW32311   2.203   0.197   0.668
10471SOL    HW132312   2.290   0.169   0.627
10471SOL    HW232313   2.145   0.117   0.682
10472SOL     OW32314   2.867   6.017   0.530
10472SOL    HW132315   2.871   5.992   0.626
10472SOL    HW232316   2.797   5.962   0.484
10473SOL     OW32317   6.286   6.991   6.172
10473SOL    HW132318   6.221   6.961   6.101
10473SOL    HW232319   6.349   6.916   6.193
10474SOL     OW32320   4.217   1.260   4.368
10474SOL    HW132321   4.136   1.295   4.320
10474SOL    HW232322   4.191   1.230   4.460
10475SOL     OW32323   4.016   6.540   1.417
10475SOL    HW132324   4.079   6.505   1.347
10475SOL    HW232325   4.009   6.639   1.408
10476SOL     OW32326   6.099   6.369   6.155
10476SOL    HW132327   6.134   6.418   6.234
10476SOL    HW232328   6.111   6.271   6.168
10477SOL     OW32329   0.006   1.331   4.522
10477SOL    HW132330   0.007   1.422   4.562
10477SOL    HW232331   6.953   1.326   4.453
10478SOL     OW32332   6.270   0.009   0.369
10478SOL    HW132333   6.281   6.985   0.279
10478SOL    HW232334   6.194   0.074   0.366
10479SOL     OW32335   6.865   1.542   2.639
10479SOL    HW132336   6.882   1.638   2.615
10479SOL    HW232337   6.776   1.535   2.686
10480SOL     OW32338   1.026   0.412   2.183
10480SOL    HW132339   1.055   0.375   2.271
10480SOL    HW232340   0.933   0.449   2.192
10481SOL     OW32341   2.033   6.064   3.858
10481SOL    HW132342   2.035   6.110   3.769
10481SOL    HW232343   2.120   6.080   3.906
10482SOL     OW32344   6.328   5.000   4.134
10482SOL    HW132345   6.406   4.998   4.196
10482SOL    HW232346   6.298   4.906   4.115
10483SOL     OW32347   6.132   5.187   0.420
10483SOL    HW132348   6.044   5.173   0.466
10483SOL    HW232349   6.202   5.131   0.465
10484SOL     OW32350   5.630   1.956   1.497
10484SOL    HW132351   5.622   1.861   1.528
10484SOL    HW232352   5.539   1.994   1.482
10485SOL     OW32353   3.499   4.080   0.754
10485SOL    HW132354   3.461   4.104   0.844
10485SOL    HW232355   3.516   4.164   0.702
10486SOL     OW32356   6.637   0.259   0.814
10486SOL    HW132357   6.714   0.282   0.875
10486SOL    HW232358   6.600   0.170   0.840
10487SOL     OW32359   5.067   0.676   1.482
10487SOL    HW132360   5.000   0.604   1.498
10487SOL    HW232361   5.038   0.759   1.529
10488SOL     OW32362   3.551   1.004   5.970
10488SOL    HW132363   3.473   1.035   6.025
10488SOL    HW232364   3.630   1.062   5.989
10489SOL     OW32365   0.877   6.716   5.390
10489SOL    HW132366   0.847   6.623   5.411
10489SOL    HW232367   0.952   6.713   5.324
10490SOL     OW32368   5.996   1.473   0.853
10490SOL    HW132369   5.946   1.533   0.915
10490SOL    HW232370   6.094   1.487   0.867
10491SOL     OW32371   1.632   2.535   0.159
10491SOL    HW132372   1.566   2.518   0.233
10491SOL    HW232373   1.704   2.596   0.192
10492SOL     OW32374   5.784   4.558   5.762
10492SOL    HW132375   5.857   4.568   5.829
10492SOL    HW232376   5.702   4.605   5.795
10493SOL     OW32377   3.104   0.603   2.275
10493SOL    HW132378   3.074   0.687   2.320
10493SOL    HW232379   3.025   0.553   2.241
10494SOL     OW32380   5.490   3.849   6.028
10494SOL    HW132381   5.421   3.820   5.961
10494SOL    HW232382   5.558   3.906   5.982
10495SOL     OW32383   1.744   6.848   0.157
10495SOL    HW132384   1.813   6.815   0.092
10495SOL    HW232385   1.680   6.908   0.109
10496SOL     OW32386   0.121   3.916   6.365
10496SOL    HW132387   0.164   3.898   6.454
10496SOL    HW232388   0.089   3.830   6.326
10497SOL     OW32389   1.759   0.183   2.151
10497SOL    HW132390   1.782   0.136   2.066
10497SOL    HW232391   1.810   0.141   2.227
10498SOL     OW32392   3.184   5.409   0.850
10498SOL    HW132393   3.158   5.337   0.914
10498SOL    HW232394   3.264   5.458   0.885
10499SOL     OW32395   3.512   0.028   2.683
10499SOL    HW132396   3.503   0.049   2.780
10499SOL    HW232397   3.441   0.077   2.632
10500SOL     OW32398   6.367   1.719   6.349
10500SOL    HW132399   6.381   1.620   6.350
10500SOL    HW232400   6.455   1.765   6.342
10501SOL     OW32401   2.118   5.749   2.534
10501SOL    HW132402   2.205   5.770   2.488
10501SOL    HW232403   2.108   5.650   2.543
10502SOL     OW32404   2.545   0.439   1.186
10502SOL    HW132405   2.577   0.511   1.246
10502SOL    HW232406   2.477   0.383   1.233
10503SOL     OW32407   4.574   2.778   0.550
10503SOL    HW132408   4.530   2.795   0.638
10503SOL    HW232409   4.538   2.693   0.510
10504SOL     OW32410   1.429   1.876   5.634
10504SOL    HW132411   1.402   1.864   5.729
10504SOL    HW232412   1.350   1.863   5.574
10505SOL     OW32413   5.635   5.295   0.473
10505SOL    HW132414   5.562   5.302   0.541
10505SOL    HW232415   5.610   5.228   0.403
10506SOL     OW32416   0.366   4.606   0.476
10506SOL    HW132417   0.459   4.569   0.475
10506SOL    HW232418   0.370   4.704   0.494
10507SOL     OW32419   1.817   0.592   7.016
10507SOL    HW132420   1.728   0.576   0.040
10507SOL    HW232421   1.827   0.533   6.936
10508SOL     OW32422   6.329   6.588   4.854
10508SOL    HW132423   6.258   6.581   4.784
10508SOL    HW232424   6.352   6.496   4.886
10509SOL     OW32425   1.014   5.431   4.060
10509SOL    HW132426   0.928   5.476   4.085
10509SOL    HW232427   0.994   5.352   4.002
10510SOL     OW32428   4.550   6.129   6.053
10510SOL    HW132429   4.557   6.136   6.152
10510SOL    HW232430   4.563   6.034   6.025
10511SOL     OW32431   3.894   0.798   2.279
10511SOL    HW132432   3.911   0.857   2.201
10511SOL    HW232433   3.824   0.731   2.256
10512SOL     OW32434   4.209   0.262   6.202
10512SOL    HW132435   4.133   0.206   6.169
10512SOL    HW232436   4.279   0.269   6.130
10513SOL     OW32437   5.981   2.618   4.697
10513SOL    HW132438   5.923   2.574   4.765
10513SOL    HW232439   5.929   2.690   4.651
10514SOL     OW32440   0.281   4.104   0.428
10514SOL    HW132441   0.187   4.109   0.394
10514SOL    HW232442   0.296   4.178   0.494
10515SOL     OW32443   1.071   3.299   2.792
10515SOL    HW132444   0.978   3.284   2.824
10515SOL    HW232445   1.112   3.211   2.766
10516SOL     OW32446   3.935   1.178   0.519
10516SOL    HW132447   3.863   1.125   0.474
10516SOL    HW232448   3.899   1.218   0.604
10517SOL     OW32449   1.118   2.414   2.470
10517SOL    HW132450   1.031   2.447   2.507
10517SOL    HW232451   1.193   2.461   2.515
10518SOL     OW32452   0.855   5.535   6.534
10518SOL    HW132453   0.915   5.614   6.518
10518SOL    HW232454   0.813   5.543   6.625
10519SOL     OW32455   2.011   3.148   6.767
10519SOL    HW132456   2.047   3.155   6.674
10519SOL    HW232457   1.912   3.164   6.765
10520SOL     OW32458   0.858   2.760   6.603
10520SOL    HW132459   0.847   2.666   6.635
10520SOL    HW232460   0.901   2.760   6.513
10521SOL     OW32461   6.293   6.737   2.251
10521SOL    HW132462   6.345   6.819   2.226
10521SOL    HW232463   6.355   6.660   2.262
10522SOL     OW32464   0.384   0.273   5.726
10522SOL    HW132465   0.417   0.261   5.633
10522SOL    HW232466   0.291   0.238   5.733
10523SOL     OW32467   0.132   4.875   3.604
10523SOL    HW132468   0.128   4.778   3.581
10523SOL    HW232469   0.221   4.912   3.577
10524SOL     OW32470   1.615   0.567   4.902
10524SOL    HW132471   1.540   0.598   4.844
10524SOL    HW232472   1.651   0.644   4.954
10525SOL     OW32473   3.576   6.636   6.623
10525SOL    HW132474   3.489   6.684   6.634
10525SOL    HW232475   3.572   6.549   6.672
10526SOL     OW32476   1.047   6.792   3.961
10526SOL    HW132477   1.044   6.697   3.993
10526SOL    HW232478   0.971   6.809   3.898
10527SOL     OW32479   0.149   2.081   4.853
10527SOL    HW132480   0.104   2.033   4.777
10527SOL    HW232481   0.088   2.152   4.888
10528SOL     OW32482   1.835   3.506   6.369
10528SOL    HW132483   1.800   3.562   6.443
10528SOL    HW232484   1.769   3.505   6.293
10529SOL     OW32485   3.014   5.573   4.076
10529SOL    HW132486   3.100   5.539   4.037
10529SOL    HW232487   3.009   5.547   4.172
10530SOL     OW32488   2.217   0.137   6.542
10530SOL    HW132489   2.249   0.094   6.458
10530SOL    HW232490   2.236   0.078   6.620
10531SOL     OW32491   1.529   2.940   3.926
10531SOL    HW132492   1.586   2.911   4.004
10531SOL    HW232493   1.524   3.040   3.924
10532SOL     OW32494   0.928   5.687   5.422
10532SOL    HW132495   0.961   5.662   5.331
10532SOL    HW232496   0.871   5.769   5.415
10533SOL     OW32497   2.806   1.116   5.360
10533SOL    HW132498   2.775   1.151   5.449
10533SOL    HW232499   2.865   1.184   5.317
10534SOL     OW32500   6.664   6.105   1.442
10534SOL    HW132501   6.733   6.051   1.395
10534SOL    HW232502   6.686   6.110   1.540
10535SOL     OW32503   0.764   1.892   1.254
10535SOL    HW132504   0.834   1.825   1.280
10535SOL    HW232505   0.696   1.900   1.327
10536SOL     OW32506   3.903   0.367   3.054
10536SOL    HW132507   3.834   0.294   3.059
10536SOL    HW232508   3.907   0.403   2.961
10537SOL     OW32509   3.820   5.241   4.264
10537SOL    HW132510   3.899   5.180   4.269
10537SOL    HW232511   3.811   5.277   4.172
10538SOL     OW32512   4.983   1.862   0.842
10538SOL    HW132513   4.979   1.954   0.800
10538SOL    HW232514   5.073   1.822   0.825
10539SOL     OW32515   0.845   4.202   0.265
10539SOL    HW132516   0.892   4.173   0.181
10539SOL    HW232517   0.907   4.257   0.321
10540SOL     OW32518   1.685   2.320   5.064
10540SOL    HW132519   1.595   2.303   5.104
10540SOL    HW232520   1.724   2.403   5.104
10541SOL     OW32521   3.346   4.134   2.310
10541SOL    HW132522   3.397   4.061   2.356
10541SOL    HW232523   3.394   4.221   2.324
10542SOL     OW32524   6.949   0.348   5.255
10542SOL    HW132525   0.008   0.326   5.195
10542SOL    HW232526   6.971   0.320   5.348
10543SOL     OW32527   0.504   0.912   5.382
10543SOL    HW132528   0.590   0.873   5.417
10543SOL    HW232529   0.470   0.854   5.308
10544SOL     OW32530   2.373   6.479   2.107
10544SOL    HW132531   2.357   6.556   2.168
10544SOL    HW232532   2.366   6.393   2.158
10545SOL     OW32533   6.234   1.131   2.209
10545SOL    HW132534   6.304   1.126   2.280
10545SOL    HW232535   6.260   1.200   2.141
10546SOL     OW32536   1.969   1.061   6.716
10546SOL    HW132537   2.027   0.989   6.752
10546SOL    HW232538   1.969   1.139   6.779
10547SOL     OW32539   5.448   2.352   2.441
10547SOL    HW132540   5.402   2.441   2.433
10547SOL    HW232541   5.465   2.315   2.349
10548SOL     OW32542   5.506   4.726   4.613
10548SOL    HW132543   5.530   4.639   4.655
10548SOL    HW232544   5.504   4.715   4.513
10549SOL     OW32545   0.164   6.855   1.677
10549SOL    HW132546   0.105   6.857   1.757
10549SOL    HW232547   0.255   6.890   1.701
10550SOL     OW32548   3.852   5.812   4.016
10550SOL    HW132549   3.881   5.844   3.926
10550SOL    HW232550   3.896   5.725   4.037
10551SOL     OW32551   1.236   2.680   5.599
10551SOL    HW132552   1.322   2.714   5.637
10551SOL    HW232553   1.244   2.675   5.499
10552SOL     OW32554   3.315   1.189   6.894
10552SOL    HW132555   3.257   1.160   6.817
10552SOL    HW232556   3.311   1.288   6.902
10553SOL     OW32557   0.904   4.675   1.825
10553SOL    HW132558   0.846   4.742   1.779
10553SOL    HW232559   0.956   4.624   1.758
10554SOL     OW32560   5.718   4.829   0.313
10554SOL    HW132561   5.767   4.743   0.298
10554SOL    HW232562   5.634   4.812   0.363
10555SOL     OW32563   1.879   3.051   0.225
10555SOL    HW132564   1.812   3.016   0.291
10555SOL    HW232565   1.846   3.138   0.187
10556SOL     OW32566   2.176   1.620   5.497
10556SOL    HW132567   2.232   1.560   5.554
10556SOL    HW232568   2.235   1.680   5.443
10557SOL     OW32569   2.315   2.469   3.215
10557SOL    HW132570   2.223   2.468   3.254
10557SOL    HW232571   2.315   2.422   3.127
10558SOL     OW32572   3.662   1.557   3.821
10558SOL    HW132573   3.704   1.646   3.837
10558SOL    HW232574   3.710   1.487   3.875
10559SOL     OW32575   5.321   0.189   0.829
10559SOL    HW132576   5.337   0.181   0.928
10559SOL    HW232577   5.390   0.249   0.789
10560SOL     OW32578   3.424   6.171   2.755
10560SOL    HW132579   3.329   6.187   2.726
10560SOL    HW232580   3.424   6.128   2.845
10561SOL     OW32581   3.080   4.107   0.365
10561SOL    HW132582   3.163   4.140   0.410
10561SOL    HW232583   3.009   4.176   0.371
10562SOL     OW32584   4.715   5.250   0.362
10562SOL    HW132585   4.618   5.275   0.356
10562SOL    HW232586   4.770   5.313   0.307
10563SOL     OW32587   0.752   1.364   3.566
10563SOL    HW132588   0.832   1.379   3.623
10563SOL    HW232589   0.778   1.314   3.484
10564SOL     OW32590   5.855   6.504   1.812
10564SOL    HW132591   5.906   6.551   1.884
10564SOL    HW232592   5.866   6.405   1.822
10565SOL     OW32593   0.902   0.739   6.238
10565SOL    HW132594   0.968   0.785   6.297
10565SOL    HW232595   0.813   0.785   6.247
10566SOL     OW32596   3.660   2.209   0.333
10566SOL    HW132597   3.585   2.205   0.268
10566SOL    HW232598   3.721   2.285   0.309
10567SOL     OW32599   3.243   1.907   4.364
10567SOL    HW132600   3.211   1.941   4.276
10567SOL    HW232601   3.167   1.905   4.428
10568SOL     OW32602   6.450   2.830   1.607
10568SOL    HW132603   6.480   2.782   1.524
10568SOL    HW232604   6.351   2.844   1.603
10569SOL     OW32605   5.896   1.896   1.799
10569SOL    HW132606   5.876   1.858   1.889
10569SOL    HW232607   5.902   1.821   1.732
10570SOL     OW32608   1.695   4.921   3.199
10570SOL    HW132609   1.685   4.886   3.292
10570SOL    HW232610   1.679   5.020   3.199
10571SOL     OW32611   6.886   4.625   5.433
10571SOL    HW132612   6.911   4.699   5.370
10571SOL    HW232613   6.796   4.589   5.407
10572SOL     OW32614   6.904   4.211   3.279
10572SOL    HW132615   6.933   4.301   3.247
10572SOL    HW232616   6.918   4.143   3.207
10573SOL     OW32617   4.498   6.983   4.705
10573SOL    HW132618   4.525   6.914   4.637
10573SOL    HW232619   4.524   0.055   4.672
10574SOL     OW32620   1.478   1.205   3.764
10574SOL    HW132621   1.463   1.206   3.863
10574SOL    HW232622   1.570   1.239   3.745
10575SOL     OW32623   6.518   1.395   2.919
10575SOL    HW132624   6.454   1.331   2.876
10575SOL    HW232625   6.558   1.454   2.850
10576SOL     OW32626   6.884   6.146   5.128
10576SOL    HW132627   6.924   6.226   5.083
10576SOL    HW232628   6.863   6.168   5.223
10577SOL     OW32629   1.874   3.333   0.084
10577SOL    HW132630   1.815   3.282   0.022
10577SOL    HW232631   1.956   3.364   0.036
10578SOL     OW32632   5.759   1.485   3.153
10578SOL    HW132633   5.758   1.538   3.067
10578SOL    HW232634   5.823   1.409   3.144
10579SOL     OW32635   4.011   2.101   1.648
10579SOL    HW132636   3.933   2.071   1.593
10579SOL    HW232637   3.983   2.110   1.744
10580SOL     OW32638   6.423   0.401   6.674
10580SOL    HW132639   6.438   0.440   6.765
10580SOL    HW232640   6.433   0.301   6.679
10581SOL     OW32641   6.923   6.828   3.529
10581SOL    HW132642   6.923   6.728   3.522
10581SOL    HW232643   6.864   6.856   3.605
10582SOL     OW32644   5.814   5.147   6.610
10582SOL    HW132645   5.815   5.123   6.707
10582SOL    HW232646   5.849   5.070   6.556
10583SOL     OW32647   3.778   1.427   4.870
10583SOL    HW132648   3.867   1.414   4.826
10583SOL    HW232649   3.791   1.464   4.962
10584SOL     OW32650   6.545   6.504   1.493
10584SOL    HW132651   6.522   6.568   1.567
10584SOL    HW232652   6.639   6.520   1.463
10585SOL     OW32653   2.311   2.536   6.088
10585SOL    HW132654   2.213   2.518   6.085
10585SOL    HW232655   2.332   2.616   6.031
10586SOL     OW32656   6.498   4.872   5.045
10586SOL    HW132657   6.520   4.799   5.109
10586SOL    HW232658   6.577   4.933   5.033
10587SOL     OW32659   6.336   4.221   0.395
10587SOL    HW132660   6.283   4.258   0.318
10587SOL    HW232661   6.360   4.296   0.457
10588SOL     OW32662   0.425   2.821   3.632
10588SOL    HW132663   0.502   2.783   3.683
10588SOL    HW232664   0.358   2.858   3.697
10589SOL     OW32665   6.075   1.586   4.388
10589SOL    HW132666   6.042   1.517   4.323
10589SOL    HW232667   6.172   1.568   4.408
10590SOL     OW32668   0.775   0.278   1.923
10590SOL    HW132669   0.772   0.264   1.824
10590SOL    HW232670   0.858   0.236   1.959
10591SOL     OW32671   1.108   1.628   6.615
10591SOL    HW132672   1.196   1.593   6.583
10591SOL    HW232673   1.045   1.552   6.630
10592SOL     OW32674   5.982   3.823   1.694
10592SOL    HW132675   5.921   3.896   1.725
10592SOL    HW232676   5.986   3.824   1.594
10593SOL     OW32677   2.472   5.333   0.552
10593SOL    HW132678   2.454   5.411   0.492
10593SOL    HW232679   2.402   5.330   0.624
10594SOL     OW32680   4.614   0.175   2.421
10594SOL    HW132681   4.659   0.100   2.469
10594SOL    HW232682   4.583   0.143   2.332
10595SOL     OW32683   3.770   6.662   6.155
10595SOL    HW132684   3.695   6.601   6.131
10595SOL    HW232685   3.736   6.735   6.214
10596SOL     OW32686   4.668   0.160   6.923
10596SOL    HW132687   4.660   0.242   6.866
10596SOL    HW232688   4.755   0.114   6.903
10597SOL     OW32689   3.482   1.049   5.231
10597SOL    HW132690   3.412   1.015   5.293
10597SOL    HW232691   3.461   1.144   5.205
10598SOL     OW32692   2.906   2.663   0.552
10598SOL    HW132693   2.941   2.680   0.460
10598SOL    HW232694   2.952   2.583   0.591
10599SOL     OW32695   5.483   2.648   5.966
10599SOL    HW132696   5.439   2.618   6.051
10599SOL    HW232697   5.560   2.588   5.945
10600SOL     OW32698   2.106   2.088   0.588
10600SOL    HW132699   2.132   1.998   0.623
10600SOL    HW232700   2.180   2.153   0.605
10601SOL     OW32701   1.534   4.454   5.499
10601SOL    HW132702   1.598   4.411   5.436
10601SOL    HW232703   1.583   4.515   5.561
10602SOL     OW32704   3.649   1.907   2.649
10602SOL    HW132705   3.687   1.862   2.729
10602SOL    HW232706   3.570   1.855   2.616
10603SOL     OW32707   3.285   5.896   3.203
10603SOL    HW132708   3.302   5.909   3.106
10603SOL    HW232709   3.187   5.900   3.221
10604SOL     OW32710   6.003   4.884   5.508
10604SOL    HW132711   6.001   4.925   5.599
10604SOL    HW232712   6.096   4.855   5.486
10605SOL     OW32713   1.462   5.734   0.408
10605SOL    HW132714   1.471   5.634   0.409
10605SOL    HW232715   1.377   5.761   0.453
10606SOL     OW32716   7.006   0.658   2.612
10606SOL    HW132717   0.009   0.714   2.691
10606SOL    HW232718   6.915   0.618   2.623
10607SOL     OW32719   4.145   4.833   5.732
10607SOL    HW132720   4.060   4.863   5.774
10607SOL    HW232721   4.136   4.837   5.632
10608SOL     OW32722   5.131   2.308   5.585
10608SOL    HW132723   5.093   2.391   5.625
10608SOL    HW232724   5.057   2.248   5.556
10609SOL     OW32725   3.040   6.678   0.573
10609SOL    HW132726   3.091   6.722   0.647
10609SOL    HW232727   2.945   6.663   0.602
10610SOL     OW32728   1.656   2.614   5.892
10610SOL    HW132729   1.670   2.562   5.976
10610SOL    HW232730   1.579   2.575   5.841
10611SOL     OW32731   4.175   3.624   6.078
10611SOL    HW132732   4.096   3.674   6.042
10611SOL    HW232733   4.258   3.661   6.038
10612SOL     OW32734   2.914   0.884   5.527
10612SOL    HW132735   2.960   0.941   5.595
10612SOL    HW232736   2.930   0.922   5.435
10613SOL     OW32737   6.046   6.729   4.786
10613SOL    HW132738   6.093   6.802   4.835
10613SOL    HW232739   6.097   6.706   4.703
10614SOL     OW32740   6.481   2.198   3.824
10614SOL    HW132741   6.500   2.220   3.728
10614SOL    HW232742   6.563   2.215   3.879
10615SOL     OW32743   3.407   6.506   5.892
10615SOL    HW132744   3.400   6.407   5.885
10615SOL    HW232745   3.448   6.531   5.980
10616SOL     OW32746   2.572   6.273   0.872
10616SOL    HW132747   2.530   6.327   0.945
10616SOL    HW232748   2.586   6.179   0.902
10617SOL     OW32749   2.317   2.508   1.077
10617SOL    HW132750   2.280   2.600   1.065
10617SOL    HW232751   2.395   2.511   1.139
10618SOL     OW32752   0.172   3.842   6.674
10618SOL    HW132753   0.238   3.769   6.694
10618SOL    HW232754   0.086   3.801   6.643
10619SOL     OW32755   0.172   4.280   2.220
10619SOL    HW132756   0.110   4.218   2.266
10619SOL    HW232757   0.184   4.363   2.276
10620SOL     OW32758   1.414   5.551   5.073
10620SOL    HW132759   1.454   5.461   5.087
10620SOL    HW232760   1.487   5.619   5.061
10621SOL     OW32761   1.157   6.268   2.198
10621SOL    HW132762   1.075   6.314   2.234
10621SOL    HW232763   1.237   6.300   2.247
10622SOL     OW32764   5.133   1.280   1.308
10622SOL    HW132765   5.064   1.207   1.304
10622SOL    HW232766   5.094   1.365   1.272
10623SOL     OW32767   0.126   4.830   5.499
10623SOL    HW132768   0.044   4.873   5.461
10623SOL    HW232769   0.109   4.733   5.513
10624SOL     OW32770   0.487   3.030   4.486
10624SOL    HW132771   0.562   2.972   4.518
10624SOL    HW232772   0.400   2.990   4.513
10625SOL     OW32773   0.263   4.116   6.999
10625SOL    HW132774   0.336   4.151   0.038
10625SOL    HW232775   0.185   4.090   0.037
10626SOL     OW32776   2.815   3.180   0.914
10626SOL    HW132777   2.807   3.234   0.830
10626SOL    HW232778   2.726   3.143   0.939
10627SOL     OW32779   4.876   6.755   0.243
10627SOL    HW132780   4.909   6.779   0.334
10627SOL    HW232781   4.934   6.682   0.205
10628SOL     OW32782   4.588   5.796   0.142
10628SOL    HW132783   4.504   5.769   0.095
10628SOL    HW232784   4.667   5.761   0.092
10629SOL     OW32785   2.657   5.016   5.123
10629SOL    HW132786   2.714   4.941   5.155
10629SOL    HW232787   2.688   5.045   5.033
10630SOL     OW32788   6.860   1.397   3.999
10630SOL    HW132789   6.938   1.460   3.998
10630SOL    HW232790   6.778   1.444   3.966
10631SOL     OW32791   2.876   4.796   4.526
10631SOL    HW132792   2.831   4.717   4.486
10631SOL    HW232793   2.871   4.873   4.462
10632SOL     OW32794   6.294   1.967   4.082
10632SOL    HW132795   6.253   2.055   4.058
10632SOL    HW232796   6.233   1.918   4.145
10633SOL     OW32797   2.663   3.192   1.447
10633SOL    HW132798   2.673   3.158   1.354
10633SOL    HW232799   2.582   3.152   1.489
10634SOL     OW32800   2.937   5.972   0.824
10634SOL    HW132801   2.988   6.053   0.795
10634SOL    HW232802   2.909   5.983   0.920
10635SOL     OW32803   3.588   1.587   0.882
10635SOL    HW132804   3.667   1.545   0.926
10635SOL    HW232805   3.618   1.653   0.813
10636SOL     OW32806   0.936   1.481   1.787
10636SOL    HW132807   0.929   1.394   1.739
10636SOL    HW232808   0.956   1.554   1.722
10637SOL     OW32809   2.427   4.537   5.591
10637SOL    HW132810   2.389   4.445   5.598
10637SOL    HW232811   2.510   4.544   5.647
10638SOL     OW32812   0.189   5.487   3.165
10638SOL    HW132813   0.251   5.428   3.114
10638SOL    HW232814   0.099   5.444   3.173
10639SOL     OW32815   1.337   3.408   2.973
10639SOL    HW132816   1.250   3.416   2.926
10639SOL    HW232817   1.357   3.493   3.021
10640SOL     OW32818   3.304   0.375   5.397
10640SOL    HW132819   3.369   0.307   5.430
10640SOL    HW232820   3.353   0.455   5.363
10641SOL     OW32821   3.171   1.616   1.076
10641SOL    HW132822   3.125   1.559   1.008
10641SOL    HW232823   3.232   1.560   1.131
10642SOL     OW32824   0.059   2.830   1.618
10642SOL    HW132825   0.074   2.908   1.556
10642SOL    HW232826   6.997   2.847   1.674
10643SOL     OW32827   2.207   5.136   5.202
10643SOL    HW132828   2.280   5.083   5.244
10643SOL    HW232829   2.174   5.206   5.266
10644SOL     OW32830   5.154   2.904   3.456
10644SOL    HW132831   5.135   3.000   3.477
10644SOL    HW232832   5.148   2.850   3.540
10645SOL     OW32833   1.139   1.877   5.013
10645SOL    HW132834   1.224   1.828   5.033
10645SOL    HW232835   1.157   1.975   5.011
10646SOL     OW32836   7.011   0.672   6.801
10646SOL    HW132837   6.964   0.670   6.713
10646SOL    HW232838   0.045   0.757   6.809
10647SOL     OW32839   3.262   5.256   6.113
10647SOL    HW132840   3.228   5.321   6.181
10647SOL    HW232841   3.186   5.204   6.075
10648SOL     OW32842   5.234   4.516   6.069
10648SOL    HW132843   5.305   4.457   6.031
10648SOL    HW232844   5.204   4.582   6.000
10649SOL     OW32845   0.388   3.807   3.228
10649SOL    HW132846   0.419   3.734   3.167
10649SOL    HW232847   0.415   3.787   3.322
10650SOL     OW32848   1.303   5.867   3.549
10650SOL    HW132849   1.308   5.963   3.577
10650SOL    HW232850   1.362   5.812   3.608
10651SOL     OW32851   4.329   6.498   6.406
10651SOL    HW132852   4.417   6.455   6.429
10651SOL    HW232853   4.333   6.595   6.428
10652SOL     OW32854   3.469   6.579   6.359
10652SOL    HW132855   3.484   6.498   6.416
10652SOL    HW232856   3.530   6.653   6.389
10653SOL     OW32857   5.213   4.038   4.004
10653SOL    HW132858   5.228   4.030   4.102
10653SOL    HW232859   5.296   4.074   3.961
10654SOL     OW32860   4.626   0.893   0.645
10654SOL    HW132861   4.637   0.981   0.691
10654SOL    HW232862   4.530   0.865   0.649
10655SOL     OW32863   2.552   5.675   0.553
10655SOL    HW132864   2.646   5.654   0.579
10655SOL    HW232865   2.521   5.757   0.602
10656SOL     OW32866   6.868   2.263   1.723
10656SOL    HW132867   6.958   2.227   1.748
10656SOL    HW232868   6.876   2.359   1.696
10657SOL     OW32869   6.436   0.447   6.079
10657SOL    HW132870   6.363   0.383   6.102
10657SOL    HW232871   6.525   0.403   6.088
10658SOL     OW32872   6.278   4.342   5.217
10658SOL    HW132873   6.308   4.418   5.159
10658SOL    HW232874   6.272   4.259   5.162
10659SOL     OW32875   6.887   6.363   0.971
10659SOL    HW132876   6.804   6.325   1.010
10659SOL    HW232877   6.963   6.298   0.985
10660SOL     OW32878   5.478   3.989   0.030
10660SOL    HW132879   5.476   4.083   7.016
10660SOL    HW232880   5.429   3.983   0.117
10661SOL     OW32881   0.029   6.597   2.552
10661SOL    HW132882   0.080   6.534   2.494
10661SOL    HW232883   0.093   6.655   2.603
10662SOL     OW32884   5.563   0.815   3.298
10662SOL    HW132885   5.483   0.872   3.317
10662SOL    HW232886   5.604   0.842   3.211
10663SOL     OW32887   0.491   0.704   1.726
10663SOL    HW132888   0.513   0.699   1.628
10663SOL    HW232889   0.519   0.792   1.762
10664SOL     OW32890   1.189   4.999   4.642
10664SOL    HW132891   1.233   5.085   4.670
10664SOL    HW232892   1.258   4.928   4.633
10665SOL     OW32893   0.979   0.915   0.959
10665SOL    HW132894   1.068   0.870   0.972
10665SOL    HW232895   0.980   1.004   1.005
10666SOL     OW32896   2.682   4.106   0.604
10666SOL    HW132897   2.697   4.135   0.699
10666SOL    HW232898   2.732   4.021   0.587
10667SOL     OW32899   4.286   3.266   5.295
10667SOL    HW132900   4.357   3.335   5.312
10667SOL    HW232901   4.204   3.311   5.258
10668SOL     OW32902   1.724   1.412   5.124
10668SOL    HW132903   1.798   1.357   5.163
10668SOL    HW232904   1.680   1.362   5.050
10669SOL     OW32905   5.820   6.473   0.635
10669SOL    HW132906   5.857   6.565   0.650
10669SOL    HW232907   5.725   6.480   0.605
10670SOL     OW32908   5.242   4.111   5.001
10670SOL    HW132909   5.283   4.086   5.089
10670SOL    HW232910   5.235   4.030   4.943
10671SOL     OW32911   2.542   2.024   2.720
10671SOL    HW132912   2.557   1.938   2.768
10671SOL    HW232913   2.573   2.100   2.777
10672SOL     OW32914   6.560   2.720   0.643
10672SOL    HW132915   6.510   2.806   0.650
10672SOL    HW232916   6.647   2.728   0.693
10673SOL     OW32917   0.812   1.442   6.932
10673SOL    HW132918   0.821   1.522   6.873
10673SOL    HW232919   0.902   1.399   6.945
10674SOL     OW32920   2.769   4.565   0.629
10674SOL    HW132921   2.732   4.607   0.546
10674SOL    HW232922   2.787   4.636   0.697
10675SOL     OW32923   1.831   6.947   6.077
10675SOL    HW132924   1.833   6.919   5.981
10675SOL    HW232925   1.758   7.015   6.090
10676SOL     OW32926   6.262   6.633   5.586
10676SOL    HW132927   6.309   6.711   5.545
10676SOL    HW232928   6.247   6.563   5.516
10677SOL     OW32929   0.702   0.720   2.082
10677SOL    HW132930   0.752   0.725   1.995
10677SOL    HW232931   0.616   0.771   2.074
10678SOL     OW32932   3.713   5.779   2.691
10678SOL    HW132933   3.734   5.760   2.787
10678SOL    HW232934   3.704   5.693   2.641
10679SOL     OW32935   5.391   4.934   6.162
10679SOL    HW132936   5.312   4.957   6.218
10679SOL    HW232937   5.362   4.923   6.066
10680SOL     OW32938   2.485   1.573   3.597
10680SOL    HW132939   2.551   1.614   3.534
10680SOL    HW232940   2.480   1.475   3.580
10681SOL     OW32941   0.157   3.787   6.991
10681SOL    HW132942   0.247   3.827   7.007
10681SOL    HW232943   0.167   3.706   6.932
10682SOL     OW32944   1.372   1.734   3.571
10682SOL    HW132945   1.398   1.707   3.664
10682SOL    HW232946   1.438   1.800   3.536
10683SOL     OW32947   3.642   1.877   3.767
10683SOL    HW132948   3.634   1.972   3.735
10683SOL    HW232949   3.551   1.837   3.777
10684SOL     OW32950   4.816   3.621   1.387
10684SOL    HW132951   4.864   3.563   1.321
10684SOL    HW232952   4.813   3.715   1.353
10685SOL     OW32953   0.044   4.914   2.855
10685SOL    HW132954   7.001   4.878   2.785
10685SOL    HW232955   0.100   4.987   2.817
10686SOL     OW32956   2.569   4.780   6.458
10686SOL    HW132957   2.648   4.831   6.425
10686SOL    HW232958   2.573   4.771   6.557
10687SOL     OW32959   0.032   5.392   2.057
10687SOL    HW132960   6.952   5.398   2.048
10687SOL    HW232961   0.057   5.300   2.087
10688SOL     OW32962   0.119   4.544   2.803
10688SOL    HW132963   0.036   4.574   2.850
10688SOL    HW232964   0.128   4.593   2.717
10689SOL     OW32965   0.696   6.877   4.209
10689SOL    HW132966   0.666   6.936   4.134
10689SOL    HW232967   0.766   6.924   4.263
10690SOL     OW32968   6.897   5.469   3.540
10690SOL    HW132969   6.819   5.423   3.496
10690SOL    HW232970   6.933   5.410   3.613
10691SOL     OW32971   0.449   1.203   2.615
10691SOL    HW132972   0.483   1.240   2.529
10691SOL    HW232973   0.411   1.112   2.599
10692SOL     OW32974   3.617   4.912   2.513
10692SOL    HW132975   3.556   4.918   2.593
10692SOL    HW232976   3.585   4.974   2.442
10693SOL     OW32977   2.127   0.424   1.261
10693SOL    HW132978   2.103   0.517   1.233
10693SOL    HW232979   2.197   0.428   1.332
10694SOL     OW32980   4.557   6.420   1.326
10694SOL    HW132981   4.524   6.357   1.395
10694SOL    HW232982   4.657   6.420   1.326
10695SOL     OW32983   5.363   2.300   3.069
10695SOL    HW132984   5.294   2.346   3.014
10695SOL    HW232985   5.445   2.285   3.013
10696SOL     OW32986   6.935   4.050   2.955
10696SOL    HW132987   6.941   3.985   3.030
10696SOL    HW232988   6.846   4.096   2.957
10697SOL     OW32989   7.015   6.699   5.111
10697SOL    HW132990   0.026   6.614   5.068
10697SOL    HW232991   0.016   6.696   5.209
10698SOL     OW32992   4.108   6.328   4.002
10698SOL    HW132993   4.019   6.282   4.002
10698SOL    HW232994   4.180   6.260   3.988
10699SOL     OW32995   3.938   2.128   2.174
10699SOL    HW132996   3.842   2.148   2.155
10699SOL    HW232997   3.946   2.038   2.217
10700SOL     OW32998   1.074   0.035   0.592
10700SOL    HW132999   1.073   6.997   0.510
10700SOL    HW233000   1.151   0.009   0.650
10701SOL     OW33001   3.564   5.957   0.040
10701SOL    HW133002   3.474   5.997   0.055
10701SOL    HW233003   3.554   5.864   0.004
10702SOL     OW33004   6.556   2.638   2.871
10702SOL    HW133005   6.593   2.568   2.932
10702SOL    HW233006   6.576   2.729   2.908
10703SOL     OW33007   3.844   3.086   4.291
10703SOL    HW133008   3.854   3.056   4.196
10703SOL    HW233009   3.929   3.067   4.341
10704SOL     OW33010   5.706   5.774   1.452
10704SOL    HW133011   5.726   5.870   1.434
10704SOL    HW233012   5.692   5.761   1.551
10705SOL     OW33013   0.043   4.219   1.990
10705SOL    HW133014   0.080   4.235   2.081
10705SOL    HW233015   6.985   4.280   1.973
10706SOL     OW33016   4.779   6.861   1.800
10706SOL    HW133017   4.689   6.880   1.761
10706SOL    HW233018   4.814   6.775   1.762
10707SOL     OW33019   0.991   6.749   4.682
10707SOL    HW133020   1.021   6.811   4.755
10707SOL    HW233021   1.054   6.672   4.675
10708SOL     OW33022   4.718   0.631   2.634
10708SOL    HW133023   4.704   0.659   2.729
10708SOL    HW233024   4.686   0.537   2.622
10709SOL     OW33025   6.204   0.984   5.214
10709SOL    HW133026   6.221   0.915   5.143
10709SOL    HW233027   6.248   1.070   5.187
10710SOL     OW33028   0.652   6.235   4.403
10710SOL    HW133029   0.643   6.213   4.305
10710SOL    HW233030   0.568   6.278   4.435
10711SOL     OW33031   1.683   6.555   4.039
10711SOL    HW133032   1.594   6.550   4.084
10711SOL    HW233033   1.672   6.547   3.940
10712SOL     OW33034   3.383   0.607   2.320
10712SOL    HW133035   3.284   0.597   2.321
10712SOL    HW233036   3.408   0.704   2.321
10713SOL     OW33037   1.575   3.775   1.907
10713SOL    HW133038   1.546   3.770   1.811
10713SOL    HW233039   1.522   3.711   1.961
10714SOL     OW33040   6.455   2.880   5.238
10714SOL    HW133041   6.359   2.851   5.243
10714SOL    HW233042   6.507   2.815   5.182
10715SOL     OW33043   3.880   0.637   3.118
10715SOL    HW133044   3.891   0.542   3.147
10715SOL    HW233045   3.805   0.643   3.052
10716SOL     OW33046   6.942   2.950   3.410
10716SOL    HW133047   6.852   2.988   3.431
10716SOL    HW233048   6.930   2.862   3.364
10717SOL     OW33049   0.820   2.067   0.359
10717SOL    HW133050   0.769   2.049   0.275
10717SOL    HW233051   0.833   2.166   0.370
10718SOL     OW33052   6.712   4.083   0.326
10718SOL    HW133053   6.620   4.052   0.350
10718SOL    HW233054   6.780   4.026   0.374
10719SOL     OW33055   4.567   6.074   1.118
10719SOL    HW133056   4.530   6.008   1.052
10719SOL    HW233057   4.565   6.034   1.209
10720SOL     OW33058   0.449   3.830   6.180
10720SOL    HW133059   0.477   3.926   6.171
10720SOL    HW233060   0.479   3.794   6.268
10721SOL     OW33061   6.119   2.567   5.049
10721SOL    HW133062   6.054   2.524   5.111
10721SOL    HW233063   6.172   2.496   5.003
10722SOL     OW33064   0.075   2.667   0.322
10722SOL    HW133065   0.097   2.627   0.233
10722SOL    HW233066   0.111   2.760   0.327
10723SOL     OW33067   6.341   4.399   6.876
10723SOL    HW133068   6.319   4.303   6.856
10723SOL    HW233069   6.436   4.406   6.906
10724SOL     OW33070   2.971   6.957   6.398
10724SOL    HW133071   2.913   6.879   6.374
10724SOL    HW233072   3.061   6.924   6.426
10725SOL     OW33073   6.872   5.047   3.862
10725SOL    HW133074   6.947   4.980   3.867
10725SOL    HW233075   6.849   5.077   3.954
10726SOL     OW33076   5.699   6.510   5.368
10726SOL    HW133077   5.727   6.605   5.363
10726SOL    HW233078   5.780   6.451   5.367
10727SOL     OW33079   1.668   4.761   4.631
10727SOL    HW133080   1.734   4.835   4.647
10727SOL    HW233081   1.716   4.673   4.635
10728SOL     OW33082   5.943   6.899   2.575
10728SOL    HW133083   6.020   6.872   2.519
10728SOL    HW233084   5.872   6.941   2.518
10729SOL     OW33085   6.294   1.204   2.868
10729SOL    HW133086   6.339   1.122   2.833
10729SOL    HW233087   6.205   1.214   2.825
10730SOL     OW33088   2.461   6.581   1.280
10730SOL    HW133089   2.502   6.634   1.354
10730SOL    HW233090   2.380   6.628   1.245
10731SOL     OW33091   2.232   5.764   6.861
10731SOL    HW133092   2.142   5.782   6.821
10731SOL    HW233093   2.272   5.683   6.819
10732SOL     OW33094   5.694   6.769   2.911
10732SOL    HW133095   5.780   6.811   2.882
10732SOL    HW233096   5.682   6.682   2.863
10733SOL     OW33097   5.696   2.727   0.386
10733SOL    HW133098   5.662   2.814   0.352
10733SOL    HW233099   5.789   2.739   0.421
10734SOL     OW33100   1.621   0.552   6.548
10734SOL    HW133101   1.549   0.570   6.615
10734SOL    HW233102   1.619   0.456   6.522
10735SOL     OW33103   1.199   4.372   2.410
10735SOL    HW133104   1.190   4.278   2.443
10735SOL    HW233105   1.296   4.396   2.401
10736SOL     OW33106   0.607   1.056   3.729
10736SOL    HW133107   0.559   1.013   3.652
10736SOL    HW233108   0.702   1.074   3.704
10737SOL     OW33109   1.210   2.633   0.573
10737SOL    HW133110   1.260   2.586   0.501
10737SOL    HW233111   1.210   2.732   0.555
10738SOL     OW33112   2.254   0.209   1.820
10738SOL    HW133113   2.247   0.189   1.722
10738SOL    HW233114   2.273   0.125   1.870
10739SOL     OW33115   6.832   1.049   3.063
10739SOL    HW133116   6.930   1.034   3.055
10739SOL    HW233117   6.802   1.114   2.993
10740SOL     OW33118   1.121   5.420   5.848
10740SOL    HW133119   1.189   5.348   5.855
10740SOL    HW233120   1.107   5.443   5.751
10741SOL     OW33121   1.187   1.084   3.441
10741SOL    HW133122   1.154   1.178   3.456
10741SOL    HW233123   1.207   1.042   3.529
10742SOL     OW33124   6.051   0.086   2.282
10742SOL    HW133125   6.121   0.157   2.273
10742SOL    HW233126   6.095   7.017   2.298
10743SOL     OW33127   2.437   2.455   3.464
10743SOL    HW133128   2.536   2.452   3.452
10743SOL    HW233129   2.392   2.446   3.375
10744SOL     OW33130   3.054   1.589   2.477
10744SOL    HW133131   3.109   1.559   2.399
10744SOL    HW233132   3.036   1.687   2.471
10745SOL     OW33133   1.559   4.521   6.808
10745SOL    HW133134   1.545   4.618   6.831
10745SOL    HW233135   1.650   4.492   6.838
10746SOL     OW33136   2.058   5.427   1.078
10746SOL    HW133137   1.964   5.451   1.103
10746SOL    HW233138   2.061   5.332   1.046
10747SOL     OW33139   5.168   1.297   3.682
10747SOL    HW133140   5.220   1.351   3.615
10747SOL    HW233141   5.125   1.219   3.637
10748SOL     OW33142   5.925   6.254   0.744
10748SOL    HW133143   6.025   6.260   0.741
10748SOL    HW233144   5.885   6.336   0.703
10749SOL     OW33145   0.360   4.931   3.191
10749SOL    HW133146   0.392   4.943   3.097
10749SOL    HW233147   0.271   4.886   3.191
10750SOL     OW33148   4.622   4.792   4.410
10750SOL    HW133149   4.675   4.717   4.450
10750SOL    HW233150   4.543   4.811   4.468
10751SOL     OW33151   0.720   3.047   5.384
10751SOL    HW133152   0.802   3.033   5.329
10751SOL    HW233153   0.724   2.988   5.465
10752SOL     OW33154   6.031   3.694   6.578
10752SOL    HW133155   6.066   3.672   6.669
10752SOL    HW233156   5.932   3.678   6.576
10753SOL     OW33157   6.091   0.053   3.567
10753SOL    HW133158   6.175   7.018   3.566
10753SOL    HW233159   6.104   0.134   3.624
10754SOL     OW33160   2.231   2.117   2.471
10754SOL    HW133161   2.253   2.185   2.541
10754SOL    HW233162   2.178   2.161   2.398
10755SOL     OW33163   0.087   1.655   0.827
10755SOL    HW133164   0.141   1.694   0.752
10755SOL    HW233165   0.014   1.599   0.790
10756SOL     OW33166   6.347   3.581   0.384
10756SOL    HW133167   6.350   3.482   0.394
10756SOL    HW233168   6.424   3.622   0.434
10757SOL     OW33169   6.861   3.683   0.045
10757SOL    HW133170   6.866   3.587   0.018
10757SOL    HW233171   6.850   3.689   0.144
10758SOL     OW33172   1.023   5.873   5.186
10758SOL    HW133173   0.981   5.825   5.109
10758SOL    HW233174   1.102   5.925   5.154
10759SOL     OW33175   1.588   2.969   7.013
10759SOL    HW133176   1.491   2.983   6.996
10759SOL    HW233177   1.604   2.874   0.023
10760SOL     OW33178   6.873   6.997   1.002
10760SOL    HW133179   6.905   6.964   1.091
10760SOL    HW233180   6.808   6.931   0.964
10761SOL     OW33181   0.844   2.249   6.247
10761SOL    HW133182   0.768   2.198   6.208
10761SOL    HW233183   0.815   2.294   6.331
10762SOL     OW33184   4.746   1.366   4.673
10762SOL    HW133185   4.821   1.384   4.609
10762SOL    HW233186   4.667   1.333   4.622
10763SOL     OW33187   4.287   6.550   0.975
10763SOL    HW133188   4.376   6.513   1.001
10763SOL    HW233189   4.223   6.540   1.051
10764SOL     OW33190   5.232   1.822   6.041
10764SOL    HW133191   5.332   1.824   6.032
10764SOL    HW233192   5.190   1.834   5.951
10765SOL     OW33193   5.750   1.915   1.233
10765SOL    HW133194   5.659   1.916   1.192
10765SOL    HW233195   5.755   1.985   1.305
10766SOL     OW33196   2.519   3.744   0.200
10766SOL    HW133197   2.465   3.662   0.216
10766SOL    HW233198   2.516   3.768   0.103
10767SOL     OW33199   1.195   0.339   0.943
10767SOL    HW133200   1.278   0.340   0.999
10767SOL    HW233201   1.216   0.369   0.850
10768SOL     OW33202   5.644   5.569   0.390
10768SOL    HW133203   5.642   5.478   0.432
10768SOL    HW233204   5.599   5.565   0.301
10769SOL     OW33205   2.612   5.298   4.994
10769SOL    HW133206   2.548   5.234   4.951
10769SOL    HW233207   2.703   5.257   4.998
10770SOL     OW33208   5.353   0.608   4.675
10770SOL    HW133209   5.263   0.649   4.660
10770SOL    HW233210   5.405   0.665   4.738
10771SOL     OW33211   4.481   0.184   5.200
10771SOL    HW133212   4.494   0.120   5.125
10771SOL    HW233213   4.471   0.277   5.163
10772SOL     OW33214   6.761   6.894   3.738
10772SOL    HW133215   6.799   6.909   3.830
10772SOL    HW233216   6.662   6.880   3.746
10773SOL     OW33217   0.051   5.070   6.962
10773SOL    HW133218   0.138   5.026   6.981
10773SOL    HW233219   6.999   5.030   0.000
10774SOL     OW33220   1.382   2.292   0.137
10774SOL    HW133221   1.326   2.209   0.139
10774SOL    HW233222   1.468   2.274   0.186
10775SOL     OW33223   2.245   4.528   0.354
10775SOL    HW133224   2.327   4.491   0.398
10775SOL    HW233225   2.241   4.498   0.259
10776SOL     OW33226   0.847   6.490   1.074
10776SOL    HW133227   0.844   6.410   1.134
10776SOL    HW233228   0.761   6.496   1.022
10777SOL     OW33229   4.380   0.237   3.461
10777SOL    HW133230   4.377   0.207   3.366
10777SOL    HW233231   4.450   0.187   3.511
10778SOL     OW33232   6.156   6.559   4.340
10778SOL    HW133233   6.177   6.652   4.309
10778SOL    HW233234   6.077   6.525   4.289
10779SOL     OW33235   0.309   4.384   2.929
10779SOL    HW133236   0.255   4.336   2.999
10779SOL    HW233237   0.249   4.444   2.877
10780SOL     OW33238   1.362   6.791   3.033
10780SOL    HW133239   1.353   6.886   3.003
10780SOL    HW233240   1.458   6.772   3.053
10781SOL     OW33241   4.475   1.834   4.013
10781SOL    HW133242   4.444   1.911   4.069
10781SOL    HW233243   4.572   1.819   4.028
10782SOL     OW33244   6.170   2.564   3.675
10782SOL    HW133245   6.155   2.522   3.585
10782SOL    HW233246   6.083   2.600   3.710
10783SOL     OW33247   1.567   3.121   2.380
10783SOL    HW133248   1.632   3.061   2.332
10783SOL    HW233249   1.549   3.083   2.471
10784SOL     OW33250   2.380   6.907   1.472
10784SOL    HW133251   2.330   6.942   1.393
10784SOL    HW233252   2.328   6.927   1.555
10785SOL     OW33253   1.975   4.459   1.856
10785SOL    HW133254   2.069   4.442   1.824
10785SOL    HW233255   1.957   4.557   1.853
10786SOL     OW33256   5.286   2.828   1.305
10786SOL    HW133257   5.219   2.851   1.235
10786SOL    HW233258   5.376   2.862   1.278
10787SOL     OW33259   3.374   1.250   4.913
10787SOL    HW133260   3.383   1.276   5.009
10787SOL    HW233261   3.310   1.311   4.867
10788SOL     OW33262   2.049   4.159   6.865
10788SOL    HW133263   2.031   4.142   6.962
10788SOL    HW233264   2.097   4.080   6.826
10789SOL     OW33265   5.495   1.450   0.630
10789SOL    HW133266   5.505   1.461   0.531
10789SOL    HW233267   5.402   1.476   0.657
10790SOL     OW33268   0.523   0.586   5.398
10790SOL    HW133269   0.438   0.570   5.447
10790SOL    HW233270   0.504   0.615   5.305
10791SOL     OW33271   0.770   1.569   1.551
10791SOL    HW133272   0.731   1.477   1.547
10791SOL    HW233273   0.701   1.633   1.586
10792SOL     OW33274   3.027   3.163   1.691
10792SOL    HW133275   3.054   3.094   1.758
10792SOL    HW233276   3.040   3.127   1.598
10793SOL     OW33277   5.649   2.366   4.364
10793SOL    HW133278   5.639   2.318   4.276
10793SOL    HW233279   5.559   2.399   4.394
10794SOL     OW33280   3.385   3.749   2.238
10794SOL    HW133281   3.447   3.680   2.275
10794SOL    HW233282   3.333   3.710   2.162
10795SOL     OW33283   6.060   4.278   3.426
10795SOL    HW133284   6.131   4.348   3.416
10795SOL    HW233285   5.980   4.318   3.470
10796SOL     OW33286   3.292   6.715   6.718
10796SOL    HW133287   3.272   6.633   6.666
10796SOL    HW233288   3.242   6.713   6.805
10797SOL     OW33289   4.290   2.929   1.108
10797SOL    HW133290   4.263   2.834   1.122
10797SOL    HW233291   4.369   2.933   1.047
10798SOL     OW33292   1.854   0.091   0.824
10798SOL    HW133293   1.803   0.061   0.905
10798SOL    HW233294   1.842   0.190   0.811
10799SOL     OW33295   3.435   1.544   1.446
10799SOL    HW133296   3.410   1.502   1.359
10799SOL    HW233297   3.368   1.518   1.515
10800SOL     OW33298   1.724   6.604   0.275
10800SOL    HW133299   1.804   6.575   0.327
10800SOL    HW233300   1.738   6.697   0.241
10801SOL     OW33301   0.614   6.997   4.849
10801SOL    HW133302   0.604   6.924   4.916
10801SOL    HW233303   0.666   6.964   4.770
10802SOL     OW33304   2.139   3.203   5.042
10802SOL    HW133305   2.192   3.124   5.072
10802SOL    HW233306   2.165   3.283   5.095
10803SOL     OW33307   4.783   4.661   4.607
10803SOL    HW133308   4.859   4.602   4.635
10803SOL    HW233309   4.743   4.704   4.688
10804SOL     OW33310   0.243   4.470   1.395
10804SOL    HW133311   0.268   4.503   1.486
10804SOL    HW233312   0.172   4.529   1.356
10805SOL     OW33313   3.327   0.054   6.468
10805SOL    HW133314   3.335   0.108   6.384
10805SOL    HW233315   3.417   0.020   6.494
10806SOL     OW33316   6.183   4.294   0.194
10806SOL    HW133317   6.113   4.335   0.136
10806SOL    HW233318   6.258   4.261   0.136
10807SOL     OW33319   3.237   6.596   3.733
10807SOL    HW133320   3.324   6.568   3.692
10807SOL    HW233321   3.228   6.696   3.727
10808SOL     OW33322   0.347   3.872   0.558
10808SOL    HW133323   0.332   3.961   0.515
10808SOL    HW233324   0.309   3.800   0.499
10809SOL     OW33325   2.568   0.247   4.309
10809SOL    HW133326   2.527   0.204   4.229
10809SOL    HW233327   2.586   0.177   4.379
10810SOL     OW33328   1.178   1.093   5.884
10810SOL    HW133329   1.079   1.084   5.869
10810SOL    HW233330   1.201   1.189   5.898
10811SOL     OW33331   3.901   4.938   5.057
10811SOL    HW133332   3.812   4.916   5.098
10811SOL    HW233333   3.899   4.913   4.960
10812SOL     OW33334   0.366   3.241   1.893
10812SOL    HW133335   0.308   3.321   1.879
10812SOL    HW233336   0.321   3.176   1.953
10813SOL     OW33337   2.096   6.138   6.885
10813SOL    HW133338   2.113   6.137   6.983
10813SOL    HW233339   2.002   6.166   6.868
10814SOL     OW33340   1.491   0.510   5.391
10814SOL    HW133341   1.555   0.492   5.316
10814SOL    HW233342   1.452   0.424   5.424
10815SOL     OW33343   5.028   5.214   3.642
10815SOL    HW133344   5.046   5.286   3.708
10815SOL    HW233345   4.985   5.253   3.560
10816SOL     OW33346   1.828   1.605   2.305
10816SOL    HW133347   1.763   1.548   2.255
10816SOL    HW233348   1.889   1.546   2.359
10817SOL     OW33349   5.646   6.543   2.778
10817SOL    HW133350   5.725   6.544   2.718
10817SOL    HW233351   5.647   6.459   2.833
10818SOL     OW33352   5.202   3.381   5.578
10818SOL    HW133353   5.265   3.317   5.624
10818SOL    HW233354   5.247   3.470   5.568
10819SOL     OW33355   0.674   4.201   6.929
10819SOL    HW133356   0.635   4.292   6.944
10819SOL    HW233357   0.743   4.206   6.857
10820SOL     OW33358   6.839   0.005   3.982
10820SOL    HW133359   6.884   6.980   4.060
10820SOL    HW233360   6.754   0.048   4.013
10821SOL     OW33361   5.287   6.128   2.438
10821SOL    HW133362   5.379   6.159   2.459
10821SOL    HW233363   5.238   6.108   2.523
10822SOL     OW33364   0.936   2.033   2.689
10822SOL    HW133365   0.859   2.054   2.749
10822SOL    HW233366   0.923   1.942   2.648
10823SOL     OW33367   1.614   5.289   1.220
10823SOL    HW133368   1.611   5.195   1.184
10823SOL    HW233369   1.608   5.286   1.320
10824SOL     OW33370   4.802   0.033   4.076
10824SOL    HW133371   4.881   0.078   4.035
10824SOL    HW233372   4.750   7.005   4.005
10825SOL     OW33373   2.581   0.630   0.428
10825SOL    HW133374   2.519   0.552   0.427
10825SOL    HW233375   2.552   0.695   0.499
10826SOL     OW33376   0.158   3.565   3.418
10826SOL    HW133377   0.172   3.652   3.370
10826SOL    HW233378   0.063   3.561   3.451
10827SOL     OW33379   5.908   3.852   4.359
10827SOL    HW133380   5.912   3.899   4.270
10827SOL    HW233381   5.836   3.782   4.356
10828SOL     OW33382   1.252   5.715   2.714
10828SOL    HW133383   1.297   5.651   2.775
10828SOL    HW233384   1.185   5.666   2.658
10829SOL     OW33385   3.362   3.414   0.644
10829SOL    HW133386   3.419   3.353   0.588
10829SOL    HW233387   3.316   3.481   0.585
10830SOL     OW33388   5.146   1.994   3.075
10830SOL    HW133389   5.196   1.911   3.102
10830SOL    HW233390   5.139   2.055   3.153
10831SOL     OW33391   5.039   6.281   1.738
10831SOL    HW133392   5.086   6.324   1.816
10831SOL    HW233393   4.943   6.312   1.736
10832SOL     OW33394   0.339   2.394   0.688
10832SOL    HW133395   0.435   2.423   0.684
10832SOL    HW233396   0.284   2.467   0.728
10833SOL     OW33397   1.517   0.803   4.082
10833SOL    HW133398   1.528   0.706   4.108
10833SOL    HW233399   1.500   0.809   3.984
10834SOL     OW33400   1.104   2.197   6.166
10834SOL    HW133401   1.005   2.195   6.179
10834SOL    HW233402   1.148   2.145   6.238
10835SOL     OW33403   5.429   1.966   0.873
10835SOL    HW133404   5.472   1.915   0.947
10835SOL    HW233405   5.420   2.062   0.899
10836SOL     OW33406   6.978   1.225   5.341
10836SOL    HW133407   6.916   1.187   5.410
10836SOL    HW233408   6.953   1.320   5.323
10837SOL     OW33409   0.378   4.893   0.467
10837SOL    HW133410   0.355   4.986   0.438
10837SOL    HW233411   0.428   4.897   0.554
10838SOL     OW33412   5.556   0.163   4.126
10838SOL    HW133413   5.652   0.188   4.137
10838SOL    HW233414   5.535   0.084   4.183
10839SOL     OW33415   3.152   3.043   0.810
10839SOL    HW133416   3.173   3.063   0.906
10839SOL    HW233417   3.122   2.948   0.801
10840SOL     OW33418   4.097   6.447   1.818
10840SOL    HW133419   4.064   6.394   1.740
10840SOL    HW233420   4.027   6.449   1.889
10841SOL     OW33421   3.713   5.969   6.831
10841SOL    HW133422   3.664   5.968   6.918
10841SOL    HW233423   3.652   5.937   6.758
10842SOL     OW33424   6.612   3.480   0.782
10842SOL    HW133425   6.521   3.456   0.818
10842SOL    HW233426   6.651   3.554   0.837
10843SOL     OW33427   0.229   2.045   2.249
10843SOL    HW133428   0.175   2.046   2.333
10843SOL    HW233429   0.326   2.036   2.272
10844SOL     OW33430   0.398   6.720   4.181
10844SOL    HW133431   0.485   6.711   4.229
10844SOL    HW233432   0.364   6.814   4.192
10845SOL     OW33433   1.884   0.787   0.887
10845SOL    HW133434   1.921   0.880   0.890
10845SOL    HW233435   1.956   0.723   0.859
10846SOL     OW33436   4.585   2.901   0.295
10846SOL    HW133437   4.576   2.848   0.380
10846SOL    HW233438   4.502   2.888   0.240
10847SOL     OW33439   3.072   2.146   6.635
10847SOL    HW133440   3.032   2.054   6.636
10847SOL    HW233441   3.091   2.176   6.728
10848SOL     OW33442   3.260   1.910   6.425
10848SOL    HW133443   3.284   1.992   6.372
10848SOL    HW233444   3.172   1.875   6.393
10849SOL     OW33445   3.274   5.008   3.367
10849SOL    HW133446   3.209   4.934   3.348
10849SOL    HW233447   3.358   4.970   3.404
10850SOL     OW33448   4.588   6.407   6.556
10850SOL    HW133449   4.519   6.353   6.605
10850SOL    HW233450   4.677   6.360   6.561
10851SOL     OW33451   2.914   2.598   6.590
10851SOL    HW133452   2.859   2.677   6.615
10851SOL    HW233453   2.898   2.575   6.494
10852SOL     OW33454   0.593   0.018   6.169
10852SOL    HW133455   0.641   7.007   6.086
10852SOL    HW233456   0.610   0.115   6.184
10853SOL     OW33457   3.652   1.691   5.260
10853SOL    HW133458   3.583   1.716   5.328
10853SOL    HW233459   3.620   1.717   5.169
10854SOL     OW33460   6.469   7.017   5.907
10854SOL    HW133461   6.521   0.062   5.851
10854SOL    HW233462   6.372   0.016   5.898
10855SOL     OW33463   2.653   6.372   2.433
10855SOL    HW133464   2.668   6.394   2.337
10855SOL    HW233465   2.667   6.274   2.448
10856SOL     OW33466   5.858   0.906   1.547
10856SOL    HW133467   5.812   0.935   1.463
10856SOL    HW233468   5.949   0.947   1.550
10857SOL     OW33469   5.738   3.144   3.419
10857SOL    HW133470   5.831   3.176   3.399
10857SOL    HW233471   5.737   3.044   3.422
10858SOL     OW33472   1.213   2.687   6.628
10858SOL    HW133473   1.192   2.630   6.708
10858SOL    HW233474   1.222   2.629   6.547
10859SOL     OW33475   2.335   4.253   3.689
10859SOL    HW133476   2.412   4.287   3.634
10859SOL    HW233477   2.265   4.323   3.697
10860SOL     OW33478   6.618   1.315   5.632
10860SOL    HW133479   6.560   1.293   5.710
10860SOL    HW233480   6.560   1.342   5.555
10861SOL     OW33481   3.533   2.713   1.783
10861SOL    HW133482   3.596   2.637   1.769
10861SOL    HW233483   3.547   2.753   1.873
10862SOL     OW33484   3.018   1.473   6.679
10862SOL    HW133485   3.007   1.389   6.733
10862SOL    HW233486   3.024   1.551   6.740
10863SOL     OW33487   3.619   0.990   2.515
10863SOL    HW133488   3.579   1.080   2.497
10863SOL    HW233489   3.719   0.996   2.509
10864SOL     OW33490   2.843   4.564   1.292
10864SOL    HW133491   2.838   4.581   1.194
10864SOL    HW233492   2.885   4.643   1.337
10865SOL     OW33493   6.092   2.420   3.466
10865SOL    HW133494   6.145   2.363   3.402
10865SOL    HW233495   6.018   2.365   3.505
10866SOL     OW33496   6.134   3.613   1.009
10866SOL    HW133497   6.049   3.587   0.963
10866SOL    HW233498   6.160   3.705   0.981
10867SOL     OW33499   2.896   3.645   0.545
10867SOL    HW133500   2.955   3.692   0.480
10867SOL    HW233501   2.819   3.704   0.570
10868SOL     OW33502   1.193   1.621   3.109
10868SOL    HW133503   1.195   1.652   3.205
10868SOL    HW233504   1.153   1.693   3.052
10869NA      NA33505   0.708   2.495   6.165
10870NA      NA33506   4.464   4.443   5.251
10871NA      NA33507   2.287   4.285   2.063
10872NA      NA33508   4.983   4.553   3.340
10873NA      NA33509   4.270   2.291   5.212
10874NA      NA33510   3.547   4.381   1.475
10875NA      NA33511   1.136   4.470   0.408
10876NA      NA33512   4.168   4.324   1.563
10877NA      NA33513   4.840   4.553   0.896
10878NA      NA33514   3.056   0.359   5.474
10879NA      NA33515   5.707   5.717   1.056
10880NA      NA33516   1.579   0.759   5.837
10881NA      NA33517   5.138   4.983   2.009
10882NA      NA33518   3.944   3.041   0.842
   7.01899   7.01899   7.01899
