Generated by trjconv : CNT in water t=  75.00000
33518
    1C        C    1   2.847   2.773   4.746
    1C        C    2   2.901   2.722   4.865
    1C        C    3   2.840   2.770   4.982
    1C        C    4   2.848   2.776   4.258
    1C        C    5   2.900   2.727   4.380
    1C        C    6   2.850   2.775   4.503
    1C        C    7   3.011   2.636   4.625
    1C        C    8   2.899   2.722   4.625
    1C        C    9   3.075   2.598   4.745
    1C        C   10   3.009   2.631   4.866
    1C        C   11   3.186   2.498   4.980
    1C        C   12   3.063   2.566   4.978
    1C        C   13   2.848   2.766   3.774
    1C        C   14   2.902   2.718   3.896
    1C        C   15   2.851   2.771   4.016
    1C        C   16   3.019   2.642   4.138
    1C        C   17   2.904   2.724   4.139
    1C        C   18   3.081   2.609   4.261
    1C        C   19   3.017   2.646   4.381
    1C        C   20   3.208   2.556   4.502
    1C        C   21   3.076   2.606   4.503
    1C        C   22   3.280   2.539   4.622
    1C        C   23   3.208   2.548   4.743
    1C        C   24   3.411   2.481   4.865
    1C        C   25   3.270   2.507   4.864
    1C        C   26   3.491   2.483   4.980
    1C        C   27   2.852   2.768   3.282
    1C        C   28   2.905   2.724   3.406
    1C        C   29   2.851   2.770   3.528
    1C        C   30   3.019   2.644   3.651
    1C        C   31   2.902   2.723   3.651
    1C        C   32   3.079   2.603   3.772
    1C        C   33   3.016   2.635   3.895
    1C        C   34   3.210   2.548   4.015
    1C        C   35   3.077   2.598   4.017
    1C        C   36   3.278   2.528   4.137
    1C        C   37   3.211   2.554   4.259
    1C        C   38   3.415   2.502   4.381
    1C        C   39   3.277   2.531   4.382
    1C        C   40   3.487   2.487   4.502
    1C        C   41   3.417   2.502   4.623
    1C        C   42   3.628   2.479   4.743
    1C        C   43   3.485   2.479   4.745
    1C        C   44   3.703   2.485   4.862
    1C        C   45   3.630   2.477   4.981
    1C        C   46   2.840   2.751   2.793
    1C        C   47   2.895   2.709   2.916
    1C        C   48   2.846   2.760   3.038
    1C        C   49   3.014   2.632   3.161
    1C        C   50   2.902   2.717   3.160
    1C        C   51   3.074   2.599   3.285
    1C        C   52   3.015   2.636   3.408
    1C        C   53   3.207   2.545   3.529
    1C        C   54   3.077   2.600   3.530
    1C        C   55   3.276   2.524   3.651
    1C        C   56   3.207   2.544   3.772
    1C        C   57   3.415   2.497   3.893
    1C        C   58   3.277   2.526   3.893
    1C        C   59   3.486   2.495   4.015
    1C        C   60   3.416   2.499   4.137
    1C        C   61   3.628   2.498   4.259
    1C        C   62   3.487   2.500   4.260
    1C        C   63   3.700   2.505   4.381
    1C        C   64   3.629   2.491   4.502
    1C        C   65   3.834   2.540   4.623
    1C        C   66   3.700   2.496   4.623
    1C        C   67   3.902   2.562   4.745
    1C        C   68   3.840   2.522   4.865
    1C        C   69   4.049   2.582   4.974
    1C        C   70   3.922   2.523   4.978
    1C        C   71   2.826   2.733   2.308
    1C        C   72   2.886   2.691   2.428
    1C        C   73   2.831   2.739   2.549
    1C        C   74   3.008   2.624   2.673
    1C        C   75   2.887   2.696   2.672
    1C        C   76   3.070   2.590   2.795
    1C        C   77   3.010   2.626   2.917
    1C        C   78   3.203   2.535   3.038
    1C        C   79   3.072   2.589   3.039
    1C        C   80   3.272   2.523   3.161
    1C        C   81   3.205   2.547   3.282
    1C        C   82   3.410   2.495   3.402
    1C        C   83   3.272   2.525   3.405
    1C        C   84   3.481   2.486   3.523
    1C        C   85   3.415   2.498   3.648
    1C        C   86   3.627   2.494   3.767
    1C        C   87   3.485   2.493   3.770
    1C        C   88   3.695   2.505   3.890
    1C        C   89   3.627   2.505   4.013
    1C        C   90   3.833   2.550   4.136
    1C        C   91   3.696   2.515   4.136
    1C        C   92   3.903   2.568   4.257
    1C        C   93   3.836   2.544   4.379
    1C        C   94   4.028   2.628   4.499
    1C        C   95   3.903   2.562   4.502
    1C        C   96   4.090   2.668   4.620
    1C        C   97   4.030   2.624   4.740
    1C        C   98   4.184   2.767   4.862
    1C        C   99   4.101   2.650   4.860
    1C        C  100   4.213   2.843   4.976
    1C        C  101   2.827   2.731   2.069
    1C        C  102   2.993   2.592   2.189
    1C        C  103   2.878   2.677   2.188
    1C        C  104   3.063   2.567   2.310
    1C        C  105   3.004   2.614   2.429
    1C        C  106   3.200   2.532   2.548
    1C        C  107   3.071   2.590   2.551
    1C        C  108   3.268   2.511   2.670
    1C        C  109   3.201   2.536   2.792
    1C        C  110   3.408   2.499   2.913
    1C        C  111   3.268   2.517   2.915
    1C        C  112   3.482   2.495   3.034
    1C        C  113   3.411   2.496   3.156
    1C        C  114   3.621   2.494   3.279
    1C        C  115   3.480   2.489   3.279
    1C        C  116   3.691   2.508   3.401
    1C        C  117   3.623   2.491   3.523
    1C        C  118   3.831   2.539   3.644
    1C        C  119   3.696   2.499   3.644
    1C        C  120   3.895   2.571   3.766
    1C        C  121   3.831   2.545   3.890
    1C        C  122   4.020   2.641   4.011
    1C        C  123   3.896   2.574   4.012
    1C        C  124   4.084   2.676   4.132
    1C        C  125   4.030   2.631   4.255
    1C        C  126   4.190   2.767   4.377
    1C        C  127   4.087   2.671   4.378
    1C        C  128   4.239   2.820   4.499
    1C        C  129   4.193   2.765   4.620
    1C        C  130   4.324   2.934   4.740
    1C        C  131   4.239   2.820   4.741
    1C        C  132   4.357   3.000   4.861
    1C        C  133   4.288   2.960   4.976
    1C        C  134   3.174   2.463   2.079
    1C        C  135   3.042   2.509   2.083
    1C        C  136   3.262   2.472   2.187
    1C        C  137   3.196   2.516   2.304
    1C        C  138   3.404   2.473   2.429
    1C        C  139   3.266   2.502   2.426
    1C        C  140   3.480   2.474   2.548
    1C        C  141   3.407   2.488   2.668
    1C        C  142   3.618   2.498   2.789
    1C        C  143   3.477   2.485   2.791
    1C        C  144   3.690   2.511   2.910
    1C        C  145   3.623   2.496   3.033
    1C        C  146   3.827   2.539   3.154
    1C        C  147   3.691   2.498   3.157
    1C        C  148   3.894   2.562   3.276
    1C        C  149   3.829   2.540   3.400
    1C        C  150   4.022   2.627   3.521
    1C        C  151   3.898   2.559   3.521
    1C        C  152   4.078   2.671   3.643
    1C        C  153   4.020   2.635   3.767
    1C        C  154   4.189   2.766   3.887
    1C        C  155   4.082   2.672   3.889
    1C        C  156   4.239   2.816   4.009
    1C        C  157   4.192   2.767   4.133
    1C        C  158   4.334   2.923   4.251
    1C        C  159   4.245   2.814   4.255
    1C        C  160   4.373   2.984   4.373
    1C        C  161   4.326   2.931   4.495
    1C        C  162   4.435   3.113   4.615
    1C        C  163   4.368   2.989   4.618
    1C        C  164   4.466   3.183   4.734
    1C        C  165   4.425   3.123   4.854
    1C        C  166   4.506   3.322   4.970
    1C        C  167   4.472   3.187   4.970
    1C        C  168   3.478   2.431   2.073
    1C        C  169   3.402   2.449   2.189
    1C        C  170   3.619   2.461   2.304
    1C        C  171   3.477   2.458   2.309
    1C        C  172   3.691   2.480   2.424
    1C        C  173   3.621   2.483   2.546
    1C        C  174   3.826   2.542   2.666
    1C        C  175   3.689   2.504   2.668
    1C        C  176   3.894   2.562   2.788
    1C        C  177   3.829   2.539   2.911
    1C        C  178   4.023   2.625   3.034
    1C        C  179   3.897   2.562   3.033
    1C        C  180   4.084   2.660   3.156
    1C        C  181   4.021   2.624   3.277
    1C        C  182   4.192   2.752   3.396
    1C        C  183   4.083   2.661   3.398
    1C        C  184   4.241   2.804   3.517
    1C        C  185   4.189   2.758   3.640
    1C        C  186   4.332   2.915   3.763
    1C        C  187   4.240   2.808   3.762
    1C        C  188   4.372   2.977   3.883
    1C        C  189   4.333   2.921   4.007
    1C        C  190   4.443   3.104   4.128
    1C        C  191   4.375   2.980   4.129
    1C        C  192   4.472   3.169   4.249
    1C        C  193   4.443   3.107   4.372
    1C        C  194   4.502   3.312   4.491
    1C        C  195   4.473   3.174   4.493
    1C        C  196   4.522   3.389   4.608
    1C        C  197   4.510   3.318   4.730
    1C        C  198   4.558   3.531   4.846
    1C        C  199   4.528   3.391   4.851
    1C        C  200   4.579   3.617   4.959
    1C        C  201   3.617   2.411   2.071
    1C        C  202   3.826   2.512   2.179
    1C        C  203   3.694   2.456   2.183
    1C        C  204   3.893   2.542   2.300
    1C        C  205   3.828   2.517   2.423
    1C        C  206   4.018   2.621   2.542
    1C        C  207   3.892   2.557   2.543
    1C        C  208   4.078   2.663   2.663
    1C        C  209   4.017   2.630   2.786
    1C        C  210   4.194   2.745   2.908
    1C        C  211   4.079   2.663   2.909
    1C        C  212   4.246   2.797   3.028
    1C        C  213   4.195   2.748   3.151
    1C        C  214   4.336   2.906   3.272
    1C        C  215   4.245   2.797   3.273
    1C        C  216   4.369   2.970   3.394
    1C        C  217   4.328   2.916   3.518
    1C        C  218   4.435   3.099   3.636
    1C        C  219   4.370   2.974   3.640
    1C        C  220   4.462   3.164   3.758
    1C        C  221   4.443   3.099   3.882
    1C        C  222   4.504   3.303   4.003
    1C        C  223   4.470   3.166   4.004
    1C        C  224   4.513   3.375   4.125
    1C        C  225   4.504   3.307   4.248
    1C        C  226   4.520   3.521   4.366
    1C        C  227   4.517   3.380   4.369
    1C        C  228   4.523   3.599   4.484
    1C        C  229   4.533   3.529   4.606
    1C        C  230   4.509   3.743   4.724
    1C        C  231   4.542   3.604   4.726
    1C        C  232   4.496   3.818   4.843
    1C        C  233   4.548   3.753   4.956
    1C        C  234   4.016   2.612   2.064
    1C        C  235   3.891   2.551   2.061
    1C        C  236   4.083   2.645   2.183
    1C        C  237   4.020   2.605   2.302
    1C        C  238   4.200   2.732   2.419
    1C        C  239   4.082   2.651   2.420
    1C        C  240   4.247   2.786   2.540
    1C        C  241   4.191   2.748   2.664
    1C        C  242   4.337   2.902   2.782
    1C        C  243   4.247   2.793   2.786
    1C        C  244   4.376   2.963   2.903
    1C        C  245   4.336   2.905   3.026
    1C        C  246   4.443   3.087   3.148
    1C        C  247   4.376   2.962   3.149
    1C        C  248   4.460   3.157   3.270
    1C        C  249   4.427   3.098   3.394
    1C        C  250   4.497   3.303   3.513
    1C        C  251   4.456   3.168   3.514
    1C        C  252   4.510   3.372   3.636
    1C        C  253   4.497   3.301   3.757
    1C        C  254   4.519   3.512   3.879
    1C        C  255   4.511   3.371   3.879
    1C        C  256   4.515   3.586   3.999
    1C        C  257   4.517   3.516   4.122
    1C        C  258   4.496   3.730   4.240
    1C        C  259   4.517   3.590   4.242
    1C        C  260   4.478   3.804   4.359
    1C        C  261   4.495   3.737   4.482
    1C        C  262   4.419   3.937   4.602
    1C        C  263   4.473   3.806   4.603
    1C        C  264   4.398   4.008   4.723
    1C        C  265   4.437   3.946   4.844
    1C        C  266   4.310   4.125   4.962
    1C        C  267   4.389   4.011   4.959
    1C        C  268   4.259   2.772   2.060
    1C        C  269   4.196   2.731   2.178
    1C        C  270   4.344   2.888   2.297
    1C        C  271   4.256   2.776   2.297
    1C        C  272   4.379   2.952   2.418
    1C        C  273   4.338   2.895   2.540
    1C        C  274   4.445   3.084   2.658
    1C        C  275   4.378   2.959   2.659
    1C        C  276   4.471   3.150   2.780
    1C        C  277   4.443   3.086   2.904
    1C        C  278   4.504   3.289   3.022
    1C        C  279   4.472   3.151   3.026
    1C        C  280   4.512   3.360   3.144
    1C        C  281   4.496   3.293   3.267
    1C        C  282   4.511   3.508   3.386
    1C        C  283   4.511   3.367   3.387
    1C        C  284   4.512   3.576   3.510
    1C        C  285   4.519   3.513   3.636
    1C        C  286   4.488   3.723   3.753
    1C        C  287   4.514   3.584   3.758
    1C        C  288   4.475   3.791   3.876
    1C        C  289   4.492   3.726   4.000
    1C        C  290   4.424   3.931   4.115
    1C        C  291   4.474   3.799   4.119
    1C        C  292   4.396   3.998   4.237
    1C        C  293   4.431   3.937   4.360
    1C        C  294   4.321   4.123   4.478
    1C        C  295   4.396   4.003   4.480
    1C        C  296   4.278   4.184   4.599
    1C        C  297   4.321   4.127   4.721
    1C        C  298   4.196   4.307   4.837
    1C        C  299   4.278   4.189   4.841
    1C        C  300   4.170   4.401   4.942
    1C        C  301   4.344   2.882   2.059
    1C        C  302   4.466   3.066   2.174
    1C        C  303   4.391   2.944   2.176
    1C        C  304   4.478   3.141   2.295
    1C        C  305   4.452   3.073   2.416
    1C        C  306   4.516   3.280   2.535
    1C        C  307   4.476   3.145   2.535
    1C        C  308   4.515   3.354   2.655
    1C        C  309   4.501   3.288   2.779
    1C        C  310   4.522   3.501   2.899
    1C        C  311   4.515   3.360   2.900
    1C        C  312   4.512   3.573   3.020
    1C        C  313   4.516   3.501   3.141
    1C        C  314   4.483   3.714   3.264
    1C        C  315   4.510   3.575   3.262
    1C        C  316   4.468   3.783   3.387
    1C        C  317   4.490   3.716   3.509
    1C        C  318   4.422   3.920   3.627
    1C        C  319   4.469   3.787   3.629
    1C        C  320   4.390   3.985   3.748
    1C        C  321   4.419   3.921   3.871
    1C        C  322   4.321   4.112   3.993
    1C        C  323   4.393   3.991   3.991
    1C        C  324   4.278   4.173   4.113
    1C        C  325   4.323   4.118   4.235
    1C        C  326   4.181   4.281   4.354
    1C        C  327   4.276   4.176   4.355
    1C        C  328   4.131   4.334   4.475
    1C        C  329   4.182   4.287   4.598
    1C        C  330   4.022   4.434   4.713
    1C        C  331   4.137   4.350   4.716
    1C        C  332   3.969   4.489   4.832
    1C        C  333   4.052   4.477   4.944
    1C        C  334   4.556   3.266   2.059
    1C        C  335   4.533   3.128   2.064
    1C        C  336   4.532   3.348   2.171
    1C        C  337   4.511   3.279   2.292
    1C        C  338   4.526   3.492   2.412
    1C        C  339   4.524   3.351   2.413
    1C        C  340   4.518   3.567   2.532
    1C        C  341   4.522   3.495   2.654
    1C        C  342   4.492   3.708   2.772
    1C        C  343   4.515   3.568   2.774
    1C        C  344   4.475   3.778   2.894
    1C        C  345   4.490   3.713   3.018
    1C        C  346   4.423   3.914   3.139
    1C        C  347   4.469   3.780   3.140
    1C        C  348   4.388   3.978   3.260
    1C        C  349   4.422   3.916   3.382
    1C        C  350   4.315   4.101   3.504
    1C        C  351   4.393   3.983   3.503
    1C        C  352   4.267   4.156   3.625
    1C        C  353   4.312   4.102   3.747
    1C        C  354   4.174   4.262   3.866
    1C        C  355   4.271   4.160   3.870
    1C        C  356   4.122   4.315   3.987
    1C        C  357   4.177   4.272   4.110
    1C        C  358   4.007   4.401   4.229
    1C        C  359   4.122   4.318   4.232
    1C        C  360   3.951   4.446   4.351
    1C        C  361   4.017   4.419   4.473
    1C        C  362   3.824   4.515   4.595
    1C        C  363   3.955   4.461   4.592
    1C        C  364   3.757   4.549   4.714
    1C        C  365   3.836   4.537   4.830
    1C        C  366   3.625   4.591   4.952
    1C        C  367   3.761   4.567   4.945
    1C        C  368   4.514   3.562   2.051
    1C        C  369   4.525   3.489   2.170
    1C        C  370   4.501   3.704   2.286
    1C        C  371   4.522   3.564   2.290
    1C        C  372   4.480   3.775   2.406
    1C        C  373   4.494   3.706   2.528
    1C        C  374   4.425   3.908   2.649
    1C        C  375   4.476   3.776   2.650
    1C        C  376   4.397   3.974   2.770
    1C        C  377   4.427   3.911   2.893
    1C        C  378   4.314   4.090   3.015
    1C        C  379   4.397   3.976   3.015
    1C        C  380   4.268   4.149   3.135
    1C        C  381   4.311   4.096   3.259
    1C        C  382   4.174   4.258   3.378
    1C        C  383   4.273   4.157   3.381
    1C        C  384   4.120   4.306   3.499
    1C        C  385   4.171   4.260   3.623
    1C        C  386   3.999   4.383   3.739
    1C        C  387   4.118   4.308   3.745
    1C        C  388   3.944   4.426   3.862
    1C        C  389   4.007   4.397   3.985
    1C        C  390   3.817   4.492   4.107
    1C        C  391   3.947   4.436   4.106
    1C        C  392   3.748   4.513   4.228
    1C        C  393   3.819   4.496   4.349
    1C        C  394   3.616   4.547   4.474
    1C        C  395   3.756   4.525   4.471
    1C        C  396   3.545   4.564   4.595
    1C        C  397   3.617   4.568   4.717
    1C        C  398   3.405   4.553   4.841
    1C        C  399   3.545   4.575   4.838
    1C        C  400   3.338   4.521   4.959
    1C        C  401   4.502   3.700   2.048
    1C        C  402   4.455   3.912   2.165
    1C        C  403   4.492   3.776   2.165
    1C        C  404   4.409   3.976   2.282
    1C        C  405   4.434   3.909   2.404
    1C        C  406   4.324   4.092   2.526
    1C        C  407   4.399   3.972   2.525
    1C        C  408   4.275   4.144   2.647
    1C        C  409   4.318   4.091   2.771
    1C        C  410   4.176   4.249   2.886
    1C        C  411   4.276   4.150   2.893
    1C        C  412   4.124   4.295   3.010
    1C        C  413   4.175   4.255   3.136
    1C        C  414   4.001   4.381   3.251
    1C        C  415   4.119   4.304   3.256
    1C        C  416   3.940   4.419   3.372
    1C        C  417   4.004   4.386   3.494
    1C        C  418   3.810   4.474   3.617
    1C        C  419   3.940   4.418   3.616
    1C        C  420   3.746   4.498   3.741
    1C        C  421   3.814   4.482   3.863
    1C        C  422   3.609   4.537   3.986
    1C        C  423   3.748   4.511   3.985
    1C        C  424   3.539   4.546   4.108
    1C        C  425   3.610   4.542   4.231
    1C        C  426   3.401   4.551   4.356
    1C        C  427   3.543   4.555   4.354
    1C        C  428   3.330   4.547   4.478
    1C        C  429   3.404   4.556   4.597
    1C        C  430   3.194   4.521   4.721
    1C        C  431   3.334   4.546   4.719
    1C        C  432   3.124   4.499   4.843
    1C        C  433   3.200   4.504   4.961
    1C        C  434   4.388   4.122   2.053
    1C        C  435   4.452   3.998   2.055
    1C        C  436   4.309   4.168   2.163
    1C        C  437   4.339   4.100   2.285
    1C        C  438   4.185   4.252   2.403
    1C        C  439   4.283   4.150   2.404
    1C        C  440   4.130   4.300   2.524
    1C        C  441   4.182   4.251   2.646
    1C        C  442   4.004   4.373   2.766
    1C        C  443   4.125   4.300   2.765
    1C        C  444   3.942   4.411   2.887
    1C        C  445   4.007   4.374   3.007
    1C        C  446   3.811   4.465   3.129
    1C        C  447   3.943   4.414   3.126
    1C        C  448   3.745   4.490   3.251
    1C        C  449   3.809   4.471   3.375
    1C        C  450   3.604   4.532   3.494
    1C        C  451   3.741   4.498   3.496
    1C        C  452   3.540   4.543   3.620
    1C        C  453   3.608   4.532   3.744
    1C        C  454   3.396   4.547   3.863
    1C        C  455   3.537   4.546   3.865
    1C        C  456   3.329   4.542   3.987
    1C        C  457   3.398   4.543   4.110
    1C        C  458   3.195   4.502   4.235
    1C        C  459   3.331   4.539   4.234
    1C        C  460   3.129   4.480   4.357
    1C        C  461   3.193   4.511   4.479
    1C        C  462   2.998   4.431   4.603
    1C        C  463   3.124   4.495   4.601
    1C        C  464   2.932   4.399   4.723
    1C        C  465   2.991   4.448   4.843
    1C        C  466   2.804   4.337   4.956
    1C        C  467   2.904   4.435   4.956
    1C        C  468   4.127   4.285   2.041
    1C        C  469   4.191   4.250   2.161
    1C        C  470   4.013   4.375   2.279
    1C        C  471   4.132   4.298   2.281
    1C        C  472   3.943   4.400   2.399
    1C        C  473   4.008   4.371   2.521
    1C        C  474   3.814   4.462   2.643
    1C        C  475   3.945   4.408   2.642
    1C        C  476   3.745   4.491   2.763
    1C        C  477   3.813   4.468   2.885
    1C        C  478   3.606   4.515   3.008
    1C        C  479   3.746   4.491   3.007
    1C        C  480   3.537   4.523   3.130
    1C        C  481   3.608   4.526   3.252
    1C        C  482   3.393   4.534   3.375
    1C        C  483   3.534   4.539   3.372
    1C        C  484   3.326   4.530   3.499
    1C        C  485   3.399   4.543   3.620
    1C        C  486   3.190   4.497   3.741
    1C        C  487   3.326   4.534   3.740
    1C        C  488   3.132   4.472   3.868
    1C        C  489   3.194   4.500   3.991
    1C        C  490   3.000   4.416   4.113
    1C        C  491   3.126   4.481   4.113
    1C        C  492   2.944   4.377   4.237
    1C        C  493   3.002   4.416   4.359
    1C        C  494   2.829   4.299   4.481
    1C        C  495   2.939   4.388   4.482
    1C        C  496   2.775   4.253   4.604
    1C        C  497   2.821   4.309   4.725
    1C        C  498   2.663   4.164   4.843
    1C        C  499   2.751   4.275   4.842
    1C        C  500   2.595   4.117   4.956
    1C        C  501   4.004   4.350   2.041
    1C        C  502   3.817   4.462   2.157
    1C        C  503   3.943   4.399   2.158
    1C        C  504   3.744   4.480   2.277
    1C        C  505   3.814   4.456   2.398
    1C        C  506   3.609   4.508   2.521
    1C        C  507   3.748   4.482   2.520
    1C        C  508   3.536   4.512   2.642
    1C        C  509   3.605   4.511   2.766
    1C        C  510   3.392   4.522   2.885
    1C        C  511   3.534   4.523   2.887
    1C        C  512   3.322   4.526   3.007
    1C        C  513   3.395   4.531   3.128
    1C        C  514   3.187   4.498   3.256
    1C        C  515   3.326   4.525   3.251
    1C        C  516   3.117   4.477   3.376
    1C        C  517   3.189   4.499   3.496
    1C        C  518   2.996   4.411   3.626
    1C        C  519   3.123   4.474   3.619
    1C        C  520   2.939   4.376   3.750
    1C        C  521   3.004   4.411   3.870
    1C        C  522   2.837   4.279   3.993
    1C        C  523   2.942   4.373   3.992
    1C        C  524   2.788   4.233   4.117
    1C        C  525   2.835   4.286   4.239
    1C        C  526   2.700   4.125   4.365
    1C        C  527   2.785   4.238   4.362
    1C        C  528   2.648   4.076   4.487
    1C        C  529   2.686   4.143   4.605
    1C        C  530   2.587   3.956   4.732
    1C        C  531   2.644   4.086   4.727
    1C        C  532   2.541   3.899   4.854
    1C        C  533   2.526   3.995   4.959
    1C        C  534   3.619   4.554   2.043
    1C        C  535   3.754   4.514   2.044
    1C        C  536   3.536   4.527   2.156
    1C        C  537   3.605   4.508   2.279
    1C        C  538   3.394   4.508   2.399
    1C        C  539   3.535   4.514   2.401
    1C        C  540   3.323   4.506   2.521
    1C        C  541   3.395   4.514   2.642
    1C        C  542   3.183   4.486   2.765
    1C        C  543   3.323   4.510   2.763
    1C        C  544   3.117   4.470   2.889
    1C        C  545   3.185   4.492   3.011
    1C        C  546   2.997   4.399   3.134
    1C        C  547   3.121   4.468   3.135
    1C        C  548   2.942   4.361   3.258
    1C        C  549   2.994   4.408   3.380
    1C        C  550   2.827   4.283   3.504
    1C        C  551   2.935   4.374   3.504
    1C        C  552   2.778   4.233   3.627
    1C        C  553   2.832   4.284   3.747
    1C        C  554   2.699   4.121   3.874
    1C        C  555   2.787   4.231   3.870
    1C        C  556   2.659   4.063   3.997
    1C        C  557   2.703   4.121   4.118
    1C        C  558   2.593   3.943   4.243
    1C        C  559   2.662   4.066   4.242
    1C        C  560   2.563   3.881   4.367
    1C        C  561   2.584   3.950   4.488
    1C        C  562   2.533   3.748   4.614
    1C        C  563   2.566   3.885   4.612
    1C        C  564   2.519   3.679   4.737
    1C        C  565   2.519   3.757   4.855
    1C        C  566   2.528   3.546   4.978
    1C        C  567   2.525   3.685   4.975
    1C        C  568   3.328   4.473   2.040
    1C        C  569   3.395   4.510   2.157
    1C        C  570   3.182   4.475   2.279
    1C        C  571   3.320   4.511   2.278
    1C        C  572   3.112   4.460   2.401
    1C        C  573   3.184   4.480   2.521
    1C        C  574   2.988   4.400   2.644
    1C        C  575   3.116   4.460   2.643
    1C        C  576   2.933   4.363   2.769
    1C        C  577   2.995   4.399   2.890
    1C        C  578   2.829   4.267   3.013
    1C        C  579   2.939   4.356   3.013
    1C        C  580   2.775   4.223   3.136
    1C        C  581   2.831   4.272   3.256
    1C        C  582   2.700   4.114   3.385
    1C        C  583   2.783   4.229   3.381
    1C        C  584   2.660   4.055   3.507
    1C        C  585   2.698   4.116   3.628
    1C        C  586   2.598   3.934   3.753
    1C        C  587   2.659   4.061   3.752
    1C        C  588   2.573   3.869   3.876
    1C        C  589   2.596   3.937   3.998
    1C        C  590   2.538   3.736   4.126
    1C        C  591   2.573   3.872   4.122
    1C        C  592   2.519   3.672   4.251
    1C        C  593   2.529   3.744   4.372
    1C        C  594   2.514   3.534   4.496
    1C        C  595   2.517   3.675   4.494
    1C        C  596   2.521   3.464   4.618
    1C        C  597   2.517   3.536   4.739
    1C        C  598   2.534   3.327   4.865
    1C        C  599   2.519   3.467   4.863
    1C        C  600   2.533   3.248   4.981
    1C        C  601   3.195   4.438   2.042
    1C        C  602   2.983   4.387   2.154
    1C        C  603   3.118   4.435   2.159
    1C        C  604   2.924   4.358   2.280
    1C        C  605   2.986   4.397   2.401
    1C        C  606   2.814   4.275   2.527
    1C        C  607   2.924   4.364   2.524
    1C        C  608   2.766   4.223   2.649
    1C        C  609   2.823   4.274   2.768
    1C        C  610   2.687   4.111   2.893
    1C        C  611   2.779   4.219   2.890
    1C        C  612   2.648   4.055   3.017
    1C        C  613   2.686   4.113   3.139
    1C        C  614   2.594   3.928   3.264
    1C        C  615   2.655   4.056   3.264
    1C        C  616   2.566   3.866   3.387
    1C        C  617   2.592   3.931   3.510
    1C        C  618   2.531   3.730   3.635
    1C        C  619   2.568   3.866   3.633
    1C        C  620   2.518   3.665   3.760
    1C        C  621   2.524   3.737   3.881
    1C        C  622   2.510   3.526   4.009
    1C        C  623   2.526   3.666   4.004
    1C        C  624   2.506   3.457   4.132
    1C        C  625   2.512   3.531   4.252
    1C        C  626   2.539   3.322   4.378
    1C        C  627   2.515   3.461   4.375
    1C        C  628   2.563   3.257   4.500
    1C        C  629   2.544   3.324   4.623
    1C        C  630   2.594   3.118   4.742
    1C        C  631   2.551   3.254   4.745
    1C        C  632   2.614   3.046   4.863
    1C        C  633   2.558   3.110   4.979
    1C        C  634   2.780   4.302   2.051
    1C        C  635   2.889   4.390   2.046
    1C        C  636   2.745   4.230   2.166
    1C        C  637   2.808   4.276   2.283
    1C        C  638   2.677   4.112   2.409
    1C        C  639   2.759   4.226   2.406
    1C        C  640   2.642   4.049   2.531
    1C        C  641   2.681   4.110   2.652
    1C        C  642   2.582   3.922   2.775
    1C        C  643   2.645   4.048   2.774
    1C        C  644   2.561   3.857   2.899
    1C        C  645   2.585   3.928   3.019
    1C        C  646   2.529   3.726   3.148
    1C        C  647   2.570   3.861   3.142
    1C        C  648   2.515   3.655   3.270
    1C        C  649   2.533   3.728   3.390
    1C        C  650   2.509   3.519   3.517
    1C        C  651   2.518   3.660   3.513
    1C        C  652   2.518   3.453   3.641
    1C        C  653   2.511   3.524   3.763
    1C        C  654   2.532   3.315   3.889
    1C        C  655   2.509   3.455   3.887
    1C        C  656   2.553   3.249   4.013
    1C        C  657   2.530   3.318   4.134
    1C        C  658   2.600   3.118   4.258
    1C        C  659   2.550   3.250   4.257
    1C        C  660   2.633   3.054   4.379
    1C        C  661   2.605   3.122   4.500
    1C        C  662   2.710   2.938   4.622
    1C        C  663   2.632   3.055   4.622
    1C        C  664   2.752   2.879   4.744
    1C        C  665   2.703   2.934   4.865
    1C        C  666   2.743   2.870   4.983
    1C        C  667   2.680   4.019   2.052
    1C        C  668   2.683   4.103   2.165
    1C        C  669   2.588   3.916   2.292
    1C        C  670   2.645   4.046   2.289
    1C        C  671   2.561   3.848   2.413
    1C        C  672   2.585   3.920   2.532
    1C        C  673   2.517   3.719   2.659
    1C        C  674   2.554   3.855   2.654
    1C        C  675   2.505   3.649   2.782
    1C        C  676   2.528   3.720   2.902
    1C        C  677   2.504   3.514   3.027
    1C        C  678   2.517   3.655   3.027
    1C        C  679   2.510   3.445   3.150
    1C        C  680   2.507   3.514   3.273
    1C        C  681   2.535   3.307   3.401
    1C        C  682   2.505   3.445   3.396
    1C        C  683   2.555   3.242   3.525
    1C        C  684   2.541   3.313   3.646
    1C        C  685   2.606   3.113   3.770
    1C        C  686   2.555   3.245   3.769
    1C        C  687   2.636   3.051   3.894
    1C        C  688   2.607   3.119   4.014
    1C        C  689   2.713   2.936   4.135
    1C        C  690   2.632   3.053   4.136
    1C        C  691   2.754   2.881   4.258
    1C        C  692   2.711   2.936   4.380
    1C        C  693   2.761   2.884   4.502
    1C        C  694   2.630   3.889   2.059
    1C        C  695   2.519   3.707   2.181
    1C        C  696   2.576   3.836   2.177
    1C        C  697   2.502   3.635   2.302
    1C        C  698   2.515   3.714   2.418
    1C        C  699   2.488   3.505   2.544
    1C        C  700   2.494   3.646   2.540
    1C        C  701   2.494   3.433   2.665
    1C        C  702   2.496   3.508   2.785
    1C        C  703   2.534   3.301   2.910
    1C        C  704   2.505   3.439   2.908
    1C        C  705   2.556   3.236   3.033
    1C        C  706   2.536   3.306   3.154
    1C        C  707   2.603   3.107   3.280
    1C        C  708   2.554   3.240   3.278
    1C        C  709   2.636   3.046   3.402
    1C        C  710   2.607   3.110   3.525
    1C        C  711   2.714   2.930   3.649
    1C        C  712   2.636   3.048   3.648
    1C        C  713   2.759   2.875   3.771
    1C        C  714   2.719   2.937   3.892
    1C        C  715   2.760   2.879   4.014
    1C        C  716   2.448   3.503   2.066
    1C        C  717   2.488   3.637   2.064
    1C        C  718   2.464   3.420   2.182
    1C        C  719   2.479   3.495   2.302
    1C        C  720   2.520   3.290   2.424
    1C        C  721   2.489   3.428   2.426
    1C        C  722   2.544   3.224   2.546
    1C        C  723   2.524   3.295   2.667
    1C        C  724   2.599   3.098   2.789
    1C        C  725   2.543   3.228   2.789
    1C        C  726   2.632   3.039   2.913
    1C        C  727   2.605   3.103   3.035
    1C        C  728   2.710   2.923   3.158
    1C        C  729   2.631   3.040   3.159
    1C        C  730   2.755   2.871   3.281
    1C        C  731   2.713   2.927   3.403
    1C        C  732   2.753   2.871   3.527
    1C        C  733   2.493   3.197   2.070
    1C        C  734   2.486   3.279   2.183
    1C        C  735   2.587   3.087   2.304
    1C        C  736   2.526   3.215   2.304
    1C        C  737   2.617   3.022   2.425
    1C        C  738   2.592   3.091   2.546
    1C        C  739   2.704   2.911   2.669
    1C        C  740   2.629   3.030   2.668
    1C        C  741   2.748   2.859   2.792
    1C        C  742   2.706   2.919   2.913
    1C        C  743   2.751   2.865   3.036
    1C        C  744   2.546   3.068   2.071
    1C        C  745   2.687   2.897   2.187
    1C        C  746   2.611   3.016   2.184
    1C        C  747   2.732   2.841   2.308
    1C        C  748   2.688   2.900   2.428
    1C        C  749   2.740   2.847   2.548
    1C        C  750   2.733   2.833   2.071
    1C        C  751   3.657   2.315   1.966
    1C        O  752   3.678   2.195   1.996
    1C        O  753   3.661   2.360   1.833
    1C        C  754   4.612   3.056   1.961
    1C        O  755   4.577   3.020   1.846
    1C        O  756   4.744   3.017   1.987
    1C        C  757   4.456   4.225   1.971
    1C        O  758   4.520   4.322   2.021
    1C        O  759   4.440   4.209   1.833
    1C        C  760   3.576   4.655   1.944
    1C        O  761   3.645   4.760   1.936
    1C        O  762   3.566   4.609   1.812
    1C        C  763   2.859   4.511   1.965
    1C        O  764   2.888   4.521   1.843
    1C        O  765   2.809   4.627   2.025
    1C        C  766   2.322   3.485   1.989
    1C        O  767   2.329   3.519   1.868
    1C        O  768   2.209   3.549   2.041
    1C        C  769   4.684   3.593   5.061
    1C        O  770   4.668   3.622   5.182
    1C        O  771   4.820   3.620   5.040
    1C        C  772   4.276   4.471   5.018
    1C        O  773   4.313   4.425   5.129
    1C        O  774   4.366   4.563   4.962
    1C        C  775   4.137   2.540   5.086
    1C        O  776   4.219   2.445   5.081
    1C        O  777   4.099   2.563   5.219
    1C        C  778   2.867   4.559   5.029
    1C        O  779   2.751   4.609   5.030
    1C        O  780   2.936   4.597   5.145
    1C        C  781   2.471   3.036   5.072
    1C        O  782   2.363   2.979   5.039
    1C        O  783   2.467   3.080   5.204
    1C        C  784   2.405   3.991   5.045
    1C        O  785   2.322   4.083   5.027
    1C        O  786   2.409   3.967   5.183
    1C        C  787   2.944   2.464   1.981
    1C        O  788   2.970   2.486   1.860
    1C        O  789   2.845   2.369   2.002
    1C        C  790   3.172   2.374   5.059
    1C        O  791   3.180   2.256   5.014
    1C        O  792   3.214   2.368   5.193
    1C        H  793   4.278   3.018   5.065
    1C        H  794   4.202   2.791   5.069
    1C        H  795   4.482   3.128   5.058
    1C        H  796   4.530   3.364   5.066
    1C        H  797   4.533   3.801   5.051
    1C        H  798   4.451   4.004   5.046
    1C        H  799   4.283   4.167   5.057
    1C        H  800   4.012   4.491   5.042
    1C        H  801   3.817   4.580   5.035
    1C        H  802   3.595   4.665   5.024
    1C        H  803   3.391   4.484   5.045
    1C        H  804   3.166   4.463   5.053
    1C        H  805   3.889   2.503   5.078
    1C        H  806   3.678   2.474   5.077
    1C        H  807   3.012   2.573   5.072
    1C        H  808   3.452   2.545   5.058
    1C        H  809   2.876   2.745   5.080
    1C        H  810   2.739   2.921   5.077
    1C        H  811   2.470   3.290   5.056
    1C        H  812   2.528   3.502   5.075
    1C        H  813   2.595   3.721   5.048
    1C        H  814   2.605   4.164   5.051
    1C        H  815   2.745   4.336   5.046
    1C        H  816   2.667   2.841   1.987
    1C        H  817   2.889   2.714   1.984
    1C        H  818   3.222   2.458   1.984
    1C        H  819   3.432   2.435   1.976
    1C        H  820   3.849   2.529   1.966
    1C        H  821   4.070   2.626   1.972
    1C        H  822   4.289   2.691   1.997
    1C        H  823   4.386   2.906   1.963
    1C        H  824   4.619   3.304   1.982
    1C        H  825   4.477   3.512   1.964
    1C        H  826   4.451   3.736   1.960
    1C        H  827   3.811   4.534   1.955
    1C        H  828   3.948   4.352   1.950
    1C        H  829   4.174   4.266   1.947
    1C        H  830   4.492   3.967   1.960
    1C        H  831   2.667   3.827   1.979
    1C        H  832   2.722   4.046   1.957
    1C        H  833   2.738   4.267   1.959
    1C        H  834   3.388   4.427   1.963
    1C        H  835   3.160   4.371   1.967
    1C        H  836   2.559   3.024   1.974
    1C        H  837   2.473   3.238   1.974
    1C        H  838   2.443   3.694   1.985
    2V3OU   H29  839   2.810   3.549   1.197
    2V3OU   C27  840   2.780   3.503   1.294
    2V3OU   H27  841   2.715   3.574   1.352
    2V3OU   H28  842   2.725   3.406   1.282
    2V3OU   O11  843   2.907   3.473   1.354
    2V3OU   C15  844   2.919   3.394   1.467
    2V3OU   C13  845   3.051   3.374   1.513
    2V3OU   C14  846   3.076   3.272   1.605
    2V3OU   C16  847   2.971   3.194   1.654
    2V3OU    H6  848   2.993   3.095   1.695
    2V3OU   C12  849   3.214   3.224   1.620
    2V3OU    O2  850   3.241   3.116   1.678
    2V3OU   C10  851   3.325   3.305   1.567
    2V3OU    C8  852   3.457   3.267   1.586
    2V3OU   O10  853   3.485   3.153   1.654
    2V3OU   H26  854   3.398   3.115   1.676
    2V3OU    C6  855   3.567   3.347   1.539
    2V3OU    C5  856   3.539   3.462   1.467
    2V3OU    C4  857   3.705   3.292   1.529
    2V3OU    H4  858   3.726   3.231   1.622
    2V3OU    H5  859   3.713   3.230   1.435
    2V3OU    C2  860   3.813   3.400   1.527
    2V3OU    O6  861   3.811   3.470   1.651
    2V3OU   H21  862   3.767   3.555   1.632
    2V3OU    C3  863   3.783   3.492   1.408
    2V3OU    H2  864   3.860   3.573   1.402
    2V3OU    H3  865   3.785   3.439   1.310
    2V3OU   C25  866   3.946   3.325   1.511
    2V3OU    O7  867   3.996   3.295   1.402
    2V3OU   C26  868   4.029   3.286   1.632
    2V3OU   H22  869   4.060   3.387   1.671
    2V3OU   H23  870   4.121   3.231   1.599
    2V3OU    O8  871   3.964   3.209   1.730
    2V3OU   H24  872   3.929   3.268   1.798
    2V3OU    C1  873   3.646   3.557   1.420
    2V3OU    H1  874   3.625   3.613   1.325
    2V3OU    O3  875   3.662   3.651   1.526
    2V3OU   C19  876   3.617   3.787   1.515
    2V3OU    H9  877   3.522   3.799   1.455
    2V3OU    O4  878   3.714   3.848   1.433
    2V3OU   C20  879   3.843   3.868   1.491
    2V3OU   H10  880   3.895   3.769   1.507
    2V3OU   C24  881   3.610   3.854   1.653
    2V3OU   H16  882   3.553   3.790   1.726
    2V3OU   H17  883   3.565   3.956   1.654
    2V3OU   C23  884   3.747   3.871   1.717
    2V3OU   H15  885   3.790   3.767   1.734
    2V3OU    N1  886   3.734   3.952   1.837
    2V3OU   H19  887   3.802   3.923   1.905
    2V3OU   H20  888   3.649   3.939   1.887
    2V3OU   C21  889   3.848   3.944   1.623
    2V3OU   H11  890   3.949   3.925   1.670
    2V3OU    O5  891   3.826   4.085   1.620
    2V3OU   H18  892   3.775   4.099   1.701
    2V3OU   C22  893   3.912   3.948   1.381
    2V3OU   H12  894   3.864   4.049   1.370
    2V3OU   H13  895   3.911   3.892   1.284
    2V3OU   H14  896   4.023   3.956   1.398
    2V3OU   C11  897   3.159   3.469   1.484
    2V3OU    O1  898   3.132   3.587   1.453
    2V3OU    C9  899   3.300   3.427   1.499
    2V3OU    C7  900   3.404   3.504   1.447
    2V3OU    O9  901   3.384   3.626   1.386
    2V3OU   H25  902   3.287   3.632   1.391
    2V3OU   C17  903   2.817   3.314   1.523
    2V3OU    H7  904   2.713   3.335   1.500
    2V3OU   C18  905   2.839   3.213   1.616
    2V3OU    H8  906   2.754   3.146   1.636
    3SOL     OW  907   1.611   3.153   0.324
    3SOL    HW1  908   1.548   3.165   0.400
    3SOL    HW2  909   1.652   3.062   0.329
    4SOL     OW  910   5.827   0.355   1.951
    4SOL    HW1  911   5.787   0.446   1.945
    4SOL    HW2  912   5.927   0.362   1.954
    5SOL     OW  913   3.394   2.383   1.152
    5SOL    HW1  914   3.401   2.438   1.236
    5SOL    HW2  915   3.365   2.441   1.077
    6SOL     OW  916   2.791   1.990   1.304
    6SOL    HW1  917   2.720   2.043   1.351
    6SOL    HW2  918   2.748   1.920   1.246
    7SOL     OW  919   6.175   1.349   1.611
    7SOL    HW1  920   6.225   1.412   1.552
    7SOL    HW2  921   6.092   1.394   1.645
    8SOL     OW  922   2.448   1.045   5.029
    8SOL    HW1  923   2.452   0.956   5.074
    8SOL    HW2  924   2.463   1.117   5.096
    9SOL     OW  925   1.505   3.386   5.658
    9SOL    HW1  926   1.415   3.373   5.699
    9SOL    HW2  927   1.576   3.373   5.727
   10SOL     OW  928   0.425   3.546   0.120
   10SOL    HW1  929   0.353   3.479   0.102
   10SOL    HW2  930   0.441   3.553   0.218
   11SOL     OW  931   3.770   6.708   0.079
   11SOL    HW1  932   3.803   6.653   0.156
   11SOL    HW2  933   3.768   6.652   7.018
   12SOL     OW  934   5.379   6.544   2.509
   12SOL    HW1  935   5.335   6.515   2.425
   12SOL    HW2  936   5.417   6.465   2.557
   13SOL     OW  937   2.562   6.574   3.498
   13SOL    HW1  938   2.524   6.483   3.515
   13SOL    HW2  939   2.527   6.638   3.566
   14SOL     OW  940   3.764   6.360   0.962
   14SOL    HW1  941   3.678   6.364   1.014
   14SOL    HW2  942   3.745   6.326   0.870
   15SOL     OW  943   1.563   6.193   6.640
   15SOL    HW1  944   1.567   6.202   6.739
   15SOL    HW2  945   1.655   6.184   6.603
   16SOL     OW  946   6.096   1.846   5.626
   16SOL    HW1  947   6.165   1.886   5.687
   16SOL    HW2  948   6.033   1.789   5.678
   17SOL     OW  949   5.300   6.624   4.641
   17SOL    HW1  950   5.272   6.528   4.643
   17SOL    HW2  951   5.400   6.630   4.642
   18SOL     OW  952   1.490   1.505   6.199
   18SOL    HW1  953   1.396   1.504   6.231
   18SOL    HW2  954   1.531   1.594   6.217
   19SOL     OW  955   0.996   7.020   2.033
   19SOL    HW1  956   1.038   6.930   2.046
   19SOL    HW2  957   0.988   0.017   1.935
   20SOL     OW  958   3.172   2.006   4.055
   20SOL    HW1  959   3.142   2.016   3.960
   20SOL    HW2  960   3.269   2.030   4.062
   21SOL     OW  961   3.240   2.661   1.136
   21SOL    HW1  962   3.169   2.691   1.200
   21SOL    HW2  963   3.211   2.680   1.042
   22SOL     OW  964   1.360   6.781   5.710
   22SOL    HW1  965   1.391   6.695   5.669
   22SOL    HW2  966   1.326   6.841   5.638
   23SOL     OW  967   3.786   6.507   4.457
   23SOL    HW1  968   3.705   6.463   4.495
   23SOL    HW2  969   3.811   6.586   4.512
   24SOL     OW  970   4.311   1.321   5.102
   24SOL    HW1  971   4.360   1.301   5.018
   24SOL    HW2  972   4.340   1.410   5.138
   25SOL     OW  973   3.616   5.455   0.669
   25SOL    HW1  974   3.671   5.424   0.746
   25SOL    HW2  975   3.607   5.381   0.602
   26SOL     OW  976   6.416   1.638   2.310
   26SOL    HW1  977   6.476   1.558   2.312
   26SOL    HW2  978   6.404   1.673   2.403
   27SOL     OW  979   5.859   6.419   2.276
   27SOL    HW1  980   5.827   6.389   2.366
   27SOL    HW2  981   5.896   6.512   2.284
   28SOL     OW  982   3.930   0.407   6.989
   28SOL    HW1  983   3.918   0.315   0.005
   28SOL    HW2  984   3.959   0.469   0.040
   29SOL     OW  985   4.595   2.145   1.816
   29SOL    HW1  986   4.614   2.235   1.854
   29SOL    HW2  987   4.658   2.078   1.855
   30SOL     OW  988   3.431   0.594   4.744
   30SOL    HW1  989   3.341   0.618   4.709
   30SOL    HW2  990   3.489   0.675   4.746
   31SOL     OW  991   0.272   0.303   5.772
   31SOL    HW1  992   0.270   0.400   5.796
   31SOL    HW2  993   0.217   0.287   5.690
   32SOL     OW  994   0.419   1.831   1.235
   32SOL    HW1  995   0.324   1.810   1.262
   32SOL    HW2  996   0.480   1.763   1.274
   33SOL     OW  997   1.962   2.098   6.090
   33SOL    HW1  998   2.007   2.188   6.088
   33SOL    HW2  999   1.966   2.057   5.999
   34SOL     OW 1000   1.112   0.545   4.824
   34SOL    HW1 1001   1.207   0.550   4.793
   34SOL    HW2 1002   1.108   0.495   4.911
   35SOL     OW 1003   4.442   1.481   6.698
   35SOL    HW1 1004   4.530   1.475   6.747
   35SOL    HW2 1005   4.409   1.389   6.677
   36SOL     OW 1006   1.555   2.002   5.720
   36SOL    HW1 1007   1.631   1.964   5.772
   36SOL    HW2 1008   1.572   2.100   5.704
   37SOL     OW 1009   2.932   6.560   2.036
   37SOL    HW1 1010   2.970   6.496   2.103
   37SOL    HW2 1011   2.866   6.512   1.978
   38SOL     OW 1012   6.688   6.238   3.065
   38SOL    HW1 1013   6.718   6.289   3.146
   38SOL    HW2 1014   6.643   6.301   3.001
   39SOL     OW 1015   6.991   3.654   4.993
   39SOL    HW1 1016   0.052   3.619   4.947
   39SOL    HW2 1017   6.988   3.753   4.984
   40SOL     OW 1018   6.880   0.449   1.997
   40SOL    HW1 1019   6.851   0.430   2.091
   40SOL    HW2 1020   6.834   0.386   1.935
   41SOL     OW 1021   1.017   6.814   5.535
   41SOL    HW1 1022   1.024   6.914   5.541
   41SOL    HW2 1023   1.033   6.785   5.441
   42SOL     OW 1024   3.706   0.561   0.105
   42SOL    HW1 1025   3.706   0.580   0.204
   42SOL    HW2 1026   3.776   0.616   0.061
   43SOL     OW 1027   5.637   5.796   5.468
   43SOL    HW1 1028   5.712   5.771   5.529
   43SOL    HW2 1029   5.601   5.714   5.425
   44SOL     OW 1030   0.733   2.908   5.986
   44SOL    HW1 1031   0.634   2.894   5.980
   44SOL    HW2 1032   0.751   2.997   6.029
   45SOL     OW 1033   2.669   0.453   2.088
   45SOL    HW1 1034   2.686   0.369   2.140
   45SOL    HW2 1035   2.734   0.523   2.116
   46SOL     OW 1036   1.717   4.169   4.228
   46SOL    HW1 1037   1.811   4.193   4.251
   46SOL    HW2 1038   1.688   4.092   4.284
   47SOL     OW 1039   6.275   4.877   3.666
   47SOL    HW1 1040   6.228   4.965   3.658
   47SOL    HW2 1041   6.286   4.837   3.575
   48SOL     OW 1042   0.249   2.450   5.293
   48SOL    HW1 1043   0.304   2.484   5.216
   48SOL    HW2 1044   0.228   2.526   5.354
   49SOL     OW 1045   4.782   2.199   1.167
   49SOL    HW1 1046   4.703   2.182   1.226
   49SOL    HW2 1047   4.833   2.115   1.153
   50SOL     OW 1048   6.691   3.926   4.263
   50SOL    HW1 1049   6.788   3.903   4.255
   50SOL    HW2 1050   6.667   3.995   4.194
   51SOL     OW 1051   3.544   5.193   2.900
   51SOL    HW1 1052   3.634   5.236   2.914
   51SOL    HW2 1053   3.473   5.262   2.909
   52SOL     OW 1054   1.888   2.153   1.800
   52SOL    HW1 1055   1.943   2.157   1.883
   52SOL    HW2 1056   1.792   2.170   1.822
   53SOL     OW 1057   5.274   0.246   3.993
   53SOL    HW1 1058   5.257   0.343   4.007
   53SOL    HW2 1059   5.209   0.192   4.046
   54SOL     OW 1060   4.093   5.342   5.721
   54SOL    HW1 1061   4.169   5.280   5.705
   54SOL    HW2 1062   4.120   5.436   5.697
   55SOL     OW 1063   3.857   1.619   0.323
   55SOL    HW1 1064   3.814   1.558   0.389
   55SOL    HW2 1065   3.901   1.695   0.370
   56SOL     OW 1066   1.297   0.312   2.034
   56SOL    HW1 1067   1.307   0.365   2.118
   56SOL    HW2 1068   1.202   0.316   2.003
   57SOL     OW 1069   5.900   0.960   0.150
   57SOL    HW1 1070   5.821   0.927   0.098
   57SOL    HW2 1071   5.881   0.951   0.248
   58SOL     OW 1072   6.924   6.328   7.011
   58SOL    HW1 1073   6.942   6.300   0.084
   58SOL    HW2 1074   6.886   6.421   7.011
   59SOL     OW 1075   1.165   0.292   5.280
   59SOL    HW1 1076   1.183   0.368   5.343
   59SOL    HW2 1077   1.252   0.255   5.248
   60SOL     OW 1078   4.334   6.797   4.889
   60SOL    HW1 1079   4.376   6.734   4.824
   60SOL    HW2 1080   4.239   6.769   4.905
   61SOL     OW 1081   4.681   0.285   4.461
   61SOL    HW1 1082   4.721   0.352   4.398
   61SOL    HW2 1083   4.603   0.326   4.508
   62SOL     OW 1084   1.425   0.644   4.474
   62SOL    HW1 1085   1.493   0.571   4.480
   62SOL    HW2 1086   1.449   0.706   4.400
   63SOL     OW 1087   0.054   2.804   3.252
   63SOL    HW1 1088   0.048   2.881   3.316
   63SOL    HW2 1089   0.061   2.719   3.304
   64SOL     OW 1090   0.053   3.852   5.737
   64SOL    HW1 1091   0.122   3.830   5.806
   64SOL    HW2 1092   0.072   3.800   5.654
   65SOL     OW 1093   6.582   4.641   5.999
   65SOL    HW1 1094   6.624   4.718   5.951
   65SOL    HW2 1095   6.548   4.671   6.088
   66SOL     OW 1096   2.793   1.044   0.454
   66SOL    HW1 1097   2.709   1.050   0.399
   66SOL    HW2 1098   2.863   1.104   0.415
   67SOL     OW 1099   5.315   5.962   4.636
   67SOL    HW1 1100   5.275   6.031   4.575
   67SOL    HW2 1101   5.364   5.894   4.582
   68SOL     OW 1102   5.674   1.835   5.697
   68SOL    HW1 1103   5.687   1.930   5.667
   68SOL    HW2 1104   5.763   1.796   5.720
   69SOL     OW 1105   2.955   3.610   5.973
   69SOL    HW1 1106   2.924   3.559   6.052
   69SOL    HW2 1107   3.054   3.599   5.962
   70SOL     OW 1108   6.947   5.278   1.980
   70SOL    HW1 1109   6.881   5.210   2.013
   70SOL    HW2 1110   0.002   5.283   2.044
   71SOL     OW 1111   1.311   2.396   3.229
   71SOL    HW1 1112   1.357   2.412   3.141
   71SOL    HW2 1113   1.268   2.480   3.260
   72SOL     OW 1114   2.653   5.448   4.159
   72SOL    HW1 1115   2.683   5.487   4.072
   72SOL    HW2 1116   2.597   5.367   4.143
   73SOL     OW 1117   4.464   2.485   0.259
   73SOL    HW1 1118   4.373   2.524   0.272
   73SOL    HW2 1119   4.461   2.414   0.189
   74SOL     OW 1120   5.077   5.880   6.184
   74SOL    HW1 1121   5.103   5.806   6.245
   74SOL    HW2 1122   5.155   5.908   6.128
   75SOL     OW 1123   3.843   5.651   5.625
   75SOL    HW1 1124   3.786   5.704   5.562
   75SOL    HW2 1125   3.789   5.625   5.705
   76SOL     OW 1126   2.547   2.885   1.640
   76SOL    HW1 1127   2.535   2.983   1.627
   76SOL    HW2 1128   2.642   2.866   1.665
   77SOL     OW 1129   5.714   5.486   6.433
   77SOL    HW1 1130   5.796   5.470   6.378
   77SOL    HW2 1131   5.644   5.530   6.377
   78SOL     OW 1132   6.344   6.523   5.816
   78SOL    HW1 1133   6.349   6.572   5.903
   78SOL    HW2 1134   6.405   6.444   5.820
   79SOL     OW 1135   3.014   6.891   0.214
   79SOL    HW1 1136   3.078   6.815   0.202
   79SOL    HW2 1137   3.064   6.975   0.230
   80SOL     OW 1138   0.333   1.372   3.987
   80SOL    HW1 1139   0.345   1.470   3.972
   80SOL    HW2 1140   0.235   1.351   3.988
   81SOL     OW 1141   1.659   0.673   3.118
   81SOL    HW1 1142   1.701   0.749   3.068
   81SOL    HW2 1143   1.689   0.676   3.213
   82SOL     OW 1144   0.033   4.688   5.316
   82SOL    HW1 1145   0.123   4.669   5.276
   82SOL    HW2 1146   0.042   4.706   5.414
   83SOL     OW 1147   0.201   6.842   0.532
   83SOL    HW1 1148   0.276   6.903   0.506
   83SOL    HW2 1149   0.123   6.897   0.561
   84SOL     OW 1150   5.651   3.775   1.582
   84SOL    HW1 1151   5.694   3.684   1.584
   84SOL    HW2 1152   5.693   3.833   1.652
   85SOL     OW 1153   0.872   2.986   4.845
   85SOL    HW1 1154   0.846   3.004   4.750
   85SOL    HW2 1155   0.794   2.949   4.895
   86SOL     OW 1156   0.669   0.788   6.014
   86SOL    HW1 1157   0.604   0.736   6.070
   86SOL    HW2 1158   0.762   0.757   6.033
   87SOL     OW 1159   4.107   1.238   0.774
   87SOL    HW1 1160   4.112   1.328   0.731
   87SOL    HW2 1161   4.017   1.226   0.817
   88SOL     OW 1162   5.242   0.897   0.600
   88SOL    HW1 1163   5.196   0.974   0.642
   88SOL    HW2 1164   5.206   0.812   0.638
   89SOL     OW 1165   1.525   2.782   6.106
   89SOL    HW1 1166   1.614   2.771   6.149
   89SOL    HW2 1167   1.535   2.784   6.007
   90SOL     OW 1168   5.630   6.264   3.783
   90SOL    HW1 1169   5.629   6.241   3.686
   90SOL    HW2 1170   5.635   6.180   3.837
   91SOL     OW 1171   4.792   4.547   4.975
   91SOL    HW1 1172   4.882   4.549   5.017
   91SOL    HW2 1173   4.798   4.508   4.884
   92SOL     OW 1174   3.451   5.144   1.881
   92SOL    HW1 1175   3.457   5.056   1.833
   92SOL    HW2 1176   3.441   5.218   1.813
   93SOL     OW 1177   3.213   5.362   5.721
   93SOL    HW1 1178   3.219   5.460   5.743
   93SOL    HW2 1179   3.291   5.314   5.760
   94SOL     OW 1180   3.053   5.811   0.632
   94SOL    HW1 1181   2.979   5.823   0.566
   94SOL    HW2 1182   3.130   5.766   0.588
   95SOL     OW 1183   0.186   0.314   4.600
   95SOL    HW1 1184   0.200   0.222   4.565
   95SOL    HW2 1185   0.242   0.328   4.682
   96SOL     OW 1186   2.128   0.033   5.599
   96SOL    HW1 1187   2.055   0.069   5.542
   96SOL    HW2 1188   2.201   0.101   5.608
   97SOL     OW 1189   6.052   3.126   4.769
   97SOL    HW1 1190   6.117   3.190   4.728
   97SOL    HW2 1191   5.976   3.112   4.706
   98SOL     OW 1192   5.746   2.555   5.744
   98SOL    HW1 1193   5.839   2.567   5.780
   98SOL    HW2 1194   5.710   2.644   5.716
   99SOL     OW 1195   4.527   1.834   1.099
   99SOL    HW1 1196   4.476   1.788   1.172
   99SOL    HW2 1197   4.537   1.931   1.122
  100SOL     OW 1198   0.200   5.380   6.707
  100SOL    HW1 1199   0.284   5.349   6.751
  100SOL    HW2 1200   0.132   5.306   6.709
  101SOL     OW 1201   1.901   6.408   3.866
  101SOL    HW1 1202   1.840   6.333   3.890
  101SOL    HW2 1203   1.878   6.489   3.920
  102SOL     OW 1204   4.492   0.248   3.925
  102SOL    HW1 1205   4.463   0.186   3.852
  102SOL    HW2 1206   4.440   0.333   3.919
  103SOL     OW 1207   3.969   1.858   1.242
  103SOL    HW1 1208   4.056   1.892   1.206
  103SOL    HW2 1209   3.903   1.934   1.244
  104SOL     OW 1210   0.081   5.863   2.531
  104SOL    HW1 1211   0.170   5.901   2.506
  104SOL    HW2 1212   0.037   5.827   2.449
  105SOL     OW 1213   5.183   0.916   6.149
  105SOL    HW1 1214   5.182   0.924   6.249
  105SOL    HW2 1215   5.208   1.004   6.109
  106SOL     OW 1216   2.983   6.622   6.635
  106SOL    HW1 1217   2.920   6.612   6.712
  106SOL    HW2 1218   2.977   6.541   6.577
  107SOL     OW 1219   2.452   2.882   0.797
  107SOL    HW1 1220   2.430   2.808   0.862
  107SOL    HW2 1221   2.479   2.964   0.847
  108SOL     OW 1222   5.028   4.387   5.708
  108SOL    HW1 1223   5.074   4.457   5.762
  108SOL    HW2 1224   5.081   4.302   5.713
  109SOL     OW 1225   6.508   0.771   1.049
  109SOL    HW1 1226   6.450   0.690   1.058
  109SOL    HW2 1227   6.600   0.749   1.081
  110SOL     OW 1228   3.885   5.788   5.051
  110SOL    HW1 1229   3.906   5.750   4.960
  110SOL    HW2 1230   3.964   5.777   5.111
  111SOL     OW 1231   3.531   1.164   3.380
  111SOL    HW1 1232   3.471   1.231   3.423
  111SOL    HW2 1233   3.546   1.188   3.285
  112SOL     OW 1234   7.007   6.703   5.999
  112SOL    HW1 1235   7.017   6.637   6.073
  112SOL    HW2 1236   0.060   6.770   6.002
  113SOL     OW 1237   0.164   5.213   3.046
  113SOL    HW1 1238   0.072   5.236   3.015
  113SOL    HW2 1239   0.158   5.156   3.129
  114SOL     OW 1240   0.718   6.945   6.905
  114SOL    HW1 1241   0.751   0.009   6.945
  114SOL    HW2 1242   0.659   6.965   6.827
  115SOL     OW 1243   5.351   1.306   4.716
  115SOL    HW1 1244   5.288   1.247   4.768
  115SOL    HW2 1245   5.318   1.401   4.720
  116SOL     OW 1246   6.412   4.385   2.218
  116SOL    HW1 1247   6.484   4.323   2.187
  116SOL    HW2 1248   6.335   4.380   2.155
  117SOL     OW 1249   1.550   6.950   6.322
  117SOL    HW1 1250   1.514   6.910   6.238
  117SOL    HW2 1251   1.584   6.876   6.381
  118SOL     OW 1252   0.640   0.056   2.408
  118SOL    HW1 1253   0.694   7.000   2.442
  118SOL    HW2 1254   0.702   0.128   2.375
  119SOL     OW 1255   6.748   2.781   6.003
  119SOL    HW1 1256   6.818   2.727   6.050
  119SOL    HW2 1257   6.784   2.871   5.980
  120SOL     OW 1258   5.972   6.608   0.945
  120SOL    HW1 1259   5.974   6.512   0.973
  120SOL    HW2 1260   5.898   6.620   0.878
  121SOL     OW 1261   2.654   3.467   5.817
  121SOL    HW1 1262   2.647   3.386   5.874
  121SOL    HW2 1263   2.662   3.548   5.876
  122SOL     OW 1264   0.967   2.677   4.348
  122SOL    HW1 1265   0.885   2.620   4.356
  122SOL    HW2 1266   0.995   2.707   4.440
  123SOL     OW 1267   0.853   2.017   1.213
  123SOL    HW1 1268   0.769   2.055   1.252
  123SOL    HW2 1269   0.856   1.919   1.230
  124SOL     OW 1270   4.643   3.230   1.317
  124SOL    HW1 1271   4.658   3.136   1.288
  124SOL    HW2 1272   4.723   3.262   1.368
  125SOL     OW 1273   1.881   3.202   1.980
  125SOL    HW1 1274   1.923   3.244   1.900
  125SOL    HW2 1275   1.948   3.142   2.025
  126SOL     OW 1276   3.431   4.903   1.401
  126SOL    HW1 1277   3.438   4.883   1.304
  126SOL    HW2 1278   3.373   4.984   1.414
  127SOL     OW 1279   0.001   6.270   6.303
  127SOL    HW1 1280   6.987   6.335   6.236
  127SOL    HW2 1281   6.954   6.199   6.320
  128SOL     OW 1282   4.767   2.433   1.544
  128SOL    HW1 1283   4.844   2.369   1.538
  128SOL    HW2 1284   4.796   2.514   1.595
  129SOL     OW 1285   2.870   3.805   6.578
  129SOL    HW1 1286   2.800   3.869   6.547
  129SOL    HW2 1287   2.850   3.776   6.671
  130SOL     OW 1288   1.584   1.860   4.379
  130SOL    HW1 1289   1.581   1.866   4.279
  130SOL    HW2 1290   1.545   1.942   4.419
  131SOL     OW 1291   4.729   1.361   3.128
  131SOL    HW1 1292   4.807   1.320   3.176
  131SOL    HW2 1293   4.762   1.422   3.056
  132SOL     OW 1294   1.132   2.728   0.967
  132SOL    HW1 1295   1.036   2.731   0.994
  132SOL    HW2 1296   1.189   2.765   1.041
  133SOL     OW 1297   6.729   5.759   2.286
  133SOL    HW1 1298   6.695   5.665   2.282
  133SOL    HW2 1299   6.671   5.812   2.347
  134SOL     OW 1300   6.792   3.687   3.145
  134SOL    HW1 1301   6.783   3.629   3.227
  134SOL    HW2 1302   6.713   3.674   3.086
  135SOL     OW 1303   4.857   1.906   4.186
  135SOL    HW1 1304   4.789   1.875   4.253
  135SOL    HW2 1305   4.816   1.977   4.128
  136SOL     OW 1306   5.394   4.660   5.239
  136SOL    HW1 1307   5.354   4.707   5.160
  136SOL    HW2 1308   5.328   4.592   5.274
  137SOL     OW 1309   3.734   0.085   5.733
  137SOL    HW1 1310   3.723   0.139   5.650
  137SOL    HW2 1311   3.645   0.048   5.761
  138SOL     OW 1312   7.001   5.364   4.730
  138SOL    HW1 1313   0.006   5.267   4.734
  138SOL    HW2 1314   6.950   5.388   4.812
  139SOL     OW 1315   3.572   4.605   5.493
  139SOL    HW1 1316   3.498   4.645   5.547
  139SOL    HW2 1317   3.646   4.577   5.554
  140SOL     OW 1318   6.234   4.491   4.664
  140SOL    HW1 1319   6.316   4.482   4.720
  140SOL    HW2 1320   6.238   4.576   4.612
  141SOL     OW 1321   1.337   2.336   4.321
  141SOL    HW1 1322   1.238   2.345   4.323
  141SOL    HW2 1323   1.369   2.340   4.226
  142SOL     OW 1324   1.904   5.659   1.288
  142SOL    HW1 1325   1.970   5.681   1.360
  142SOL    HW2 1326   1.949   5.664   1.199
  143SOL     OW 1327   5.888   4.283   1.717
  143SOL    HW1 1328   5.944   4.262   1.797
  143SOL    HW2 1329   5.796   4.247   1.730
  144SOL     OW 1330   2.723   7.019   6.818
  144SOL    HW1 1331   2.807   0.019   6.868
  144SOL    HW2 1332   2.652   6.990   6.882
  145SOL     OW 1333   0.071   5.755   0.267
  145SOL    HW1 1334   0.090   5.673   0.212
  145SOL    HW2 1335   6.995   5.776   0.261
  146SOL     OW 1336   5.008   5.213   0.978
  146SOL    HW1 1337   4.964   5.235   0.891
  146SOL    HW2 1338   5.055   5.125   0.970
  147SOL     OW 1339   6.398   2.080   1.227
  147SOL    HW1 1340   6.463   2.073   1.151
  147SOL    HW2 1341   6.314   2.032   1.202
  148SOL     OW 1342   1.064   5.292   5.497
  148SOL    HW1 1343   1.163   5.306   5.493
  148SOL    HW2 1344   1.030   5.331   5.583
  149SOL     OW 1345   3.042   1.280   4.967
  149SOL    HW1 1346   2.975   1.266   5.041
  149SOL    HW2 1347   3.132   1.295   5.007
  150SOL     OW 1348   0.249   5.095   6.751
  150SOL    HW1 1349   0.180   5.029   6.780
  150SOL    HW2 1350   0.273   5.154   6.828
  151SOL     OW 1351   4.114   1.884   1.689
  151SOL    HW1 1352   4.173   1.953   1.730
  151SOL    HW2 1353   4.018   1.909   1.703
  152SOL     OW 1354   3.235   0.600   4.118
  152SOL    HW1 1355   3.256   0.693   4.090
  152SOL    HW2 1356   3.310   0.539   4.092
  153SOL     OW 1357   1.874   1.513   3.405
  153SOL    HW1 1358   1.848   1.601   3.364
  153SOL    HW2 1359   1.970   1.495   3.386
  154SOL     OW 1360   6.654   1.968   2.295
  154SOL    HW1 1361   6.604   2.036   2.349
  154SOL    HW2 1362   6.741   1.949   2.340
  155SOL     OW 1363   6.872   0.920   2.993
  155SOL    HW1 1364   6.928   1.003   2.992
  155SOL    HW2 1365   6.810   0.921   2.915
  156SOL     OW 1366   6.246   2.281   1.043
  156SOL    HW1 1367   6.335   2.323   1.059
  156SOL    HW2 1368   6.245   2.188   1.081
  157SOL     OW 1369   5.974   3.742   2.464
  157SOL    HW1 1370   6.027   3.820   2.495
  157SOL    HW2 1371   5.999   3.661   2.519
  158SOL     OW 1372   1.957   1.130   2.660
  158SOL    HW1 1373   2.021   1.061   2.697
  158SOL    HW2 1374   1.997   1.221   2.671
  159SOL     OW 1375   4.743   4.234   2.173
  159SOL    HW1 1376   4.662   4.262   2.120
  159SOL    HW2 1377   4.768   4.306   2.237
  160SOL     OW 1378   6.407   4.255   5.844
  160SOL    HW1 1379   6.383   4.352   5.843
  160SOL    HW2 1380   6.469   4.235   5.768
  161SOL     OW 1381   2.446   5.413   4.775
  161SOL    HW1 1382   2.414   5.363   4.856
  161SOL    HW2 1383   2.394   5.383   4.695
  162SOL     OW 1384   4.464   5.450   1.335
  162SOL    HW1 1385   4.523   5.524   1.368
  162SOL    HW2 1386   4.408   5.415   1.410
  163SOL     OW 1387   4.637   0.656   2.753
  163SOL    HW1 1388   4.637   0.705   2.840
  163SOL    HW2 1389   4.552   0.604   2.744
  164SOL     OW 1390   6.042   3.452   0.788
  164SOL    HW1 1391   6.004   3.400   0.711
  164SOL    HW2 1392   6.138   3.474   0.769
  165SOL     OW 1393   4.926   3.196   6.355
  165SOL    HW1 1394   4.854   3.227   6.416
  165SOL    HW2 1395   4.886   3.156   6.273
  166SOL     OW 1396   0.878   0.094   2.673
  166SOL    HW1 1397   0.790   0.111   2.716
  166SOL    HW2 1398   0.865   0.035   2.593
  167SOL     OW 1399   6.005   2.849   6.961
  167SOL    HW1 1400   6.043   2.782   0.003
  167SOL    HW2 1401   5.990   2.936   7.008
  168SOL     OW 1402   2.610   5.573   0.770
  168SOL    HW1 1403   2.514   5.598   0.754
  168SOL    HW2 1404   2.613   5.485   0.818
  169SOL     OW 1405   2.102   6.542   2.047
  169SOL    HW1 1406   2.134   6.478   2.117
  169SOL    HW2 1407   2.051   6.616   2.091
  170SOL     OW 1408   0.379   1.402   3.005
  170SOL    HW1 1409   0.373   1.347   3.088
  170SOL    HW2 1410   0.472   1.440   2.996
  171SOL     OW 1411   3.441   3.698   0.133
  171SOL    HW1 1412   3.429   3.723   0.037
  171SOL    HW2 1413   3.397   3.766   0.191
  172SOL     OW 1414   0.151   2.671   5.458
  172SOL    HW1 1415   0.066   2.621   5.475
  172SOL    HW2 1416   0.136   2.738   5.386
  173SOL     OW 1417   0.120   6.561   5.697
  173SOL    HW1 1418   0.094   6.643   5.645
  173SOL    HW2 1419   0.131   6.586   5.793
  174SOL     OW 1420   2.453   5.283   3.721
  174SOL    HW1 1421   2.439   5.251   3.627
  174SOL    HW2 1422   2.510   5.218   3.771
  175SOL     OW 1423   1.212   5.748   3.031
  175SOL    HW1 1424   1.181   5.706   2.945
  175SOL    HW2 1425   1.210   5.679   3.104
  176SOL     OW 1426   2.433   4.676   0.812
  176SOL    HW1 1427   2.373   4.649   0.887
  176SOL    HW2 1428   2.464   4.770   0.826
  177SOL     OW 1429   4.680   1.836   2.613
  177SOL    HW1 1430   4.750   1.789   2.559
  177SOL    HW2 1431   4.636   1.771   2.675
  178SOL     OW 1432   5.286   5.215   6.635
  178SOL    HW1 1433   5.288   5.227   6.536
  178SOL    HW2 1434   5.344   5.138   6.661
  179SOL     OW 1435   2.966   0.333   0.314
  179SOL    HW1 1436   2.894   0.400   0.295
  179SOL    HW2 1437   3.020   0.364   0.392
  180SOL     OW 1438   0.806   2.094   0.127
  180SOL    HW1 1439   0.736   2.166   0.128
  180SOL    HW2 1440   0.886   2.127   0.078
  181SOL     OW 1441   3.526   3.138   5.519
  181SOL    HW1 1442   3.487   3.170   5.606
  181SOL    HW2 1443   3.517   3.210   5.450
  182SOL     OW 1444   4.092   2.215   4.748
  182SOL    HW1 1445   4.053   2.225   4.840
  182SOL    HW2 1446   4.096   2.118   4.724
  183SOL     OW 1447   4.979   1.175   1.899
  183SOL    HW1 1448   4.920   1.105   1.860
  183SOL    HW2 1449   4.952   1.265   1.864
  184SOL     OW 1450   0.026   4.542   2.862
  184SOL    HW1 1451   0.076   4.488   2.794
  184SOL    HW2 1452   7.009   4.480   2.931
  185SOL     OW 1453   1.871   3.921   5.953
  185SOL    HW1 1454   1.928   3.917   5.871
  185SOL    HW2 1455   1.929   3.914   6.034
  186SOL     OW 1456   5.604   0.096   3.398
  186SOL    HW1 1457   5.661   0.014   3.408
  186SOL    HW2 1458   5.544   0.105   3.478
  187SOL     OW 1459   5.923   1.448   4.147
  187SOL    HW1 1460   5.989   1.511   4.105
  187SOL    HW2 1461   5.868   1.405   4.076
  188SOL     OW 1462   6.397   2.273   3.438
  188SOL    HW1 1463   6.402   2.350   3.375
  188SOL    HW2 1464   6.365   2.305   3.527
  189SOL     OW 1465   2.172   4.442   2.779
  189SOL    HW1 1466   2.157   4.427   2.681
  189SOL    HW2 1467   2.233   4.371   2.814
  190SOL     OW 1468   3.783   1.134   5.822
  190SOL    HW1 1469   3.794   1.166   5.917
  190SOL    HW2 1470   3.686   1.131   5.800
  191SOL     OW 1471   5.318   6.105   6.190
  191SOL    HW1 1472   5.322   6.107   6.290
  191SOL    HW2 1473   5.359   6.020   6.157
  192SOL     OW 1474   6.925   0.712   1.932
  192SOL    HW1 1475   6.913   0.613   1.937
  192SOL    HW2 1476   6.993   0.734   1.862
  193SOL     OW 1477   5.346   3.928   0.059
  193SOL    HW1 1478   5.392   3.978   0.132
  193SOL    HW2 1479   5.348   3.981   6.996
  194SOL     OW 1480   3.542   0.375   3.565
  194SOL    HW1 1481   3.526   0.420   3.477
  194SOL    HW2 1482   3.456   0.362   3.613
  195SOL     OW 1483   0.899   5.807   3.434
  195SOL    HW1 1484   0.803   5.798   3.460
  195SOL    HW2 1485   0.935   5.717   3.408
  196SOL     OW 1486   0.923   2.042   0.596
  196SOL    HW1 1487   0.953   1.952   0.568
  196SOL    HW2 1488   0.845   2.071   0.540
  197SOL     OW 1489   1.700   0.737   0.919
  197SOL    HW1 1490   1.622   0.679   0.895
  197SOL    HW2 1491   1.750   0.696   0.995
  198SOL     OW 1492   3.280   2.088   3.791
  198SOL    HW1 1493   3.262   2.048   3.701
  198SOL    HW2 1494   3.218   2.165   3.806
  199SOL     OW 1495   1.165   2.914   4.286
  199SOL    HW1 1496   1.132   2.950   4.199
  199SOL    HW2 1497   1.158   2.814   4.285
  200SOL     OW 1498   6.747   2.521   0.195
  200SOL    HW1 1499   6.757   2.431   0.153
  200SOL    HW2 1500   6.790   2.520   0.286
  201SOL     OW 1501   0.363   0.661   6.518
  201SOL    HW1 1502   0.299   0.738   6.514
  201SOL    HW2 1503   0.353   0.614   6.605
  202SOL     OW 1504   4.762   6.897   0.126
  202SOL    HW1 1505   4.763   6.809   0.078
  202SOL    HW2 1506   4.805   6.967   0.068
  203SOL     OW 1507   5.965   2.868   5.632
  203SOL    HW1 1508   5.882   2.906   5.673
  203SOL    HW2 1509   6.045   2.907   5.678
  204SOL     OW 1510   6.140   1.037   5.816
  204SOL    HW1 1511   6.103   0.956   5.770
  204SOL    HW2 1512   6.126   1.029   5.915
  205SOL     OW 1513   0.889   2.955   2.383
  205SOL    HW1 1514   0.857   3.009   2.305
  205SOL    HW2 1515   0.923   2.866   2.351
  206SOL     OW 1516   0.557   3.546   0.394
  206SOL    HW1 1517   0.631   3.600   0.356
  206SOL    HW2 1518   0.522   3.590   0.477
  207SOL     OW 1519   5.755   1.913   4.347
  207SOL    HW1 1520   5.704   1.901   4.262
  207SOL    HW2 1521   5.697   1.891   4.425
  208SOL     OW 1522   1.257   4.402   4.589
  208SOL    HW1 1523   1.283   4.305   4.586
  208SOL    HW2 1524   1.201   4.418   4.670
  209SOL     OW 1525   6.250   4.077   2.788
  209SOL    HW1 1526   6.286   4.011   2.854
  209SOL    HW2 1527   6.320   4.096   2.719
  210SOL     OW 1528   4.331   2.722   6.942
  210SOL    HW1 1529   4.381   2.790   6.996
  210SOL    HW2 1530   4.293   2.766   6.860
  211SOL     OW 1531   0.270   1.484   2.720
  211SOL    HW1 1532   0.206   1.522   2.787
  211SOL    HW2 1533   0.331   1.419   2.766
  212SOL     OW 1534   2.067   3.763   2.866
  212SOL    HW1 1535   1.972   3.779   2.842
  212SOL    HW2 1536   2.083   3.665   2.874
  213SOL     OW 1537   1.381   4.625   1.055
  213SOL    HW1 1538   1.327   4.707   1.041
  213SOL    HW2 1539   1.428   4.601   0.970
  214SOL     OW 1540   4.607   6.126   2.324
  214SOL    HW1 1541   4.541   6.055   2.349
  214SOL    HW2 1542   4.577   6.171   2.239
  215SOL     OW 1543   2.408   4.748   2.575
  215SOL    HW1 1544   2.417   4.832   2.629
  215SOL    HW2 1545   2.337   4.690   2.614
  216SOL     OW 1546   1.183   6.826   2.572
  216SOL    HW1 1547   1.248   6.756   2.603
  216SOL    HW2 1548   1.144   6.798   2.484
  217SOL     OW 1549   1.547   4.453   6.425
  217SOL    HW1 1550   1.543   4.553   6.422
  217SOL    HW2 1551   1.631   4.422   6.379
  218SOL     OW 1552   1.374   1.699   4.772
  218SOL    HW1 1553   1.276   1.708   4.756
  218SOL    HW2 1554   1.397   1.602   4.785
  219SOL     OW 1555   4.208   1.735   0.818
  219SOL    HW1 1556   4.202   1.677   0.899
  219SOL    HW2 1557   4.198   1.831   0.845
  220SOL     OW 1558   3.013   6.608   0.620
  220SOL    HW1 1559   2.924   6.631   0.581
  220SOL    HW2 1560   3.017   6.509   0.637
  221SOL     OW 1561   4.684   5.797   1.894
  221SOL    HW1 1562   4.616   5.801   1.821
  221SOL    HW2 1563   4.753   5.729   1.872
  222SOL     OW 1564   2.264   4.663   6.282
  222SOL    HW1 1565   2.265   4.649   6.183
  222SOL    HW2 1566   2.170   4.652   6.315
  223SOL     OW 1567   6.029   3.119   5.253
  223SOL    HW1 1568   6.101   3.056   5.226
  223SOL    HW2 1569   6.068   3.210   5.268
  224SOL     OW 1570   2.346   1.351   6.305
  224SOL    HW1 1571   2.251   1.333   6.282
  224SOL    HW2 1572   2.353   1.434   6.360
  225SOL     OW 1573   4.769   5.216   5.420
  225SOL    HW1 1574   4.784   5.220   5.321
  225SOL    HW2 1575   4.682   5.169   5.439
  226SOL     OW 1576   1.059   2.248   6.598
  226SOL    HW1 1577   0.969   2.266   6.558
  226SOL    HW2 1578   1.071   2.303   6.681
  227SOL     OW 1579   0.927   3.636   1.720
  227SOL    HW1 1580   0.999   3.567   1.711
  227SOL    HW2 1581   0.844   3.593   1.756
  228SOL     OW 1582   1.883   6.434   2.865
  228SOL    HW1 1583   1.964   6.484   2.833
  228SOL    HW2 1584   1.884   6.341   2.827
  229SOL     OW 1585   4.737   5.881   6.212
  229SOL    HW1 1586   4.666   5.910   6.148
  229SOL    HW2 1587   4.819   5.855   6.161
  230SOL     OW 1588   4.865   5.445   4.898
  230SOL    HW1 1589   4.806   5.376   4.857
  230SOL    HW2 1590   4.950   5.451   4.845
  231SOL     OW 1591   5.421   1.433   6.975
  231SOL    HW1 1592   5.413   1.531   6.996
  231SOL    HW2 1593   5.370   1.413   6.891
  232SOL     OW 1594   1.662   2.800   5.519
  232SOL    HW1 1595   1.580   2.811   5.576
  232SOL    HW2 1596   1.635   2.800   5.423
  233SOL     OW 1597   2.866   1.417   3.182
  233SOL    HW1 1598   2.789   1.479   3.169
  233SOL    HW2 1599   2.834   1.323   3.178
  234SOL     OW 1600   4.683   1.003   6.813
  234SOL    HW1 1601   4.695   1.073   6.742
  234SOL    HW2 1602   4.755   1.011   6.881
  235SOL     OW 1603   4.750   2.649   3.093
  235SOL    HW1 1604   4.809   2.702   3.032
  235SOL    HW2 1605   4.656   2.652   3.059
  236SOL     OW 1606   4.671   4.726   6.464
  236SOL    HW1 1607   4.574   4.703   6.455
  236SOL    HW2 1608   4.692   4.804   6.405
  237SOL     OW 1609   6.183   3.589   2.867
  237SOL    HW1 1610   6.230   3.660   2.920
  237SOL    HW2 1611   6.235   3.571   2.783
  238SOL     OW 1612   6.550   1.608   0.920
  238SOL    HW1 1613   6.478   1.582   0.984
  238SOL    HW2 1614   6.608   1.678   0.961
  239SOL     OW 1615   1.101   4.015   0.240
  239SOL    HW1 1616   1.086   4.041   0.335
  239SOL    HW2 1617   1.031   3.949   0.212
  240SOL     OW 1618   5.748   3.198   3.024
  240SOL    HW1 1619   5.778   3.125   2.963
  240SOL    HW2 1620   5.684   3.257   2.975
  241SOL     OW 1621   2.867   1.367   3.914
  241SOL    HW1 1622   2.789   1.426   3.936
  241SOL    HW2 1623   2.951   1.409   3.948
  242SOL     OW 1624   3.547   3.878   3.256
  242SOL    HW1 1625   3.471   3.897   3.194
  242SOL    HW2 1626   3.514   3.826   3.335
  243SOL     OW 1627   4.573   2.472   5.940
  243SOL    HW1 1628   4.583   2.540   6.013
  243SOL    HW2 1629   4.601   2.382   5.973
  244SOL     OW 1630   5.034   3.645   5.188
  244SOL    HW1 1631   5.096   3.567   5.183
  244SOL    HW2 1632   4.965   3.637   5.116
  245SOL     OW 1633   3.213   1.811   2.844
  245SOL    HW1 1634   3.222   1.909   2.822
  245SOL    HW2 1635   3.120   1.781   2.823
  246SOL     OW 1636   6.212   1.303   2.034
  246SOL    HW1 1637   6.219   1.310   2.134
  246SOL    HW2 1638   6.116   1.290   2.009
  247SOL     OW 1639   1.866   1.567   1.370
  247SOL    HW1 1640   1.779   1.608   1.342
  247SOL    HW2 1641   1.885   1.592   1.466
  248SOL     OW 1642   1.749   2.474   2.250
  248SOL    HW1 1643   1.746   2.543   2.178
  248SOL    HW2 1644   1.756   2.383   2.208
  249SOL     OW 1645   5.579   6.394   5.130
  249SOL    HW1 1646   5.492   6.351   5.110
  249SOL    HW2 1647   5.583   6.418   5.228
  250SOL     OW 1648   4.200   2.438   1.169
  250SOL    HW1 1649   4.223   2.423   1.265
  250SOL    HW2 1650   4.237   2.526   1.138
  251SOL     OW 1651   3.907   4.271   5.711
  251SOL    HW1 1652   3.930   4.227   5.798
  251SOL    HW2 1653   3.989   4.280   5.655
  252SOL     OW 1654   6.083   5.932   5.381
  252SOL    HW1 1655   6.029   5.904   5.302
  252SOL    HW2 1656   6.180   5.921   5.361
  253SOL     OW 1657   4.295   5.877   5.878
  253SOL    HW1 1658   4.202   5.890   5.913
  253SOL    HW2 1659   4.360   5.881   5.954
  254SOL     OW 1660   5.741   2.625   4.894
  254SOL    HW1 1661   5.801   2.546   4.880
  254SOL    HW2 1662   5.744   2.653   4.990
  255SOL     OW 1663   1.848   4.652   5.742
  255SOL    HW1 1664   1.761   4.605   5.758
  255SOL    HW2 1665   1.889   4.617   5.658
  256SOL     OW 1666   5.160   2.313   4.817
  256SOL    HW1 1667   5.078   2.276   4.774
  256SOL    HW2 1668   5.230   2.242   4.823
  257SOL     OW 1669   4.871   6.549   2.320
  257SOL    HW1 1670   4.821   6.483   2.265
  257SOL    HW2 1671   4.946   6.588   2.266
  258SOL     OW 1672   2.124   3.493   5.846
  258SOL    HW1 1673   2.201   3.553   5.871
  258SOL    HW2 1674   2.158   3.418   5.790
  259SOL     OW 1675   3.802   0.366   3.968
  259SOL    HW1 1676   3.877   0.417   3.927
  259SOL    HW2 1677   3.720   0.423   3.971
  260SOL     OW 1678   3.575   5.336   3.755
  260SOL    HW1 1679   3.583   5.303   3.661
  260SOL    HW2 1680   3.582   5.259   3.818
  261SOL     OW 1681   4.196   4.763   6.777
  261SOL    HW1 1682   4.154   4.785   6.689
  261SOL    HW2 1683   4.293   4.743   6.763
  262SOL     OW 1684   1.898   3.758   6.899
  262SOL    HW1 1685   1.858   3.807   6.821
  262SOL    HW2 1686   1.959   3.820   6.949
  263SOL     OW 1687   1.388   5.833   4.084
  263SOL    HW1 1688   1.485   5.825   4.107
  263SOL    HW2 1689   1.333   5.800   4.161
  264SOL     OW 1690   7.013   3.658   6.425
  264SOL    HW1 1691   6.989   3.672   6.521
  264SOL    HW2 1692   6.965   3.724   6.368
  265SOL     OW 1693   6.516   6.827   4.544
  265SOL    HW1 1694   6.498   6.730   4.532
  265SOL    HW2 1695   6.488   6.877   4.462
  266SOL     OW 1696   3.813   1.476   5.575
  266SOL    HW1 1697   3.880   1.411   5.611
  266SOL    HW2 1698   3.823   1.481   5.475
  267SOL     OW 1699   1.438   0.958   4.766
  267SOL    HW1 1700   1.429   0.917   4.676
  267SOL    HW2 1701   1.351   0.952   4.814
  268SOL     OW 1702   3.349   1.404   1.249
  268SOL    HW1 1703   3.398   1.339   1.307
  268SOL    HW2 1704   3.251   1.384   1.253
  269SOL     OW 1705   4.201   1.661   0.073
  269SOL    HW1 1706   4.245   1.608   0.145
  269SOL    HW2 1707   4.156   1.741   0.113
  270SOL     OW 1708   6.605   6.969   0.543
  270SOL    HW1 1709   6.558   6.893   0.497
  270SOL    HW2 1710   6.703   6.951   0.544
  271SOL     OW 1711   0.649   2.542   6.151
  271SOL    HW1 1712   0.604   2.628   6.175
  271SOL    HW2 1713   0.745   2.547   6.178
  272SOL     OW 1714   2.512   6.565   3.917
  272SOL    HW1 1715   2.474   6.656   3.900
  272SOL    HW2 1716   2.591   6.550   3.857
  273SOL     OW 1717   1.816   4.971   6.200
  273SOL    HW1 1718   1.871   4.969   6.116
  273SOL    HW2 1719   1.766   5.057   6.205
  274SOL     OW 1720   4.206   1.371   3.833
  274SOL    HW1 1721   4.236   1.358   3.738
  274SOL    HW2 1722   4.106   1.362   3.837
  275SOL     OW 1723   0.130   6.524   2.448
  275SOL    HW1 1724   0.036   6.506   2.419
  275SOL    HW2 1725   0.139   6.503   2.545
  276SOL     OW 1726   0.447   0.573   4.717
  276SOL    HW1 1727   0.510   0.647   4.695
  276SOL    HW2 1728   0.389   0.600   4.793
  277SOL     OW 1729   2.424   3.628   0.568
  277SOL    HW1 1730   2.404   3.599   0.662
  277SOL    HW2 1731   2.354   3.694   0.538
  278SOL     OW 1732   0.154   2.431   2.196
  278SOL    HW1 1733   0.131   2.522   2.230
  278SOL    HW2 1734   0.113   2.417   2.106
  279SOL     OW 1735   5.734   2.277   4.397
  279SOL    HW1 1736   5.751   2.250   4.302
  279SOL    HW2 1737   5.802   2.234   4.457
  280SOL     OW 1738   1.673   4.572   2.032
  280SOL    HW1 1739   1.684   4.561   1.933
  280SOL    HW2 1740   1.721   4.655   2.062
  281SOL     OW 1741   2.195   4.251   0.743
  281SOL    HW1 1742   2.219   4.161   0.781
  281SOL    HW2 1743   2.201   4.248   0.644
  282SOL     OW 1744   3.502   2.449   5.909
  282SOL    HW1 1745   3.587   2.478   5.865
  282SOL    HW2 1746   3.481   2.510   5.985
  283SOL     OW 1747   5.039   2.983   5.770
  283SOL    HW1 1748   5.097   3.057   5.736
  283SOL    HW2 1749   5.051   2.975   5.869
  284SOL     OW 1750   1.134   3.571   4.181
  284SOL    HW1 1751   1.233   3.569   4.197
  284SOL    HW2 1752   1.108   3.664   4.152
  285SOL     OW 1753   5.629   4.697   4.219
  285SOL    HW1 1754   5.624   4.603   4.186
  285SOL    HW2 1755   5.548   4.748   4.188
  286SOL     OW 1756   2.956   3.572   6.477
  286SOL    HW1 1757   2.904   3.657   6.484
  286SOL    HW2 1758   2.993   3.548   6.567
  287SOL     OW 1759   1.894   3.489   6.909
  287SOL    HW1 1760   1.972   3.459   6.853
  287SOL    HW2 1761   1.893   3.589   6.913
  288SOL     OW 1762   4.713   2.585   6.961
  288SOL    HW1 1763   4.789   2.522   6.976
  288SOL    HW2 1764   4.664   2.599   0.025
  289SOL     OW 1765   2.482   5.031   6.051
  289SOL    HW1 1766   2.508   4.938   6.077
  289SOL    HW2 1767   2.399   5.057   6.099
  290SOL     OW 1768   0.058   2.211   5.711
  290SOL    HW1 1769   0.017   2.210   5.620
  290SOL    HW2 1770   0.010   2.279   5.768
  291SOL     OW 1771   6.996   2.231   2.760
  291SOL    HW1 1772   0.016   2.312   2.800
  291SOL    HW2 1773   6.960   2.253   2.669
  292SOL     OW 1774   1.955   6.866   3.824
  292SOL    HW1 1775   1.980   6.907   3.912
  292SOL    HW2 1776   1.863   6.896   3.798
  293SOL     OW 1777   3.706   5.204   3.528
  293SOL    HW1 1778   3.789   5.255   3.550
  293SOL    HW2 1779   3.691   5.205   3.429
  294SOL     OW 1780   4.212   6.642   6.557
  294SOL    HW1 1781   4.155   6.724   6.561
  294SOL    HW2 1782   4.264   6.634   6.642
  295SOL     OW 1783   5.169   0.392   4.283
  295SOL    HW1 1784   5.132   0.309   4.240
  295SOL    HW2 1785   5.268   0.387   4.284
  296SOL     OW 1786   2.387   1.860   3.633
  296SOL    HW1 1787   2.339   1.936   3.590
  296SOL    HW2 1788   2.328   1.779   3.634
  297SOL     OW 1789   1.609   4.581   3.162
  297SOL    HW1 1790   1.554   4.638   3.223
  297SOL    HW2 1791   1.556   4.559   3.081
  298SOL     OW 1792   5.832   5.277   1.163
  298SOL    HW1 1793   5.856   5.181   1.177
  298SOL    HW2 1794   5.824   5.323   1.252
  299SOL     OW 1795   6.357   2.748   5.010
  299SOL    HW1 1796   6.397   2.675   5.067
  299SOL    HW2 1797   6.260   2.729   4.995
  300SOL     OW 1798   6.012   0.018   2.484
  300SOL    HW1 1799   5.997   0.095   2.546
  300SOL    HW2 1800   6.046   0.051   2.397
  301SOL     OW 1801   5.425   4.091   5.980
  301SOL    HW1 1802   5.329   4.064   5.983
  301SOL    HW2 1803   5.444   4.155   6.055
  302SOL     OW 1804   1.021   6.685   3.917
  302SOL    HW1 1805   0.991   6.780   3.915
  302SOL    HW2 1806   1.005   6.644   3.827
  303SOL     OW 1807   5.734   0.093   3.912
  303SOL    HW1 1808   5.779   0.098   3.823
  303SOL    HW2 1809   5.636   0.079   3.899
  304SOL     OW 1810   3.326   7.003   3.091
  304SOL    HW1 1811   3.284   0.064   3.127
  304SOL    HW2 1812   3.258   6.948   3.043
  305SOL     OW 1813   1.206   3.183   1.269
  305SOL    HW1 1814   1.151   3.220   1.344
  305SOL    HW2 1815   1.252   3.257   1.221
  306SOL     OW 1816   2.001   0.698   3.425
  306SOL    HW1 1817   2.061   0.752   3.367
  306SOL    HW2 1818   2.006   0.733   3.519
  307SOL     OW 1819   3.513   0.591   1.113
  307SOL    HW1 1820   3.593   0.634   1.155
  307SOL    HW2 1821   3.474   0.653   1.045
  308SOL     OW 1822   0.635   5.373   4.292
  308SOL    HW1 1823   0.538   5.353   4.284
  308SOL    HW2 1824   0.670   5.334   4.378
  309SOL     OW 1825   4.183   5.419   5.182
  309SOL    HW1 1826   4.201   5.480   5.259
  309SOL    HW2 1827   4.094   5.442   5.141
  310SOL     OW 1828   0.761   6.489   6.379
  310SOL    HW1 1829   0.779   6.582   6.412
  310SOL    HW2 1830   0.701   6.493   6.299
  311SOL     OW 1831   0.618   0.288   1.569
  311SOL    HW1 1832   0.701   0.341   1.550
  311SOL    HW2 1833   0.538   0.345   1.551
  312SOL     OW 1834   3.675   1.623   5.110
  312SOL    HW1 1835   3.604   1.613   5.178
  312SOL    HW2 1836   3.687   1.720   5.088
  313SOL     OW 1837   0.682   4.637   1.436
  313SOL    HW1 1838   0.725   4.566   1.492
  313SOL    HW2 1839   0.739   4.656   1.356
  314SOL     OW 1840   3.586   6.501   1.277
  314SOL    HW1 1841   3.606   6.465   1.186
  314SOL    HW2 1842   3.488   6.500   1.293
  315SOL     OW 1843   1.146   2.955   3.184
  315SOL    HW1 1844   1.086   2.896   3.238
  315SOL    HW2 1845   1.091   3.016   3.127
  316SOL     OW 1846   2.324   2.642   3.808
  316SOL    HW1 1847   2.234   2.643   3.764
  316SOL    HW2 1848   2.390   2.595   3.749
  317SOL     OW 1849   6.575   1.863   0.059
  317SOL    HW1 1850   6.647   1.929   0.040
  317SOL    HW2 1851   6.540   1.826   6.994
  318SOL     OW 1852   2.805   5.285   1.119
  318SOL    HW1 1853   2.893   5.321   1.086
  318SOL    HW2 1854   2.814   5.259   1.215
  319SOL     OW 1855   1.472   6.628   0.831
  319SOL    HW1 1856   1.425   6.600   0.748
  319SOL    HW2 1857   1.438   6.575   0.909
  320SOL     OW 1858   5.241   4.101   0.479
  320SOL    HW1 1859   5.335   4.098   0.446
  320SOL    HW2 1860   5.182   4.140   0.409
  321SOL     OW 1861   1.935   1.306   1.319
  321SOL    HW1 1862   1.959   1.301   1.222
  321SOL    HW2 1863   1.914   1.401   1.343
  322SOL     OW 1864   3.780   2.912   4.862
  322SOL    HW1 1865   3.688   2.905   4.823
  322SOL    HW2 1866   3.846   2.931   4.789
  323SOL     OW 1867   0.373   4.252   2.057
  323SOL    HW1 1868   0.333   4.163   2.081
  323SOL    HW2 1869   0.312   4.300   1.995
  324SOL     OW 1870   0.210   3.018   4.477
  324SOL    HW1 1871   0.184   2.922   4.483
  324SOL    HW2 1872   0.161   3.070   4.546
  325SOL     OW 1873   2.306   2.675   2.631
  325SOL    HW1 1874   2.260   2.751   2.676
  325SOL    HW2 1875   2.386   2.647   2.685
  326SOL     OW 1876   2.208   4.353   6.177
  326SOL    HW1 1877   2.218   4.296   6.258
  326SOL    HW2 1878   2.116   4.393   6.175
  327SOL     OW 1879   6.068   5.535   5.568
  327SOL    HW1 1880   6.106   5.563   5.480
  327SOL    HW2 1881   5.973   5.567   5.574
  328SOL     OW 1882   2.457   5.903   1.978
  328SOL    HW1 1883   2.425   5.959   2.054
  328SOL    HW2 1884   2.519   5.832   2.012
  329SOL     OW 1885   3.440   3.198   2.239
  329SOL    HW1 1886   3.358   3.239   2.278
  329SOL    HW2 1887   3.445   3.102   2.266
  330SOL     OW 1888   3.782   1.138   1.633
  330SOL    HW1 1889   3.882   1.135   1.631
  330SOL    HW2 1890   3.749   1.077   1.705
  331SOL     OW 1891   5.480   4.822   6.191
  331SOL    HW1 1892   5.521   4.789   6.106
  331SOL    HW2 1893   5.408   4.759   6.219
  332SOL     OW 1894   3.887   1.983   3.254
  332SOL    HW1 1895   3.794   1.978   3.219
  332SOL    HW2 1896   3.937   1.901   3.227
  333SOL     OW 1897   3.836   6.001   6.486
  333SOL    HW1 1898   3.738   5.982   6.490
  333SOL    HW2 1899   3.887   5.917   6.503
  334SOL     OW 1900   4.473   6.760   2.484
  334SOL    HW1 1901   4.567   6.754   2.517
  334SOL    HW2 1902   4.473   6.760   2.384
  335SOL     OW 1903   3.595   6.584   3.010
  335SOL    HW1 1904   3.595   6.676   3.049
  335SOL    HW2 1905   3.640   6.521   3.074
  336SOL     OW 1906   3.116   1.290   4.682
  336SOL    HW1 1907   3.119   1.298   4.782
  336SOL    HW2 1908   3.152   1.201   4.655
  337SOL     OW 1909   0.040   3.862   1.471
  337SOL    HW1 1910   0.017   3.922   1.395
  337SOL    HW2 1911   0.116   3.900   1.523
  338SOL     OW 1912   3.478   2.889   1.469
  338SOL    HW1 1913   3.385   2.898   1.432
  338SOL    HW2 1914   3.539   2.953   1.423
  339SOL     OW 1915   4.406   6.832   2.904
  339SOL    HW1 1916   4.420   6.743   2.860
  339SOL    HW2 1917   4.350   6.820   2.986
  340SOL     OW 1918   5.108   3.933   4.188
  340SOL    HW1 1919   5.104   3.861   4.257
  340SOL    HW2 1920   5.022   3.936   4.138
  341SOL     OW 1921   5.508   4.983   5.009
  341SOL    HW1 1922   5.598   4.950   4.979
  341SOL    HW2 1923   5.440   4.910   4.998
  342SOL     OW 1924   6.137   3.699   0.086
  342SOL    HW1 1925   6.052   3.747   0.068
  342SOL    HW2 1926   6.211   3.765   0.098
  343SOL     OW 1927   2.785   0.341   2.898
  343SOL    HW1 1928   2.710   0.293   2.944
  343SOL    HW2 1929   2.814   0.289   2.818
  344SOL     OW 1930   3.468   4.982   0.488
  344SOL    HW1 1931   3.459   5.076   0.522
  344SOL    HW2 1932   3.390   4.959   0.431
  345SOL     OW 1933   0.783   6.445   5.821
  345SOL    HW1 1934   0.876   6.427   5.855
  345SOL    HW2 1935   0.789   6.479   5.727
  346SOL     OW 1936   2.276   0.164   3.974
  346SOL    HW1 1937   2.215   0.204   3.905
  346SOL    HW2 1938   2.325   0.087   3.934
  347SOL     OW 1939   5.305   6.381   6.101
  347SOL    HW1 1940   5.299   6.294   6.151
  347SOL    HW2 1941   5.216   6.402   6.061
  348SOL     OW 1942   3.547   5.889   2.893
  348SOL    HW1 1943   3.494   5.969   2.865
  348SOL    HW2 1944   3.639   5.895   2.854
  349SOL     OW 1945   1.997   4.561   1.860
  349SOL    HW1 1946   1.913   4.512   1.839
  349SOL    HW2 1947   2.076   4.506   1.832
  350SOL     OW 1948   4.642   2.949   1.249
  350SOL    HW1 1949   4.570   2.974   1.184
  350SOL    HW2 1950   4.680   2.860   1.223
  351SOL     OW 1951   3.515   1.716   0.099
  351SOL    HW1 1952   3.525   1.655   0.178
  351SOL    HW2 1953   3.432   1.692   0.049
  352SOL     OW 1954   3.498   1.184   6.715
  352SOL    HW1 1955   3.415   1.129   6.719
  352SOL    HW2 1956   3.507   1.225   6.624
  353SOL     OW 1957   1.925   6.964   1.077
  353SOL    HW1 1958   2.023   6.946   1.079
  353SOL    HW2 1959   1.886   6.944   1.167
  354SOL     OW 1960   4.583   1.455   1.779
  354SOL    HW1 1961   4.540   1.373   1.816
  354SOL    HW2 1962   4.513   1.526   1.766
  355SOL     OW 1963   1.333   1.635   2.290
  355SOL    HW1 1964   1.308   1.642   2.194
  355SOL    HW2 1965   1.270   1.572   2.337
  356SOL     OW 1966   4.040   6.064   3.154
  356SOL    HW1 1967   4.036   6.088   3.251
  356SOL    HW2 1968   4.107   6.122   3.108
  357SOL     OW 1969   1.014   4.711   5.726
  357SOL    HW1 1970   1.082   4.663   5.671
  357SOL    HW2 1971   1.049   4.801   5.752
  358SOL     OW 1972   5.538   1.186   1.989
  358SOL    HW1 1973   5.523   1.250   2.064
  358SOL    HW2 1974   5.455   1.178   1.935
  359SOL     OW 1975   1.547   1.299   2.086
  359SOL    HW1 1976   1.567   1.237   2.162
  359SOL    HW2 1977   1.466   1.353   2.107
  360SOL     OW 1978   4.125   6.403   0.890
  360SOL    HW1 1979   4.185   6.365   0.960
  360SOL    HW2 1980   4.056   6.461   0.934
  361SOL     OW 1981   4.060   0.624   3.502
  361SOL    HW1 1982   4.142   0.667   3.465
  361SOL    HW2 1983   4.084   0.534   3.539
  362SOL     OW 1984   2.806   3.512   0.867
  362SOL    HW1 1985   2.890   3.485   0.821
  362SOL    HW2 1986   2.737   3.439   0.857
  363SOL     OW 1987   4.593   4.826   4.471
  363SOL    HW1 1988   4.532   4.880   4.413
  363SOL    HW2 1989   4.593   4.731   4.440
  364SOL     OW 1990   1.758   5.949   5.869
  364SOL    HW1 1991   1.794   5.864   5.830
  364SOL    HW2 1992   1.678   5.979   5.817
  365SOL     OW 1993   4.795   6.676   2.815
  365SOL    HW1 1994   4.763   6.716   2.729
  365SOL    HW2 1995   4.838   6.587   2.796
  366SOL     OW 1996   5.238   6.362   6.932
  366SOL    HW1 1997   5.199   6.280   6.891
  366SOL    HW2 1998   5.247   6.349   0.010
  367SOL     OW 1999   5.033   2.322   1.498
  367SOL    HW1 2000   5.036   2.242   1.438
  367SOL    HW2 2001   5.126   2.345   1.527
  368SOL     OW 2002   1.529   4.800   5.338
  368SOL    HW1 2003   1.569   4.716   5.301
  368SOL    HW2 2004   1.602   4.862   5.366
  369SOL     OW 2005   0.569   3.556   1.655
  369SOL    HW1 2006   0.474   3.524   1.664
  369SOL    HW2 2007   0.614   3.506   1.581
  370SOL     OW 2008   3.817   1.222   6.514
  370SOL    HW1 2009   3.842   1.285   6.588
  370SOL    HW2 2010   3.894   1.209   6.452
  371SOL     OW 2011   3.828   3.084   6.680
  371SOL    HW1 2012   3.861   3.163   6.629
  371SOL    HW2 2013   3.746   3.109   6.731
  372SOL     OW 2014   1.466   4.896   6.084
  372SOL    HW1 2015   1.480   4.933   6.176
  372SOL    HW2 2016   1.538   4.930   6.024
  373SOL     OW 2017   6.893   6.951   0.463
  373SOL    HW1 2018   6.938   6.989   0.544
  373SOL    HW2 2019   6.935   6.989   0.381
  374SOL     OW 2020   3.837   1.325   0.926
  374SOL    HW1 2021   3.867   1.253   0.989
  374SOL    HW2 2022   3.861   1.415   0.964
  375SOL     OW 2023   6.787   4.388   2.190
  375SOL    HW1 2024   6.707   4.354   2.141
  375SOL    HW2 2025   6.777   4.367   2.288
  376SOL     OW 2026   2.089   2.679   4.474
  376SOL    HW1 2027   1.993   2.655   4.488
  376SOL    HW2 2028   2.131   2.698   4.563
  377SOL     OW 2029   5.026   1.704   4.380
  377SOL    HW1 2030   5.058   1.734   4.469
  377SOL    HW2 2031   4.970   1.775   4.339
  378SOL     OW 2032   4.916   2.517   4.177
  378SOL    HW1 2033   4.960   2.604   4.154
  378SOL    HW2 2034   4.966   2.473   4.252
  379SOL     OW 2035   6.543   3.538   1.465
  379SOL    HW1 2036   6.452   3.535   1.508
  379SOL    HW2 2037   6.583   3.629   1.477
  380SOL     OW 2038   0.914   1.742   0.168
  380SOL    HW1 2039   0.986   1.798   0.129
  380SOL    HW2 2040   0.833   1.746   0.110
  381SOL     OW 2041   3.012   3.843   0.613
  381SOL    HW1 2042   3.025   3.757   0.663
  381SOL    HW2 2043   3.036   3.828   0.517
  382SOL     OW 2044   2.266   5.175   1.313
  382SOL    HW1 2045   2.195   5.231   1.271
  382SOL    HW2 2046   2.306   5.225   1.391
  383SOL     OW 2047   6.390   2.104   6.885
  383SOL    HW1 2048   6.385   2.090   6.786
  383SOL    HW2 2049   6.486   2.098   6.915
  384SOL     OW 2050   1.811   5.722   4.975
  384SOL    HW1 2051   1.740   5.652   4.966
  384SOL    HW2 2052   1.898   5.678   4.994
  385SOL     OW 2053   4.744   5.083   1.343
  385SOL    HW1 2054   4.724   5.147   1.418
  385SOL    HW2 2055   4.757   5.135   1.258
  386SOL     OW 2056   2.870   6.403   5.254
  386SOL    HW1 2057   2.841   6.490   5.213
  386SOL    HW2 2058   2.970   6.403   5.265
  387SOL     OW 2059   6.941   0.417   5.863
  387SOL    HW1 2060   6.940   0.329   5.910
  387SOL    HW2 2061   6.862   0.424   5.802
  388SOL     OW 2062   0.085   2.283   5.183
  388SOL    HW1 2063   0.145   2.355   5.218
  388SOL    HW2 2064   0.010   2.324   5.131
  389SOL     OW 2065   4.646   4.397   1.494
  389SOL    HW1 2066   4.551   4.378   1.468
  389SOL    HW2 2067   4.673   4.333   1.567
  390SOL     OW 2068   3.917   2.384   0.322
  390SOL    HW1 2069   3.833   2.397   0.374
  390SOL    HW2 2070   3.898   2.325   0.243
  391SOL     OW 2071   3.642   4.025   3.656
  391SOL    HW1 2072   3.621   3.946   3.599
  391SOL    HW2 2073   3.563   4.048   3.712
  392SOL     OW 2074   1.477   3.779   1.283
  392SOL    HW1 2075   1.416   3.794   1.361
  392SOL    HW2 2076   1.423   3.745   1.206
  393SOL     OW 2077   1.447   5.161   1.263
  393SOL    HW1 2078   1.543   5.187   1.265
  393SOL    HW2 2079   1.420   5.124   1.352
  394SOL     OW 2080   6.334   1.016   6.289
  394SOL    HW1 2081   6.417   0.968   6.318
  394SOL    HW2 2082   6.326   1.101   6.341
  395SOL     OW 2083   5.974   4.747   0.687
  395SOL    HW1 2084   6.008   4.783   0.774
  395SOL    HW2 2085   5.881   4.778   0.672
  396SOL     OW 2086   1.610   6.785   1.365
  396SOL    HW1 2087   1.583   6.695   1.332
  396SOL    HW2 2088   1.674   6.776   1.441
  397SOL     OW 2089   3.714   1.915   5.154
  397SOL    HW1 2090   3.777   1.863   5.213
  397SOL    HW2 2091   3.743   2.010   5.150
  398SOL     OW 2092   1.370   0.471   3.341
  398SOL    HW1 2093   1.284   0.514   3.313
  398SOL    HW2 2094   1.428   0.458   3.261
  399SOL     OW 2095   5.620   5.825   3.900
  399SOL    HW1 2096   5.596   5.922   3.904
  399SOL    HW2 2097   5.608   5.783   3.990
  400SOL     OW 2098   5.764   6.836   4.155
  400SOL    HW1 2099   5.860   6.851   4.180
  400SOL    HW2 2100   5.709   6.915   4.185
  401SOL     OW 2101   0.557   5.667   5.433
  401SOL    HW1 2102   0.515   5.730   5.367
  401SOL    HW2 2103   0.521   5.575   5.419
  402SOL     OW 2104   5.540   1.872   3.305
  402SOL    HW1 2105   5.549   1.787   3.253
  402SOL    HW2 2106   5.623   1.887   3.359
  403SOL     OW 2107   2.945   1.524   5.292
  403SOL    HW1 2108   2.899   1.521   5.381
  403SOL    HW2 2109   2.881   1.558   5.223
  404SOL     OW 2110   3.450   5.758   3.527
  404SOL    HW1 2111   3.394   5.675   3.521
  404SOL    HW2 2112   3.451   5.804   3.438
  405SOL     OW 2113   2.408   4.892   4.389
  405SOL    HW1 2114   2.475   4.907   4.317
  405SOL    HW2 2115   2.428   4.951   4.467
  406SOL     OW 2116   0.569   6.947   6.349
  406SOL    HW1 2117   0.562   0.006   6.290
  406SOL    HW2 2118   0.646   6.891   6.321
  407SOL     OW 2119   2.289   2.860   4.026
  407SOL    HW1 2120   2.294   2.779   3.967
  407SOL    HW2 2121   2.351   2.849   4.103
  408SOL     OW 2122   2.116   1.986   3.302
  408SOL    HW1 2123   2.107   1.968   3.399
  408SOL    HW2 2124   2.160   1.908   3.257
  409SOL     OW 2125   0.533   3.037   2.205
  409SOL    HW1 2126   0.487   3.017   2.119
  409SOL    HW2 2127   0.626   3.068   2.186
  410SOL     OW 2128   1.610   2.278   1.837
  410SOL    HW1 2129   1.541   2.215   1.802
  410SOL    HW2 2130   1.601   2.366   1.790
  411SOL     OW 2131   0.107   2.216   1.158
  411SOL    HW1 2132   0.147   2.223   1.250
  411SOL    HW2 2133   0.123   2.123   1.123
  412SOL     OW 2134   1.336   5.091   2.946
  412SOL    HW1 2135   1.316   5.179   2.904
  412SOL    HW2 2136   1.411   5.047   2.896
  413SOL     OW 2137   6.065   5.773   2.017
  413SOL    HW1 2138   6.007   5.765   1.936
  413SOL    HW2 2139   6.132   5.846   2.002
  414SOL     OW 2140   1.749   7.005   2.990
  414SOL    HW1 2141   1.733   6.970   3.082
  414SOL    HW2 2142   1.803   6.940   2.938
  415SOL     OW 2143   5.951   1.270   6.635
  415SOL    HW1 2144   6.035   1.224   6.663
  415SOL    HW2 2145   5.962   1.369   6.645
  416SOL     OW 2146   5.606   3.539   5.512
  416SOL    HW1 2147   5.627   3.576   5.421
  416SOL    HW2 2148   5.559   3.451   5.502
  417SOL     OW 2149   1.811   1.972   6.717
  417SOL    HW1 2150   1.753   1.934   6.645
  417SOL    HW2 2151   1.802   1.917   6.799
  418SOL     OW 2152   3.686   0.149   4.830
  418SOL    HW1 2153   3.702   0.242   4.863
  418SOL    HW2 2154   3.731   0.137   4.742
  419SOL     OW 2155   6.535   0.232   0.192
  419SOL    HW1 2156   6.525   0.132   0.188
  419SOL    HW2 2157   6.543   0.260   0.288
  420SOL     OW 2158   4.037   6.992   0.767
  420SOL    HW1 2159   3.976   0.041   0.730
  420SOL    HW2 2160   4.027   6.908   0.714
  421SOL     OW 2161   4.884   4.387   2.588
  421SOL    HW1 2162   4.813   4.418   2.524
  421SOL    HW2 2163   4.904   4.460   2.653
  422SOL     OW 2164   5.198   2.602   1.798
  422SOL    HW1 2165   5.289   2.632   1.769
  422SOL    HW2 2166   5.202   2.506   1.827
  423SOL     OW 2167   2.824   1.085   6.237
  423SOL    HW1 2168   2.904   1.103   6.294
  423SOL    HW2 2169   2.759   1.161   6.244
  424SOL     OW 2170   1.446   3.707   4.253
  424SOL    HW1 2171   1.392   3.761   4.188
  424SOL    HW2 2172   1.428   3.739   4.346
  425SOL     OW 2173   3.713   0.941   7.001
  425SOL    HW1 2174   3.762   0.855   7.010
  425SOL    HW2 2175   3.755   0.996   6.929
  426SOL     OW 2176   2.963   1.856   4.165
  426SOL    HW1 2177   3.032   1.905   4.112
  426SOL    HW2 2178   2.936   1.912   4.243
  427SOL     OW 2179   4.687   1.744   3.139
  427SOL    HW1 2180   4.753   1.740   3.065
  427SOL    HW2 2181   4.600   1.779   3.105
  428SOL     OW 2182   2.957   2.344   6.010
  428SOL    HW1 2183   2.868   2.390   6.017
  428SOL    HW2 2184   2.953   2.274   5.938
  429SOL     OW 2185   6.901   5.852   4.305
  429SOL    HW1 2186   6.855   5.830   4.391
  429SOL    HW2 2187   6.954   5.936   4.317
  430SOL     OW 2188   1.363   6.970   4.372
  430SOL    HW1 2189   1.313   6.894   4.331
  430SOL    HW2 2190   1.461   6.957   4.357
  431SOL     OW 2191   2.648   1.869   1.593
  431SOL    HW1 2192   2.587   1.814   1.536
  431SOL    HW2 2193   2.696   1.936   1.536
  432SOL     OW 2194   4.593   1.715   1.426
  432SOL    HW1 2195   4.610   1.770   1.508
  432SOL    HW2 2196   4.494   1.706   1.412
  433SOL     OW 2197   1.767   4.399   0.832
  433SOL    HW1 2198   1.771   4.306   0.868
  433SOL    HW2 2199   1.858   4.440   0.834
  434SOL     OW 2200   4.629   5.130   3.285
  434SOL    HW1 2201   4.531   5.129   3.303
  434SOL    HW2 2202   4.663   5.224   3.288
  435SOL     OW 2203   4.012   2.887   5.892
  435SOL    HW1 2204   4.016   2.791   5.920
  435SOL    HW2 2205   3.952   2.896   5.812
  436SOL     OW 2206   5.097   6.690   2.181
  436SOL    HW1 2207   5.148   6.688   2.095
  436SOL    HW2 2208   5.142   6.752   2.245
  437SOL     OW 2209   6.190   1.131   4.985
  437SOL    HW1 2210   6.131   1.212   4.991
  437SOL    HW2 2211   6.286   1.159   4.989
  438SOL     OW 2212   0.830   4.730   2.325
  438SOL    HW1 2213   0.852   4.777   2.240
  438SOL    HW2 2214   0.749   4.771   2.367
  439SOL     OW 2215   6.949   1.158   4.735
  439SOL    HW1 2216   6.924   1.152   4.832
  439SOL    HW2 2217   6.991   1.072   4.706
  440SOL     OW 2218   4.283   1.501   0.295
  440SOL    HW1 2219   4.263   1.564   0.371
  440SOL    HW2 2220   4.359   1.442   0.321
  441SOL     OW 2221   1.071   4.707   1.855
  441SOL    HW1 2222   1.168   4.715   1.879
  441SOL    HW2 2223   1.062   4.687   1.758
  442SOL     OW 2224   4.809   3.547   5.418
  442SOL    HW1 2225   4.789   3.578   5.325
  442SOL    HW2 2226   4.812   3.447   5.421
  443SOL     OW 2227   4.894   2.811   2.882
  443SOL    HW1 2228   4.895   2.911   2.869
  443SOL    HW2 2229   4.989   2.779   2.890
  444SOL     OW 2230   4.369   1.664   2.011
  444SOL    HW1 2231   4.308   1.730   2.055
  444SOL    HW2 2232   4.464   1.690   2.029
  445SOL     OW 2233   1.380   4.751   2.783
  445SOL    HW1 2234   1.449   4.822   2.795
  445SOL    HW2 2235   1.370   4.730   2.685
  446SOL     OW 2236   6.161   6.988   1.330
  446SOL    HW1 2237   6.178   6.900   1.375
  446SOL    HW2 2238   6.219   6.995   1.249
  447SOL     OW 2239   5.572   4.036   0.784
  447SOL    HW1 2240   5.592   4.133   0.802
  447SOL    HW2 2241   5.604   3.981   0.860
  448SOL     OW 2242   3.930   6.691   3.850
  448SOL    HW1 2243   3.935   6.677   3.949
  448SOL    HW2 2244   4.018   6.726   3.817
  449SOL     OW 2245   1.676   4.006   4.456
  449SOL    HW1 2246   1.644   4.064   4.532
  449SOL    HW2 2247   1.756   3.954   4.486
  450SOL     OW 2248   6.578   4.714   3.326
  450SOL    HW1 2249   6.658   4.662   3.354
  450SOL    HW2 2250   6.606   4.807   3.302
  451SOL     OW 2251   1.165   2.109   0.721
  451SOL    HW1 2252   1.088   2.103   0.658
  451SOL    HW2 2253   1.251   2.105   0.669
  452SOL     OW 2254   4.573   5.253   2.873
  452SOL    HW1 2255   4.666   5.242   2.909
  452SOL    HW2 2256   4.512   5.280   2.947
  453SOL     OW 2257   3.825   1.219   0.043
  453SOL    HW1 2258   3.809   1.162   0.123
  453SOL    HW2 2259   3.771   1.303   0.049
  454SOL     OW 2260   0.388   3.547   5.133
  454SOL    HW1 2261   0.327   3.597   5.072
  454SOL    HW2 2262   0.444   3.484   5.080
  455SOL     OW 2263   5.216   5.013   6.260
  455SOL    HW1 2264   5.225   4.946   6.186
  455SOL    HW2 2265   5.192   5.102   6.221
  456SOL     OW 2266   2.857   1.089   2.585
  456SOL    HW1 2267   2.818   1.182   2.580
  456SOL    HW2 2268   2.910   1.070   2.502
  457SOL     OW 2269   2.550   6.943   0.010
  457SOL    HW1 2270   2.451   6.958   0.022
  457SOL    HW2 2271   2.585   6.892   0.088
  458SOL     OW 2272   3.870   1.476   2.802
  458SOL    HW1 2273   3.858   1.481   2.703
  458SOL    HW2 2274   3.968   1.467   2.824
  459SOL     OW 2275   3.368   0.712   3.453
  459SOL    HW1 2276   3.325   0.774   3.387
  459SOL    HW2 2277   3.408   0.634   3.404
  460SOL     OW 2278   0.494   1.066   6.284
  460SOL    HW1 2279   0.575   1.116   6.314
  460SOL    HW2 2280   0.466   1.003   6.355
  461SOL     OW 2281   1.112   6.009   5.572
  461SOL    HW1 2282   1.161   5.924   5.595
  461SOL    HW2 2283   1.028   6.014   5.625
  462SOL     OW 2284   3.041   3.890   4.697
  462SOL    HW1 2285   3.063   3.952   4.772
  462SOL    HW2 2286   3.123   3.843   4.667
  463SOL     OW 2287   5.323   6.274   3.642
  463SOL    HW1 2288   5.361   6.275   3.735
  463SOL    HW2 2289   5.223   6.273   3.647
  464SOL     OW 2290   4.553   5.405   5.857
  464SOL    HW1 2291   4.560   5.487   5.913
  464SOL    HW2 2292   4.632   5.399   5.796
  465SOL     OW 2293   0.719   4.454   0.280
  465SOL    HW1 2294   0.751   4.484   0.190
  465SOL    HW2 2295   0.641   4.392   0.269
  466SOL     OW 2296   4.192   4.998   3.972
  466SOL    HW1 2297   4.243   5.083   3.954
  466SOL    HW2 2298   4.102   5.005   3.929
  467SOL     OW 2299   6.096   0.338   2.427
  467SOL    HW1 2300   6.143   0.286   2.498
  467SOL    HW2 2301   6.147   0.421   2.407
  468SOL     OW 2302   2.365   6.281   6.148
  468SOL    HW1 2303   2.306   6.218   6.200
  468SOL    HW2 2304   2.307   6.344   6.097
  469SOL     OW 2305   2.800   4.877   5.081
  469SOL    HW1 2306   2.899   4.862   5.085
  469SOL    HW2 2307   2.754   4.790   5.063
  470SOL     OW 2308   2.070   4.957   2.553
  470SOL    HW1 2309   1.983   4.909   2.543
  470SOL    HW2 2310   2.086   4.977   2.649
  471SOL     OW 2311   1.759   2.262   4.250
  471SOL    HW1 2312   1.716   2.301   4.331
  471SOL    HW2 2313   1.850   2.228   4.274
  472SOL     OW 2314   5.459   4.067   6.505
  472SOL    HW1 2315   5.509   4.016   6.435
  472SOL    HW2 2316   5.495   4.160   6.510
  473SOL     OW 2317   5.433   3.548   2.548
  473SOL    HW1 2318   5.440   3.491   2.466
  473SOL    HW2 2319   5.517   3.540   2.601
  474SOL     OW 2320   4.638   5.529   4.203
  474SOL    HW1 2321   4.545   5.550   4.174
  474SOL    HW2 2322   4.639   5.444   4.256
  475SOL     OW 2323   5.857   1.627   0.602
  475SOL    HW1 2324   5.932   1.645   0.538
  475SOL    HW2 2325   5.800   1.553   0.567
  476SOL     OW 2326   1.477   4.009   6.878
  476SOL    HW1 2327   1.436   3.941   6.938
  476SOL    HW2 2328   1.449   3.991   6.784
  477SOL     OW 2329   1.169   5.019   3.197
  477SOL    HW1 2330   1.254   5.064   3.171
  477SOL    HW2 2331   1.108   5.012   3.118
  478SOL     OW 2332   5.769   6.035   2.947
  478SOL    HW1 2333   5.807   6.077   3.029
  478SOL    HW2 2334   5.816   6.072   2.866
  479SOL     OW 2335   2.909   3.785   2.799
  479SOL    HW1 2336   2.826   3.840   2.788
  479SOL    HW2 2337   2.988   3.846   2.807
  480SOL     OW 2338   0.833   0.462   2.499
  480SOL    HW1 2339   0.902   0.527   2.532
  480SOL    HW2 2340   0.787   0.420   2.577
  481SOL     OW 2341   6.880   0.281   1.060
  481SOL    HW1 2342   6.829   0.195   1.065
  481SOL    HW2 2343   6.880   0.315   0.966
  482SOL     OW 2344   4.227   5.022   2.722
  482SOL    HW1 2345   4.319   5.056   2.701
  482SOL    HW2 2346   4.166   5.100   2.737
  483SOL     OW 2347   5.985   1.795   4.259
  483SOL    HW1 2348   5.979   1.752   4.169
  483SOL    HW2 2349   5.902   1.848   4.277
  484SOL     OW 2350   2.161   5.104   3.509
  484SOL    HW1 2351   2.078   5.050   3.495
  484SOL    HW2 2352   2.150   5.161   3.591
  485SOL     OW 2353   5.536   2.058   1.503
  485SOL    HW1 2354   5.588   2.143   1.502
  485SOL    HW2 2355   5.598   1.980   1.495
  486SOL     OW 2356   6.047   6.469   5.908
  486SOL    HW1 2357   6.110   6.497   5.835
  486SOL    HW2 2358   6.040   6.542   5.975
  487SOL     OW 2359   0.561   0.386   6.959
  487SOL    HW1 2360   0.518   0.467   6.999
  487SOL    HW2 2361   0.510   0.357   6.878
  488SOL     OW 2362   1.840   5.935   3.213
  488SOL    HW1 2363   1.884   6.015   3.171
  488SOL    HW2 2364   1.910   5.875   3.251
  489SOL     OW 2365   2.174   5.999   5.488
  489SOL    HW1 2366   2.267   6.000   5.452
  489SOL    HW2 2367   2.175   5.974   5.584
  490SOL     OW 2368   1.298   3.443   4.470
  490SOL    HW1 2369   1.241   3.420   4.391
  490SOL    HW2 2370   1.239   3.456   4.550
  491SOL     OW 2371   6.419   2.632   0.948
  491SOL    HW1 2372   6.471   2.712   0.919
  491SOL    HW2 2373   6.366   2.596   0.871
  492SOL     OW 2374   1.592   2.996   5.296
  492SOL    HW1 2375   1.501   3.020   5.262
  492SOL    HW2 2376   1.651   2.971   5.219
  493SOL     OW 2377   1.914   5.027   4.423
  493SOL    HW1 2378   1.942   5.062   4.333
  493SOL    HW2 2379   1.879   4.933   4.412
  494SOL     OW 2380   2.362   0.739   4.267
  494SOL    HW1 2381   2.354   0.642   4.246
  494SOL    HW2 2382   2.298   0.790   4.209
  495SOL     OW 2383   3.704   4.183   6.747
  495SOL    HW1 2384   3.700   4.092   6.707
  495SOL    HW2 2385   3.690   4.252   6.676
  496SOL     OW 2386   5.485   1.158   3.291
  496SOL    HW1 2387   5.521   1.119   3.207
  496SOL    HW2 2388   5.406   1.106   3.321
  497SOL     OW 2389   4.716   1.903   0.466
  497SOL    HW1 2390   4.806   1.860   0.466
  497SOL    HW2 2391   4.672   1.886   0.554
  498SOL     OW 2392   0.417   0.641   1.146
  498SOL    HW1 2393   0.360   0.711   1.103
  498SOL    HW2 2394   0.506   0.638   1.100
  499SOL     OW 2395   3.384   6.287   0.407
  499SOL    HW1 2396   3.464   6.229   0.425
  499SOL    HW2 2397   3.409   6.383   0.420
  500SOL     OW 2398   5.259   1.719   6.570
  500SOL    HW1 2399   5.195   1.736   6.495
  500SOL    HW2 2400   5.351   1.709   6.534
  501SOL     OW 2401   1.253   1.179   5.267
  501SOL    HW1 2402   1.168   1.209   5.311
  501SOL    HW2 2403   1.294   1.256   5.217
  502SOL     OW 2404   2.411   4.355   6.817
  502SOL    HW1 2405   2.400   4.317   6.725
  502SOL    HW2 2406   2.407   4.281   6.884
  503SOL     OW 2407   3.694   5.557   1.237
  503SOL    HW1 2408   3.783   5.598   1.215
  503SOL    HW2 2409   3.623   5.601   1.183
  504SOL     OW 2410   6.701   6.242   1.550
  504SOL    HW1 2411   6.669   6.249   1.644
  504SOL    HW2 2412   6.694   6.331   1.505
  505SOL     OW 2413   5.806   5.023   5.253
  505SOL    HW1 2414   5.805   5.117   5.221
  505SOL    HW2 2415   5.792   5.021   5.352
  506SOL     OW 2416   3.368   5.221   3.284
  506SOL    HW1 2417   3.382   5.151   3.214
  506SOL    HW2 2418   3.342   5.307   3.240
  507SOL     OW 2419   2.940   0.897   1.483
  507SOL    HW1 2420   2.963   0.811   1.437
  507SOL    HW2 2421   2.870   0.880   1.552
  508SOL     OW 2422   0.363   4.436   3.349
  508SOL    HW1 2423   0.403   4.415   3.260
  508SOL    HW2 2424   0.338   4.532   3.353
  509SOL     OW 2425   4.179   6.945   6.204
  509SOL    HW1 2426   4.250   6.877   6.221
  509SOL    HW2 2427   4.145   6.935   6.111
  510SOL     OW 2428   6.706   3.987   0.142
  510SOL    HW1 2429   6.699   3.888   0.134
  510SOL    HW2 2430   6.694   4.029   0.051
  511SOL     OW 2431   0.771   1.192   0.195
  511SOL    HW1 2432   0.760   1.143   0.109
  511SOL    HW2 2433   0.863   1.178   0.230
  512SOL     OW 2434   0.140   2.769   3.874
  512SOL    HW1 2435   0.186   2.686   3.842
  512SOL    HW2 2436   0.207   2.839   3.895
  513SOL     OW 2437   5.398   0.270   3.148
  513SOL    HW1 2438   5.405   0.209   3.069
  513SOL    HW2 2439   5.472   0.338   3.143
  514SOL     OW 2440   4.700   0.962   5.315
  514SOL    HW1 2441   4.650   1.006   5.389
  514SOL    HW2 2442   4.711   1.026   5.239
  515SOL     OW 2443   3.761   0.577   0.365
  515SOL    HW1 2444   3.749   0.484   0.399
  515SOL    HW2 2445   3.812   0.631   0.432
  516SOL     OW 2446   2.143   6.354   2.235
  516SOL    HW1 2447   2.140   6.288   2.160
  516SOL    HW2 2448   2.148   6.304   2.322
  517SOL     OW 2449   3.430   5.505   1.827
  517SOL    HW1 2450   3.447   5.441   1.752
  517SOL    HW2 2451   3.440   5.599   1.792
  518SOL     OW 2452   2.080   5.137   4.238
  518SOL    HW1 2453   2.033   5.104   4.156
  518SOL    HW2 2454   2.115   5.229   4.222
  519SOL     OW 2455   6.929   6.789   2.124
  519SOL    HW1 2456   6.991   6.827   2.192
  519SOL    HW2 2457   6.838   6.828   2.137
  520SOL     OW 2458   2.476   4.723   0.431
  520SOL    HW1 2459   2.426   4.670   0.499
  520SOL    HW2 2460   2.495   4.666   0.351
  521SOL     OW 2461   6.340   5.927   5.299
  521SOL    HW1 2462   6.402   5.966   5.367
  521SOL    HW2 2463   6.385   5.852   5.252
  522SOL     OW 2464   3.776   4.306   0.250
  522SOL    HW1 2465   3.866   4.274   0.279
  522SOL    HW2 2466   3.785   4.393   0.203
  523SOL     OW 2467   1.495   6.929   6.946
  523SOL    HW1 2468   1.594   6.938   6.938
  523SOL    HW2 2469   1.460   6.873   6.871
  524SOL     OW 2470   0.025   1.194   0.864
  524SOL    HW1 2471   0.012   1.106   0.910
  524SOL    HW2 2472   0.054   1.178   0.770
  525SOL     OW 2473   0.767   3.214   3.809
  525SOL    HW1 2474   0.806   3.304   3.827
  525SOL    HW2 2475   0.838   3.144   3.816
  526SOL     OW 2476   4.322   6.907   4.190
  526SOL    HW1 2477   4.236   6.955   4.175
  526SOL    HW2 2478   4.384   6.965   4.243
  527SOL     OW 2479   0.549   1.505   0.990
  527SOL    HW1 2480   0.645   1.532   1.002
  527SOL    HW2 2481   0.533   1.418   1.036
  528SOL     OW 2482   6.929   2.841   4.341
  528SOL    HW1 2483   6.831   2.842   4.360
  528SOL    HW2 2484   6.961   2.934   4.326
  529SOL     OW 2485   1.647   0.099   6.745
  529SOL    HW1 2486   1.600   0.021   6.702
  529SOL    HW2 2487   1.580   0.156   6.793
  530SOL     OW 2488   3.663   4.795   1.453
  530SOL    HW1 2489   3.736   4.861   1.474
  530SOL    HW2 2490   3.576   4.843   1.445
  531SOL     OW 2491   1.604   0.072   0.222
  531SOL    HW1 2492   1.627   0.151   0.281
  531SOL    HW2 2493   1.648   7.012   0.259
  532SOL     OW 2494   1.947   1.545   5.813
  532SOL    HW1 2495   2.012   1.618   5.836
  532SOL    HW2 2496   1.920   1.497   5.897
  533SOL     OW 2497   3.833   0.704   3.728
  533SOL    HW1 2498   3.825   0.649   3.645
  533SOL    HW2 2499   3.826   0.801   3.705
  534SOL     OW 2500   1.679   4.090   1.787
  534SOL    HW1 2501   1.765   4.041   1.775
  534SOL    HW2 2502   1.643   4.072   1.879
  535SOL     OW 2503   5.110   3.265   4.370
  535SOL    HW1 2504   5.072   3.249   4.279
  535SOL    HW2 2505   5.036   3.274   4.436
  536SOL     OW 2506   6.514   6.496   1.747
  536SOL    HW1 2507   6.488   6.572   1.807
  536SOL    HW2 2508   6.612   6.478   1.758
  537SOL     OW 2509   3.005   1.921   2.433
  537SOL    HW1 2510   2.999   2.016   2.401
  537SOL    HW2 2511   2.977   1.859   2.360
  538SOL     OW 2512   3.492   5.203   4.848
  538SOL    HW1 2513   3.458   5.109   4.839
  538SOL    HW2 2514   3.495   5.246   4.758
  539SOL     OW 2515   1.805   0.406   6.595
  539SOL    HW1 2516   1.806   0.314   6.555
  539SOL    HW2 2517   1.793   0.473   6.522
  540SOL     OW 2518   1.791   0.693   5.115
  540SOL    HW1 2519   1.737   0.717   5.035
  540SOL    HW2 2520   1.808   0.595   5.116
  541SOL     OW 2521   5.135   6.001   3.941
  541SOL    HW1 2522   5.164   5.942   3.866
  541SOL    HW2 2523   5.042   6.034   3.925
  542SOL     OW 2524   3.899   6.440   6.142
  542SOL    HW1 2525   3.998   6.452   6.144
  542SOL    HW2 2526   3.869   6.392   6.224
  543SOL     OW 2527   6.316   2.415   3.663
  543SOL    HW1 2528   6.229   2.424   3.712
  543SOL    HW2 2529   6.392   2.435   3.725
  544SOL     OW 2530   1.330   2.924   1.456
  544SOL    HW1 2531   1.271   2.992   1.499
  544SOL    HW2 2532   1.284   2.887   1.375
  545SOL     OW 2533   6.574   5.965   0.855
  545SOL    HW1 2534   6.631   5.983   0.935
  545SOL    HW2 2535   6.632   5.948   0.775
  546SOL     OW 2536   0.286   3.864   1.886
  546SOL    HW1 2537   0.282   3.909   1.976
  546SOL    HW2 2538   0.361   3.798   1.885
  547SOL     OW 2539   5.245   0.104   6.532
  547SOL    HW1 2540   5.218   0.082   6.438
  547SOL    HW2 2541   5.203   0.191   6.558
  548SOL     OW 2542   3.660   2.765   0.111
  548SOL    HW1 2543   3.753   2.748   0.079
  548SOL    HW2 2544   3.659   2.844   0.172
  549SOL     OW 2545   5.303   1.405   2.019
  549SOL    HW1 2546   5.350   1.481   2.064
  549SOL    HW2 2547   5.297   1.423   1.921
  550SOL     OW 2548   0.002   6.204   2.840
  550SOL    HW1 2549   0.055   6.209   2.925
  550SOL    HW2 2550   6.934   6.163   2.858
  551SOL     OW 2551   6.156   0.545   0.556
  551SOL    HW1 2552   6.065   0.519   0.590
  551SOL    HW2 2553   6.164   0.645   0.558
  552SOL     OW 2554   0.662   6.749   5.285
  552SOL    HW1 2555   0.584   6.740   5.346
  552SOL    HW2 2556   0.692   6.845   5.283
  553SOL     OW 2557   3.564   2.032   6.731
  553SOL    HW1 2558   3.547   2.131   6.729
  553SOL    HW2 2559   3.551   1.999   6.825
  554SOL     OW 2560   6.302   5.958   0.925
  554SOL    HW1 2561   6.289   5.948   0.827
  554SOL    HW2 2562   6.399   5.942   0.947
  555SOL     OW 2563   2.267   3.780   5.332
  555SOL    HW1 2564   2.221   3.730   5.258
  555SOL    HW2 2565   2.312   3.862   5.293
  556SOL     OW 2566   5.838   0.058   3.663
  556SOL    HW1 2567   5.850   0.136   3.602
  556SOL    HW2 2568   5.799   7.003   3.612
  557SOL     OW 2569   5.733   4.502   6.532
  557SOL    HW1 2570   5.712   4.582   6.476
  557SOL    HW2 2571   5.830   4.478   6.522
  558SOL     OW 2572   3.178   3.516   2.820
  558SOL    HW1 2573   3.091   3.492   2.864
  558SOL    HW2 2574   3.193   3.456   2.742
  559SOL     OW 2575   6.871   0.418   6.146
  559SOL    HW1 2576   6.919   0.354   6.086
  559SOL    HW2 2577   6.783   0.441   6.106
  560SOL     OW 2578   6.792   3.191   4.382
  560SOL    HW1 2579   6.854   3.144   4.318
  560SOL    HW2 2580   6.718   3.233   4.331
  561SOL     OW 2581   0.721   3.402   0.716
  561SOL    HW1 2582   0.726   3.316   0.766
  561SOL    HW2 2583   0.795   3.407   0.650
  562SOL     OW 2584   4.493   6.524   4.140
  562SOL    HW1 2585   4.486   6.461   4.063
  562SOL    HW2 2586   4.407   6.523   4.191
  563SOL     OW 2587   1.512   0.841   4.285
  563SOL    HW1 2588   1.507   0.916   4.351
  563SOL    HW2 2589   1.558   0.873   4.202
  564SOL     OW 2590   6.221   2.088   6.304
  564SOL    HW1 2591   6.173   2.001   6.308
  564SOL    HW2 2592   6.180   2.145   6.233
  565SOL     OW 2593   3.629   3.496   3.401
  565SOL    HW1 2594   3.689   3.457   3.471
  565SOL    HW2 2595   3.553   3.433   3.384
  566SOL     OW 2596   2.884   0.836   3.569
  566SOL    HW1 2597   2.968   0.883   3.594
  566SOL    HW2 2598   2.809   0.903   3.562
  567SOL     OW 2599   3.055   2.788   5.415
  567SOL    HW1 2600   3.117   2.863   5.435
  567SOL    HW2 2601   3.106   2.713   5.374
  568SOL     OW 2602   0.670   6.264   0.113
  568SOL    HW1 2603   0.711   6.348   0.149
  568SOL    HW2 2604   0.653   6.275   0.015
  569SOL     OW 2605   5.953   3.526   6.998
  569SOL    HW1 2606   5.906   3.589   6.936
  569SOL    HW2 2607   6.022   3.575   0.029
  570SOL     OW 2608   2.972   0.842   5.878
  570SOL    HW1 2609   2.941   0.805   5.965
  570SOL    HW2 2610   3.054   0.793   5.849
  571SOL     OW 2611   2.295   4.255   1.478
  571SOL    HW1 2612   2.316   4.180   1.541
  571SOL    HW2 2613   2.359   4.330   1.493
  572SOL     OW 2614   2.489   0.968   4.773
  572SOL    HW1 2615   2.423   1.000   4.705
  572SOL    HW2 2616   2.467   1.009   4.862
  573SOL     OW 2617   0.420   0.587   5.454
  573SOL    HW1 2618   0.496   0.640   5.417
  573SOL    HW2 2619   0.389   0.628   5.540
  574SOL     OW 2620   2.050   1.488   6.254
  574SOL    HW1 2621   2.122   1.522   6.192
  574SOL    HW2 2622   1.965   1.478   6.202
  575SOL     OW 2623   4.189   4.077   0.152
  575SOL    HW1 2624   4.191   4.006   0.083
  575SOL    HW2 2625   4.277   4.079   0.200
  576SOL     OW 2626   2.360   1.768   2.821
  576SOL    HW1 2627   2.266   1.770   2.786
  576SOL    HW2 2628   2.377   1.851   2.874
  577SOL     OW 2629   0.609   1.209   1.588
  577SOL    HW1 2630   0.700   1.250   1.582
  577SOL    HW2 2631   0.615   1.121   1.635
  578SOL     OW 2632   3.534   6.766   6.864
  578SOL    HW1 2633   3.589   6.691   6.902
  578SOL    HW2 2634   3.571   6.853   6.896
  579SOL     OW 2635   1.576   3.741   1.822
  579SOL    HW1 2636   1.616   3.749   1.913
  579SOL    HW2 2637   1.519   3.821   1.803
  580SOL     OW 2638   4.818   5.079   4.923
  580SOL    HW1 2639   4.779   4.988   4.909
  580SOL    HW2 2640   4.772   5.144   4.863
  581SOL     OW 2641   2.174   2.550   4.991
  581SOL    HW1 2642   2.095   2.502   5.029
  581SOL    HW2 2643   2.258   2.512   5.029
  582SOL     OW 2644   5.010   4.836   4.016
  582SOL    HW1 2645   5.006   4.793   3.926
  582SOL    HW2 2646   4.919   4.833   4.058
  583SOL     OW 2647   3.782   5.958   5.708
  583SOL    HW1 2648   3.868   5.920   5.675
  583SOL    HW2 2649   3.801   6.030   5.776
  584SOL     OW 2650   3.637   0.596   5.418
  584SOL    HW1 2651   3.634   0.665   5.346
  584SOL    HW2 2652   3.664   0.639   5.504
  585SOL     OW 2653   3.853   0.207   1.423
  585SOL    HW1 2654   3.832   0.126   1.367
  585SOL    HW2 2655   3.784   0.217   1.495
  586SOL     OW 2656   3.818   0.060   0.468
  586SOL    HW1 2657   3.899   0.080   0.414
  586SOL    HW2 2658   3.737   0.063   0.409
  587SOL     OW 2659   4.917   1.717   2.140
  587SOL    HW1 2660   4.940   1.774   2.061
  587SOL    HW2 2661   4.982   1.642   2.148
  588SOL     OW 2662   1.437   4.526   2.935
  588SOL    HW1 2663   1.428   4.612   2.884
  588SOL    HW2 2664   1.348   4.483   2.945
  589SOL     OW 2665   3.124   5.315   0.569
  589SOL    HW1 2666   3.052   5.375   0.534
  589SOL    HW2 2667   3.154   5.348   0.659
  590SOL     OW 2668   2.877   2.219   0.013
  590SOL    HW1 2669   2.929   2.215   6.948
  590SOL    HW2 2670   2.916   2.154   0.078
  591SOL     OW 2671   2.909   6.120   3.745
  591SOL    HW1 2672   2.883   6.025   3.729
  591SOL    HW2 2673   2.893   6.143   3.841
  592SOL     OW 2674   4.117   1.929   4.627
  592SOL    HW1 2675   4.063   1.867   4.570
  592SOL    HW2 2676   4.177   1.984   4.570
  593SOL     OW 2677   1.772   1.834   6.941
  593SOL    HW1 2678   1.744   1.878   0.005
  593SOL    HW2 2679   1.872   1.831   6.936
  594SOL     OW 2680   4.693   0.835   2.965
  594SOL    HW1 2681   4.629   0.835   3.042
  594SOL    HW2 2682   4.709   0.929   2.935
  595SOL     OW 2683   6.214   5.347   3.072
  595SOL    HW1 2684   6.179   5.439   3.093
  595SOL    HW2 2685   6.196   5.326   2.976
  596SOL     OW 2686   6.553   4.946   4.141
  596SOL    HW1 2687   6.524   5.023   4.085
  596SOL    HW2 2688   6.572   4.867   4.083
  597SOL     OW 2689   3.209   1.075   6.868
  597SOL    HW1 2690   3.255   1.018   6.800
  597SOL    HW2 2691   3.213   1.030   6.957
  598SOL     OW 2692   3.384   4.049   3.679
  598SOL    HW1 2693   3.350   3.989   3.607
  598SOL    HW2 2694   3.316   4.056   3.752
  599SOL     OW 2695   1.798   5.449   1.421
  599SOL    HW1 2696   1.826   5.531   1.371
  599SOL    HW2 2697   1.837   5.452   1.514
  600SOL     OW 2698   6.651   3.269   5.754
  600SOL    HW1 2699   6.747   3.286   5.733
  600SOL    HW2 2700   6.594   3.302   5.679
  601SOL     OW 2701   0.545   6.317   5.752
  601SOL    HW1 2702   0.631   6.366   5.766
  601SOL    HW2 2703   0.559   6.244   5.685
  602SOL     OW 2704   1.591   0.027   3.522
  602SOL    HW1 2705   1.498   0.046   3.489
  602SOL    HW2 2706   1.654   0.096   3.486
  603SOL     OW 2707   1.886   1.776   4.169
  603SOL    HW1 2708   1.914   1.723   4.249
  603SOL    HW2 2709   1.946   1.855   4.159
  604SOL     OW 2710   6.122   3.416   1.051
  604SOL    HW1 2711   6.082   3.426   0.960
  604SOL    HW2 2712   6.123   3.320   1.077
  605SOL     OW 2713   6.693   6.007   1.122
  605SOL    HW1 2714   6.651   6.089   1.161
  605SOL    HW2 2715   6.792   6.018   1.120
  606SOL     OW 2716   3.548   6.401   4.946
  606SOL    HW1 2717   3.549   6.361   5.038
  606SOL    HW2 2718   3.550   6.501   4.954
  607SOL     OW 2719   1.858   3.106   5.723
  607SOL    HW1 2720   1.850   3.080   5.627
  607SOL    HW2 2721   1.835   3.027   5.781
  608SOL     OW 2722   3.152   1.334   6.194
  608SOL    HW1 2723   3.134   1.263   6.263
  608SOL    HW2 2724   3.242   1.318   6.153
  609SOL     OW 2725   3.440   2.817   2.218
  609SOL    HW1 2726   3.373   2.743   2.224
  609SOL    HW2 2727   3.476   2.821   2.125
  610SOL     OW 2728   4.633   3.681   1.532
  610SOL    HW1 2729   4.612   3.587   1.562
  610SOL    HW2 2730   4.685   3.678   1.447
  611SOL     OW 2731   3.794   1.069   3.147
  611SOL    HW1 2732   3.745   0.983   3.157
  611SOL    HW2 2733   3.732   1.146   3.164
  612SOL     OW 2734   4.496   4.961   3.901
  612SOL    HW1 2735   4.444   4.960   3.986
  612SOL    HW2 2736   4.497   5.053   3.863
  613SOL     OW 2737   4.223   4.651   5.298
  613SOL    HW1 2738   4.261   4.736   5.261
  613SOL    HW2 2739   4.267   4.573   5.253
  614SOL     OW 2740   2.836   6.406   6.195
  614SOL    HW1 2741   2.866   6.370   6.107
  614SOL    HW2 2742   2.742   6.378   6.212
  615SOL     OW 2743   0.550   4.883   2.722
  615SOL    HW1 2744   0.541   4.981   2.734
  615SOL    HW2 2745   0.580   4.863   2.628
  616SOL     OW 2746   5.852   2.644   3.618
  616SOL    HW1 2747   5.949   2.666   3.610
  616SOL    HW2 2748   5.841   2.549   3.646
  617SOL     OW 2749   3.037   6.572   5.822
  617SOL    HW1 2750   2.966   6.568   5.892
  617SOL    HW2 2751   3.114   6.514   5.849
  618SOL     OW 2752   1.783   1.139   2.878
  618SOL    HW1 2753   1.802   1.233   2.906
  618SOL    HW2 2754   1.839   1.116   2.799
  619SOL     OW 2755   0.894   1.993   6.760
  619SOL    HW1 2756   0.854   2.084   6.764
  619SOL    HW2 2757   0.903   1.965   6.664
  620SOL     OW 2758   4.304   3.634   1.298
  620SOL    HW1 2759   4.322   3.658   1.393
  620SOL    HW2 2760   4.269   3.714   1.249
  621SOL     OW 2761   0.376   5.464   1.115
  621SOL    HW1 2762   0.361   5.453   1.017
  621SOL    HW2 2763   0.394   5.374   1.156
  622SOL     OW 2764   0.899   0.703   6.846
  622SOL    HW1 2765   0.896   0.788   6.897
  622SOL    HW2 2766   0.992   0.685   6.814
  623SOL     OW 2767   0.399   4.942   5.940
  623SOL    HW1 2768   0.335   4.889   5.994
  623SOL    HW2 2769   0.448   4.881   5.877
  624SOL     OW 2770   1.187   1.865   0.833
  624SOL    HW1 2771   1.152   1.944   0.783
  624SOL    HW2 2772   1.159   1.870   0.929
  625SOL     OW 2773   1.662   1.385   2.553
  625SOL    HW1 2774   1.573   1.422   2.579
  625SOL    HW2 2775   1.723   1.460   2.529
  626SOL     OW 2776   3.372   6.816   4.745
  626SOL    HW1 2777   3.275   6.795   4.753
  626SOL    HW2 2778   3.389   6.909   4.777
  627SOL     OW 2779   5.466   0.819   0.027
  627SOL    HW1 2780   5.465   0.919   0.021
  627SOL    HW2 2781   5.560   0.787   0.038
  628SOL     OW 2782   5.427   3.990   3.461
  628SOL    HW1 2783   5.500   4.058   3.448
  628SOL    HW2 2784   5.468   3.899   3.467
  629SOL     OW 2785   1.768   6.970   0.591
  629SOL    HW1 2786   1.681   7.019   0.597
  629SOL    HW2 2787   1.825   6.994   0.669
  630SOL     OW 2788   3.272   1.875   1.434
  630SOL    HW1 2789   3.211   1.916   1.367
  630SOL    HW2 2790   3.365   1.909   1.421
  631SOL     OW 2791   2.225   6.822   4.813
  631SOL    HW1 2792   2.209   6.881   4.734
  631SOL    HW2 2793   2.164   6.744   4.811
  632SOL     OW 2794   2.408   0.052   0.847
  632SOL    HW1 2795   2.353   0.127   0.882
  632SOL    HW2 2796   2.347   7.000   0.815
  633SOL     OW 2797   2.293   6.560   5.429
  633SOL    HW1 2798   2.372   6.498   5.430
  633SOL    HW2 2799   2.305   6.631   5.498
  634SOL     OW 2800   2.971   5.683   2.010
  634SOL    HW1 2801   3.017   5.743   2.075
  634SOL    HW2 2802   2.959   5.592   2.051
  635SOL     OW 2803   2.887   0.518   2.585
  635SOL    HW1 2804   2.927   0.550   2.672
  635SOL    HW2 2805   2.805   0.570   2.565
  636SOL     OW 2806   5.060   5.829   0.258
  636SOL    HW1 2807   4.997   5.815   0.335
  636SOL    HW2 2808   5.102   5.742   0.233
  637SOL     OW 2809   5.424   4.580   0.234
  637SOL    HW1 2810   5.371   4.661   0.208
  637SOL    HW2 2811   5.397   4.502   0.178
  638SOL     OW 2812   5.261   0.888   2.559
  638SOL    HW1 2813   5.199   0.813   2.583
  638SOL    HW2 2814   5.335   0.852   2.502
  639SOL     OW 2815   4.750   4.155   2.615
  639SOL    HW1 2816   4.829   4.215   2.620
  639SOL    HW2 2817   4.776   4.063   2.645
  640SOL     OW 2818   2.460   4.057   5.548
  640SOL    HW1 2819   2.496   4.074   5.640
  640SOL    HW2 2820   2.533   4.067   5.481
  641SOL     OW 2821   0.123   5.931   5.868
  641SOL    HW1 2822   0.033   5.912   5.907
  641SOL    HW2 2823   0.113   5.983   5.784
  642SOL     OW 2824   0.943   4.678   6.026
  642SOL    HW1 2825   0.942   4.679   5.926
  642SOL    HW2 2826   0.993   4.758   6.059
  643SOL     OW 2827   6.205   6.040   5.039
  643SOL    HW1 2828   6.257   5.977   5.097
  643SOL    HW2 2829   6.141   6.092   5.096
  644SOL     OW 2830   2.614   5.709   2.108
  644SOL    HW1 2831   2.672   5.780   2.148
  644SOL    HW2 2832   2.538   5.690   2.170
  645SOL     OW 2833   6.406   3.238   3.178
  645SOL    HW1 2834   6.354   3.257   3.095
  645SOL    HW2 2835   6.343   3.229   3.256
  646SOL     OW 2836   1.485   2.102   4.456
  646SOL    HW1 2837   1.419   2.162   4.410
  646SOL    HW2 2838   1.541   2.156   4.519
  647SOL     OW 2839   5.415   3.080   0.213
  647SOL    HW1 2840   5.323   3.104   0.180
  647SOL    HW2 2841   5.424   3.110   0.308
  648SOL     OW 2842   4.833   1.914   3.706
  648SOL    HW1 2843   4.877   1.866   3.630
  648SOL    HW2 2844   4.759   1.972   3.670
  649SOL     OW 2845   4.378   4.574   2.029
  649SOL    HW1 2846   4.427   4.488   2.034
  649SOL    HW2 2847   4.436   4.648   2.063
  650SOL     OW 2848   5.030   3.399   0.905
  650SOL    HW1 2849   4.984   3.442   0.982
  650SOL    HW2 2850   5.127   3.420   0.908
  651SOL     OW 2851   0.862   5.893   6.236
  651SOL    HW1 2852   0.765   5.913   6.253
  651SOL    HW2 2853   0.871   5.837   6.154
  652SOL     OW 2854   5.129   1.607   2.382
  652SOL    HW1 2855   5.182   1.532   2.420
  652SOL    HW2 2856   5.180   1.649   2.307
  653SOL     OW 2857   3.428   4.897   3.330
  653SOL    HW1 2858   3.432   4.934   3.237
  653SOL    HW2 2859   3.333   4.888   3.360
  654SOL     OW 2860   6.296   5.233   6.755
  654SOL    HW1 2861   6.326   5.276   6.840
  654SOL    HW2 2862   6.292   5.134   6.768
  655SOL     OW 2863   6.900   1.353   6.739
  655SOL    HW1 2864   6.839   1.352   6.659
  655SOL    HW2 2865   6.884   1.436   6.791
  656SOL     OW 2866   2.910   6.046   1.486
  656SOL    HW1 2867   2.848   6.101   1.431
  656SOL    HW2 2868   2.873   5.953   1.496
  657SOL     OW 2869   3.994   1.169   6.324
  657SOL    HW1 2870   4.081   1.218   6.326
  657SOL    HW2 2871   4.008   1.075   6.354
  658SOL     OW 2872   3.773   4.955   5.821
  658SOL    HW1 2873   3.712   4.964   5.742
  658SOL    HW2 2874   3.828   4.872   5.812
  659SOL     OW 2875   3.104   0.759   6.152
  659SOL    HW1 2876   3.127   0.788   6.246
  659SOL    HW2 2877   3.173   0.796   6.089
  660SOL     OW 2878   3.467   5.930   3.314
  660SOL    HW1 2879   3.520   5.888   3.240
  660SOL    HW2 2880   3.420   6.011   3.279
  661SOL     OW 2881   5.689   5.789   2.859
  661SOL    HW1 2882   5.722   5.780   2.765
  661SOL    HW2 2883   5.705   5.883   2.890
  662SOL     OW 2884   3.638   1.338   0.736
  662SOL    HW1 2885   3.723   1.357   0.785
  662SOL    HW2 2886   3.627   1.239   0.725
  663SOL     OW 2887   2.058   4.740   4.710
  663SOL    HW1 2888   2.106   4.793   4.640
  663SOL    HW2 2889   2.086   4.644   4.704
  664SOL     OW 2890   5.941   0.772   6.497
  664SOL    HW1 2891   5.950   0.867   6.466
  664SOL    HW2 2892   6.013   0.752   6.564
  665SOL     OW 2893   1.763   4.321   2.329
  665SOL    HW1 2894   1.677   4.338   2.377
  665SOL    HW2 2895   1.822   4.401   2.336
  666SOL     OW 2896   4.375   1.365   0.910
  666SOL    HW1 2897   4.318   1.447   0.916
  666SOL    HW2 2898   4.349   1.300   0.981
  667SOL     OW 2899   1.314   6.826   2.209
  667SOL    HW1 2900   1.223   6.797   2.179
  667SOL    HW2 2901   1.306   6.895   2.280
  668SOL     OW 2902   5.226   3.763   0.682
  668SOL    HW1 2903   5.287   3.793   0.608
  668SOL    HW2 2904   5.270   3.688   0.732
  669SOL     OW 2905   4.897   1.708   2.481
  669SOL    HW1 2906   4.833   1.658   2.421
  669SOL    HW2 2907   4.989   1.671   2.469
  670SOL     OW 2908   3.054   2.225   3.212
  670SOL    HW1 2909   3.092   2.196   3.301
  670SOL    HW2 2910   3.013   2.316   3.222
  671SOL     OW 2911   2.805   6.411   1.784
  671SOL    HW1 2912   2.708   6.423   1.805
  671SOL    HW2 2913   2.816   6.387   1.688
  672SOL     OW 2914   1.622   6.692   2.597
  672SOL    HW1 2915   1.584   6.689   2.505
  672SOL    HW2 2916   1.552   6.666   2.663
  673SOL     OW 2917   5.828   6.714   0.751
  673SOL    HW1 2918   5.749   6.716   0.690
  673SOL    HW2 2919   5.898   6.777   0.718
  674SOL     OW 2920   5.892   0.760   3.762
  674SOL    HW1 2921   5.815   0.823   3.768
  674SOL    HW2 2922   5.860   0.666   3.779
  675SOL     OW 2923   0.361   3.714   3.106
  675SOL    HW1 2924   0.307   3.693   3.187
  675SOL    HW2 2925   0.361   3.812   3.090
  676SOL     OW 2926   2.773   6.581   5.957
  676SOL    HW1 2927   2.748   6.486   5.937
  676SOL    HW2 2928   2.698   6.641   5.932
  677SOL     OW 2929   5.521   1.778   0.904
  677SOL    HW1 2930   5.536   1.683   0.929
  677SOL    HW2 2931   5.545   1.837   0.981
  678SOL     OW 2932   0.818   5.173   3.740
  678SOL    HW1 2933   0.888   5.105   3.714
  678SOL    HW2 2934   0.854   5.232   3.812
  679SOL     OW 2935   4.530   2.103   5.247
  679SOL    HW1 2936   4.465   2.036   5.210
  679SOL    HW2 2937   4.623   2.068   5.236
  680SOL     OW 2938   5.984   6.537   4.178
  680SOL    HW1 2939   5.928   6.559   4.098
  680SOL    HW2 2940   5.967   6.442   4.205
  681SOL     OW 2941   4.595   4.586   2.676
  681SOL    HW1 2942   4.668   4.642   2.715
  681SOL    HW2 2943   4.518   4.582   2.741
  682SOL     OW 2944   0.399   1.248   2.802
  682SOL    HW1 2945   0.469   1.177   2.806
  682SOL    HW2 2946   0.401   1.301   2.886
  683SOL     OW 2947   3.433   4.214   1.513
  683SOL    HW1 2948   3.464   4.281   1.581
  683SOL    HW2 2949   3.486   4.225   1.429
  684SOL     OW 2950   6.523   1.273   5.536
  684SOL    HW1 2951   6.442   1.217   5.518
  684SOL    HW2 2952   6.538   1.281   5.634
  685SOL     OW 2953   3.400   0.102   2.549
  685SOL    HW1 2954   3.361   0.073   2.637
  685SOL    HW2 2955   3.471   0.171   2.566
  686SOL     OW 2956   4.163   0.214   5.302
  686SOL    HW1 2957   4.139   0.215   5.205
  686SOL    HW2 2958   4.183   0.307   5.333
  687SOL     OW 2959   0.379   1.829   3.415
  687SOL    HW1 2960   0.283   1.809   3.435
  687SOL    HW2 2961   0.438   1.770   3.471
  688SOL     OW 2962   6.040   1.607   6.956
  688SOL    HW1 2963   5.983   1.554   7.019
  688SOL    HW2 2964   6.053   1.699   6.992
  689SOL     OW 2965   1.708   5.636   6.304
  689SOL    HW1 2966   1.763   5.581   6.241
  689SOL    HW2 2967   1.691   5.584   6.388
  690SOL     OW 2968   5.383   3.811   3.188
  690SOL    HW1 2969   5.315   3.860   3.134
  690SOL    HW2 2970   5.342   3.779   3.273
  691SOL     OW 2971   6.063   1.438   1.062
  691SOL    HW1 2972   5.982   1.434   1.121
  691SOL    HW2 2973   6.041   1.399   0.973
  692SOL     OW 2974   1.551   0.170   4.672
  692SOL    HW1 2975   1.634   0.217   4.644
  692SOL    HW2 2976   1.480   0.183   4.602
  693SOL     OW 2977   5.628   6.051   3.593
  693SOL    HW1 2978   5.684   5.970   3.606
  693SOL    HW2 2979   5.681   6.122   3.547
  694SOL     OW 2980   4.759   6.058   5.356
  694SOL    HW1 2981   4.811   6.127   5.306
  694SOL    HW2 2982   4.783   5.967   5.321
  695SOL     OW 2983   4.565   6.891   3.987
  695SOL    HW1 2984   4.470   6.915   4.005
  695SOL    HW2 2985   4.625   6.948   4.044
  696SOL     OW 2986   5.671   4.128   2.803
  696SOL    HW1 2987   5.639   4.043   2.762
  696SOL    HW2 2988   5.703   4.111   2.896
  697SOL     OW 2989   1.133   6.468   2.243
  697SOL    HW1 2990   1.156   6.464   2.146
  697SOL    HW2 2991   1.144   6.377   2.283
  698SOL     OW 2992   5.625   6.506   6.639
  698SOL    HW1 2993   5.595   6.485   6.732
  698SOL    HW2 2994   5.628   6.605   6.627
  699SOL     OW 2995   3.158   3.201   1.229
  699SOL    HW1 2996   3.159   3.297   1.199
  699SOL    HW2 2997   3.064   3.172   1.243
  700SOL     OW 2998   4.017   6.973   4.318
  700SOL    HW1 2999   4.098   7.003   4.369
  700SOL    HW2 3000   4.021   7.010   4.225
  701SOL     OW 3001   4.983   5.088   1.452
  701SOL    HW1 3002   4.897   5.069   1.406
  701SOL    HW2 3003   4.969   5.087   1.551
  702SOL     OW 3004   3.793   0.854   4.569
  702SOL    HW1 3005   3.863   0.915   4.531
  702SOL    HW2 3006   3.837   0.777   4.616
  703SOL     OW 3007   3.049   1.986   6.612
  703SOL    HW1 3008   3.066   2.031   6.699
  703SOL    HW2 3009   3.133   1.983   6.558
  704SOL     OW 3010   2.676   1.943   5.477
  704SOL    HW1 3011   2.769   1.964   5.505
  704SOL    HW2 3012   2.667   1.845   5.461
  705SOL     OW 3013   0.195   6.801   5.241
  705SOL    HW1 3014   0.270   6.784   5.305
  705SOL    HW2 3015   0.136   6.720   5.237
  706SOL     OW 3016   4.040   1.446   5.078
  706SOL    HW1 3017   4.128   1.399   5.091
  706SOL    HW2 3018   4.049   1.541   5.108
  707SOL     OW 3019   3.223   5.227   4.234
  707SOL    HW1 3020   3.212   5.144   4.289
  707SOL    HW2 3021   3.283   5.208   4.156
  708SOL     OW 3022   4.857   5.980   3.929
  708SOL    HW1 3023   4.844   5.933   3.841
  708SOL    HW2 3024   4.782   6.045   3.943
  709SOL     OW 3025   2.308   0.267   1.000
  709SOL    HW1 3026   2.262   0.244   1.086
  709SOL    HW2 3027   2.239   0.299   0.934
  710SOL     OW 3028   4.918   3.178   1.883
  710SOL    HW1 3029   4.967   3.125   1.815
  710SOL    HW2 3030   4.844   3.124   1.922
  711SOL     OW 3031   6.782   2.054   6.949
  711SOL    HW1 3032   6.764   2.149   6.975
  711SOL    HW2 3033   6.879   2.033   6.962
  712SOL     OW 3034   4.905   3.968   6.938
  712SOL    HW1 3035   4.845   3.896   6.903
  712SOL    HW2 3036   4.871   4.001   0.004
  713SOL     OW 3037   4.308   3.476   5.409
  713SOL    HW1 3038   4.350   3.506   5.323
  713SOL    HW2 3039   4.281   3.380   5.401
  714SOL     OW 3040   5.373   6.065   3.072
  714SOL    HW1 3041   5.352   6.002   2.998
  714SOL    HW2 3042   5.473   6.076   3.079
  715SOL     OW 3043   6.461   4.886   5.520
  715SOL    HW1 3044   6.546   4.832   5.527
  715SOL    HW2 3045   6.393   4.834   5.468
  716SOL     OW 3046   2.405   1.956   3.047
  716SOL    HW1 3047   2.403   1.988   3.142
  716SOL    HW2 3048   2.343   2.010   2.991
  717SOL     OW 3049   5.089   5.298   4.349
  717SOL    HW1 3050   5.111   5.291   4.446
  717SOL    HW2 3051   5.020   5.230   4.325
  718SOL     OW 3052   5.083   2.472   5.498
  718SOL    HW1 3053   5.049   2.549   5.443
  718SOL    HW2 3054   5.072   2.493   5.595
  719SOL     OW 3055   4.868   6.753   3.892
  719SOL    HW1 3056   4.938   6.741   3.821
  719SOL    HW2 3057   4.814   6.669   3.900
  720SOL     OW 3058   2.241   0.819   0.705
  720SOL    HW1 3059   2.168   0.771   0.755
  720SOL    HW2 3060   2.221   0.917   0.702
  721SOL     OW 3061   6.884   2.239   2.450
  721SOL    HW1 3062   6.984   2.245   2.450
  721SOL    HW2 3063   6.856   2.147   2.420
  722SOL     OW 3064   5.128   6.112   1.000
  722SOL    HW1 3065   5.157   6.095   0.906
  722SOL    HW2 3066   5.029   6.096   1.008
  723SOL     OW 3067   2.360   0.058   4.433
  723SOL    HW1 3068   2.359   7.010   4.361
  723SOL    HW2 3069   2.414   0.025   4.510
  724SOL     OW 3070   1.239   2.082   3.915
  724SOL    HW1 3071   1.321   2.135   3.896
  724SOL    HW2 3072   1.192   2.059   3.829
  725SOL     OW 3073   1.534   4.318   2.703
  725SOL    HW1 3074   1.589   4.238   2.726
  725SOL    HW2 3075   1.535   4.383   2.779
  726SOL     OW 3076   1.603   3.510   0.764
  726SOL    HW1 3077   1.552   3.429   0.793
  726SOL    HW2 3078   1.654   3.546   0.842
  727SOL     OW 3079   3.967   5.234   4.723
  727SOL    HW1 3080   3.901   5.220   4.797
  727SOL    HW2 3081   4.042   5.168   4.732
  728SOL     OW 3082   6.536   3.119   3.960
  728SOL    HW1 3083   6.593   3.046   3.923
  728SOL    HW2 3084   6.482   3.084   4.037
  729SOL     OW 3085   0.462   3.987   0.914
  729SOL    HW1 3086   0.469   4.086   0.931
  729SOL    HW2 3087   0.442   3.940   0.999
  730SOL     OW 3088   3.677   0.811   3.157
  730SOL    HW1 3089   3.580   0.786   3.153
  730SOL    HW2 3090   3.721   0.763   3.233
  731SOL     OW 3091   4.566   5.334   5.109
  731SOL    HW1 3092   4.514   5.414   5.139
  731SOL    HW2 3093   4.659   5.362   5.085
  732SOL     OW 3094   3.745   1.174   5.358
  732SOL    HW1 3095   3.666   1.214   5.404
  732SOL    HW2 3096   3.733   1.182   5.259
  733SOL     OW 3097   6.389   5.876   3.088
  733SOL    HW1 3098   6.303   5.907   3.049
  733SOL    HW2 3099   6.442   5.828   3.017
  734SOL     OW 3100   6.192   6.829   2.517
  734SOL    HW1 3101   6.129   6.761   2.555
  734SOL    HW2 3102   6.144   6.916   2.506
  735SOL     OW 3103   4.709   0.061   2.463
  735SOL    HW1 3104   4.779   0.063   2.392
  735SOL    HW2 3105   4.618   0.062   2.420
  736SOL     OW 3106   2.034   1.483   3.689
  736SOL    HW1 3107   2.076   1.423   3.621
  736SOL    HW2 3108   1.935   1.467   3.691
  737SOL     OW 3109   3.511   1.053   5.806
  737SOL    HW1 3110   3.505   0.974   5.867
  737SOL    HW2 3111   3.419   1.085   5.783
  738SOL     OW 3112   2.523   4.564   0.210
  738SOL    HW1 3113   2.607   4.510   0.213
  738SOL    HW2 3114   2.450   4.515   0.259
  739SOL     OW 3115   2.908   0.011   3.933
  739SOL    HW1 3116   2.995   6.988   3.953
  739SOL    HW2 3117   2.921   0.080   3.862
  740SOL     OW 3118   4.963   3.270   2.783
  740SOL    HW1 3119   4.914   3.217   2.852
  740SOL    HW2 3120   5.021   3.209   2.729
  741SOL     OW 3121   2.937   0.570   2.901
  741SOL    HW1 3122   2.885   0.485   2.905
  741SOL    HW2 3123   3.022   0.556   2.851
  742SOL     OW 3124   2.152   6.149   2.069
  742SOL    HW1 3125   2.198   6.147   1.980
  742SOL    HW2 3126   2.107   6.061   2.085
  743SOL     OW 3127   0.398   6.833   3.204
  743SOL    HW1 3128   0.479   6.787   3.168
  743SOL    HW2 3129   0.382   6.917   3.152
  744SOL     OW 3130   5.122   1.916   6.919
  744SOL    HW1 3131   5.036   1.868   6.900
  744SOL    HW2 3132   5.173   1.865   6.988
  745SOL     OW 3133   1.935   0.052   4.714
  745SOL    HW1 3134   1.994   0.133   4.712
  745SOL    HW2 3135   1.980   6.999   4.665
  746SOL     OW 3136   0.277   4.802   5.192
  746SOL    HW1 3137   0.260   4.875   5.125
  746SOL    HW2 3138   0.359   4.752   5.166
  747SOL     OW 3139   4.689   5.836   2.667
  747SOL    HW1 3140   4.592   5.820   2.685
  747SOL    HW2 3141   4.708   5.934   2.672
  748SOL     OW 3142   5.312   5.186   1.685
  748SOL    HW1 3143   5.339   5.170   1.780
  748SOL    HW2 3144   5.213   5.194   1.679
  749SOL     OW 3145   4.833   4.034   4.545
  749SOL    HW1 3146   4.861   3.962   4.609
  749SOL    HW2 3147   4.912   4.094   4.527
  750SOL     OW 3148   2.505   2.070   2.222
  750SOL    HW1 3149   2.596   2.074   2.181
  750SOL    HW2 3150   2.465   2.162   2.222
  751SOL     OW 3151   3.433   0.628   0.658
  751SOL    HW1 3152   3.422   0.621   0.559
  751SOL    HW2 3153   3.506   0.567   0.688
  752SOL     OW 3154   3.631   2.603   5.447
  752SOL    HW1 3155   3.578   2.665   5.390
  752SOL    HW2 3156   3.570   2.553   5.508
  753SOL     OW 3157   3.631   3.560   4.333
  753SOL    HW1 3158   3.731   3.552   4.338
  753SOL    HW2 3159   3.593   3.476   4.295
  754SOL     OW 3160   5.722   0.702   0.065
  754SOL    HW1 3161   5.822   0.706   0.060
  754SOL    HW2 3162   5.690   0.618   0.022
  755SOL     OW 3163   4.094   4.291   5.265
  755SOL    HW1 3164   4.165   4.333   5.207
  755SOL    HW2 3165   4.017   4.355   5.273
  756SOL     OW 3166   2.402   5.315   6.249
  756SOL    HW1 3167   2.403   5.348   6.344
  756SOL    HW2 3168   2.307   5.302   6.220
  757SOL     OW 3169   2.415   6.373   2.504
  757SOL    HW1 3170   2.423   6.394   2.407
  757SOL    HW2 3171   2.319   6.366   2.529
  758SOL     OW 3172   4.600   0.609   4.423
  758SOL    HW1 3173   4.649   0.579   4.341
  758SOL    HW2 3174   4.551   0.694   4.404
  759SOL     OW 3175   0.841   3.563   3.694
  759SOL    HW1 3176   0.922   3.507   3.678
  759SOL    HW2 3177   0.765   3.528   3.641
  760SOL     OW 3178   6.684   5.259   3.249
  760SOL    HW1 3179   6.598   5.242   3.201
  760SOL    HW2 3180   6.742   5.318   3.193
  761SOL     OW 3181   4.041   4.477   6.282
  761SOL    HW1 3182   3.982   4.545   6.326
  761SOL    HW2 3183   4.135   4.490   6.313
  762SOL     OW 3184   3.166   6.041   3.420
  762SOL    HW1 3185   3.182   6.136   3.396
  762SOL    HW2 3186   3.219   6.017   3.502
  763SOL     OW 3187   5.525   0.700   0.376
  763SOL    HW1 3188   5.502   0.767   0.447
  763SOL    HW2 3189   5.617   0.720   0.340
  764SOL     OW 3190   5.313   6.575   5.803
  764SOL    HW1 3191   5.314   6.560   5.704
  764SOL    HW2 3192   5.218   6.575   5.835
  765SOL     OW 3193   0.043   0.036   0.681
  765SOL    HW1 3194   0.050   0.136   0.679
  765SOL    HW2 3195   0.037   0.006   0.776
  766SOL     OW 3196   2.609   2.066   4.444
  766SOL    HW1 3197   2.636   2.056   4.540
  766SOL    HW2 3198   2.659   2.142   4.403
  767SOL     OW 3199   6.614   4.998   4.624
  767SOL    HW1 3200   6.653   4.971   4.535
  767SOL    HW2 3201   6.688   5.026   4.685
  768SOL     OW 3202   1.634   5.510   2.803
  768SOL    HW1 3203   1.614   5.450   2.880
  768SOL    HW2 3204   1.608   5.604   2.827
  769SOL     OW 3205   2.959   2.003   5.478
  769SOL    HW1 3206   3.029   2.073   5.485
  769SOL    HW2 3207   2.927   1.997   5.383
  770SOL     OW 3208   1.039   4.975   5.884
  770SOL    HW1 3209   1.100   4.919   5.940
  770SOL    HW2 3210   1.092   5.045   5.836
  771SOL     OW 3211   1.555   4.929   2.862
  771SOL    HW1 3212   1.574   4.934   2.960
  771SOL    HW2 3213   1.641   4.922   2.812
  772SOL     OW 3214   5.994   3.968   0.357
  772SOL    HW1 3215   5.965   4.047   0.410
  772SOL    HW2 3216   6.069   3.922   0.404
  773SOL     OW 3217   1.638   4.179   3.743
  773SOL    HW1 3218   1.705   4.181   3.817
  773SOL    HW2 3219   1.581   4.097   3.752
  774SOL     OW 3220   2.182   0.847   3.251
  774SOL    HW1 3221   2.252   0.776   3.255
  774SOL    HW2 3222   2.136   0.844   3.162
  775SOL     OW 3223   1.137   4.452   2.898
  775SOL    HW1 3224   1.042   4.421   2.901
  775SOL    HW2 3225   1.164   4.465   2.802
  776SOL     OW 3226   2.593   5.350   5.887
  776SOL    HW1 3227   2.613   5.448   5.892
  776SOL    HW2 3228   2.495   5.336   5.903
  777SOL     OW 3229   2.503   3.830   6.560
  777SOL    HW1 3230   2.495   3.901   6.491
  777SOL    HW2 3231   2.413   3.796   6.585
  778SOL     OW 3232   3.100   6.248   6.888
  778SOL    HW1 3233   3.133   6.167   6.937
  778SOL    HW2 3234   3.065   6.315   6.954
  779SOL     OW 3235   6.866   2.418   3.175
  779SOL    HW1 3236   6.899   2.344   3.116
  779SOL    HW2 3237   6.896   2.402   3.269
  780SOL     OW 3238   7.010   2.276   4.664
  780SOL    HW1 3239   0.080   2.249   4.635
  780SOL    HW2 3240   6.964   2.324   4.589
  781SOL     OW 3241   6.959   4.697   6.956
  781SOL    HW1 3242   7.008   4.627   7.008
  781SOL    HW2 3243   6.862   4.696   6.983
  782SOL     OW 3244   1.803   3.675   4.704
  782SOL    HW1 3245   1.708   3.675   4.673
  782SOL    HW2 3246   1.855   3.743   4.653
  783SOL     OW 3247   6.505   4.815   6.785
  783SOL    HW1 3248   6.498   4.715   6.787
  783SOL    HW2 3249   6.422   4.854   6.744
  784SOL     OW 3250   2.352   5.908   0.696
  784SOL    HW1 3251   2.344   5.809   0.690
  784SOL    HW2 3252   2.274   5.951   0.650
  785SOL     OW 3253   0.801   0.883   4.022
  785SOL    HW1 3254   0.886   0.838   4.045
  785SOL    HW2 3255   0.725   0.818   4.028
  786SOL     OW 3256   6.027   0.854   4.012
  786SOL    HW1 3257   6.035   0.953   4.023
  786SOL    HW2 3258   5.997   0.834   3.919
  787SOL     OW 3259   2.191   6.973   1.090
  787SOL    HW1 3260   2.248   7.005   1.165
  787SOL    HW2 3261   2.247   6.925   1.022
  788SOL     OW 3262   1.778   2.284   2.065
  788SOL    HW1 3263   1.863   2.323   2.030
  788SOL    HW2 3264   1.712   2.274   1.991
  789SOL     OW 3265   4.190   4.696   2.772
  789SOL    HW1 3266   4.252   4.618   2.779
  789SOL    HW2 3267   4.148   4.696   2.681
  790SOL     OW 3268   0.684   2.714   2.094
  790SOL    HW1 3269   0.730   2.787   2.044
  790SOL    HW2 3270   0.595   2.747   2.127
  791SOL     OW 3271   2.750   6.244   3.930
  791SOL    HW1 3272   2.674   6.283   3.981
  791SOL    HW2 3273   2.794   6.315   3.876
  792SOL     OW 3274   1.729   0.186   7.014
  792SOL    HW1 3275   1.709   0.131   0.074
  792SOL    HW2 3276   1.781   0.130   6.950
  793SOL     OW 3277   2.561   6.327   4.100
  793SOL    HW1 3278   2.524   6.402   4.044
  793SOL    HW2 3279   2.506   6.318   4.183
  794SOL     OW 3280   2.893   3.377   2.576
  794SOL    HW1 3281   2.795   3.395   2.569
  794SOL    HW2 3282   2.911   3.318   2.654
  795SOL     OW 3283   4.063   1.007   5.949
  795SOL    HW1 3284   4.135   1.052   6.001
  795SOL    HW2 3285   4.104   0.951   5.877
  796SOL     OW 3286   0.386   2.399   0.623
  796SOL    HW1 3287   0.428   2.424   0.710
  796SOL    HW2 3288   0.364   2.481   0.571
  797SOL     OW 3289   4.272   0.246   1.063
  797SOL    HW1 3290   4.256   0.291   0.975
  797SOL    HW2 3291   4.369   0.229   1.075
  798SOL     OW 3292   5.319   5.712   1.250
  798SOL    HW1 3293   5.240   5.652   1.258
  798SOL    HW2 3294   5.311   5.768   1.168
  799SOL     OW 3295   2.553   2.185   5.427
  799SOL    HW1 3296   2.599   2.097   5.435
  799SOL    HW2 3297   2.618   2.259   5.447
  800SOL     OW 3298   5.580   2.914   3.214
  800SOL    HW1 3299   5.628   2.883   3.296
  800SOL    HW2 3300   5.631   2.887   3.132
  801SOL     OW 3301   1.981   6.015   6.384
  801SOL    HW1 3302   1.980   6.029   6.285
  801SOL    HW2 3303   1.941   5.926   6.406
  802SOL     OW 3304   4.878   1.923   6.506
  802SOL    HW1 3305   4.831   1.918   6.418
  802SOL    HW2 3306   4.812   1.906   6.580
  803SOL     OW 3307   2.407   1.868   4.483
  803SOL    HW1 3308   2.477   1.937   4.464
  803SOL    HW2 3309   2.404   1.849   4.581
  804SOL     OW 3310   5.271   0.614   3.000
  804SOL    HW1 3311   5.219   0.697   2.984
  804SOL    HW2 3312   5.234   0.566   3.080
  805SOL     OW 3313   3.626   0.560   3.882
  805SOL    HW1 3314   3.589   0.566   3.974
  805SOL    HW2 3315   3.711   0.613   3.877
  806SOL     OW 3316   2.648   6.072   5.395
  806SOL    HW1 3317   2.623   6.169   5.385
  806SOL    HW2 3318   2.623   6.041   5.487
  807SOL     OW 3319   1.198   6.325   5.789
  807SOL    HW1 3320   1.222   6.316   5.692
  807SOL    HW2 3321   1.158   6.240   5.822
  808SOL     OW 3322   5.423   2.539   6.094
  808SOL    HW1 3323   5.381   2.487   6.019
  808SOL    HW2 3324   5.402   2.636   6.085
  809SOL     OW 3325   2.708   5.193   0.016
  809SOL    HW1 3326   2.773   5.123   0.045
  809SOL    HW2 3327   2.692   5.185   6.940
  810SOL     OW 3328   3.515   3.444   0.228
  810SOL    HW1 3329   3.506   3.387   0.146
  810SOL    HW2 3330   3.433   3.502   0.237
  811SOL     OW 3331   6.298   5.162   4.691
  811SOL    HW1 3332   6.330   5.203   4.777
  811SOL    HW2 3333   6.312   5.063   4.693
  812SOL     OW 3334   0.634   3.766   1.798
  812SOL    HW1 3335   0.606   3.671   1.781
  812SOL    HW2 3336   0.647   3.813   1.710
  813SOL     OW 3337   1.523   1.816   5.439
  813SOL    HW1 3338   1.604   1.870   5.418
  813SOL    HW2 3339   1.546   1.746   5.505
  814SOL     OW 3340   0.543   4.627   2.523
  814SOL    HW1 3341   0.584   4.597   2.610
  814SOL    HW2 3342   0.490   4.710   2.539
  815SOL     OW 3343   4.247   1.724   4.782
  815SOL    HW1 3344   4.219   1.801   4.724
  815SOL    HW2 3345   4.280   1.759   4.869
  816SOL     OW 3346   5.928   4.225   6.774
  816SOL    HW1 3347   5.875   4.310   6.765
  816SOL    HW2 3348   5.871   4.156   6.818
  817SOL     OW 3349   0.332   5.221   6.964
  817SOL    HW1 3350   0.259   5.280   6.999
  817SOL    HW2 3351   0.368   5.165   0.017
  818SOL     OW 3352   6.972   2.555   5.131
  818SOL    HW1 3353   6.993   2.504   5.047
  818SOL    HW2 3354   0.004   2.639   5.134
  819SOL     OW 3355   4.699   3.171   1.659
  819SOL    HW1 3356   4.730   3.105   1.590
  819SOL    HW2 3357   4.643   3.124   1.727
  820SOL     OW 3358   2.374   1.805   5.291
  820SOL    HW1 3359   2.407   1.818   5.197
  820SOL    HW2 3360   2.450   1.779   5.350
  821SOL     OW 3361   5.097   3.519   6.338
  821SOL    HW1 3362   5.003   3.521   6.373
  821SOL    HW2 3363   5.155   3.574   6.397
  822SOL     OW 3364   0.529   4.708   3.143
  822SOL    HW1 3365   0.463   4.739   3.075
  822SOL    HW2 3366   0.487   4.714   3.234
  823SOL     OW 3367   1.521   3.168   4.947
  823SOL    HW1 3368   1.471   3.222   4.879
  823SOL    HW2 3369   1.460   3.144   5.022
  824SOL     OW 3370   4.894   0.371   6.430
  824SOL    HW1 3371   4.836   0.453   6.429
  824SOL    HW2 3372   4.990   0.398   6.438
  825SOL     OW 3373   5.955   5.949   0.964
  825SOL    HW1 3374   6.051   5.926   0.950
  825SOL    HW2 3375   5.937   5.964   1.061
  826SOL     OW 3376   3.631   2.126   0.173
  826SOL    HW1 3377   3.718   2.165   0.143
  826SOL    HW2 3378   3.647   2.059   0.246
  827SOL     OW 3379   3.602   3.910   5.237
  827SOL    HW1 3380   3.527   3.908   5.171
  827SOL    HW2 3381   3.647   4.000   5.233
  828SOL     OW 3382   0.297   6.551   6.295
  828SOL    HW1 3383   0.245   6.492   6.356
  828SOL    HW2 3384   0.297   6.644   6.331
  829SOL     OW 3385   3.682   3.277   2.312
  829SOL    HW1 3386   3.598   3.236   2.277
  829SOL    HW2 3387   3.668   3.375   2.324
  830SOL     OW 3388   6.711   4.691   0.090
  830SOL    HW1 3389   6.631   4.749   0.076
  830SOL    HW2 3390   6.767   4.728   0.163
  831SOL     OW 3391   5.003   0.707   1.918
  831SOL    HW1 3392   4.904   0.703   1.910
  831SOL    HW2 3393   5.030   0.800   1.945
  832SOL     OW 3394   2.838   1.471   4.858
  832SOL    HW1 3395   2.911   1.435   4.916
  832SOL    HW2 3396   2.766   1.402   4.848
  833SOL     OW 3397   3.627   2.352   7.010
  833SOL    HW1 3398   3.544   2.333   0.040
  833SOL    HW2 3399   3.624   2.446   6.976
  834SOL     OW 3400   5.877   2.777   0.590
  834SOL    HW1 3401   5.807   2.822   0.644
  834SOL    HW2 3402   5.848   2.771   0.495
  835SOL     OW 3403   0.199   6.928   4.969
  835SOL    HW1 3404   0.168   7.020   4.992
  835SOL    HW2 3405   0.213   6.876   5.053
  836SOL     OW 3406   4.887   0.702   5.073
  836SOL    HW1 3407   4.916   0.767   5.002
  836SOL    HW2 3408   4.899   0.744   5.163
  837SOL     OW 3409   1.582   0.459   0.105
  837SOL    HW1 3410   1.583   0.453   0.005
  837SOL    HW2 3411   1.489   0.443   0.138
  838SOL     OW 3412   1.252   5.892   3.378
  838SOL    HW1 3413   1.318   5.967   3.377
  838SOL    HW2 3414   1.217   5.880   3.470
  839SOL     OW 3415   1.649   2.140   0.281
  839SOL    HW1 3416   1.668   2.049   0.243
  839SOL    HW2 3417   1.709   2.207   0.238
  840SOL     OW 3418   4.261   5.031   0.240
  840SOL    HW1 3419   4.277   5.114   0.185
  840SOL    HW2 3420   4.332   4.964   0.219
  841SOL     OW 3421   2.953   5.047   0.056
  841SOL    HW1 3422   3.005   5.099   0.124
  841SOL    HW2 3423   2.935   4.955   0.092
  842SOL     OW 3424   4.434   5.460   0.897
  842SOL    HW1 3425   4.521   5.485   0.940
  842SOL    HW2 3426   4.369   5.431   0.967
  843SOL     OW 3427   1.031   0.419   2.311
  843SOL    HW1 3428   1.032   0.323   2.285
  843SOL    HW2 3429   0.945   0.439   2.359
  844SOL     OW 3430   0.044   0.754   1.710
  844SOL    HW1 3431   7.007   0.823   1.666
  844SOL    HW2 3432   0.118   0.729   1.648
  845SOL     OW 3433   3.005   1.609   2.671
  845SOL    HW1 3434   2.964   1.606   2.762
  845SOL    HW2 3435   3.094   1.564   2.673
  846SOL     OW 3436   2.948   1.900   0.774
  846SOL    HW1 3437   2.920   1.815   0.817
  846SOL    HW2 3438   2.946   1.974   0.842
  847SOL     OW 3439   2.645   3.627   1.590
  847SOL    HW1 3440   2.741   3.650   1.606
  847SOL    HW2 3441   2.587   3.693   1.638
  848SOL     OW 3442   6.814   6.279   0.259
  848SOL    HW1 3443   6.896   6.332   0.279
  848SOL    HW2 3444   6.787   6.226   0.340
  849SOL     OW 3445   5.973   3.382   6.432
  849SOL    HW1 3446   6.066   3.419   6.440
  849SOL    HW2 3447   5.927   3.424   6.354
  850SOL     OW 3448   0.906   1.107   5.041
  850SOL    HW1 3449   0.959   1.191   5.028
  850SOL    HW2 3450   0.953   1.047   5.104
  851SOL     OW 3451   5.251   3.503   5.720
  851SOL    HW1 3452   5.330   3.564   5.712
  851SOL    HW2 3453   5.176   3.539   5.664
  852SOL     OW 3454   0.402   3.712   2.153
  852SOL    HW1 3455   0.498   3.690   2.137
  852SOL    HW2 3456   0.351   3.628   2.175
  853SOL     OW 3457   2.656   2.813   0.624
  853SOL    HW1 3458   2.745   2.799   0.667
  853SOL    HW2 3459   2.589   2.839   0.693
  854SOL     OW 3460   6.016   6.207   5.547
  854SOL    HW1 3461   6.023   6.124   5.491
  854SOL    HW2 3462   6.041   6.186   5.642
  855SOL     OW 3463   5.864   1.807   0.051
  855SOL    HW1 3464   5.813   1.855   0.124
  855SOL    HW2 3465   5.800   1.754   7.017
  856SOL     OW 3466   1.657   5.106   1.621
  856SOL    HW1 3467   1.700   5.088   1.533
  856SOL    HW2 3468   1.560   5.081   1.617
  857SOL     OW 3469   6.946   5.946   5.016
  857SOL    HW1 3470   6.956   5.855   4.977
  857SOL    HW2 3471   7.003   5.955   5.097
  858SOL     OW 3472   4.284   3.612   0.207
  858SOL    HW1 3473   4.382   3.600   0.223
  858SOL    HW2 3474   4.247   3.678   0.272
  859SOL     OW 3475   5.319   6.289   5.126
  859SOL    HW1 3476   5.299   6.211   5.066
  859SOL    HW2 3477   5.261   6.366   5.102
  860SOL     OW 3478   4.816   2.824   6.276
  860SOL    HW1 3479   4.890   2.794   6.214
  860SOL    HW2 3480   4.854   2.840   6.367
  861SOL     OW 3481   1.899   5.662   1.635
  861SOL    HW1 3482   1.827   5.730   1.649
  861SOL    HW2 3483   1.871   5.574   1.674
  862SOL     OW 3484   0.194   4.026   3.909
  862SOL    HW1 3485   0.116   3.966   3.894
  862SOL    HW2 3486   0.162   4.121   3.913
  863SOL     OW 3487   6.189   0.777   1.397
  863SOL    HW1 3488   6.163   0.799   1.491
  863SOL    HW2 3489   6.265   0.712   1.398
  864SOL     OW 3490   5.605   6.413   4.048
  864SOL    HW1 3491   5.526   6.467   4.078
  864SOL    HW2 3492   5.589   6.381   3.954
  865SOL     OW 3493   1.415   6.089   5.569
  865SOL    HW1 3494   1.329   6.130   5.540
  865SOL    HW2 3495   1.478   6.160   5.599
  866SOL     OW 3496   3.807   0.103   1.761
  866SOL    HW1 3497   3.867   0.115   1.840
  866SOL    HW2 3498   3.750   0.184   1.749
  867SOL     OW 3499   6.258   1.472   5.655
  867SOL    HW1 3500   6.335   1.484   5.592
  867SOL    HW2 3501   6.193   1.406   5.616
  868SOL     OW 3502   0.130   2.411   1.913
  868SOL    HW1 3503   0.052   2.468   1.889
  868SOL    HW2 3504   0.205   2.429   1.849
  869SOL     OW 3505   6.949   3.668   3.517
  869SOL    HW1 3506   7.011   3.727   3.570
  869SOL    HW2 3507   6.943   3.578   3.560
  870SOL     OW 3508   3.782   5.126   2.222
  870SOL    HW1 3509   3.724   5.063   2.170
  870SOL    HW2 3510   3.741   5.217   2.222
  871SOL     OW 3511   4.954   1.514   3.501
  871SOL    HW1 3512   4.902   1.599   3.505
  871SOL    HW2 3513   5.051   1.535   3.490
  872SOL     OW 3514   0.963   2.312   4.802
  872SOL    HW1 3515   0.947   2.409   4.784
  872SOL    HW2 3516   0.948   2.294   4.899
  873SOL     OW 3517   3.867   6.991   6.054
  873SOL    HW1 3518   3.885   6.895   6.032
  873SOL    HW2 3519   3.937   0.028   6.013
  874SOL     OW 3520   4.861   3.852   1.627
  874SOL    HW1 3521   4.907   3.932   1.665
  874SOL    HW2 3522   4.764   3.872   1.615
  875SOL     OW 3523   4.762   5.485   1.545
  875SOL    HW1 3524   4.733   5.514   1.637
  875SOL    HW2 3525   4.742   5.558   1.480
  876SOL     OW 3526   0.059   0.315   0.719
  876SOL    HW1 3527   0.145   0.308   0.670
  876SOL    HW2 3528   0.071   0.371   0.801
  877SOL     OW 3529   2.029   3.639   6.531
  877SOL    HW1 3530   1.949   3.697   6.513
  877SOL    HW2 3531   2.000   3.555   6.577
  878SOL     OW 3532   4.161   6.389   4.494
  878SOL    HW1 3533   4.205   6.471   4.456
  878SOL    HW2 3534   4.110   6.413   4.576
  879SOL     OW 3535   5.895   0.106   0.638
  879SOL    HW1 3536   5.945   0.021   0.620
  879SOL    HW2 3537   5.947   0.183   0.600
  880SOL     OW 3538   3.005   3.431   2.301
  880SOL    HW1 3539   3.069   3.502   2.332
  880SOL    HW2 3540   2.946   3.404   2.377
  881SOL     OW 3541   4.224   1.664   0.542
  881SOL    HW1 3542   4.319   1.667   0.511
  881SOL    HW2 3543   4.216   1.708   0.631
  882SOL     OW 3544   1.618   3.326   4.619
  882SOL    HW1 3545   1.589   3.263   4.546
  882SOL    HW2 3546   1.669   3.275   4.688
  883SOL     OW 3547   2.898   7.020   3.064
  883SOL    HW1 3548   2.907   0.096   3.084
  883SOL    HW2 3549   2.987   6.975   3.074
  884SOL     OW 3550   4.265   3.808   5.766
  884SOL    HW1 3551   4.247   3.752   5.846
  884SOL    HW2 3552   4.181   3.819   5.713
  885SOL     OW 3553   3.802   2.856   6.287
  885SOL    HW1 3554   3.857   2.799   6.226
  885SOL    HW2 3555   3.716   2.880   6.242
  886SOL     OW 3556   3.638   0.577   6.736
  886SOL    HW1 3557   3.607   0.647   6.800
  886SOL    HW2 3558   3.607   0.487   6.766
  887SOL     OW 3559   4.922   1.677   4.780
  887SOL    HW1 3560   4.852   1.682   4.709
  887SOL    HW2 3561   4.912   1.754   4.842
  888SOL     OW 3562   6.637   6.477   2.922
  888SOL    HW1 3563   6.715   6.513   2.870
  888SOL    HW2 3564   6.615   6.539   2.997
  889SOL     OW 3565   0.538   4.103   0.028
  889SOL    HW1 3566   0.536   4.004   0.010
  889SOL    HW2 3567   0.633   4.134   0.030
  890SOL     OW 3568   2.426   5.246   4.192
  890SOL    HW1 3569   2.366   5.198   4.256
  890SOL    HW2 3570   2.437   5.191   4.109
  891SOL     OW 3571   4.768   5.909   1.533
  891SOL    HW1 3572   4.728   5.848   1.465
  891SOL    HW2 3573   4.821   5.856   1.599
  892SOL     OW 3574   2.854   4.366   0.672
  892SOL    HW1 3575   2.793   4.443   0.688
  892SOL    HW2 3576   2.888   4.331   0.759
  893SOL     OW 3577   2.240   6.593   2.355
  893SOL    HW1 3578   2.296   6.610   2.275
  893SOL    HW2 3579   2.209   6.498   2.355
  894SOL     OW 3580   0.779   4.211   0.856
  894SOL    HW1 3581   0.816   4.268   0.782
  894SOL    HW2 3582   0.697   4.164   0.824
  895SOL     OW 3583   0.410   5.812   4.198
  895SOL    HW1 3584   0.500   5.782   4.231
  895SOL    HW2 3585   0.368   5.871   4.267
  896SOL     OW 3586   0.049   0.012   6.180
  896SOL    HW1 3587   0.017   6.947   6.141
  896SOL    HW2 3588   0.089   7.016   6.270
  897SOL     OW 3589   5.190   0.670   7.017
  897SOL    HW1 3590   5.290   0.673   0.003
  897SOL    HW2 3591   5.161   0.716   6.933
  898SOL     OW 3592   4.219   6.350   3.267
  898SOL    HW1 3593   4.307   6.354   3.315
  898SOL    HW2 3594   4.166   6.431   3.287
  899SOL     OW 3595   0.239   4.951   0.392
  899SOL    HW1 3596   0.140   4.951   0.400
  899SOL    HW2 3597   0.274   5.043   0.411
  900SOL     OW 3598   5.200   5.150   0.544
  900SOL    HW1 3599   5.295   5.123   0.558
  900SOL    HW2 3600   5.185   5.241   0.583
  901SOL     OW 3601   1.569   0.747   2.383
  901SOL    HW1 3602   1.629   0.786   2.313
  901SOL    HW2 3603   1.530   0.821   2.438
  902SOL     OW 3604   6.038   3.392   2.049
  902SOL    HW1 3605   6.052   3.425   2.142
  902SOL    HW2 3606   5.956   3.434   2.010
  903SOL     OW 3607   0.235   2.003   0.737
  903SOL    HW1 3608   0.299   2.076   0.714
  903SOL    HW2 3609   0.142   2.034   0.723
  904SOL     OW 3610   3.219   1.415   1.659
  904SOL    HW1 3611   3.178   1.506   1.651
  904SOL    HW2 3612   3.315   1.424   1.687
  905SOL     OW 3613   6.221   3.078   6.480
  905SOL    HW1 3614   6.295   3.012   6.462
  905SOL    HW2 3615   6.180   3.107   6.394
  906SOL     OW 3616   5.795   3.397   6.638
  906SOL    HW1 3617   5.705   3.383   6.597
  906SOL    HW2 3618   5.865   3.395   6.567
  907SOL     OW 3619   5.138   4.091   6.883
  907SOL    HW1 3620   5.069   4.164   6.884
  907SOL    HW2 3621   5.092   4.002   6.890
  908SOL     OW 3622   1.241   4.455   2.646
  908SOL    HW1 3623   1.288   4.374   2.611
  908SOL    HW2 3624   1.260   4.533   2.585
  909SOL     OW 3625   5.098   5.297   6.219
  909SOL    HW1 3626   5.035   5.295   6.141
  909SOL    HW2 3627   5.076   5.374   6.278
  910SOL     OW 3628   2.428   4.206   1.039
  910SOL    HW1 3629   2.335   4.191   1.071
  910SOL    HW2 3630   2.468   4.119   1.010
  911SOL     OW 3631   0.859   5.241   6.432
  911SOL    HW1 3632   0.789   5.216   6.364
  911SOL    HW2 3633   0.830   5.324   6.481
  912SOL     OW 3634   5.079   1.736   3.281
  912SOL    HW1 3635   5.001   1.792   3.309
  912SOL    HW2 3636   5.126   1.701   3.363
  913SOL     OW 3637   5.225   7.003   2.755
  913SOL    HW1 3638   5.292   6.931   2.737
  913SOL    HW2 3639   5.158   6.970   2.822
  914SOL     OW 3640   2.978   0.129   6.477
  914SOL    HW1 3641   2.884   0.125   6.512
  914SOL    HW2 3642   2.982   0.085   6.387
  915SOL     OW 3643   5.174   5.384   0.653
  915SOL    HW1 3644   5.230   5.414   0.730
  915SOL    HW2 3645   5.084   5.427   0.659
  916SOL     OW 3646   1.560   2.428   2.471
  916SOL    HW1 3647   1.470   2.413   2.429
  916SOL    HW2 3648   1.624   2.458   2.401
  917SOL     OW 3649   6.657   6.539   0.538
  917SOL    HW1 3650   6.729   6.511   0.600
  917SOL    HW2 3651   6.580   6.476   0.545
  918SOL     OW 3652   2.622   5.629   0.206
  918SOL    HW1 3653   2.542   5.586   0.246
  918SOL    HW2 3654   2.597   5.720   0.173
  919SOL     OW 3655   5.988   1.961   4.853
  919SOL    HW1 3656   5.972   2.044   4.905
  919SOL    HW2 3657   6.082   1.959   4.819
  920SOL     OW 3658   2.567   5.248   2.632
  920SOL    HW1 3659   2.605   5.188   2.561
  920SOL    HW2 3660   2.631   5.323   2.649
  921SOL     OW 3661   4.826   5.235   5.149
  921SOL    HW1 3662   4.823   5.174   5.070
  921SOL    HW2 3663   4.887   5.311   5.130
  922SOL     OW 3664   3.669   2.918   3.714
  922SOL    HW1 3665   3.598   2.906   3.783
  922SOL    HW2 3666   3.629   2.912   3.623
  923SOL     OW 3667   2.373   3.647   5.544
  923SOL    HW1 3668   2.343   3.702   5.466
  923SOL    HW2 3669   2.438   3.578   5.512
  924SOL     OW 3670   0.150   3.488   2.500
  924SOL    HW1 3671   0.239   3.496   2.456
  924SOL    HW2 3672   0.091   3.427   2.446
  925SOL     OW 3673   0.045   1.755   0.155
  925SOL    HW1 3674   0.002   1.739   0.243
  925SOL    HW2 3675   0.034   1.675   0.097
  926SOL     OW 3676   1.610   1.628   2.211
  926SOL    HW1 3677   1.629   1.720   2.177
  926SOL    HW2 3678   1.528   1.630   2.268
  927SOL     OW 3679   6.218   3.569   4.054
  927SOL    HW1 3680   6.196   3.479   4.092
  927SOL    HW2 3681   6.135   3.626   4.052
  928SOL     OW 3682   3.260   4.712   6.236
  928SOL    HW1 3683   3.236   4.754   6.324
  928SOL    HW2 3684   3.353   4.739   6.210
  929SOL     OW 3685   0.349   1.508   4.884
  929SOL    HW1 3686   0.447   1.507   4.863
  929SOL    HW2 3687   0.305   1.427   4.844
  930SOL     OW 3688   5.164   4.978   5.304
  930SOL    HW1 3689   5.141   5.052   5.368
  930SOL    HW2 3690   5.263   4.969   5.297
  931SOL     OW 3691   6.604   1.712   3.259
  931SOL    HW1 3692   6.572   1.787   3.202
  931SOL    HW2 3693   6.642   1.747   3.344
  932SOL     OW 3694   3.805   0.654   3.383
  932SOL    HW1 3695   3.901   0.672   3.406
  932SOL    HW2 3696   3.791   0.555   3.377
  933SOL     OW 3697   1.438   5.429   2.105
  933SOL    HW1 3698   1.354   5.482   2.118
  933SOL    HW2 3699   1.517   5.489   2.121
  934SOL     OW 3700   2.022   4.081   0.203
  934SOL    HW1 3701   2.020   3.989   0.240
  934SOL    HW2 3702   1.932   4.122   0.210
  935SOL     OW 3703   5.941   2.874   4.287
  935SOL    HW1 3704   5.899   2.953   4.243
  935SOL    HW2 3705   6.008   2.905   4.355
  936SOL     OW 3706   1.460   6.855   6.052
  936SOL    HW1 3707   1.495   6.939   6.013
  936SOL    HW2 3708   1.515   6.777   6.020
  937SOL     OW 3709   3.361   2.154   5.933
  937SOL    HW1 3710   3.441   2.101   5.905
  937SOL    HW2 3711   3.366   2.245   5.892
  938SOL     OW 3712   6.126   5.539   4.507
  938SOL    HW1 3713   6.172   5.584   4.584
  938SOL    HW2 3714   6.179   5.555   4.424
  939SOL     OW 3715   0.057   6.506   6.154
  939SOL    HW1 3716   0.062   6.422   6.100
  939SOL    HW2 3717   0.149   6.530   6.187
  940SOL     OW 3718   1.974   4.873   6.853
  940SOL    HW1 3719   1.936   4.934   6.922
  940SOL    HW2 3720   1.937   4.781   6.865
  941SOL     OW 3721   3.578   0.038   0.355
  941SOL    HW1 3722   3.532   0.101   0.292
  941SOL    HW2 3723   3.569   6.966   0.320
  942SOL     OW 3724   0.215   5.471   0.176
  942SOL    HW1 3725   0.211   5.460   0.275
  942SOL    HW2 3726   0.165   5.397   0.132
  943SOL     OW 3727   3.634   5.911   1.997
  943SOL    HW1 3728   3.599   5.916   1.904
  943SOL    HW2 3729   3.689   5.828   2.007
  944SOL     OW 3730   6.322   6.919   4.363
  944SOL    HW1 3731   6.232   6.929   4.404
  944SOL    HW2 3732   6.313   6.874   4.274
  945SOL     OW 3733   0.783   5.553   0.074
  945SOL    HW1 3734   0.706   5.606   0.038
  945SOL    HW2 3735   0.789   5.466   0.026
  946SOL     OW 3736   5.351   2.431   4.273
  946SOL    HW1 3737   5.325   2.341   4.238
  946SOL    HW2 3738   5.395   2.420   4.362
  947SOL     OW 3739   3.714   4.118   4.048
  947SOL    HW1 3740   3.702   4.214   4.021
  947SOL    HW2 3741   3.644   4.062   4.004
  948SOL     OW 3742   3.740   0.602   2.929
  948SOL    HW1 3743   3.723   0.698   2.951
  948SOL    HW2 3744   3.829   0.593   2.884
  949SOL     OW 3745   3.301   6.929   5.952
  949SOL    HW1 3746   3.316   0.006   5.960
  949SOL    HW2 3747   3.320   6.885   6.040
  950SOL     OW 3748   6.738   6.927   2.251
  950SOL    HW1 3749   6.721   7.017   2.211
  950SOL    HW2 3750   6.662   6.865   2.226
  951SOL     OW 3751   2.045   6.753   3.209
  951SOL    HW1 3752   2.108   6.755   3.131
  951SOL    HW2 3753   2.096   6.772   3.293
  952SOL     OW 3754   3.230   0.771   2.893
  952SOL    HW1 3755   3.142   0.812   2.917
  952SOL    HW2 3756   3.223   0.726   2.804
  953SOL     OW 3757   6.743   4.424   5.672
  953SOL    HW1 3758   6.835   4.442   5.637
  953SOL    HW2 3759   6.686   4.505   5.660
  954SOL     OW 3760   4.680   6.110   2.697
  954SOL    HW1 3761   4.629   6.100   2.782
  954SOL    HW2 3762   4.693   6.207   2.677
  955SOL     OW 3763   2.089   4.809   0.438
  955SOL    HW1 3764   2.135   4.723   0.460
  955SOL    HW2 3765   2.121   4.881   0.500
  956SOL     OW 3766   4.920   0.504   1.121
  956SOL    HW1 3767   4.936   0.425   1.061
  956SOL    HW2 3768   4.823   0.508   1.145
  957SOL     OW 3769   6.019   1.286   3.223
  957SOL    HW1 3770   5.957   1.239   3.159
  957SOL    HW2 3771   6.004   1.251   3.315
  958SOL     OW 3772   5.582   6.989   1.586
  958SOL    HW1 3773   5.514   6.937   1.639
  958SOL    HW2 3774   5.605   0.052   1.636
  959SOL     OW 3775   4.572   6.752   3.522
  959SOL    HW1 3776   4.644   6.704   3.472
  959SOL    HW2 3777   4.611   6.797   3.602
  960SOL     OW 3778   1.625   6.725   6.460
  960SOL    HW1 3779   1.579   6.638   6.439
  960SOL    HW2 3780   1.723   6.709   6.470
  961SOL     OW 3781   3.647   0.027   3.006
  961SOL    HW1 3782   3.548   0.024   2.994
  961SOL    HW2 3783   3.677   6.967   3.056
  962SOL     OW 3784   6.591   0.857   4.455
  962SOL    HW1 3785   6.504   0.874   4.409
  962SOL    HW2 3786   6.574   0.812   4.543
  963SOL     OW 3787   5.281   3.074   1.118
  963SOL    HW1 3788   5.314   3.158   1.163
  963SOL    HW2 3789   5.238   3.098   1.031
  964SOL     OW 3790   4.540   5.069   5.141
  964SOL    HW1 3791   4.616   5.034   5.196
  964SOL    HW2 3792   4.554   5.167   5.125
  965SOL     OW 3793   5.789   2.144   3.655
  965SOL    HW1 3794   5.753   2.051   3.642
  965SOL    HW2 3795   5.888   2.141   3.660
  966SOL     OW 3796   4.650   1.392   4.566
  966SOL    HW1 3797   4.670   1.472   4.511
  966SOL    HW2 3798   4.595   1.327   4.513
  967SOL     OW 3799   4.312   3.930   6.621
  967SOL    HW1 3800   4.330   3.899   6.528
  967SOL    HW2 3801   4.392   3.913   6.678
  968SOL     OW 3802   4.046   0.944   1.353
  968SOL    HW1 3803   3.951   0.914   1.353
  968SOL    HW2 3804   4.054   1.029   1.405
  969SOL     OW 3805   2.908   4.237   6.287
  969SOL    HW1 3806   2.868   4.159   6.238
  969SOL    HW2 3807   2.896   4.320   6.234
  970SOL     OW 3808   5.372   0.179   6.017
  970SOL    HW1 3809   5.369   0.273   5.983
  970SOL    HW2 3810   5.440   0.126   5.966
  971SOL     OW 3811   5.652   3.431   3.658
  971SOL    HW1 3812   5.603   3.423   3.571
  971SOL    HW2 3813   5.681   3.340   3.689
  972SOL     OW 3814   0.070   2.702   0.355
  972SOL    HW1 3815   0.020   2.787   0.372
  972SOL    HW2 3816   0.040   2.663   0.268
  973SOL     OW 3817   0.196   3.686   5.931
  973SOL    HW1 3818   0.183   3.753   6.003
  973SOL    HW2 3819   0.211   3.596   5.972
  974SOL     OW 3820   0.150   4.638   2.344
  974SOL    HW1 3821   0.176   4.542   2.329
  974SOL    HW2 3822   0.104   4.645   2.433
  975SOL     OW 3823   3.253   0.689   2.141
  975SOL    HW1 3824   3.256   0.753   2.064
  975SOL    HW2 3825   3.215   0.735   2.221
  976SOL     OW 3826   0.000   3.305   3.241
  976SOL    HW1 3827   6.923   3.301   3.228
  976SOL    HW2 3828   0.044   3.326   3.154
  977SOL     OW 3829   6.414   0.474   2.181
  977SOL    HW1 3830   6.447   0.456   2.274
  977SOL    HW2 3831   6.445   0.564   2.152
  978SOL     OW 3832   5.592   2.954   1.975
  978SOL    HW1 3833   5.566   2.866   1.937
  978SOL    HW2 3834   5.580   3.026   1.907
  979SOL     OW 3835   0.446   4.438   6.954
  979SOL    HW1 3836   0.449   4.402   0.025
  979SOL    HW2 3837   0.408   4.530   6.955
  980SOL     OW 3838   3.554   0.866   4.741
  980SOL    HW1 3839   3.606   0.834   4.662
  980SOL    HW2 3840   3.492   0.939   4.713
  981SOL     OW 3841   0.031   0.221   6.005
  981SOL    HW1 3842   0.129   0.236   5.993
  981SOL    HW2 3843   0.017   0.138   6.060
  982SOL     OW 3844   6.220   1.267   6.029
  982SOL    HW1 3845   6.208   1.168   6.017
  982SOL    HW2 3846   6.197   1.292   6.123
  983SOL     OW 3847   0.374   4.866   3.973
  983SOL    HW1 3848   0.446   4.935   3.972
  983SOL    HW2 3849   0.380   4.813   4.057
  984SOL     OW 3850   0.615   3.474   3.516
  984SOL    HW1 3851   0.548   3.512   3.580
  984SOL    HW2 3852   0.573   3.402   3.461
  985SOL     OW 3853   6.621   5.150   5.211
  985SOL    HW1 3854   6.569   5.136   5.295
  985SOL    HW2 3855   6.578   5.223   5.158
  986SOL     OW 3856   5.018   5.374   1.815
  986SOL    HW1 3857   4.940   5.375   1.877
  986SOL    HW2 3858   5.068   5.460   1.824
  987SOL     OW 3859   4.823   4.112   4.272
  987SOL    HW1 3860   4.796   4.070   4.359
  987SOL    HW2 3861   4.840   4.040   4.204
  988SOL     OW 3862   2.561   4.645   2.147
  988SOL    HW1 3863   2.587   4.617   2.239
  988SOL    HW2 3864   2.644   4.666   2.094
  989SOL     OW 3865   1.856   2.221   0.796
  989SOL    HW1 3866   1.912   2.152   0.750
  989SOL    HW2 3867   1.790   2.175   0.855
  990SOL     OW 3868   3.752   0.107   4.344
  990SOL    HW1 3869   3.830   0.046   4.329
  990SOL    HW2 3870   3.673   0.073   4.294
  991SOL     OW 3871   0.039   5.375   4.224
  991SOL    HW1 3872   0.021   5.473   4.238
  991SOL    HW2 3873   6.998   5.322   4.282
  992SOL     OW 3874   0.056   2.244   0.084
  992SOL    HW1 3875   0.075   2.308   0.010
  992SOL    HW2 3876   0.053   2.151   0.048
  993SOL     OW 3877   1.589   5.005   6.925
  993SOL    HW1 3878   1.673   5.024   6.976
  993SOL    HW2 3879   1.523   4.962   6.987
  994SOL     OW 3880   3.496   5.960   0.487
  994SOL    HW1 3881   3.478   6.021   0.565
  994SOL    HW2 3882   3.556   5.886   0.516
  995SOL     OW 3883   6.626   4.216   6.215
  995SOL    HW1 3884   6.559   4.189   6.145
  995SOL    HW2 3885   6.580   4.223   6.304
  996SOL     OW 3886   3.669   5.801   4.382
  996SOL    HW1 3887   3.742   5.859   4.347
  996SOL    HW2 3888   3.677   5.794   4.482
  997SOL     OW 3889   1.415   6.843   3.635
  997SOL    HW1 3890   1.483   6.839   3.562
  997SOL    HW2 3891   1.335   6.895   3.604
  998SOL     OW 3892   4.615   6.994   6.082
  998SOL    HW1 3893   4.554   0.020   6.145
  998SOL    HW2 3894   4.710   7.019   6.102
  999SOL     OW 3895   4.923   3.471   2.454
  999SOL    HW1 3896   4.929   3.483   2.553
  999SOL    HW2 3897   4.835   3.429   2.430
 1000SOL     OW 3898   5.282   2.338   1.846
 1000SOL    HW1 3899   5.271   2.269   1.918
 1000SOL    HW2 3900   5.367   2.388   1.860
 1001SOL     OW 3901   3.151   0.229   2.490
 1001SOL    HW1 3902   3.142   0.242   2.391
 1001SOL    HW2 3903   3.248   0.220   2.514
 1002SOL     OW 3904   5.380   2.439   1.221
 1002SOL    HW1 3905   5.415   2.498   1.148
 1002SOL    HW2 3906   5.346   2.495   1.296
 1003SOL     OW 3907   0.974   0.434   3.241
 1003SOL    HW1 3908   0.889   0.386   3.261
 1003SOL    HW2 3909   1.037   0.373   3.194
 1004SOL     OW 3910   5.346   1.275   4.131
 1004SOL    HW1 3911   5.266   1.243   4.081
 1004SOL    HW2 3912   5.337   1.373   4.150
 1005SOL     OW 3913   1.559   4.952   2.031
 1005SOL    HW1 3914   1.649   4.973   1.993
 1005SOL    HW2 3915   1.497   5.029   2.014
 1006SOL     OW 3916   2.362   3.914   1.362
 1006SOL    HW1 3917   2.370   3.939   1.459
 1006SOL    HW2 3918   2.445   3.941   1.314
 1007SOL     OW 3919   4.764   0.631   6.483
 1007SOL    HW1 3920   4.694   0.640   6.413
 1007SOL    HW2 3921   4.731   0.668   6.569
 1008SOL     OW 3922   0.797   4.935   5.373
 1008SOL    HW1 3923   0.702   4.966   5.364
 1008SOL    HW2 3924   0.822   4.881   5.292
 1009SOL     OW 3925   6.796   5.750   5.757
 1009SOL    HW1 3926   6.869   5.714   5.815
 1009SOL    HW2 3927   6.757   5.675   5.702
 1010SOL     OW 3928   2.996   3.464   0.676
 1010SOL    HW1 3929   3.094   3.478   0.688
 1010SOL    HW2 3930   2.973   3.471   0.579
 1011SOL     OW 3931   0.241   5.569   2.261
 1011SOL    HW1 3932   0.249   5.632   2.183
 1011SOL    HW2 3933   0.311   5.592   2.329
 1012SOL     OW 3934   5.098   6.938   3.230
 1012SOL    HW1 3935   5.028   6.991   3.278
 1012SOL    HW2 3936   5.188   6.978   3.247
 1013SOL     OW 3937   6.912   6.884   6.610
 1013SOL    HW1 3938   6.960   6.853   6.528
 1013SOL    HW2 3939   6.912   6.984   6.612
 1014SOL     OW 3940   1.128   4.400   5.255
 1014SOL    HW1 3941   1.159   4.494   5.249
 1014SOL    HW2 3942   1.031   4.398   5.278
 1015SOL     OW 3943   2.856   6.607   0.349
 1015SOL    HW1 3944   2.761   6.599   0.317
 1015SOL    HW2 3945   2.858   6.661   0.433
 1016SOL     OW 3946   6.142   3.864   1.607
 1016SOL    HW1 3947   6.239   3.847   1.589
 1016SOL    HW2 3948   6.115   3.821   1.693
 1017SOL     OW 3949   2.189   1.606   1.687
 1017SOL    HW1 3950   2.093   1.634   1.683
 1017SOL    HW2 3951   2.218   1.602   1.783
 1018SOL     OW 3952   6.423   6.286   5.063
 1018SOL    HW1 3953   6.416   6.234   4.978
 1018SOL    HW2 3954   6.333   6.320   5.090
 1019SOL     OW 3955   6.452   4.116   1.112
 1019SOL    HW1 3956   6.483   4.198   1.064
 1019SOL    HW2 3957   6.438   4.042   1.046
 1020SOL     OW 3958   5.079   1.489   0.731
 1020SOL    HW1 3959   5.073   1.458   0.636
 1020SOL    HW2 3960   4.991   1.529   0.758
 1021SOL     OW 3961   0.921   6.589   1.089
 1021SOL    HW1 3962   0.822   6.581   1.074
 1021SOL    HW2 3963   0.948   6.685   1.079
 1022SOL     OW 3964   2.428   5.737   6.411
 1022SOL    HW1 3965   2.455   5.830   6.386
 1022SOL    HW2 3966   2.364   5.741   6.488
 1023SOL     OW 3967   0.381   1.074   3.352
 1023SOL    HW1 3968   0.437   1.081   3.434
 1023SOL    HW2 3969   0.394   0.984   3.310
 1024SOL     OW 3970   1.831   1.952   4.430
 1024SOL    HW1 3971   1.739   1.921   4.408
 1024SOL    HW2 3972   1.892   1.873   4.439
 1025SOL     OW 3973   4.774   4.424   0.401
 1025SOL    HW1 3974   4.818   4.395   0.487
 1025SOL    HW2 3975   4.716   4.504   0.419
 1026SOL     OW 3976   3.113   2.817   1.715
 1026SOL    HW1 3977   3.137   2.723   1.691
 1026SOL    HW2 3978   3.149   2.880   1.646
 1027SOL     OW 3979   0.900   6.817   0.262
 1027SOL    HW1 3980   0.994   6.846   0.278
 1027SOL    HW2 3981   0.837   6.884   0.301
 1028SOL     OW 3982   1.269   6.142   2.709
 1028SOL    HW1 3983   1.238   6.050   2.687
 1028SOL    HW2 3984   1.232   6.170   2.797
 1029SOL     OW 3985   0.851   1.021   5.996
 1029SOL    HW1 3986   0.920   1.093   5.992
 1029SOL    HW2 3987   0.778   1.047   6.059
 1030SOL     OW 3988   3.727   3.197   1.035
 1030SOL    HW1 3989   3.698   3.223   0.943
 1030SOL    HW2 3990   3.816   3.239   1.054
 1031SOL     OW 3991   3.958   3.018   0.912
 1031SOL    HW1 3992   3.903   2.985   0.989
 1031SOL    HW2 3993   4.006   3.101   0.938
 1032SOL     OW 3994   2.080   1.348   6.918
 1032SOL    HW1 3995   2.118   1.378   6.830
 1032SOL    HW2 3996   2.032   1.424   6.962
 1033SOL     OW 3997   0.561   6.597   2.674
 1033SOL    HW1 3998   0.481   6.607   2.614
 1033SOL    HW2 3999   0.644   6.623   2.624
 1034SOL     OW 4000   3.031   0.734   4.392
 1034SOL    HW1 4001   2.955   0.787   4.355
 1034SOL    HW2 4002   3.049   0.762   4.486
 1035SOL     OW 4003   1.603   1.551   0.039
 1035SOL    HW1 4004   1.562   1.604   6.986
 1035SOL    HW2 4005   1.638   1.464   0.003
 1036SOL     OW 4006   4.768   1.236   1.411
 1036SOL    HW1 4007   4.844   1.300   1.421
 1036SOL    HW2 4008   4.803   1.147   1.381
 1037SOL     OW 4009   1.618   3.240   1.984
 1037SOL    HW1 4010   1.580   3.271   1.897
 1037SOL    HW2 4011   1.718   3.241   1.979
 1038SOL     OW 4012   2.780   6.008   0.039
 1038SOL    HW1 4013   2.847   6.059   0.093
 1038SOL    HW2 4014   2.818   5.988   6.970
 1039SOL     OW 4015   3.811   3.237   2.867
 1039SOL    HW1 4016   3.835   3.140   2.867
 1039SOL    HW2 4017   3.715   3.247   2.841
 1040SOL     OW 4018   3.593   2.101   3.476
 1040SOL    HW1 4019   3.645   2.175   3.431
 1040SOL    HW2 4020   3.503   2.093   3.433
 1041SOL     OW 4021   6.178   5.885   6.435
 1041SOL    HW1 4022   6.189   5.786   6.447
 1041SOL    HW2 4023   6.081   5.908   6.436
 1042SOL     OW 4024   5.466   4.294   3.162
 1042SOL    HW1 4025   5.491   4.288   3.065
 1042SOL    HW2 4026   5.412   4.214   3.188
 1043SOL     OW 4027   2.704   2.383   3.555
 1043SOL    HW1 4028   2.760   2.324   3.613
 1043SOL    HW2 4029   2.726   2.365   3.459
 1044SOL     OW 4030   6.173   4.558   1.638
 1044SOL    HW1 4031   6.107   4.586   1.709
 1044SOL    HW2 4032   6.144   4.594   1.550
 1045SOL     OW 4033   2.176   0.462   2.002
 1045SOL    HW1 4034   2.130   0.478   2.090
 1045SOL    HW2 4035   2.160   0.367   1.973
 1046SOL     OW 4036   3.058   2.017   1.312
 1046SOL    HW1 4037   3.063   2.110   1.348
 1046SOL    HW2 4038   2.962   1.988   1.310
 1047SOL     OW 4039   3.840   6.479   3.459
 1047SOL    HW1 4040   3.896   6.416   3.513
 1047SOL    HW2 4041   3.832   6.566   3.506
 1048SOL     OW 4042   1.250   6.419   2.680
 1048SOL    HW1 4043   1.289   6.328   2.663
 1048SOL    HW2 4044   1.169   6.411   2.737
 1049SOL     OW 4045   4.585   6.147   5.049
 1049SOL    HW1 4046   4.490   6.135   5.020
 1049SOL    HW2 4047   4.626   6.058   5.067
 1050SOL     OW 4048   2.780   6.307   3.572
 1050SOL    HW1 4049   2.685   6.286   3.550
 1050SOL    HW2 4050   2.816   6.235   3.632
 1051SOL     OW 4051   1.032   1.058   6.282
 1051SOL    HW1 4052   1.053   0.998   6.359
 1051SOL    HW2 4053   1.092   1.036   6.206
 1052SOL     OW 4054   3.458   1.261   0.209
 1052SOL    HW1 4055   3.527   1.207   0.257
 1052SOL    HW2 4056   3.367   1.230   0.235
 1053SOL     OW 4057   5.129   1.964   4.120
 1053SOL    HW1 4058   5.038   1.933   4.148
 1053SOL    HW2 4059   5.199   1.919   4.175
 1054SOL     OW 4060   3.717   4.923   6.109
 1054SOL    HW1 4061   3.700   4.897   6.014
 1054SOL    HW2 4062   3.781   5.000   6.112
 1055SOL     OW 4063   4.626   5.731   6.435
 1055SOL    HW1 4064   4.528   5.738   6.417
 1055SOL    HW2 4065   4.675   5.799   6.381
 1056SOL     OW 4066   3.055   4.128   0.128
 1056SOL    HW1 4067   3.106   4.149   0.212
 1056SOL    HW2 4068   2.958   4.150   0.141
 1057SOL     OW 4069   3.208   2.659   0.476
 1057SOL    HW1 4070   3.162   2.633   0.391
 1057SOL    HW2 4071   3.233   2.577   0.527
 1058SOL     OW 4072   2.742   2.315   2.261
 1058SOL    HW1 4073   2.643   2.326   2.266
 1058SOL    HW2 4074   2.775   2.353   2.174
 1059SOL     OW 4075   2.481   6.283   1.717
 1059SOL    HW1 4076   2.499   6.214   1.647
 1059SOL    HW2 4077   2.426   6.357   1.678
 1060SOL     OW 4078   6.384   0.142   5.867
 1060SOL    HW1 4079   6.352   0.195   5.945
 1060SOL    HW2 4080   6.307   0.090   5.828
 1061SOL     OW 4081   6.795   3.650   6.113
 1061SOL    HW1 4082   6.744   3.582   6.061
 1061SOL    HW2 4083   6.849   3.706   6.050
 1062SOL     OW 4084   3.767   6.127   4.581
 1062SOL    HW1 4085   3.771   6.218   4.624
 1062SOL    HW2 4086   3.733   6.136   4.488
 1063SOL     OW 4087   3.732   6.501   5.289
 1063SOL    HW1 4088   3.665   6.552   5.235
 1063SOL    HW2 4089   3.711   6.510   5.386
 1064SOL     OW 4090   1.843   3.663   0.150
 1064SOL    HW1 4091   1.839   3.602   0.071
 1064SOL    HW2 4092   1.768   3.729   0.145
 1065SOL     OW 4093   5.111   0.613   4.706
 1065SOL    HW1 4094   5.017   0.589   4.681
 1065SOL    HW2 4095   5.142   0.554   4.781
 1066SOL     OW 4096   5.528   6.596   1.624
 1066SOL    HW1 4097   5.551   6.677   1.677
 1066SOL    HW2 4098   5.429   6.592   1.611
 1067SOL     OW 4099   2.520   1.578   0.335
 1067SOL    HW1 4100   2.616   1.551   0.333
 1067SOL    HW2 4101   2.463   1.496   0.347
 1068SOL     OW 4102   6.795   2.542   1.359
 1068SOL    HW1 4103   6.710   2.493   1.338
 1068SOL    HW2 4104   6.848   2.488   1.424
 1069SOL     OW 4105   6.306   3.324   1.629
 1069SOL    HW1 4106   6.239   3.313   1.702
 1069SOL    HW2 4107   6.299   3.417   1.591
 1070SOL     OW 4108   1.206   0.012   2.358
 1070SOL    HW1 4109   1.176   6.993   2.444
 1070SOL    HW2 4110   1.133   0.070   2.321
 1071SOL     OW 4111   0.423   2.741   5.029
 1071SOL    HW1 4112   0.509   2.777   4.993
 1071SOL    HW2 4113   0.422   2.753   5.129
 1072SOL     OW 4114   1.612   1.872   2.099
 1072SOL    HW1 4115   1.689   1.935   2.101
 1072SOL    HW2 4116   1.547   1.897   2.171
 1073SOL     OW 4117   4.811   2.234   3.255
 1073SOL    HW1 4118   4.861   2.320   3.268
 1073SOL    HW2 4119   4.830   2.197   3.164
 1074SOL     OW 4120   2.911   4.842   1.858
 1074SOL    HW1 4121   2.894   4.759   1.910
 1074SOL    HW2 4122   2.879   4.922   1.910
 1075SOL     OW 4123   6.112   4.602   6.023
 1075SOL    HW1 4124   6.191   4.555   5.984
 1075SOL    HW2 4125   6.135   4.698   6.038
 1076SOL     OW 4126   1.811   4.567   4.931
 1076SOL    HW1 4127   1.803   4.624   5.013
 1076SOL    HW2 4128   1.752   4.487   4.940
 1077SOL     OW 4129   0.012   0.027   0.251
 1077SOL    HW1 4130   0.096   7.012   0.211
 1077SOL    HW2 4131   0.025   0.124   0.272
 1078SOL     OW 4132   6.291   6.772   4.705
 1078SOL    HW1 4133   6.360   6.792   4.636
 1078SOL    HW2 4134   6.217   6.840   4.698
 1079SOL     OW 4135   1.155   6.833   1.592
 1079SOL    HW1 4136   1.138   6.930   1.573
 1079SOL    HW2 4137   1.183   6.788   1.507
 1080SOL     OW 4138   3.561   5.937   6.570
 1080SOL    HW1 4139   3.530   5.938   6.665
 1080SOL    HW2 4140   3.541   6.025   6.527
 1081SOL     OW 4141   6.772   6.312   4.336
 1081SOL    HW1 4142   6.847   6.275   4.281
 1081SOL    HW2 4143   6.710   6.238   4.361
 1082SOL     OW 4144   4.278   6.918   6.855
 1082SOL    HW1 4145   4.343   6.934   6.929
 1082SOL    HW2 4146   4.225   7.001   6.839
 1083SOL     OW 4147   5.290   4.605   1.959
 1083SOL    HW1 4148   5.367   4.578   1.901
 1083SOL    HW2 4149   5.228   4.528   1.971
 1084SOL     OW 4150   6.348   0.491   5.028
 1084SOL    HW1 4151   6.411   0.489   5.106
 1084SOL    HW2 4152   6.379   0.559   4.962
 1085SOL     OW 4153   2.052   3.948   4.357
 1085SOL    HW1 4154   2.066   3.857   4.318
 1085SOL    HW2 4155   2.138   3.981   4.395
 1086SOL     OW 4156   5.719   5.649   0.860
 1086SOL    HW1 4157   5.655   5.699   0.919
 1086SOL    HW2 4158   5.774   5.586   0.915
 1087SOL     OW 4159   3.432   0.138   5.601
 1087SOL    HW1 4160   3.448   0.047   5.641
 1087SOL    HW2 4161   3.383   0.127   5.514
 1088SOL     OW 4162   6.693   4.944   3.289
 1088SOL    HW1 4163   6.700   5.043   3.286
 1088SOL    HW2 4164   6.741   4.909   3.369
 1089SOL     OW 4165   6.441   4.653   4.285
 1089SOL    HW1 4166   6.520   4.601   4.255
 1089SOL    HW2 4167   6.406   4.709   4.210
 1090SOL     OW 4168   5.203   1.811   5.370
 1090SOL    HW1 4169   5.299   1.790   5.355
 1090SOL    HW2 4170   5.148   1.768   5.299
 1091SOL     OW 4171   2.279   2.465   3.036
 1091SOL    HW1 4172   2.276   2.564   3.048
 1091SOL    HW2 4173   2.185   2.429   3.034
 1092SOL     OW 4174   0.230   5.622   0.859
 1092SOL    HW1 4175   0.160   5.551   0.862
 1092SOL    HW2 4176   0.238   5.664   0.950
 1093SOL     OW 4177   1.914   0.747   2.764
 1093SOL    HW1 4178   1.997   0.765   2.711
 1093SOL    HW2 4179   1.870   0.663   2.730
 1094SOL     OW 4180   0.777   0.255   3.294
 1094SOL    HW1 4181   0.789   0.165   3.251
 1094SOL    HW2 4182   0.682   0.282   3.288
 1095SOL     OW 4183   5.080   3.135   0.182
 1095SOL    HW1 4184   5.055   3.048   0.224
 1095SOL    HW2 4185   5.071   3.208   0.249
 1096SOL     OW 4186   2.711   6.085   1.828
 1096SOL    HW1 4187   2.632   6.145   1.818
 1096SOL    HW2 4188   2.708   6.012   1.760
 1097SOL     OW 4189   2.870   6.138   4.608
 1097SOL    HW1 4190   2.815   6.143   4.692
 1097SOL    HW2 4191   2.839   6.209   4.544
 1098SOL     OW 4192   6.093   4.191   0.577
 1098SOL    HW1 4193   6.144   4.235   0.503
 1098SOL    HW2 4194   6.106   4.092   0.572
 1099SOL     OW 4195   4.253   6.654   5.735
 1099SOL    HW1 4196   4.173   6.593   5.734
 1099SOL    HW2 4197   4.261   6.700   5.646
 1100SOL     OW 4198   4.132   1.662   4.440
 1100SOL    HW1 4199   4.154   1.749   4.396
 1100SOL    HW2 4200   4.086   1.602   4.375
 1101SOL     OW 4201   5.294   3.555   6.153
 1101SOL    HW1 4202   5.230   3.543   6.229
 1101SOL    HW2 4203   5.267   3.494   6.078
 1102SOL     OW 4204   2.978   0.855   2.945
 1102SOL    HW1 4205   2.923   0.936   2.926
 1102SOL    HW2 4206   2.920   0.773   2.943
 1103SOL     OW 4207   3.598   6.820   0.254
 1103SOL    HW1 4208   3.601   6.755   0.330
 1103SOL    HW2 4209   3.657   6.788   0.180
 1104SOL     OW 4210   0.588   3.134   3.995
 1104SOL    HW1 4211   0.603   3.229   3.968
 1104SOL    HW2 4212   0.600   3.125   4.094
 1105SOL     OW 4213   4.932   1.122   5.804
 1105SOL    HW1 4214   5.030   1.112   5.788
 1105SOL    HW2 4215   4.881   1.082   5.728
 1106SOL     OW 4216   6.838   1.480   0.583
 1106SOL    HW1 4217   6.917   1.541   0.579
 1106SOL    HW2 4218   6.754   1.534   0.590
 1107SOL     OW 4219   0.809   1.302   6.508
 1107SOL    HW1 4220   0.788   1.214   6.552
 1107SOL    HW2 4221   0.884   1.347   6.556
 1108SOL     OW 4222   2.405   0.412   4.036
 1108SOL    HW1 4223   2.330   0.454   4.088
 1108SOL    HW2 4224   2.387   0.315   4.024
 1109SOL     OW 4225   4.669   2.136   4.841
 1109SOL    HW1 4226   4.618   2.191   4.907
 1109SOL    HW2 4227   4.693   2.049   4.882
 1110SOL     OW 4228   2.783   0.750   2.457
 1110SOL    HW1 4229   2.812   0.804   2.378
 1110SOL    HW2 4230   2.735   0.809   2.522
 1111SOL     OW 4231   6.004   4.446   6.575
 1111SOL    HW1 4232   6.055   4.384   6.636
 1111SOL    HW2 4233   6.033   4.432   6.481
 1112SOL     OW 4234   5.510   0.735   2.115
 1112SOL    HW1 4235   5.412   0.723   2.104
 1112SOL    HW2 4236   5.531   0.833   2.125
 1113SOL     OW 4237   5.571   4.215   2.526
 1113SOL    HW1 4238   5.594   4.307   2.494
 1113SOL    HW2 4239   5.611   4.200   2.616
 1114SOL     OW 4240   3.490   3.959   4.954
 1114SOL    HW1 4241   3.566   4.007   4.909
 1114SOL    HW2 4242   3.487   3.864   4.922
 1115SOL     OW 4243   2.676   4.263   5.481
 1115SOL    HW1 4244   2.744   4.273   5.408
 1115SOL    HW2 4245   2.618   4.344   5.484
 1116SOL     OW 4246   4.517   6.646   6.664
 1116SOL    HW1 4247   4.435   6.623   6.715
 1116SOL    HW2 4248   4.586   6.684   6.726
 1117SOL     OW 4249   2.046   2.645   1.813
 1117SOL    HW1 4250   2.073   2.551   1.835
 1117SOL    HW2 4251   2.026   2.652   1.716
 1118SOL     OW 4252   4.012   5.537   0.155
 1118SOL    HW1 4253   3.967   5.574   0.236
 1118SOL    HW2 4254   3.954   5.553   0.075
 1119SOL     OW 4255   3.083   5.414   4.020
 1119SOL    HW1 4256   3.075   5.367   4.108
 1119SOL    HW2 4257   3.105   5.347   3.948
 1120SOL     OW 4258   6.975   4.031   1.246
 1120SOL    HW1 4259   0.048   4.060   1.234
 1120SOL    HW2 4260   6.942   3.988   1.162
 1121SOL     OW 4261   6.979   4.948   4.243
 1121SOL    HW1 4262   0.015   4.866   4.239
 1121SOL    HW2 4263   6.955   4.975   4.150
 1122SOL     OW 4264   5.560   2.309   2.108
 1122SOL    HW1 4265   5.578   2.270   2.018
 1122SOL    HW2 4266   5.612   2.260   2.177
 1123SOL     OW 4267   3.789   1.189   3.511
 1123SOL    HW1 4268   3.710   1.186   3.450
 1123SOL    HW2 4269   3.864   1.237   3.465
 1124SOL     OW 4270   2.013   2.365   4.402
 1124SOL    HW1 4271   2.106   2.397   4.384
 1124SOL    HW2 4272   1.956   2.442   4.431
 1125SOL     OW 4273   2.149   3.862   3.475
 1125SOL    HW1 4274   2.178   3.844   3.569
 1125SOL    HW2 4275   2.192   3.946   3.443
 1126SOL     OW 4276   4.352   4.828   4.653
 1126SOL    HW1 4277   4.436   4.779   4.629
 1126SOL    HW2 4278   4.323   4.801   4.745
 1127SOL     OW 4279   6.047   6.647   2.318
 1127SOL    HW1 4280   6.024   6.645   2.221
 1127SOL    HW2 4281   6.087   6.735   2.342
 1128SOL     OW 4282   4.801   1.384   4.172
 1128SOL    HW1 4283   4.859   1.327   4.231
 1128SOL    HW2 4284   4.807   1.352   4.078
 1129SOL     OW 4285   1.424   0.839   0.842
 1129SOL    HW1 4286   1.423   0.925   0.893
 1129SOL    HW2 4287   1.360   0.775   0.885
 1130SOL     OW 4288   2.054   4.592   2.107
 1130SOL    HW1 4289   2.142   4.627   2.139
 1130SOL    HW2 4290   2.056   4.583   2.007
 1131SOL     OW 4291   1.315   5.554   4.018
 1131SOL    HW1 4292   1.319   5.652   4.001
 1131SOL    HW2 4293   1.219   5.526   4.026
 1132SOL     OW 4294   2.409   1.333   2.590
 1132SOL    HW1 4295   2.461   1.255   2.625
 1132SOL    HW2 4296   2.466   1.387   2.527
 1133SOL     OW 4297   0.896   0.005   5.908
 1133SOL    HW1 4298   0.904   0.028   6.005
 1133SOL    HW2 4299   0.980   6.982   5.877
 1134SOL     OW 4300   3.556   6.892   1.548
 1134SOL    HW1 4301   3.512   6.803   1.549
 1134SOL    HW2 4302   3.514   6.952   1.616
 1135SOL     OW 4303   2.088   5.854   3.490
 1135SOL    HW1 4304   2.123   5.885   3.578
 1135SOL    HW2 4305   2.036   5.769   3.502
 1136SOL     OW 4306   1.710   5.260   1.846
 1136SOL    HW1 4307   1.691   5.178   1.791
 1136SOL    HW2 4308   1.753   5.233   1.932
 1137SOL     OW 4309   1.125   5.527   5.110
 1137SOL    HW1 4310   1.079   5.441   5.085
 1137SOL    HW2 4311   1.168   5.566   5.028
 1138SOL     OW 4312   2.172   3.454   4.706
 1138SOL    HW1 4313   2.086   3.471   4.657
 1138SOL    HW2 4314   2.210   3.542   4.736
 1139SOL     OW 4315   2.628   5.559   5.338
 1139SOL    HW1 4316   2.635   5.462   5.313
 1139SOL    HW2 4317   2.532   5.581   5.358
 1140SOL     OW 4318   2.062   2.123   1.161
 1140SOL    HW1 4319   2.105   2.092   1.246
 1140SOL    HW2 4320   2.132   2.143   1.093
 1141SOL     OW 4321   0.004   5.065   6.188
 1141SOL    HW1 4322   6.986   4.974   6.205
 1141SOL    HW2 4323   0.101   5.064   6.214
 1142SOL     OW 4324   2.016   5.931   2.035
 1142SOL    HW1 4325   2.020   5.843   2.081
 1142SOL    HW2 4326   2.009   5.917   1.936
 1143SOL     OW 4327   0.677   4.179   1.764
 1143SOL    HW1 4328   0.734   4.254   1.797
 1143SOL    HW2 4329   0.681   4.103   1.828
 1144SOL     OW 4330   5.728   4.414   0.763
 1144SOL    HW1 4331   5.764   4.494   0.810
 1144SOL    HW2 4332   5.673   4.443   0.685
 1145SOL     OW 4333   5.971   0.053   1.001
 1145SOL    HW1 4334   5.882   0.073   0.960
 1145SOL    HW2 4335   6.040   0.113   0.960
 1146SOL     OW 4336   0.720   1.277   1.181
 1146SOL    HW1 4337   0.627   1.296   1.212
 1146SOL    HW2 4338   0.751   1.190   1.219
 1147SOL     OW 4339   2.529   6.364   1.359
 1147SOL    HW1 4340   2.516   6.456   1.396
 1147SOL    HW2 4341   2.465   6.300   1.404
 1148SOL     OW 4342   4.327   5.588   3.075
 1148SOL    HW1 4343   4.299   5.677   3.110
 1148SOL    HW2 4344   4.263   5.559   3.003
 1149SOL     OW 4345   4.417   3.238   1.483
 1149SOL    HW1 4346   4.349   3.282   1.425
 1149SOL    HW2 4347   4.501   3.225   1.432
 1150SOL     OW 4348   1.471   3.808   0.456
 1150SOL    HW1 4349   1.549   3.747   0.443
 1150SOL    HW2 4350   1.448   3.812   0.553
 1151SOL     OW 4351   6.159   5.397   4.028
 1151SOL    HW1 4352   6.226   5.324   4.046
 1151SOL    HW2 4353   6.193   5.454   3.953
 1152SOL     OW 4354   3.747   6.117   6.152
 1152SOL    HW1 4355   3.700   6.034   6.121
 1152SOL    HW2 4356   3.685   6.171   6.209
 1153SOL     OW 4357   6.072   0.289   1.425
 1153SOL    HW1 4358   6.122   0.203   1.422
 1153SOL    HW2 4359   6.126   0.357   1.474
 1154SOL     OW 4360   1.970   2.879   1.039
 1154SOL    HW1 4361   1.966   2.829   1.126
 1154SOL    HW2 4362   2.045   2.946   1.042
 1155SOL     OW 4363   2.816   6.819   4.404
 1155SOL    HW1 4364   2.755   6.764   4.348
 1155SOL    HW2 4365   2.788   6.915   4.400
 1156SOL     OW 4366   2.926   1.705   3.916
 1156SOL    HW1 4367   2.828   1.724   3.923
 1156SOL    HW2 4368   2.957   1.660   4.000
 1157SOL     OW 4369   3.527   0.773   6.909
 1157SOL    HW1 4370   3.576   0.854   6.941
 1157SOL    HW2 4371   3.472   0.735   6.983
 1158SOL     OW 4372   5.691   4.865   3.378
 1158SOL    HW1 4373   5.738   4.861   3.290
 1158SOL    HW2 4374   5.593   4.852   3.365
 1159SOL     OW 4375   6.137   5.118   1.085
 1159SOL    HW1 4376   6.052   5.074   1.114
 1159SOL    HW2 4377   6.199   5.126   1.163
 1160SOL     OW 4378   5.478   1.758   0.080
 1160SOL    HW1 4379   5.392   1.806   0.067
 1160SOL    HW2 4380   5.540   1.779   0.004
 1161SOL     OW 4381   6.957   5.417   0.615
 1161SOL    HW1 4382   6.931   5.477   0.539
 1161SOL    HW2 4383   6.879   5.360   0.640
 1162SOL     OW 4384   2.964   2.100   4.928
 1162SOL    HW1 4385   3.043   2.161   4.920
 1162SOL    HW2 4386   2.990   2.009   4.895
 1163SOL     OW 4387   5.928   3.089   1.703
 1163SOL    HW1 4388   5.885   3.092   1.793
 1163SOL    HW2 4389   5.877   3.026   1.645
 1164SOL     OW 4390   4.124   2.060   5.597
 1164SOL    HW1 4391   4.123   2.079   5.695
 1164SOL    HW2 4392   4.067   2.128   5.549
 1165SOL     OW 4393   3.798   6.149   3.656
 1165SOL    HW1 4394   3.739   6.133   3.736
 1165SOL    HW2 4395   3.743   6.142   3.573
 1166SOL     OW 4396   3.163   4.671   6.000
 1166SOL    HW1 4397   3.187   4.671   6.097
 1166SOL    HW2 4398   3.185   4.760   5.960
 1167SOL     OW 4399   5.253   4.726   2.716
 1167SOL    HW1 4400   5.169   4.723   2.662
 1167SOL    HW2 4401   5.332   4.723   2.655
 1168SOL     OW 4402   6.307   0.576   3.047
 1168SOL    HW1 4403   6.241   0.648   3.067
 1168SOL    HW2 4404   6.279   0.525   2.966
 1169SOL     OW 4405   4.913   0.980   5.550
 1169SOL    HW1 4406   4.853   0.948   5.477
 1169SOL    HW2 4407   4.958   0.902   5.593
 1170SOL     OW 4408   5.047   6.159   3.655
 1170SOL    HW1 4409   5.128   6.109   3.688
 1170SOL    HW2 4410   4.988   6.096   3.604
 1171SOL     OW 4411   0.818   6.019   1.055
 1171SOL    HW1 4412   0.871   6.089   1.006
 1171SOL    HW2 4413   0.795   5.944   0.993
 1172SOL     OW 4414   6.594   3.638   6.322
 1172SOL    HW1 4415   6.676   3.613   6.271
 1172SOL    HW2 4416   6.525   3.566   6.310
 1173SOL     OW 4417   3.599   1.615   0.618
 1173SOL    HW1 4418   3.668   1.552   0.584
 1173SOL    HW2 4419   3.639   1.706   0.628
 1174SOL     OW 4420   2.666   3.699   0.529
 1174SOL    HW1 4421   2.691   3.746   0.614
 1174SOL    HW2 4422   2.570   3.671   0.533
 1175SOL     OW 4423   3.407   2.901   4.515
 1175SOL    HW1 4424   3.321   2.947   4.493
 1175SOL    HW2 4425   3.478   2.927   4.449
 1176SOL     OW 4426   5.471   3.706   5.726
 1176SOL    HW1 4427   5.543   3.669   5.667
 1176SOL    HW2 4428   5.489   3.803   5.743
 1177SOL     OW 4429   0.192   1.920   4.542
 1177SOL    HW1 4430   0.212   2.015   4.517
 1177SOL    HW2 4431   0.227   1.902   4.634
 1178SOL     OW 4432   3.726   5.156   0.592
 1178SOL    HW1 4433   3.699   5.153   0.689
 1178SOL    HW2 4434   3.703   5.070   0.549
 1179SOL     OW 4435   1.838   5.269   0.207
 1179SOL    HW1 4436   1.813   5.284   0.302
 1179SOL    HW2 4437   1.931   5.301   0.191
 1180SOL     OW 4438   3.471   5.812   0.842
 1180SOL    HW1 4439   3.430   5.841   0.929
 1180SOL    HW2 4440   3.537   5.880   0.812
 1181SOL     OW 4441   0.383   6.468   0.353
 1181SOL    HW1 4442   0.330   6.386   0.377
 1181SOL    HW2 4443   0.470   6.467   0.402
 1182SOL     OW 4444   4.373   4.528   2.892
 1182SOL    HW1 4445   4.450   4.477   2.931
 1182SOL    HW2 4446   4.314   4.560   2.966
 1183SOL     OW 4447   2.492   3.236   5.664
 1183SOL    HW1 4448   2.528   3.184   5.742
 1183SOL    HW2 4449   2.552   3.314   5.646
 1184SOL     OW 4450   0.795   6.836   6.227
 1184SOL    HW1 4451   0.758   6.781   6.152
 1184SOL    HW2 4452   0.839   6.918   6.190
 1185SOL     OW 4453   6.585   1.648   6.619
 1185SOL    HW1 4454   6.570   1.553   6.647
 1185SOL    HW2 4455   6.677   1.676   6.645
 1186SOL     OW 4456   5.617   6.205   4.724
 1186SOL    HW1 4457   5.586   6.133   4.785
 1186SOL    HW2 4458   5.676   6.268   4.774
 1187SOL     OW 4459   5.908   0.623   6.256
 1187SOL    HW1 4460   5.983   0.557   6.264
 1187SOL    HW2 4461   5.909   0.684   6.335
 1188SOL     OW 4462   2.392   0.102   6.078
 1188SOL    HW1 4463   2.316   0.084   6.141
 1188SOL    HW2 4464   2.471   0.046   6.104
 1189SOL     OW 4465   5.482   3.384   3.395
 1189SOL    HW1 4466   5.465   3.295   3.352
 1189SOL    HW2 4467   5.400   3.441   3.387
 1190SOL     OW 4468   2.160   5.904   3.028
 1190SOL    HW1 4469   2.205   5.962   2.959
 1190SOL    HW2 4470   2.169   5.808   3.002
 1191SOL     OW 4471   4.169   5.702   2.706
 1191SOL    HW1 4472   4.077   5.664   2.716
 1191SOL    HW2 4473   4.167   5.801   2.724
 1192SOL     OW 4474   5.771   6.265   3.511
 1192SOL    HW1 4475   5.785   6.362   3.534
 1192SOL    HW2 4476   5.860   6.220   3.502
 1193SOL     OW 4477   6.470   5.276   4.274
 1193SOL    HW1 4478   6.503   5.363   4.236
 1193SOL    HW2 4479   6.414   5.230   4.207
 1194SOL     OW 4480   3.904   0.991   0.799
 1194SOL    HW1 4481   3.869   0.971   0.891
 1194SOL    HW2 4482   3.952   0.911   0.763
 1195SOL     OW 4483   5.392   2.436   3.558
 1195SOL    HW1 4484   5.422   2.340   3.562
 1195SOL    HW2 4485   5.457   2.492   3.609
 1196SOL     OW 4486   6.179   6.397   5.115
 1196SOL    HW1 4487   6.144   6.483   5.152
 1196SOL    HW2 4488   6.113   6.324   5.135
 1197SOL     OW 4489   2.524   6.103   0.561
 1197SOL    HW1 4490   2.491   6.010   0.575
 1197SOL    HW2 4491   2.551   6.143   0.648
 1198SOL     OW 4492   1.476   2.829   0.060
 1198SOL    HW1 4493   1.480   2.731   0.079
 1198SOL    HW2 4494   1.403   2.872   0.113
 1199SOL     OW 4495   5.490   4.098   1.755
 1199SOL    HW1 4496   5.423   4.169   1.732
 1199SOL    HW2 4497   5.553   4.086   1.678
 1200SOL     OW 4498   3.105   3.527   1.845
 1200SOL    HW1 4499   3.204   3.531   1.855
 1200SOL    HW2 4500   3.070   3.445   1.891
 1201SOL     OW 4501   1.788   2.121   4.781
 1201SOL    HW1 4502   1.860   2.054   4.765
 1201SOL    HW2 4503   1.771   2.129   4.879
 1202SOL     OW 4504   0.485   5.137   5.620
 1202SOL    HW1 4505   0.411   5.181   5.671
 1202SOL    HW2 4506   0.481   5.038   5.634
 1203SOL     OW 4507   4.545   5.607   6.017
 1203SOL    HW1 4508   4.588   5.697   6.023
 1203SOL    HW2 4509   4.579   5.549   6.092
 1204SOL     OW 4510   2.226   6.718   3.014
 1204SOL    HW1 4511   2.323   6.731   3.037
 1204SOL    HW2 4512   2.211   6.624   2.984
 1205SOL     OW 4513   5.243   4.521   2.309
 1205SOL    HW1 4514   5.340   4.520   2.286
 1205SOL    HW2 4515   5.196   4.449   2.259
 1206SOL     OW 4516   3.035   3.408   4.954
 1206SOL    HW1 4517   3.018   3.441   4.861
 1206SOL    HW2 4518   3.060   3.312   4.951
 1207SOL     OW 4519   1.247   6.452   2.014
 1207SOL    HW1 4520   1.260   6.506   1.931
 1207SOL    HW2 4521   1.280   6.358   1.998
 1208SOL     OW 4522   3.180   4.176   6.022
 1208SOL    HW1 4523   3.087   4.140   6.012
 1208SOL    HW2 4524   3.229   4.166   5.936
 1209SOL     OW 4525   4.146   6.241   5.393
 1209SOL    HW1 4526   4.185   6.297   5.466
 1209SOL    HW2 4527   4.205   6.162   5.376
 1210SOL     OW 4528   3.377   0.734   3.095
 1210SOL    HW1 4529   3.371   0.635   3.113
 1210SOL    HW2 4530   3.317   0.757   3.018
 1211SOL     OW 4531   1.085   3.566   0.069
 1211SOL    HW1 4532   1.167   3.617   0.096
 1211SOL    HW2 4533   1.062   3.499   0.140
 1212SOL     OW 4534   1.683   6.326   0.174
 1212SOL    HW1 4535   1.647   6.261   0.240
 1212SOL    HW2 4536   1.607   6.373   0.129
 1213SOL     OW 4537   5.713   2.964   1.551
 1213SOL    HW1 4538   5.674   2.923   1.634
 1213SOL    HW2 4539   5.713   2.897   1.477
 1214SOL     OW 4540   0.171   2.547   1.513
 1214SOL    HW1 4541   0.175   2.605   1.594
 1214SOL    HW2 4542   0.165   2.604   1.431
 1215SOL     OW 4543   1.436   5.598   4.284
 1215SOL    HW1 4544   1.378   5.582   4.204
 1215SOL    HW2 4545   1.401   5.677   4.335
 1216SOL     OW 4546   4.658   6.480   0.819
 1216SOL    HW1 4547   4.561   6.476   0.795
 1216SOL    HW2 4548   4.668   6.509   0.914
 1217SOL     OW 4549   2.868   4.088   6.789
 1217SOL    HW1 4550   2.929   4.166   6.775
 1217SOL    HW2 4551   2.874   4.057   6.884
 1218SOL     OW 4552   1.915   4.991   3.442
 1218SOL    HW1 4553   1.893   4.913   3.383
 1218SOL    HW2 4554   1.866   5.072   3.409
 1219SOL     OW 4555   4.302   6.210   2.767
 1219SOL    HW1 4556   4.365   6.145   2.809
 1219SOL    HW2 4557   4.351   6.294   2.744
 1220SOL     OW 4558   0.937   4.704   2.605
 1220SOL    HW1 4559   0.911   4.713   2.508
 1220SOL    HW2 4560   0.904   4.616   2.640
 1221SOL     OW 4561   5.358   3.816   6.204
 1221SOL    HW1 4562   5.362   3.718   6.185
 1221SOL    HW2 4563   5.323   3.864   6.124
 1222SOL     OW 4564   6.484   6.763   6.428
 1222SOL    HW1 4565   6.413   6.731   6.366
 1222SOL    HW2 4566   6.567   6.783   6.376
 1223SOL     OW 4567   3.463   6.145   0.711
 1223SOL    HW1 4568   3.406   6.139   0.793
 1223SOL    HW2 4569   3.496   6.239   0.699
 1224SOL     OW 4570   3.625   0.419   1.938
 1224SOL    HW1 4571   3.693   0.434   1.866
 1224SOL    HW2 4572   3.608   0.505   1.985
 1225SOL     OW 4573   2.727   4.052   6.189
 1225SOL    HW1 4574   2.679   4.073   6.104
 1225SOL    HW2 4575   2.661   4.031   6.260
 1226SOL     OW 4576   2.147   4.399   1.149
 1226SOL    HW1 4577   2.117   4.472   1.210
 1226SOL    HW2 4578   2.169   4.318   1.202
 1227SOL     OW 4579   0.254   3.622   6.331
 1227SOL    HW1 4580   0.162   3.657   6.350
 1227SOL    HW2 4581   0.271   3.541   6.387
 1228SOL     OW 4582   3.928   1.639   5.953
 1228SOL    HW1 4583   3.991   1.563   5.937
 1228SOL    HW2 4584   3.864   1.646   5.876
 1229SOL     OW 4585   3.437   4.319   6.464
 1229SOL    HW1 4586   3.354   4.347   6.417
 1229SOL    HW2 4587   3.413   4.262   6.543
 1230SOL     OW 4588   4.669   6.289   3.482
 1230SOL    HW1 4589   4.752   6.339   3.460
 1230SOL    HW2 4590   4.663   6.275   3.581
 1231SOL     OW 4591   1.794   4.778   4.463
 1231SOL    HW1 4592   1.729   4.709   4.433
 1231SOL    HW2 4593   1.796   4.780   4.563
 1232SOL     OW 4594   1.868   2.528   4.761
 1232SOL    HW1 4595   1.959   2.491   4.777
 1232SOL    HW2 4596   1.805   2.492   4.831
 1233SOL     OW 4597   0.833   3.091   4.531
 1233SOL    HW1 4598   0.796   3.106   4.439
 1233SOL    HW2 4599   0.932   3.108   4.530
 1234SOL     OW 4600   6.427   4.275   4.379
 1234SOL    HW1 4601   6.499   4.290   4.447
 1234SOL    HW2 4602   6.339   4.270   4.425
 1235SOL     OW 4603   6.495   5.902   4.000
 1235SOL    HW1 4604   6.517   5.845   3.921
 1235SOL    HW2 4605   6.573   5.962   4.019
 1236SOL     OW 4606   5.098   0.842   6.816
 1236SOL    HW1 4607   5.103   0.928   6.866
 1236SOL    HW2 4608   5.091   0.860   6.718
 1237SOL     OW 4609   2.848   4.364   6.547
 1237SOL    HW1 4610   2.854   4.325   6.455
 1237SOL    HW2 4611   2.891   4.454   6.547
 1238SOL     OW 4612   1.563   1.545   1.522
 1238SOL    HW1 4613   1.575   1.626   1.464
 1238SOL    HW2 4614   1.588   1.464   1.470
 1239SOL     OW 4615   0.321   6.820   6.348
 1239SOL    HW1 4616   0.308   6.836   6.446
 1239SOL    HW2 4617   0.408   6.860   6.319
 1240SOL     OW 4618   4.226   5.777   2.146
 1240SOL    HW1 4619   4.326   5.783   2.138
 1240SOL    HW2 4620   4.184   5.793   2.057
 1241SOL     OW 4621   6.756   3.268   3.224
 1241SOL    HW1 4622   6.702   3.293   3.145
 1241SOL    HW2 4623   6.713   3.191   3.271
 1242SOL     OW 4624   2.630   3.665   6.351
 1242SOL    HW1 4625   2.676   3.720   6.282
 1242SOL    HW2 4626   2.615   3.720   6.433
 1243SOL     OW 4627   2.726   5.128   5.490
 1243SOL    HW1 4628   2.797   5.065   5.522
 1243SOL    HW2 4629   2.669   5.155   5.567
 1244SOL     OW 4630   0.790   0.866   3.126
 1244SOL    HW1 4631   0.863   0.932   3.142
 1244SOL    HW2 4632   0.821   0.798   3.058
 1245SOL     OW 4633   2.779   2.817   5.817
 1245SOL    HW1 4634   2.733   2.904   5.803
 1245SOL    HW2 4635   2.864   2.831   5.868
 1246SOL     OW 4636   1.000   6.726   2.370
 1246SOL    HW1 4637   1.022   6.727   2.272
 1246SOL    HW2 4638   0.984   6.632   2.400
 1247SOL     OW 4639   1.704   6.643   6.847
 1247SOL    HW1 4640   1.773   6.581   6.884
 1247SOL    HW2 4641   1.634   6.591   6.799
 1248SOL     OW 4642   1.883   6.279   3.480
 1248SOL    HW1 4643   1.897   6.376   3.458
 1248SOL    HW2 4644   1.971   6.237   3.504
 1249SOL     OW 4645   6.249   3.329   2.929
 1249SOL    HW1 4646   6.197   3.243   2.928
 1249SOL    HW2 4647   6.187   3.405   2.944
 1250SOL     OW 4648   0.263   4.387   4.099
 1250SOL    HW1 4649   0.249   4.393   4.198
 1250SOL    HW2 4650   0.292   4.475   4.064
 1251SOL     OW 4651   3.398   6.873   5.469
 1251SOL    HW1 4652   3.353   6.948   5.518
 1251SOL    HW2 4653   3.367   6.786   5.505
 1252SOL     OW 4654   3.319   3.387   6.743
 1252SOL    HW1 4655   3.336   3.305   6.689
 1252SOL    HW2 4656   3.351   3.468   6.693
 1253SOL     OW 4657   4.184   6.062   3.509
 1253SOL    HW1 4658   4.249   6.080   3.435
 1253SOL    HW2 4659   4.230   6.013   3.583
 1254SOL     OW 4660   6.426   1.704   2.577
 1254SOL    HW1 4661   6.465   1.788   2.614
 1254SOL    HW2 4662   6.457   1.625   2.631
 1255SOL     OW 4663   5.980   0.112   0.295
 1255SOL    HW1 4664   6.058   0.052   0.282
 1255SOL    HW2 4665   5.984   0.188   0.230
 1256SOL     OW 4666   4.273   1.626   3.931
 1256SOL    HW1 4667   4.255   1.533   3.899
 1256SOL    HW2 4668   4.370   1.647   3.921
 1257SOL     OW 4669   6.396   1.157   4.147
 1257SOL    HW1 4670   6.336   1.173   4.069
 1257SOL    HW2 4671   6.492   1.161   4.118
 1258SOL     OW 4672   6.817   6.643   4.174
 1258SOL    HW1 4673   6.891   6.659   4.108
 1258SOL    HW2 4674   6.816   6.717   4.241
 1259SOL     OW 4675   4.118   2.324   5.323
 1259SOL    HW1 4676   4.131   2.397   5.256
 1259SOL    HW2 4677   4.097   2.363   5.412
 1260SOL     OW 4678   0.562   1.321   5.926
 1260SOL    HW1 4679   0.531   1.226   5.933
 1260SOL    HW2 4680   0.651   1.323   5.881
 1261SOL     OW 4681   6.396   3.991   0.833
 1261SOL    HW1 4682   6.364   4.075   0.790
 1261SOL    HW2 4683   6.371   3.913   0.776
 1262SOL     OW 4684   5.202   6.043   2.476
 1262SOL    HW1 4685   5.195   6.101   2.395
 1262SOL    HW2 4686   5.123   5.981   2.480
 1263SOL     OW 4687   0.194   2.754   3.561
 1263SOL    HW1 4688   0.242   2.701   3.631
 1263SOL    HW2 4689   0.136   2.694   3.507
 1264SOL     OW 4690   0.804   2.958   5.210
 1264SOL    HW1 4691   0.762   2.915   5.290
 1264SOL    HW2 4692   0.798   2.896   5.132
 1265SOL     OW 4693   5.589   6.424   5.387
 1265SOL    HW1 4694   5.555   6.512   5.421
 1265SOL    HW2 4695   5.644   6.380   5.458
 1266SOL     OW 4696   1.601   1.644   5.644
 1266SOL    HW1 4697   1.539   1.566   5.644
 1266SOL    HW2 4698   1.693   1.613   5.617
 1267SOL     OW 4699   3.587   0.273   2.768
 1267SOL    HW1 4700   3.531   0.290   2.849
 1267SOL    HW2 4701   3.617   0.177   2.768
 1268SOL     OW 4702   4.208   2.893   5.536
 1268SOL    HW1 4703   4.205   2.810   5.481
 1268SOL    HW2 4704   4.266   2.878   5.616
 1269SOL     OW 4705   6.130   2.051   4.311
 1269SOL    HW1 4706   6.223   2.058   4.276
 1269SOL    HW2 4707   6.099   1.956   4.305
 1270SOL     OW 4708   6.430   5.705   2.647
 1270SOL    HW1 4709   6.456   5.778   2.584
 1270SOL    HW2 4710   6.478   5.621   2.622
 1271SOL     OW 4711   1.607   1.638   0.959
 1271SOL    HW1 4712   1.584   1.542   0.980
 1271SOL    HW2 4713   1.565   1.665   0.873
 1272SOL     OW 4714   6.606   2.990   6.351
 1272SOL    HW1 4715   6.694   2.942   6.354
 1272SOL    HW2 4716   6.614   3.072   6.295
 1273SOL     OW 4717   1.317   4.607   5.118
 1273SOL    HW1 4718   1.372   4.553   5.054
 1273SOL    HW2 4719   1.375   4.640   5.192
 1274SOL     OW 4720   0.027   4.992   2.724
 1274SOL    HW1 4721   0.036   4.949   2.814
 1274SOL    HW2 4722   7.011   4.925   2.659
 1275SOL     OW 4723   2.226   1.108   3.145
 1275SOL    HW1 4724   2.131   1.102   3.115
 1275SOL    HW2 4725   2.233   1.079   3.240
 1276SOL     OW 4726   5.460   4.950   4.060
 1276SOL    HW1 4727   5.469   4.993   4.150
 1276SOL    HW2 4728   5.391   4.878   4.064
 1277SOL     OW 4729   0.480   5.930   0.687
 1277SOL    HW1 4730   0.551   6.000   0.687
 1277SOL    HW2 4731   0.503   5.858   0.621
 1278SOL     OW 4732   1.111   5.990   3.062
 1278SOL    HW1 4733   1.139   5.894   3.063
 1278SOL    HW2 4734   1.045   6.006   3.136
 1279SOL     OW 4735   2.802   2.865   1.742
 1279SOL    HW1 4736   2.813   2.938   1.808
 1279SOL    HW2 4737   2.891   2.832   1.711
 1280SOL     OW 4738   2.047   2.181   3.996
 1280SOL    HW1 4739   2.095   2.222   3.918
 1280SOL    HW2 4740   2.001   2.253   4.048
 1281SOL     OW 4741   4.920   6.209   5.181
 1281SOL    HW1 4742   4.967   6.139   5.127
 1281SOL    HW2 4743   4.987   6.268   5.227
 1282SOL     OW 4744   0.170   2.617   1.210
 1282SOL    HW1 4745   0.078   2.643   1.241
 1282SOL    HW2 4746   0.167   2.592   1.114
 1283SOL     OW 4747   6.720   2.963   4.533
 1283SOL    HW1 4748   6.725   3.053   4.488
 1283SOL    HW2 4749   6.811   2.937   4.566
 1284SOL     OW 4750   4.092   2.231   1.933
 1284SOL    HW1 4751   4.010   2.176   1.922
 1284SOL    HW2 4752   4.117   2.236   2.030
 1285SOL     OW 4753   3.989   1.090   5.509
 1285SOL    HW1 4754   3.905   1.106   5.458
 1285SOL    HW2 4755   4.063   1.065   5.446
 1286SOL     OW 4756   5.496   1.516   1.045
 1286SOL    HW1 4757   5.581   1.467   1.064
 1286SOL    HW2 4758   5.419   1.454   1.059
 1287SOL     OW 4759   0.037   5.097   4.747
 1287SOL    HW1 4760   6.969   5.053   4.752
 1287SOL    HW2 4761   0.091   5.053   4.675
 1288SOL     OW 4762   4.718   4.531   7.003
 1288SOL    HW1 4763   4.788   4.521   6.933
 1288SOL    HW2 4764   4.628   4.534   6.961
 1289SOL     OW 4765   0.015   6.811   1.274
 1289SOL    HW1 4766   6.965   6.818   1.205
 1289SOL    HW2 4767   0.104   6.806   1.229
 1290SOL     OW 4768   1.066   6.357   5.257
 1290SOL    HW1 4769   0.977   6.311   5.263
 1290SOL    HW2 4770   1.109   6.336   5.169
 1291SOL     OW 4771   6.712   4.886   3.585
 1291SOL    HW1 4772   6.701   4.951   3.660
 1291SOL    HW2 4773   6.798   4.836   3.596
 1292SOL     OW 4774   1.171   6.829   1.880
 1292SOL    HW1 4775   1.144   6.821   1.784
 1292SOL    HW2 4776   1.219   6.915   1.895
 1293SOL     OW 4777   4.642   1.105   0.156
 1293SOL    HW1 4778   4.708   1.046   0.203
 1293SOL    HW2 4779   4.551   1.065   0.161
 1294SOL     OW 4780   2.118   4.452   5.009
 1294SOL    HW1 4781   2.084   4.545   4.997
 1294SOL    HW2 4782   2.181   4.448   5.087
 1295SOL     OW 4783   6.528   4.714   0.909
 1295SOL    HW1 4784   6.507   4.802   0.950
 1295SOL    HW2 4785   6.608   4.723   0.849
 1296SOL     OW 4786   5.229   0.182   5.721
 1296SOL    HW1 4787   5.327   0.191   5.700
 1296SOL    HW2 4788   5.203   0.086   5.713
 1297SOL     OW 4789   0.545   0.533   1.844
 1297SOL    HW1 4790   0.526   0.439   1.872
 1297SOL    HW2 4791   0.520   0.595   1.918
 1298SOL     OW 4792   5.012   0.674   2.315
 1298SOL    HW1 4793   5.072   0.653   2.392
 1298SOL    HW2 4794   4.934   0.727   2.349
 1299SOL     OW 4795   0.588   3.498   4.619
 1299SOL    HW1 4796   0.622   3.432   4.553
 1299SOL    HW2 4797   0.640   3.490   4.704
 1300SOL     OW 4798   0.904   5.435   1.665
 1300SOL    HW1 4799   0.846   5.402   1.740
 1300SOL    HW2 4800   0.848   5.485   1.599
 1301SOL     OW 4801   0.341   0.090   0.463
 1301SOL    HW1 4802   0.357   0.093   0.365
 1301SOL    HW2 4803   0.351   0.182   0.501
 1302SOL     OW 4804   6.237   0.101   5.080
 1302SOL    HW1 4805   6.168   0.131   5.015
 1302SOL    HW2 4806   6.328   0.130   5.048
 1303SOL     OW 4807   3.414   6.668   1.511
 1303SOL    HW1 4808   3.318   6.684   1.534
 1303SOL    HW2 4809   3.428   6.570   1.494
 1304SOL     OW 4810   0.506   0.777   0.764
 1304SOL    HW1 4811   0.588   0.720   0.766
 1304SOL    HW2 4812   0.532   0.871   0.743
 1305SOL     OW 4813   4.477   3.258   6.435
 1305SOL    HW1 4814   4.401   3.250   6.369
 1305SOL    HW2 4815   4.516   3.350   6.428
 1306SOL     OW 4816   2.966   5.646   4.068
 1306SOL    HW1 4817   3.029   5.570   4.052
 1306SOL    HW2 4818   2.983   5.686   4.158
 1307SOL     OW 4819   2.451   2.494   3.455
 1307SOL    HW1 4820   2.529   2.471   3.513
 1307SOL    HW2 4821   2.473   2.472   3.360
 1308SOL     OW 4822   0.188   4.413   6.439
 1308SOL    HW1 4823   0.190   4.493   6.499
 1308SOL    HW2 4824   0.134   4.434   6.357
 1309SOL     OW 4825   5.726   4.838   6.666
 1309SOL    HW1 4826   5.652   4.824   6.600
 1309SOL    HW2 4827   5.813   4.809   6.625
 1310SOL     OW 4828   1.182   4.284   3.398
 1310SOL    HW1 4829   1.239   4.212   3.438
 1310SOL    HW2 4830   1.130   4.246   3.321
 1311SOL     OW 4831   5.783   5.131   0.817
 1311SOL    HW1 4832   5.830   5.190   0.882
 1311SOL    HW2 4833   5.741   5.055   0.867
 1312SOL     OW 4834   2.451   1.137   6.025
 1312SOL    HW1 4835   2.499   1.182   6.101
 1312SOL    HW2 4836   2.494   1.049   6.007
 1313SOL     OW 4837   6.818   5.524   1.967
 1313SOL    HW1 4838   6.857   5.432   1.967
 1313SOL    HW2 4839   6.758   5.534   1.887
 1314SOL     OW 4840   2.157   1.453   5.081
 1314SOL    HW1 4841   2.091   1.528   5.074
 1314SOL    HW2 4842   2.247   1.490   5.101
 1315SOL     OW 4843   6.190   1.201   3.012
 1315SOL    HW1 4844   6.137   1.251   3.080
 1315SOL    HW2 4845   6.263   1.259   2.977
 1316SOL     OW 4846   5.606   0.312   6.680
 1316SOL    HW1 4847   5.626   0.215   6.693
 1316SOL    HW2 4848   5.687   0.366   6.704
 1317SOL     OW 4849   3.609   3.798   5.794
 1317SOL    HW1 4850   3.683   3.736   5.820
 1317SOL    HW2 4851   3.617   3.821   5.697
 1318SOL     OW 4852   1.489   1.742   6.321
 1318SOL    HW1 4853   1.531   1.689   6.395
 1318SOL    HW2 4854   1.399   1.703   6.299
 1319SOL     OW 4855   0.072   6.943   0.949
 1319SOL    HW1 4856   0.150   6.901   0.995
 1319SOL    HW2 4857   7.014   6.883   0.955
 1320SOL     OW 4858   3.349   3.121   5.908
 1320SOL    HW1 4859   3.430   3.180   5.913
 1320SOL    HW2 4860   3.302   3.121   5.996
 1321SOL     OW 4861   6.790   2.579   0.482
 1321SOL    HW1 4862   6.785   2.675   0.457
 1321SOL    HW2 4863   6.738   2.563   0.567
 1322SOL     OW 4864   3.232   2.191   6.716
 1322SOL    HW1 4865   3.250   2.099   6.751
 1322SOL    HW2 4866   3.296   2.212   6.642
 1323SOL     OW 4867   3.758   6.612   0.966
 1323SOL    HW1 4868   3.723   6.646   0.879
 1323SOL    HW2 4869   3.751   6.512   0.968
 1324SOL     OW 4870   2.096   3.931   6.986
 1324SOL    HW1 4871   2.083   3.990   0.044
 1324SOL    HW2 4872   2.062   3.979   6.904
 1325SOL     OW 4873   2.856   5.709   5.278
 1325SOL    HW1 4874   2.886   5.661   5.196
 1325SOL    HW2 4875   2.787   5.655   5.326
 1326SOL     OW 4876   4.871   2.254   4.682
 1326SOL    HW1 4877   4.881   2.185   4.610
 1326SOL    HW2 4878   4.795   2.228   4.742
 1327SOL     OW 4879   5.207   5.327   2.181
 1327SOL    HW1 4880   5.163   5.411   2.214
 1327SOL    HW2 4881   5.183   5.251   2.241
 1328SOL     OW 4882   1.936   2.729   5.459
 1328SOL    HW1 4883   1.988   2.809   5.489
 1328SOL    HW2 4884   1.842   2.736   5.495
 1329SOL     OW 4885   0.829   2.817   4.122
 1329SOL    HW1 4886   0.845   2.916   4.125
 1329SOL    HW2 4887   0.864   2.776   4.206
 1330SOL     OW 4888   6.043   2.825   2.140
 1330SOL    HW1 4889   6.074   2.920   2.134
 1330SOL    HW2 4890   6.102   2.766   2.085
 1331SOL     OW 4891   4.570   1.841   3.866
 1331SOL    HW1 4892   4.510   1.858   3.789
 1331SOL    HW2 4893   4.624   1.758   3.849
 1332SOL     OW 4894   2.043   5.770   0.007
 1332SOL    HW1 4895   1.993   5.850   6.993
 1332SOL    HW2 4896   2.011   5.750   0.100
 1333SOL     OW 4897   3.091   4.035   2.754
 1333SOL    HW1 4898   3.145   4.014   2.836
 1333SOL    HW2 4899   3.153   4.055   2.678
 1334SOL     OW 4900   6.552   3.200   1.656
 1334SOL    HW1 4901   6.591   3.120   1.612
 1334SOL    HW2 4902   6.456   3.211   1.627
 1335SOL     OW 4903   1.003   4.122   2.834
 1335SOL    HW1 4904   0.923   4.073   2.801
 1335SOL    HW2 4905   0.977   4.213   2.864
 1336SOL     OW 4906   2.300   0.268   5.561
 1336SOL    HW1 4907   2.225   0.326   5.593
 1336SOL    HW2 4908   2.387   0.310   5.587
 1337SOL     OW 4909   6.832   0.495   3.056
 1337SOL    HW1 4910   6.783   0.510   3.142
 1337SOL    HW2 4911   6.895   0.571   3.041
 1338SOL     OW 4912   6.685   4.105   4.975
 1338SOL    HW1 4913   6.648   4.073   4.888
 1338SOL    HW2 4914   6.624   4.174   5.014
 1339SOL     OW 4915   6.982   0.324   0.231
 1339SOL    HW1 4916   0.035   0.378   0.193
 1339SOL    HW2 4917   6.904   0.326   0.168
 1340SOL     OW 4918   4.068   2.782   1.236
 1340SOL    HW1 4919   4.035   2.799   1.329
 1340SOL    HW2 4920   4.168   2.784   1.236
 1341SOL     OW 4921   4.973   5.933   7.019
 1341SOL    HW1 4922   4.934   5.848   6.983
 1341SOL    HW2 4923   4.990   5.924   0.096
 1342SOL     OW 4924   2.020   6.336   1.845
 1342SOL    HW1 4925   1.962   6.260   1.873
 1342SOL    HW2 4926   2.068   6.373   1.925
 1343SOL     OW 4927   6.291   6.135   3.389
 1343SOL    HW1 4928   6.230   6.074   3.337
 1343SOL    HW2 4929   6.339   6.082   3.459
 1344SOL     OW 4930   0.623   0.818   4.666
 1344SOL    HW1 4931   0.685   0.854   4.596
 1344SOL    HW2 4932   0.674   0.756   4.727
 1345SOL     OW 4933   0.358   6.367   0.049
 1345SOL    HW1 4934   0.341   6.446   7.012
 1345SOL    HW2 4935   0.342   6.392   0.144
 1346SOL     OW 4936   3.092   4.991   4.861
 1346SOL    HW1 4937   3.067   4.932   4.937
 1346SOL    HW2 4938   3.104   5.085   4.894
 1347SOL     OW 4939   1.240   6.819   6.474
 1347SOL    HW1 4940   1.279   6.911   6.471
 1347SOL    HW2 4941   1.175   6.808   6.399
 1348SOL     OW 4942   0.483   6.255   5.306
 1348SOL    HW1 4943   0.522   6.224   5.392
 1348SOL    HW2 4944   0.515   6.195   5.232
 1349SOL     OW 4945   4.729   2.716   3.815
 1349SOL    HW1 4946   4.812   2.660   3.807
 1349SOL    HW2 4947   4.753   2.806   3.852
 1350SOL     OW 4948   4.206   4.234   6.772
 1350SOL    HW1 4949   4.283   4.214   6.711
 1350SOL    HW2 4950   4.161   4.318   6.742
 1351SOL     OW 4951   0.429   2.713   5.334
 1351SOL    HW1 4952   0.386   2.797   5.367
 1351SOL    HW2 4953   0.445   2.652   5.412
 1352SOL     OW 4954   6.946   0.414   2.256
 1352SOL    HW1 4955   0.012   0.368   2.269
 1352SOL    HW2 4956   6.947   0.501   2.305
 1353SOL     OW 4957   0.922   0.906   0.351
 1353SOL    HW1 4958   0.971   0.975   0.298
 1353SOL    HW2 4959   0.951   0.814   0.322
 1354SOL     OW 4960   4.754   4.993   3.040
 1354SOL    HW1 4961   4.791   5.077   3.001
 1354SOL    HW2 4962   4.688   5.016   3.112
 1355SOL     OW 4963   5.450   3.090   5.825
 1355SOL    HW1 4964   5.407   3.129   5.907
 1355SOL    HW2 4965   5.502   3.009   5.850
 1356SOL     OW 4966   2.724   3.195   0.275
 1356SOL    HW1 4967   2.824   3.207   0.273
 1356SOL    HW2 4968   2.681   3.282   0.297
 1357SOL     OW 4969   1.387   3.265   5.441
 1357SOL    HW1 4970   1.409   3.318   5.359
 1357SOL    HW2 4971   1.438   3.302   5.519
 1358SOL     OW 4972   2.437   6.740   0.390
 1358SOL    HW1 4973   2.341   6.737   0.364
 1358SOL    HW2 4974   2.446   6.778   0.482
 1359SOL     OW 4975   6.486   4.668   1.477
 1359SOL    HW1 4976   6.542   4.697   1.400
 1359SOL    HW2 4977   6.480   4.568   1.478
 1360SOL     OW 4978   1.946   2.575   6.926
 1360SOL    HW1 4979   1.871   2.638   6.907
 1360SOL    HW2 4980   2.028   2.607   6.878
 1361SOL     OW 4981   0.066   4.552   4.916
 1361SOL    HW1 4982   0.013   4.492   4.856
 1361SOL    HW2 4983   0.053   4.525   5.011
 1362SOL     OW 4984   3.289   2.916   2.955
 1362SOL    HW1 4985   3.276   2.860   3.037
 1362SOL    HW2 4986   3.387   2.930   2.940
 1363SOL     OW 4987   1.046   6.089   4.227
 1363SOL    HW1 4988   0.954   6.125   4.212
 1363SOL    HW2 4989   1.043   5.989   4.227
 1364SOL     OW 4990   4.613   4.064   0.764
 1364SOL    HW1 4991   4.556   4.146   0.768
 1364SOL    HW2 4992   4.575   3.995   0.826
 1365SOL     OW 4993   6.717   3.097   6.829
 1365SOL    HW1 4994   6.680   3.133   6.915
 1365SOL    HW2 4995   6.650   3.110   6.756
 1366SOL     OW 4996   2.842   6.645   5.147
 1366SOL    HW1 4997   2.839   6.657   5.048
 1366SOL    HW2 4998   2.922   6.691   5.184
 1367SOL     OW 4999   2.344   1.059   1.820
 1367SOL    HW1 5000   2.345   1.151   1.780
 1367SOL    HW2 5001   2.319   1.065   1.917
 1368SOL     OW 5002   5.591   6.665   3.462
 1368SOL    HW1 5003   5.497   6.639   3.485
 1368SOL    HW2 5004   5.612   6.635   3.369
 1369SOL     OW 5005   0.931   0.948   2.722
 1369SOL    HW1 5006   0.982   0.866   2.696
 1369SOL    HW2 5007   0.844   0.951   2.672
 1370SOL     OW 5008   1.955   0.205   1.496
 1370SOL    HW1 5009   1.966   0.216   1.595
 1370SOL    HW2 5010   1.908   0.284   1.458
 1371SOL     OW 5011   4.068   0.107   6.818
 1371SOL    HW1 5012   4.125   0.123   6.899
 1371SOL    HW2 5013   4.064   0.189   6.762
 1372SOL     OW 5014   3.004   2.141   1.996
 1372SOL    HW1 5015   2.994   2.045   2.022
 1372SOL    HW2 5016   2.918   2.190   2.016
 1373SOL     OW 5017   0.997   5.886   0.598
 1373SOL    HW1 5018   0.978   5.918   0.505
 1373SOL    HW2 5019   1.030   5.792   0.595
 1374SOL     OW 5020   5.053   3.346   0.393
 1374SOL    HW1 5021   5.119   3.299   0.451
 1374SOL    HW2 5022   4.960   3.327   0.424
 1375SOL     OW 5023   0.700   4.059   5.294
 1375SOL    HW1 5024   0.610   4.027   5.323
 1375SOL    HW2 5025   0.697   4.080   5.196
 1376SOL     OW 5026   4.357   1.655   2.498
 1376SOL    HW1 5027   4.374   1.638   2.595
 1376SOL    HW2 5028   4.269   1.616   2.472
 1377SOL     OW 5029   1.079   5.185   4.850
 1377SOL    HW1 5030   1.141   5.234   4.788
 1377SOL    HW2 5031   1.089   5.087   4.837
 1378SOL     OW 5032   1.771   2.831   6.477
 1378SOL    HW1 5033   1.805   2.739   6.495
 1378SOL    HW2 5034   1.821   2.872   6.401
 1379SOL     OW 5035   4.485   6.105   1.352
 1379SOL    HW1 5036   4.498   6.068   1.444
 1379SOL    HW2 5037   4.471   6.204   1.357
 1380SOL     OW 5038   6.359   6.506   2.828
 1380SOL    HW1 5039   6.320   6.548   2.747
 1380SOL    HW2 5040   6.452   6.475   2.809
 1381SOL     OW 5041   6.067   0.360   1.143
 1381SOL    HW1 5042   6.083   0.324   1.234
 1381SOL    HW2 5043   6.063   0.460   1.147
 1382SOL     OW 5044   6.934   5.211   6.425
 1382SOL    HW1 5045   6.851   5.263   6.403
 1382SOL    HW2 5046   7.011   5.246   6.373
 1383SOL     OW 5047   2.780   0.536   0.258
 1383SOL    HW1 5048   2.779   0.633   0.282
 1383SOL    HW2 5049   2.723   0.520   0.177
 1384SOL     OW 5050   2.481   2.358   2.263
 1384SOL    HW1 5051   2.514   2.393   2.175
 1384SOL    HW2 5052   2.451   2.434   2.320
 1385SOL     OW 5053   5.766   2.880   3.785
 1385SOL    HW1 5054   5.804   2.807   3.728
 1385SOL    HW2 5055   5.702   2.840   3.852
 1386SOL     OW 5056   2.027   2.547   3.636
 1386SOL    HW1 5057   1.946   2.500   3.669
 1386SOL    HW2 5058   2.005   2.644   3.620
 1387SOL     OW 5059   2.492   0.565   4.553
 1387SOL    HW1 5060   2.518   0.630   4.625
 1387SOL    HW2 5061   2.564   0.563   4.483
 1388SOL     OW 5062   6.423   1.106   4.601
 1388SOL    HW1 5063   6.365   1.142   4.527
 1388SOL    HW2 5064   6.509   1.158   4.604
 1389SOL     OW 5065   6.578   0.919   4.019
 1389SOL    HW1 5066   6.511   0.848   3.998
 1389SOL    HW2 5067   6.604   0.967   3.934
 1390SOL     OW 5068   4.400   2.468   2.279
 1390SOL    HW1 5069   4.364   2.414   2.355
 1390SOL    HW2 5070   4.465   2.535   2.313
 1391SOL     OW 5071   5.799   1.371   4.829
 1391SOL    HW1 5072   5.796   1.300   4.759
 1391SOL    HW2 5073   5.789   1.461   4.786
 1392SOL     OW 5074   4.557   6.095   5.525
 1392SOL    HW1 5075   4.626   6.067   5.459
 1392SOL    HW2 5076   4.590   6.175   5.576
 1393SOL     OW 5077   5.235   0.247   6.775
 1393SOL    HW1 5078   5.289   0.185   6.719
 1393SOL    HW2 5079   5.256   0.232   6.872
 1394SOL     OW 5080   4.405   0.491   3.713
 1394SOL    HW1 5081   4.395   0.536   3.802
 1394SOL    HW2 5082   4.315   0.459   3.683
 1395SOL     OW 5083   1.346   5.285   2.329
 1395SOL    HW1 5084   1.374   5.351   2.259
 1395SOL    HW2 5085   1.251   5.258   2.314
 1396SOL     OW 5086   1.183   1.296   3.935
 1396SOL    HW1 5087   1.270   1.246   3.934
 1396SOL    HW2 5088   1.112   1.239   3.977
 1397SOL     OW 5089   0.531   4.962   5.085
 1397SOL    HW1 5090   0.472   5.034   5.048
 1397SOL    HW2 5091   0.552   4.982   5.181
 1398SOL     OW 5092   1.886   6.675   6.537
 1398SOL    HW1 5093   1.885   6.641   6.631
 1398SOL    HW2 5094   1.957   6.627   6.485
 1399SOL     OW 5095   3.898   6.904   6.699
 1399SOL    HW1 5096   3.932   6.901   6.604
 1399SOL    HW2 5097   3.957   6.963   6.753
 1400SOL     OW 5098   6.941   1.478   5.080
 1400SOL    HW1 5099   7.014   1.539   5.049
 1400SOL    HW2 5100   6.933   1.484   5.180
 1401SOL     OW 5101   5.191   0.375   2.773
 1401SOL    HW1 5102   5.227   0.431   2.847
 1401SOL    HW2 5103   5.265   0.323   2.730
 1402SOL     OW 5104   6.928   4.689   1.911
 1402SOL    HW1 5105   6.836   4.659   1.888
 1402SOL    HW2 5106   6.976   4.616   1.960
 1403SOL     OW 5107   3.147   3.394   6.142
 1403SOL    HW1 5108   3.223   3.356   6.195
 1403SOL    HW2 5109   3.180   3.468   6.084
 1404SOL     OW 5110   4.447   6.527   1.096
 1404SOL    HW1 5111   4.445   6.575   1.008
 1404SOL    HW2 5112   4.541   6.527   1.132
 1405SOL     OW 5113   1.170   3.826   0.603
 1405SOL    HW1 5114   1.132   3.780   0.684
 1405SOL    HW2 5115   1.265   3.853   0.621
 1406SOL     OW 5116   2.092   3.028   6.935
 1406SOL    HW1 5117   2.010   2.971   6.925
 1406SOL    HW2 5118   2.167   2.987   6.883
 1407SOL     OW 5119   0.647   2.744   1.227
 1407SOL    HW1 5120   0.688   2.783   1.309
 1407SOL    HW2 5121   0.652   2.644   1.232
 1408SOL     OW 5122   5.394   6.625   0.803
 1408SOL    HW1 5123   5.368   6.539   0.758
 1408SOL    HW2 5124   5.447   6.605   0.886
 1409SOL     OW 5125   6.468   1.613   5.452
 1409SOL    HW1 5126   6.392   1.628   5.389
 1409SOL    HW2 5127   6.545   1.574   5.403
 1410SOL     OW 5128   3.161   0.104   0.259
 1410SOL    HW1 5129   3.098   0.179   0.280
 1410SOL    HW2 5130   3.218   0.128   0.181
 1411SOL     OW 5131   3.595   5.148   6.550
 1411SOL    HW1 5132   3.590   5.237   6.595
 1411SOL    HW2 5133   3.579   5.076   6.618
 1412SOL     OW 5134   2.397   1.953   0.388
 1412SOL    HW1 5135   2.421   1.868   0.435
 1412SOL    HW2 5136   2.479   2.010   0.379
 1413SOL     OW 5137   2.132   1.762   5.341
 1413SOL    HW1 5138   2.075   1.845   5.349
 1413SOL    HW2 5139   2.228   1.789   5.332
 1414SOL     OW 5140   0.894   4.902   1.884
 1414SOL    HW1 5141   0.835   4.909   1.803
 1414SOL    HW2 5142   0.974   4.846   1.862
 1415SOL     OW 5143   3.242   1.744   5.154
 1415SOL    HW1 5144   3.243   1.687   5.072
 1415SOL    HW2 5145   3.307   1.819   5.143
 1416SOL     OW 5146   4.184   0.426   4.873
 1416SOL    HW1 5147   4.112   0.495   4.883
 1416SOL    HW2 5148   4.271   0.465   4.904
 1417SOL     OW 5149   3.411   3.350   4.338
 1417SOL    HW1 5150   3.346   3.290   4.293
 1417SOL    HW2 5151   3.375   3.443   4.340
 1418SOL     OW 5152   3.497   3.681   6.040
 1418SOL    HW1 5153   3.434   3.744   6.086
 1418SOL    HW2 5154   3.538   3.726   5.961
 1419SOL     OW 5155   1.203   6.207   2.356
 1419SOL    HW1 5156   1.300   6.190   2.373
 1419SOL    HW2 5157   1.162   6.125   2.317
 1420SOL     OW 5158   2.976   6.142   2.800
 1420SOL    HW1 5159   2.937   6.110   2.886
 1420SOL    HW2 5160   2.922   6.218   2.765
 1421SOL     OW 5161   2.050   5.233   6.625
 1421SOL    HW1 5162   2.106   5.153   6.607
 1421SOL    HW2 5163   2.092   5.287   6.698
 1422SOL     OW 5164   1.750   3.496   6.423
 1422SOL    HW1 5165   1.756   3.582   6.373
 1422SOL    HW2 5166   1.736   3.515   6.520
 1423SOL     OW 5167   3.774   0.523   5.152
 1423SOL    HW1 5168   3.694   0.548   5.097
 1423SOL    HW2 5169   3.752   0.530   5.249
 1424SOL     OW 5170   6.530   2.397   1.048
 1424SOL    HW1 5171   6.603   2.351   0.999
 1424SOL    HW2 5172   6.510   2.485   1.004
 1425SOL     OW 5173   5.455   0.077   3.879
 1425SOL    HW1 5174   5.428   0.070   3.782
 1425SOL    HW2 5175   5.384   0.126   3.929
 1426SOL     OW 5176   4.615   0.228   0.227
 1426SOL    HW1 5177   4.625   0.324   0.255
 1426SOL    HW2 5178   4.654   0.216   0.135
 1427SOL     OW 5179   1.158   0.314   4.112
 1427SOL    HW1 5180   1.208   0.237   4.072
 1427SOL    HW2 5181   1.099   0.280   4.185
 1428SOL     OW 5182   1.973   3.886   3.907
 1428SOL    HW1 5183   1.891   3.839   3.939
 1428SOL    HW2 5184   1.987   3.969   3.961
 1429SOL     OW 5185   6.142   0.451   2.094
 1429SOL    HW1 5186   6.148   0.509   2.013
 1429SOL    HW2 5187   6.234   0.435   2.131
 1430SOL     OW 5188   2.241   4.103   4.018
 1430SOL    HW1 5189   2.305   4.074   3.947
 1430SOL    HW2 5190   2.290   4.153   4.089
 1431SOL     OW 5191   3.539   1.534   0.296
 1431SOL    HW1 5192   3.582   1.583   0.371
 1431SOL    HW2 5193   3.550   1.435   0.310
 1432SOL     OW 5194   4.228   0.117   2.570
 1432SOL    HW1 5195   4.291   0.043   2.595
 1432SOL    HW2 5196   4.135   0.090   2.593
 1433SOL     OW 5197   3.089   0.972   3.706
 1433SOL    HW1 5198   3.119   0.900   3.768
 1433SOL    HW2 5199   3.168   1.025   3.676
 1434SOL     OW 5200   5.495   4.230   0.442
 1434SOL    HW1 5201   5.573   4.171   0.460
 1434SOL    HW2 5202   5.501   4.312   0.499
 1435SOL     OW 5203   0.831   0.054   4.418
 1435SOL    HW1 5204   0.793   6.995   4.372
 1435SOL    HW2 5205   0.872   0.026   4.505
 1436SOL     OW 5206   5.582   0.995   0.338
 1436SOL    HW1 5207   5.570   0.897   0.353
 1436SOL    HW2 5208   5.542   1.045   0.415
 1437SOL     OW 5209   3.988   1.002   0.538
 1437SOL    HW1 5210   3.998   1.081   0.478
 1437SOL    HW2 5211   3.947   1.031   0.624
 1438SOL     OW 5212   2.232   7.018   2.343
 1438SOL    HW1 5213   2.251   0.005   2.441
 1438SOL    HW2 5214   2.134   7.007   2.329
 1439SOL     OW 5215   0.471   5.465   6.553
 1439SOL    HW1 5216   0.502   5.423   6.638
 1439SOL    HW2 5217   0.388   5.518   6.570
 1440SOL     OW 5218   4.037   3.072   2.624
 1440SOL    HW1 5219   4.060   3.108   2.534
 1440SOL    HW2 5220   3.937   3.067   2.634
 1441SOL     OW 5221   6.122   2.268   5.531
 1441SOL    HW1 5222   6.033   2.312   5.521
 1441SOL    HW2 5223   6.109   2.172   5.559
 1442SOL     OW 5224   5.505   6.481   0.445
 1442SOL    HW1 5225   5.530   6.422   0.368
 1442SOL    HW2 5226   5.574   6.472   0.517
 1443SOL     OW 5227   1.456   2.676   3.294
 1443SOL    HW1 5228   1.366   2.669   3.336
 1443SOL    HW2 5229   1.472   2.596   3.236
 1444SOL     OW 5230   5.153   6.856   5.047
 1444SOL    HW1 5231   5.109   6.934   5.090
 1444SOL    HW2 5232   5.223   6.889   4.983
 1445SOL     OW 5233   6.602   1.753   0.559
 1445SOL    HW1 5234   6.504   1.751   0.574
 1445SOL    HW2 5235   6.621   1.761   0.461
 1446SOL     OW 5236   3.829   6.487   1.426
 1446SOL    HW1 5237   3.841   6.586   1.429
 1446SOL    HW2 5238   3.742   6.465   1.381
 1447SOL     OW 5239   6.432   1.575   4.948
 1447SOL    HW1 5240   6.508   1.579   5.012
 1447SOL    HW2 5241   6.348   1.552   4.997
 1448SOL     OW 5242   5.762   0.880   6.736
 1448SOL    HW1 5243   5.844   0.823   6.731
 1448SOL    HW2 5244   5.681   0.821   6.744
 1449SOL     OW 5245   4.698   5.525   1.017
 1449SOL    HW1 5246   4.780   5.533   1.074
 1449SOL    HW2 5247   4.647   5.611   1.020
 1450SOL     OW 5248   6.061   2.124   3.639
 1450SOL    HW1 5249   6.075   2.047   3.700
 1450SOL    HW2 5250   6.129   2.195   3.658
 1451SOL     OW 5251   1.765   6.174   1.767
 1451SOL    HW1 5252   1.780   6.154   1.863
 1451SOL    HW2 5253   1.846   6.148   1.714
 1452SOL     OW 5254   3.433   0.407   5.327
 1452SOL    HW1 5255   3.494   0.418   5.406
 1452SOL    HW2 5256   3.424   0.495   5.280
 1453SOL     OW 5257   4.501   4.572   4.400
 1453SOL    HW1 5258   4.407   4.599   4.418
 1453SOL    HW2 5259   4.511   4.549   4.303
 1454SOL     OW 5260   4.744   4.436   0.716
 1454SOL    HW1 5261   4.697   4.509   0.666
 1454SOL    HW2 5262   4.678   4.364   0.739
 1455SOL     OW 5263   2.078   1.760   1.911
 1455SOL    HW1 5264   2.006   1.693   1.927
 1455SOL    HW2 5265   2.050   1.821   1.836
 1456SOL     OW 5266   5.981   5.349   4.769
 1456SOL    HW1 5267   5.925   5.351   4.686
 1456SOL    HW2 5268   5.939   5.288   4.836
 1457SOL     OW 5269   2.324   0.272   3.666
 1457SOL    HW1 5270   2.284   0.259   3.575
 1457SOL    HW2 5271   2.419   0.303   3.656
 1458SOL     OW 5272   6.930   5.521   0.376
 1458SOL    HW1 5273   6.894   5.475   0.295
 1458SOL    HW2 5274   0.004   5.546   0.361
 1459SOL     OW 5275   2.353   7.021   1.286
 1459SOL    HW1 5276   2.430   6.991   1.343
 1459SOL    HW2 5277   2.316   0.085   1.322
 1460SOL     OW 5278   1.029   6.577   6.898
 1460SOL    HW1 5279   0.963   6.648   6.924
 1460SOL    HW2 5280   1.045   6.581   6.800
 1461SOL     OW 5281   5.069   5.100   2.653
 1461SOL    HW1 5282   5.001   5.166   2.683
 1461SOL    HW2 5283   5.158   5.124   2.692
 1462SOL     OW 5284   4.950   0.391   5.386
 1462SOL    HW1 5285   4.982   0.330   5.458
 1462SOL    HW2 5286   4.909   0.473   5.427
 1463SOL     OW 5287   0.770   2.188   6.183
 1463SOL    HW1 5288   0.679   2.177   6.223
 1463SOL    HW2 5289   0.803   2.281   6.199
 1464SOL     OW 5290   0.640   0.962   1.756
 1464SOL    HW1 5291   0.682   0.917   1.678
 1464SOL    HW2 5292   0.665   0.913   1.840
 1465SOL     OW 5293   0.554   0.754   4.062
 1465SOL    HW1 5294   0.559   0.683   4.131
 1465SOL    HW2 5295   0.460   0.784   4.051
 1466SOL     OW 5296   5.655   5.305   4.546
 1466SOL    HW1 5297   5.569   5.259   4.526
 1466SOL    HW2 5298   5.731   5.240   4.535
 1467SOL     OW 5299   6.003   3.549   3.471
 1467SOL    HW1 5300   6.067   3.572   3.543
 1467SOL    HW2 5301   6.036   3.469   3.420
 1468SOL     OW 5302   5.289   0.113   2.247
 1468SOL    HW1 5303   5.383   0.137   2.226
 1468SOL    HW2 5304   5.227   0.183   2.210
 1469SOL     OW 5305   1.004   0.965   2.117
 1469SOL    HW1 5306   1.049   0.906   2.183
 1469SOL    HW2 5307   0.947   1.031   2.166
 1470SOL     OW 5308   6.714   0.568   3.303
 1470SOL    HW1 5309   6.636   0.506   3.301
 1470SOL    HW2 5310   6.732   0.595   3.398
 1471SOL     OW 5311   6.362   0.569   1.161
 1471SOL    HW1 5312   6.264   0.548   1.164
 1471SOL    HW2 5313   6.402   0.554   1.252
 1472SOL     OW 5314   4.688   5.283   4.793
 1472SOL    HW1 5315   4.719   5.348   4.724
 1472SOL    HW2 5316   4.606   5.235   4.759
 1473SOL     OW 5317   6.059   4.040   3.243
 1473SOL    HW1 5318   6.033   3.954   3.286
 1473SOL    HW2 5319   6.052   4.115   3.309
 1474SOL     OW 5320   4.702   5.424   3.292
 1474SOL    HW1 5321   4.759   5.469   3.224
 1474SOL    HW2 5322   4.639   5.491   3.333
 1475SOL     OW 5323   6.299   0.651   3.703
 1475SOL    HW1 5324   6.240   0.727   3.675
 1475SOL    HW2 5325   6.247   0.565   3.700
 1476SOL     OW 5326   6.824   2.471   0.973
 1476SOL    HW1 5327   6.884   2.451   0.895
 1476SOL    HW2 5328   6.859   2.427   1.055
 1477SOL     OW 5329   2.399   6.326   3.544
 1477SOL    HW1 5330   2.310   6.312   3.500
 1477SOL    HW2 5331   2.412   6.258   3.616
 1478SOL     OW 5332   6.915   4.010   1.661
 1478SOL    HW1 5333   6.925   3.941   1.733
 1478SOL    HW2 5334   6.946   3.972   1.574
 1479SOL     OW 5335   1.183   4.978   0.547
 1479SOL    HW1 5336   1.188   4.941   0.454
 1479SOL    HW2 5337   1.227   4.915   0.610
 1480SOL     OW 5338   2.658   0.957   0.148
 1480SOL    HW1 5339   2.611   0.885   0.098
 1480SOL    HW2 5340   2.748   0.974   0.107
 1481SOL     OW 5341   0.187   2.711   6.153
 1481SOL    HW1 5342   0.141   2.800   6.155
 1481SOL    HW2 5343   0.273   2.716   6.204
 1482SOL     OW 5344   5.259   0.645   6.566
 1482SOL    HW1 5345   5.316   0.603   6.637
 1482SOL    HW2 5346   5.291   0.738   6.550
 1483SOL     OW 5347   6.668   2.096   6.385
 1483SOL    HW1 5348   6.621   2.010   6.368
 1483SOL    HW2 5349   6.611   2.173   6.356
 1484SOL     OW 5350   6.299   6.892   3.477
 1484SOL    HW1 5351   6.286   6.885   3.576
 1484SOL    HW2 5352   6.306   6.989   3.451
 1485SOL     OW 5353   5.940   3.001   3.935
 1485SOL    HW1 5354   5.893   3.032   4.018
 1485SOL    HW2 5355   5.880   2.939   3.884
 1486SOL     OW 5356   5.266   2.166   2.073
 1486SOL    HW1 5357   5.328   2.181   2.150
 1486SOL    HW2 5358   5.180   2.215   2.089
 1487SOL     OW 5359   6.550   1.103   5.869
 1487SOL    HW1 5360   6.532   1.164   5.947
 1487SOL    HW2 5361   6.468   1.096   5.813
 1488SOL     OW 5362   5.279   1.945   3.885
 1488SOL    HW1 5363   5.212   1.931   3.958
 1488SOL    HW2 5364   5.297   1.858   3.839
 1489SOL     OW 5365   3.656   5.515   4.484
 1489SOL    HW1 5366   3.678   5.574   4.561
 1489SOL    HW2 5367   3.620   5.570   4.409
 1490SOL     OW 5368   2.406   2.470   1.486
 1490SOL    HW1 5369   2.382   2.567   1.485
 1490SOL    HW2 5370   2.505   2.461   1.494
 1491SOL     OW 5371   6.935   2.562   5.524
 1491SOL    HW1 5372   6.939   2.586   5.621
 1491SOL    HW2 5373   6.842   2.537   5.499
 1492SOL     OW 5374   5.423   2.737   1.774
 1492SOL    HW1 5375   5.402   2.811   1.710
 1492SOL    HW2 5376   5.522   2.727   1.784
 1493SOL     OW 5377   6.045   1.574   5.126
 1493SOL    HW1 5378   6.045   1.668   5.090
 1493SOL    HW2 5379   5.982   1.568   5.203
 1494SOL     OW 5380   5.561   1.488   4.620
 1494SOL    HW1 5381   5.520   1.413   4.671
 1494SOL    HW2 5382   5.632   1.452   4.560
 1495SOL     OW 5383   1.103   3.723   2.672
 1495SOL    HW1 5384   1.166   3.766   2.737
 1495SOL    HW2 5385   1.120   3.625   2.669
 1496SOL     OW 5386   0.871   1.229   2.638
 1496SOL    HW1 5387   0.969   1.243   2.625
 1496SOL    HW2 5388   0.852   1.132   2.646
 1497SOL     OW 5389   5.480   4.746   5.613
 1497SOL    HW1 5390   5.472   4.785   5.522
 1497SOL    HW2 5391   5.546   4.798   5.667
 1498SOL     OW 5392   2.321   5.218   0.211
 1498SOL    HW1 5393   2.345   5.141   0.152
 1498SOL    HW2 5394   2.228   5.249   0.189
 1499SOL     OW 5395   0.783   4.154   4.635
 1499SOL    HW1 5396   0.868   4.121   4.676
 1499SOL    HW2 5397   0.800   4.240   4.588
 1500SOL     OW 5398   4.549   6.694   5.397
 1500SOL    HW1 5399   4.479   6.710   5.328
 1500SOL    HW2 5400   4.606   6.616   5.369
 1501SOL     OW 5401   4.216   0.171   0.019
 1501SOL    HW1 5402   4.311   0.199   0.004
 1501SOL    HW2 5403   4.176   0.227   0.092
 1502SOL     OW 5404   6.823   6.311   6.614
 1502SOL    HW1 5405   6.830   6.249   6.536
 1502SOL    HW2 5406   6.914   6.325   6.654
 1503SOL     OW 5407   3.257   4.360   5.323
 1503SOL    HW1 5408   3.346   4.346   5.366
 1503SOL    HW2 5409   3.241   4.287   5.256
 1504SOL     OW 5410   2.666   6.642   4.222
 1504SOL    HW1 5411   2.700   6.703   4.150
 1504SOL    HW2 5412   2.716   6.555   4.218
 1505SOL     OW 5413   4.566   6.839   2.195
 1505SOL    HW1 5414   4.546   6.914   2.132
 1505SOL    HW2 5415   4.664   6.835   2.213
 1506SOL     OW 5416   0.664   6.684   3.112
 1506SOL    HW1 5417   0.635   6.612   3.049
 1506SOL    HW2 5418   0.762   6.676   3.130
 1507SOL     OW 5419   2.723   2.223   6.682
 1507SOL    HW1 5420   2.750   2.189   6.592
 1507SOL    HW2 5421   2.803   2.230   6.740
 1508SOL     OW 5422   4.676   6.791   0.968
 1508SOL    HW1 5423   4.760   6.836   0.938
 1508SOL    HW2 5424   4.613   6.783   0.890
 1509SOL     OW 5425   5.531   1.607   6.658
 1509SOL    HW1 5426   5.522   1.681   6.592
 1509SOL    HW2 5427   5.563   1.524   6.612
 1510SOL     OW 5428   0.193   2.030   3.152
 1510SOL    HW1 5429   0.156   1.994   3.067
 1510SOL    HW2 5430   0.130   2.008   3.227
 1511SOL     OW 5431   1.006   2.900   0.659
 1511SOL    HW1 5432   1.021   2.802   0.666
 1511SOL    HW2 5433   1.091   2.945   0.628
 1512SOL     OW 5434   6.456   0.734   2.137
 1512SOL    HW1 5435   6.378   0.789   2.107
 1512SOL    HW2 5436   6.503   0.780   2.211
 1513SOL     OW 5437   3.499   0.881   2.385
 1513SOL    HW1 5438   3.421   0.896   2.446
 1513SOL    HW2 5439   3.540   0.791   2.403
 1514SOL     OW 5440   4.742   0.831   6.274
 1514SOL    HW1 5441   4.767   0.851   6.179
 1514SOL    HW2 5442   4.807   0.766   6.313
 1515SOL     OW 5443   5.901   5.241   5.071
 1515SOL    HW1 5444   5.925   5.332   5.106
 1515SOL    HW2 5445   5.981   5.181   5.078
 1516SOL     OW 5446   0.895   0.934   0.714
 1516SOL    HW1 5447   0.911   1.032   0.721
 1516SOL    HW2 5448   0.836   0.915   0.636
 1517SOL     OW 5449   3.348   5.508   3.637
 1517SOL    HW1 5450   3.345   5.420   3.590
 1517SOL    HW2 5451   3.415   5.504   3.711
 1518SOL     OW 5452   0.645   4.608   0.976
 1518SOL    HW1 5453   0.621   4.660   0.894
 1518SOL    HW2 5454   0.596   4.645   1.055
 1519SOL     OW 5455   0.217   4.001   1.167
 1519SOL    HW1 5456   0.259   4.081   1.209
 1519SOL    HW2 5457   0.286   3.949   1.118
 1520SOL     OW 5458   1.306   2.542   2.971
 1520SOL    HW1 5459   1.323   2.448   2.940
 1520SOL    HW2 5460   1.215   2.570   2.942
 1521SOL     OW 5461   2.330   4.189   5.312
 1521SOL    HW1 5462   2.340   4.114   5.247
 1521SOL    HW2 5463   2.389   4.173   5.391
 1522SOL     OW 5464   1.128   2.539   6.295
 1522SOL    HW1 5465   1.177   2.615   6.251
 1522SOL    HW2 5466   1.189   2.493   6.359
 1523SOL     OW 5467   6.114   1.015   1.303
 1523SOL    HW1 5468   6.162   0.931   1.327
 1523SOL    HW2 5469   6.018   0.994   1.283
 1524SOL     OW 5470   6.167   0.593   2.385
 1524SOL    HW1 5471   6.216   0.681   2.383
 1524SOL    HW2 5472   6.084   0.600   2.330
 1525SOL     OW 5473   4.287   1.140   6.116
 1525SOL    HW1 5474   4.364   1.087   6.150
 1525SOL    HW2 5475   4.291   1.142   6.016
 1526SOL     OW 5476   6.654   1.123   0.166
 1526SOL    HW1 5477   6.584   1.194   0.177
 1526SOL    HW2 5478   6.685   1.092   0.256
 1527SOL     OW 5479   2.838   1.368   5.811
 1527SOL    HW1 5480   2.918   1.325   5.852
 1527SOL    HW2 5481   2.820   1.455   5.855
 1528SOL     OW 5482   5.529   5.748   4.138
 1528SOL    HW1 5483   5.486   5.808   4.206
 1528SOL    HW2 5484   5.472   5.667   4.125
 1529SOL     OW 5485   2.515   0.481   5.255
 1529SOL    HW1 5486   2.494   0.512   5.347
 1529SOL    HW2 5487   2.547   0.559   5.200
 1530SOL     OW 5488   3.058   6.730   1.856
 1530SOL    HW1 5489   3.114   6.782   1.922
 1530SOL    HW2 5490   3.025   6.646   1.900
 1531SOL     OW 5491   5.382   0.532   6.273
 1531SOL    HW1 5492   5.460   0.588   6.243
 1531SOL    HW2 5493   5.402   0.493   6.363
 1532SOL     OW 5494   3.194   2.578   5.328
 1532SOL    HW1 5495   3.192   2.509   5.255
 1532SOL    HW2 5496   3.171   2.535   5.415
 1533SOL     OW 5497   5.120   2.750   6.792
 1533SOL    HW1 5498   5.218   2.763   6.810
 1533SOL    HW2 5499   5.067   2.789   6.868
 1534SOL     OW 5500   6.402   6.903   2.328
 1534SOL    HW1 5501   6.306   6.881   2.346
 1534SOL    HW2 5502   6.424   6.880   2.233
 1535SOL     OW 5503   5.063   4.197   4.468
 1535SOL    HW1 5504   4.999   4.272   4.485
 1535SOL    HW2 5505   5.099   4.204   4.375
 1536SOL     OW 5506   3.174   5.683   3.505
 1536SOL    HW1 5507   3.088   5.701   3.553
 1536SOL    HW2 5508   3.232   5.624   3.561
 1537SOL     OW 5509   2.499   5.480   4.412
 1537SOL    HW1 5510   2.543   5.492   4.323
 1537SOL    HW2 5511   2.569   5.471   4.483
 1538SOL     OW 5512   3.560   5.063   6.294
 1538SOL    HW1 5513   3.616   4.980   6.288
 1538SOL    HW2 5514   3.567   5.102   6.385
 1539SOL     OW 5515   3.818   5.966   2.282
 1539SOL    HW1 5516   3.730   5.966   2.330
 1539SOL    HW2 5517   3.820   6.042   2.217
 1540SOL     OW 5518   5.870   0.090   5.067
 1540SOL    HW1 5519   5.881   7.013   5.085
 1540SOL    HW2 5520   5.800   0.103   4.997
 1541SOL     OW 5521   5.087   1.155   1.215
 1541SOL    HW1 5522   5.068   1.245   1.176
 1541SOL    HW2 5523   5.132   1.166   1.304
 1542SOL     OW 5524   0.855   5.809   0.821
 1542SOL    HW1 5525   0.887   5.818   0.727
 1542SOL    HW2 5526   0.928   5.772   0.878
 1543SOL     OW 5527   3.732   4.077   3.110
 1543SOL    HW1 5528   3.750   3.987   3.152
 1543SOL    HW2 5529   3.709   4.143   3.181
 1544SOL     OW 5530   3.236   3.555   2.482
 1544SOL    HW1 5531   3.169   3.617   2.522
 1544SOL    HW2 5532   3.227   3.464   2.522
 1545SOL     OW 5533   0.187   0.594   4.113
 1545SOL    HW1 5534   0.160   0.636   4.200
 1545SOL    HW2 5535   0.208   0.498   4.128
 1546SOL     OW 5536   6.243   6.667   6.265
 1546SOL    HW1 5537   6.232   6.750   6.320
 1546SOL    HW2 5538   6.202   6.589   6.312
 1547SOL     OW 5539   3.120   5.951   0.031
 1547SOL    HW1 5540   3.086   5.897   6.975
 1547SOL    HW2 5541   3.126   5.892   0.112
 1548SOL     OW 5542   5.650   3.845   3.973
 1548SOL    HW1 5543   5.559   3.841   4.013
 1548SOL    HW2 5544   5.677   3.754   3.941
 1549SOL     OW 5545   0.003   2.443   0.477
 1549SOL    HW1 5546   6.926   2.453   0.493
 1549SOL    HW2 5547   0.042   2.533   0.458
 1550SOL     OW 5548   2.242   5.272   2.756
 1550SOL    HW1 5549   2.303   5.348   2.735
 1550SOL    HW2 5550   2.261   5.238   2.848
 1551SOL     OW 5551   0.053   3.227   1.128
 1551SOL    HW1 5552   6.985   3.227   1.172
 1551SOL    HW2 5553   0.125   3.222   1.198
 1552SOL     OW 5554   0.835   6.678   2.044
 1552SOL    HW1 5555   0.778   6.599   2.023
 1552SOL    HW2 5556   0.777   6.757   2.062
 1553SOL     OW 5557   5.266   1.046   6.401
 1553SOL    HW1 5558   5.311   1.135   6.406
 1553SOL    HW2 5559   5.312   0.982   6.463
 1554SOL     OW 5560   2.899   2.373   1.353
 1554SOL    HW1 5561   2.954   2.370   1.269
 1554SOL    HW2 5562   2.960   2.361   1.432
 1555SOL     OW 5563   4.130   0.615   0.136
 1555SOL    HW1 5564   4.138   0.701   0.085
 1555SOL    HW2 5565   4.082   0.632   0.222
 1556SOL     OW 5566   4.105   2.254   6.960
 1556SOL    HW1 5567   4.125   2.326   6.894
 1556SOL    HW2 5568   4.097   2.166   6.912
 1557SOL     OW 5569   1.653   3.621   0.494
 1557SOL    HW1 5570   1.631   3.619   0.592
 1557SOL    HW2 5571   1.745   3.583   0.480
 1558SOL     OW 5572   5.215   2.716   6.467
 1558SOL    HW1 5573   5.252   2.636   6.513
 1558SOL    HW2 5574   5.136   2.750   6.518
 1559SOL     OW 5575   2.869   6.247   3.256
 1559SOL    HW1 5576   2.780   6.219   3.293
 1559SOL    HW2 5577   2.918   6.301   3.324
 1560SOL     OW 5578   3.946   2.550   1.028
 1560SOL    HW1 5579   3.892   2.614   0.974
 1560SOL    HW2 5580   3.960   2.587   1.120
 1561SOL     OW 5581   5.678   6.261   0.993
 1561SOL    HW1 5582   5.672   6.162   0.979
 1561SOL    HW2 5583   5.589   6.296   1.023
 1562SOL     OW 5584   3.846   0.424   1.752
 1562SOL    HW1 5585   3.891   0.453   1.668
 1562SOL    HW2 5586   3.906   0.361   1.801
 1563SOL     OW 5587   2.086   2.674   4.185
 1563SOL    HW1 5588   2.096   2.672   4.285
 1563SOL    HW2 5589   2.149   2.743   4.148
 1564SOL     OW 5590   0.663   1.385   2.708
 1564SOL    HW1 5591   0.586   1.328   2.735
 1564SOL    HW2 5592   0.748   1.332   2.715
 1565SOL     OW 5593   4.590   1.759   5.182
 1565SOL    HW1 5594   4.684   1.788   5.162
 1565SOL    HW2 5595   4.526   1.814   5.128
 1566SOL     OW 5596   6.735   4.178   3.825
 1566SOL    HW1 5597   6.660   4.232   3.862
 1566SOL    HW2 5598   6.699   4.093   3.786
 1567SOL     OW 5599   5.199   0.484   5.235
 1567SOL    HW1 5600   5.205   0.551   5.309
 1567SOL    HW2 5601   5.119   0.426   5.250
 1568SOL     OW 5602   3.012   4.887   1.615
 1568SOL    HW1 5603   2.982   4.850   1.704
 1568SOL    HW2 5604   3.110   4.871   1.604
 1569SOL     OW 5605   3.020   1.312   2.493
 1569SOL    HW1 5606   3.103   1.366   2.506
 1569SOL    HW2 5607   2.942   1.374   2.484
 1570SOL     OW 5608   2.988   6.429   6.455
 1570SOL    HW1 5609   2.949   6.424   6.363
 1570SOL    HW2 5610   2.954   6.353   6.510
 1571SOL     OW 5611   6.772   3.514   4.224
 1571SOL    HW1 5612   6.716   3.595   4.209
 1571SOL    HW2 5613   6.796   3.509   4.321
 1572SOL     OW 5614   2.305   5.996   2.812
 1572SOL    HW1 5615   2.399   5.976   2.784
 1572SOL    HW2 5616   2.242   5.968   2.740
 1573SOL     OW 5617   5.120   6.065   0.366
 1573SOL    HW1 5618   5.215   6.081   0.340
 1573SOL    HW2 5619   5.086   5.982   0.321
 1574SOL     OW 5620   0.717   4.213   2.354
 1574SOL    HW1 5621   0.800   4.162   2.332
 1574SOL    HW2 5622   0.730   4.309   2.328
 1575SOL     OW 5623   0.078   2.535   0.147
 1575SOL    HW1 5624   0.162   2.527   0.093
 1575SOL    HW2 5625   0.061   2.449   0.194
 1576SOL     OW 5626   1.971   6.113   1.624
 1576SOL    HW1 5627   1.958   6.106   1.525
 1576SOL    HW2 5628   2.035   6.187   1.644
 1577SOL     OW 5629   3.258   5.934   4.159
 1577SOL    HW1 5630   3.179   5.962   4.213
 1577SOL    HW2 5631   3.303   5.855   4.203
 1578SOL     OW 5632   4.908   1.448   1.801
 1578SOL    HW1 5633   4.994   1.497   1.816
 1578SOL    HW2 5634   4.841   1.510   1.759
 1579SOL     OW 5635   1.458   3.107   1.729
 1579SOL    HW1 5636   1.537   3.048   1.747
 1579SOL    HW2 5637   1.449   3.122   1.631
 1580SOL     OW 5638   3.192   3.313   2.604
 1580SOL    HW1 5639   3.116   3.281   2.547
 1580SOL    HW2 5640   3.234   3.235   2.651
 1581SOL     OW 5641   6.373   4.163   5.372
 1581SOL    HW1 5642   6.379   4.156   5.273
 1581SOL    HW2 5643   6.439   4.230   5.405
 1582SOL     OW 5644   5.177   5.783   5.007
 1582SOL    HW1 5645   5.189   5.751   4.913
 1582SOL    HW2 5646   5.234   5.728   5.069
 1583SOL     OW 5647   1.465   5.527   5.328
 1583SOL    HW1 5648   1.564   5.534   5.345
 1583SOL    HW2 5649   1.424   5.618   5.340
 1584SOL     OW 5650   0.045   3.847   0.532
 1584SOL    HW1 5651   0.090   3.870   0.619
 1584SOL    HW2 5652   6.996   3.915   0.512
 1585SOL     OW 5653   4.524   6.500   3.675
 1585SOL    HW1 5654   4.467   6.483   3.755
 1585SOL    HW2 5655   4.494   6.585   3.630
 1586SOL     OW 5656   2.951   6.063   2.426
 1586SOL    HW1 5657   2.928   6.160   2.424
 1586SOL    HW2 5658   2.968   6.034   2.520
 1587SOL     OW 5659   3.257   6.339   6.690
 1587SOL    HW1 5660   3.192   6.291   6.750
 1587SOL    HW2 5661   3.245   6.307   6.596
 1588SOL     OW 5662   6.669   1.894   3.464
 1588SOL    HW1 5663   6.724   1.919   3.544
 1588SOL    HW2 5664   6.677   1.965   3.395
 1589SOL     OW 5665   6.522   3.707   4.192
 1589SOL    HW1 5666   6.455   3.747   4.129
 1589SOL    HW2 5667   6.588   3.777   4.219
 1590SOL     OW 5668   6.653   1.442   3.127
 1590SOL    HW1 5669   6.629   1.513   3.194
 1590SOL    HW2 5670   6.740   1.401   3.152
 1591SOL     OW 5671   1.432   5.610   0.885
 1591SOL    HW1 5672   1.439   5.629   0.983
 1591SOL    HW2 5673   1.469   5.518   0.866
 1592SOL     OW 5674   0.550   3.736   5.745
 1592SOL    HW1 5675   0.541   3.824   5.791
 1592SOL    HW2 5676   0.595   3.749   5.657
 1593SOL     OW 5677   3.893   6.424   0.078
 1593SOL    HW1 5678   3.797   6.411   0.055
 1593SOL    HW2 5679   3.904   6.424   0.177
 1594SOL     OW 5680   5.558   0.623   2.958
 1594SOL    HW1 5681   5.587   0.711   2.920
 1594SOL    HW2 5682   5.459   0.616   2.954
 1595SOL     OW 5683   0.432   3.088   7.021
 1595SOL    HW1 5684   0.394   3.090   0.091
 1595SOL    HW2 5685   0.485   3.171   7.005
 1596SOL     OW 5686   4.783   4.551   2.952
 1596SOL    HW1 5687   4.688   4.522   2.961
 1596SOL    HW2 5688   4.835   4.522   3.032
 1597SOL     OW 5689   3.455   5.908   0.183
 1597SOL    HW1 5690   3.394   5.971   0.135
 1597SOL    HW2 5691   3.454   5.928   0.281
 1598SOL     OW 5692   0.484   4.777   6.482
 1598SOL    HW1 5693   0.390   4.781   6.518
 1598SOL    HW2 5694   0.523   4.687   6.501
 1599SOL     OW 5695   4.308   5.478   3.633
 1599SOL    HW1 5696   4.297   5.560   3.690
 1599SOL    HW2 5697   4.339   5.505   3.542
 1600SOL     OW 5698   4.158   0.581   1.863
 1600SOL    HW1 5699   4.249   0.612   1.834
 1600SOL    HW2 5700   4.122   0.515   1.797
 1601SOL     OW 5701   6.768   1.787   4.802
 1601SOL    HW1 5702   6.757   1.742   4.891
 1601SOL    HW2 5703   6.832   1.734   4.746
 1602SOL     OW 5704   4.553   5.870   4.043
 1602SOL    HW1 5705   4.644   5.854   4.082
 1602SOL    HW2 5706   4.498   5.925   4.106
 1603SOL     OW 5707   3.002   4.850   2.743
 1603SOL    HW1 5708   2.972   4.784   2.673
 1603SOL    HW2 5709   2.950   4.836   2.827
 1604SOL     OW 5710   4.476   4.790   2.952
 1604SOL    HW1 5711   4.500   4.722   3.021
 1604SOL    HW2 5712   4.535   4.871   2.963
 1605SOL     OW 5713   4.732   4.932   0.609
 1605SOL    HW1 5714   4.687   5.003   0.556
 1605SOL    HW2 5715   4.752   4.966   0.700
 1606SOL     OW 5716   2.838   6.293   4.991
 1606SOL    HW1 5717   2.869   6.199   4.975
 1606SOL    HW2 5718   2.875   6.326   5.077
 1607SOL     OW 5719   4.684   4.509   3.917
 1607SOL    HW1 5720   4.649   4.457   3.839
 1607SOL    HW2 5721   4.716   4.445   3.987
 1608SOL     OW 5722   5.674   1.804   3.652
 1608SOL    HW1 5723   5.726   1.812   3.566
 1608SOL    HW2 5724   5.577   1.817   3.633
 1609SOL     OW 5725   2.269   6.629   1.865
 1609SOL    HW1 5726   2.347   6.649   1.924
 1609SOL    HW2 5727   2.190   6.606   1.922
 1610SOL     OW 5728   5.485   6.909   0.938
 1610SOL    HW1 5729   5.394   6.937   0.906
 1610SOL    HW2 5730   5.498   6.812   0.916
 1611SOL     OW 5731   1.243   4.358   0.375
 1611SOL    HW1 5732   1.143   4.351   0.383
 1611SOL    HW2 5733   1.278   4.278   0.327
 1612SOL     OW 5734   4.488   1.149   2.507
 1612SOL    HW1 5735   4.518   1.153   2.412
 1612SOL    HW2 5736   4.518   1.063   2.549
 1613SOL     OW 5737   6.800   5.478   2.507
 1613SOL    HW1 5738   6.825   5.404   2.571
 1613SOL    HW2 5739   6.864   5.478   2.430
 1614SOL     OW 5740   6.369   1.480   5.903
 1614SOL    HW1 5741   6.336   1.493   5.810
 1614SOL    HW2 5742   6.314   1.411   5.950
 1615SOL     OW 5743   0.163   3.993   6.026
 1615SOL    HW1 5744   0.137   4.075   5.976
 1615SOL    HW2 5745   0.238   4.014   6.088
 1616SOL     OW 5746   0.794   0.278   3.892
 1616SOL    HW1 5747   0.761   0.334   3.816
 1616SOL    HW2 5748   0.721   0.217   3.923
 1617SOL     OW 5749   6.777   5.602   3.395
 1617SOL    HW1 5750   6.680   5.579   3.393
 1617SOL    HW2 5751   6.797   5.669   3.323
 1618SOL     OW 5752   3.329   5.584   3.265
 1618SOL    HW1 5753   3.338   5.645   3.186
 1618SOL    HW2 5754   3.252   5.613   3.321
 1619SOL     OW 5755   0.550   4.470   6.543
 1619SOL    HW1 5756   0.479   4.401   6.530
 1619SOL    HW2 5757   0.589   4.460   6.634
 1620SOL     OW 5758   3.345   6.210   4.257
 1620SOL    HW1 5759   3.258   6.240   4.297
 1620SOL    HW2 5760   3.330   6.129   4.200
 1621SOL     OW 5761   4.569   5.535   0.628
 1621SOL    HW1 5762   4.508   5.615   0.621
 1621SOL    HW2 5763   4.532   5.471   0.695
 1622SOL     OW 5764   6.415   3.994   4.400
 1622SOL    HW1 5765   6.438   4.073   4.343
 1622SOL    HW2 5766   6.346   3.938   4.354
 1623SOL     OW 5767   0.124   2.287   3.044
 1623SOL    HW1 5768   0.106   2.208   3.102
 1623SOL    HW2 5769   0.217   2.320   3.059
 1624SOL     OW 5770   3.900   3.145   0.396
 1624SOL    HW1 5771   3.905   3.244   0.405
 1624SOL    HW2 5772   3.835   3.108   0.462
 1625SOL     OW 5773   0.610   6.796   0.990
 1625SOL    HW1 5774   0.676   6.830   0.923
 1625SOL    HW2 5775   0.517   6.812   0.957
 1626SOL     OW 5776   2.876   1.908   1.769
 1626SOL    HW1 5777   2.889   1.996   1.815
 1626SOL    HW2 5778   2.778   1.891   1.757
 1627SOL     OW 5779   4.069   2.257   6.045
 1627SOL    HW1 5780   4.049   2.328   5.977
 1627SOL    HW2 5781   4.099   2.301   6.130
 1628SOL     OW 5782   5.618   6.727   0.582
 1628SOL    HW1 5783   5.532   6.692   0.618
 1628SOL    HW2 5784   5.603   6.818   0.543
 1629SOL     OW 5785   1.017   0.051   3.580
 1629SOL    HW1 5786   0.942   0.113   3.555
 1629SOL    HW2 5787   1.056   0.080   3.668
 1630SOL     OW 5788   0.628   3.553   6.343
 1630SOL    HW1 5789   0.693   3.482   6.371
 1630SOL    HW2 5790   0.536   3.528   6.373
 1631SOL     OW 5791   6.658   3.800   0.678
 1631SOL    HW1 5792   6.561   3.789   0.698
 1631SOL    HW2 5793   6.689   3.891   0.707
 1632SOL     OW 5794   6.635   5.517   2.176
 1632SOL    HW1 5795   6.688   5.528   2.092
 1632SOL    HW2 5796   6.583   5.431   2.171
 1633SOL     OW 5797   5.388   3.323   4.991
 1633SOL    HW1 5798   5.353   3.233   5.018
 1633SOL    HW2 5799   5.434   3.315   4.902
 1634SOL     OW 5800   0.375   2.572   5.578
 1634SOL    HW1 5801   0.356   2.484   5.623
 1634SOL    HW2 5802   0.289   2.614   5.549
 1635SOL     OW 5803   3.469   6.546   3.849
 1635SOL    HW1 5804   3.444   6.472   3.787
 1635SOL    HW2 5805   3.449   6.520   3.943
 1636SOL     OW 5806   6.341   5.917   1.300
 1636SOL    HW1 5807   6.373   6.012   1.310
 1636SOL    HW2 5808   6.384   5.860   1.370
 1637SOL     OW 5809   1.017   0.975   2.969
 1637SOL    HW1 5810   0.992   1.069   2.994
 1637SOL    HW2 5811   0.987   0.957   2.875
 1638SOL     OW 5812   5.347   2.490   2.218
 1638SOL    HW1 5813   5.368   2.574   2.169
 1638SOL    HW2 5814   5.425   2.427   2.212
 1639SOL     OW 5815   5.061   1.955   2.450
 1639SOL    HW1 5816   5.017   1.866   2.436
 1639SOL    HW2 5817   5.155   1.941   2.481
 1640SOL     OW 5818   5.624   0.645   6.236
 1640SOL    HW1 5819   5.604   0.720   6.298
 1640SOL    HW2 5820   5.708   0.599   6.265
 1641SOL     OW 5821   6.376   2.075   3.270
 1641SOL    HW1 5822   6.370   2.144   3.342
 1641SOL    HW2 5823   6.310   2.002   3.289
 1642SOL     OW 5824   6.884   3.425   6.256
 1642SOL    HW1 5825   6.898   3.513   6.210
 1642SOL    HW2 5826   6.969   3.397   6.301
 1643SOL     OW 5827   2.174   5.395   4.189
 1643SOL    HW1 5828   2.164   5.460   4.113
 1643SOL    HW2 5829   2.271   5.390   4.215
 1644SOL     OW 5830   6.177   1.994   1.725
 1644SOL    HW1 5831   6.088   2.040   1.717
 1644SOL    HW2 5832   6.241   2.054   1.772
 1645SOL     OW 5833   2.235   0.818   5.217
 1645SOL    HW1 5834   2.227   0.917   5.208
 1645SOL    HW2 5835   2.238   0.794   5.314
 1646SOL     OW 5836   1.347   4.990   0.811
 1646SOL    HW1 5837   1.280   4.998   0.885
 1646SOL    HW2 5838   1.345   4.896   0.775
 1647SOL     OW 5839   5.592   3.083   4.473
 1647SOL    HW1 5840   5.612   2.985   4.469
 1647SOL    HW2 5841   5.512   3.098   4.531
 1648SOL     OW 5842   5.881   6.352   1.514
 1648SOL    HW1 5843   5.800   6.382   1.465
 1648SOL    HW2 5844   5.939   6.431   1.536
 1649SOL     OW 5845   3.470   1.811   3.562
 1649SOL    HW1 5846   3.495   1.740   3.628
 1649SOL    HW2 5847   3.535   1.886   3.567
 1650SOL     OW 5848   3.086   3.760   5.558
 1650SOL    HW1 5849   3.049   3.827   5.623
 1650SOL    HW2 5850   3.119   3.807   5.476
 1651SOL     OW 5851   1.046   2.073   3.715
 1651SOL    HW1 5852   1.020   2.150   3.657
 1651SOL    HW2 5853   1.063   1.992   3.658
 1652SOL     OW 5854   0.393   3.284   1.768
 1652SOL    HW1 5855   0.349   3.194   1.771
 1652SOL    HW2 5856   0.336   3.347   1.715
 1653SOL     OW 5857   0.575   4.861   2.112
 1653SOL    HW1 5858   0.538   4.784   2.060
 1653SOL    HW2 5859   0.540   4.858   2.206
 1654SOL     OW 5860   7.015   3.262   2.133
 1654SOL    HW1 5861   7.020   3.240   2.231
 1654SOL    HW2 5862   6.978   3.183   2.084
 1655SOL     OW 5863   0.563   0.424   5.925
 1655SOL    HW1 5864   0.488   0.469   5.973
 1655SOL    HW2 5865   0.537   0.409   5.830
 1656SOL     OW 5866   2.223   4.268   3.191
 1656SOL    HW1 5867   2.134   4.244   3.153
 1656SOL    HW2 5868   2.233   4.368   3.192
 1657SOL     OW 5869   0.170   6.886   5.925
 1657SOL    HW1 5870   0.180   6.967   5.981
 1657SOL    HW2 5871   0.172   6.912   5.828
 1658SOL     OW 5872   5.368   6.670   6.133
 1658SOL    HW1 5873   5.372   6.570   6.129
 1658SOL    HW2 5874   5.363   6.707   6.041
 1659SOL     OW 5875   3.811   6.710   5.790
 1659SOL    HW1 5876   3.866   6.787   5.759
 1659SOL    HW2 5877   3.806   6.712   5.890
 1660SOL     OW 5878   2.364   0.671   2.267
 1660SOL    HW1 5879   2.417   0.621   2.335
 1660SOL    HW2 5880   2.392   0.642   2.175
 1661SOL     OW 5881   4.949   3.884   2.716
 1661SOL    HW1 5882   4.932   3.837   2.629
 1661SOL    HW2 5883   4.890   3.845   2.787
 1662SOL     OW 5884   0.458   2.162   3.793
 1662SOL    HW1 5885   0.472   2.095   3.719
 1662SOL    HW2 5886   0.361   2.178   3.805
 1663SOL     OW 5887   5.020   4.540   0.940
 1663SOL    HW1 5888   4.975   4.609   0.884
 1663SOL    HW2 5889   5.104   4.579   0.978
 1664SOL     OW 5890   1.356   0.499   6.443
 1664SOL    HW1 5891   1.324   0.581   6.491
 1664SOL    HW2 5892   1.300   0.420   6.470
 1665SOL     OW 5893   2.890   4.381   6.816
 1665SOL    HW1 5894   2.925   4.475   6.818
 1665SOL    HW2 5895   2.870   4.355   6.722
 1666SOL     OW 5896   4.949   6.622   6.339
 1666SOL    HW1 5897   4.998   6.553   6.287
 1666SOL    HW2 5898   4.954   6.601   6.437
 1667SOL     OW 5899   6.776   5.918   0.665
 1667SOL    HW1 5900   6.829   5.901   0.748
 1667SOL    HW2 5901   6.788   5.842   0.602
 1668SOL     OW 5902   5.776   3.829   2.293
 1668SOL    HW1 5903   5.747   3.925   2.299
 1668SOL    HW2 5904   5.855   3.815   2.352
 1669SOL     OW 5905   6.938   3.391   5.367
 1669SOL    HW1 5906   6.862   3.363   5.307
 1669SOL    HW2 5907   6.986   3.468   5.326
 1670SOL     OW 5908   2.541   4.329   5.769
 1670SOL    HW1 5909   2.641   4.328   5.769
 1670SOL    HW2 5910   2.508   4.397   5.703
 1671SOL     OW 5911   5.736   2.339   0.329
 1671SOL    HW1 5912   5.753   2.381   0.418
 1671SOL    HW2 5913   5.645   2.366   0.296
 1672SOL     OW 5914   0.754   2.490   1.211
 1672SOL    HW1 5915   0.686   2.417   1.218
 1672SOL    HW2 5916   0.844   2.450   1.197
 1673SOL     OW 5917   1.373   0.552   4.769
 1673SOL    HW1 5918   1.437   0.585   4.700
 1673SOL    HW2 5919   1.415   0.478   4.822
 1674SOL     OW 5920   4.935   1.958   2.987
 1674SOL    HW1 5921   4.839   1.972   3.011
 1674SOL    HW2 5922   4.972   2.041   2.946
 1675SOL     OW 5923   5.014   0.518   1.701
 1675SOL    HW1 5924   5.028   0.558   1.792
 1675SOL    HW2 5925   4.977   0.426   1.711
 1676SOL     OW 5926   1.078   2.470   3.750
 1676SOL    HW1 5927   1.005   2.538   3.742
 1676SOL    HW2 5928   1.067   2.402   3.677
 1677SOL     OW 5929   3.428   3.173   3.217
 1677SOL    HW1 5930   3.523   3.145   3.202
 1677SOL    HW2 5931   3.397   3.230   3.141
 1678SOL     OW 5932   1.367   0.337   0.741
 1678SOL    HW1 5933   1.453   0.382   0.766
 1678SOL    HW2 5934   1.369   0.313   0.644
 1679SOL     OW 5935   6.542   1.381   6.710
 1679SOL    HW1 5936   6.445   1.379   6.734
 1679SOL    HW2 5937   6.597   1.352   6.789
 1680SOL     OW 5938   5.787   2.344   3.408
 1680SOL    HW1 5939   5.843   2.295   3.475
 1680SOL    HW2 5940   5.734   2.279   3.355
 1681SOL     OW 5941   3.256   6.277   5.020
 1681SOL    HW1 5942   3.315   6.231   4.954
 1681SOL    HW2 5943   3.176   6.220   5.040
 1682SOL     OW 5944   3.563   0.556   4.149
 1682SOL    HW1 5945   3.608   0.626   4.204
 1682SOL    HW2 5946   3.566   0.469   4.198
 1683SOL     OW 5947   6.057   3.103   2.967
 1683SOL    HW1 5948   5.983   3.083   2.902
 1683SOL    HW2 5949   6.043   3.050   3.050
 1684SOL     OW 5950   2.505   4.966   2.047
 1684SOL    HW1 5951   2.593   4.973   2.093
 1684SOL    HW2 5952   2.431   4.990   2.110
 1685SOL     OW 5953   0.169   1.434   5.748
 1685SOL    HW1 5954   0.091   1.373   5.734
 1685SOL    HW2 5955   0.192   1.479   5.662
 1686SOL     OW 5956   4.626   5.389   2.643
 1686SOL    HW1 5957   4.561   5.464   2.627
 1686SOL    HW2 5958   4.603   5.343   2.729
 1687SOL     OW 5959   4.944   4.759   0.773
 1687SOL    HW1 5960   5.002   4.837   0.750
 1687SOL    HW2 5961   4.851   4.791   0.791
 1688SOL     OW 5962   1.136   0.259   3.119
 1688SOL    HW1 5963   1.089   0.181   3.076
 1688SOL    HW2 5964   1.209   0.226   3.179
 1689SOL     OW 5965   4.649   0.584   1.374
 1689SOL    HW1 5966   4.691   0.561   1.286
 1689SOL    HW2 5967   4.556   0.547   1.377
 1690SOL     OW 5968   6.974   5.060   3.574
 1690SOL    HW1 5969   6.900   5.078   3.639
 1690SOL    HW2 5970   7.013   4.970   3.593
 1691SOL     OW 5971   4.443   2.514   5.187
 1691SOL    HW1 5972   4.500   2.434   5.171
 1691SOL    HW2 5973   4.353   2.500   5.147
 1692SOL     OW 5974   5.196   5.055   1.263
 1692SOL    HW1 5975   5.111   5.047   1.315
 1692SOL    HW2 5976   5.252   5.128   1.302
 1693SOL     OW 5977   5.575   6.892   6.102
 1693SOL    HW1 5978   5.548   6.925   6.011
 1693SOL    HW2 5979   5.502   6.835   6.140
 1694SOL     OW 5980   4.819   1.902   6.112
 1694SOL    HW1 5981   4.839   1.816   6.064
 1694SOL    HW2 5982   4.903   1.955   6.120
 1695SOL     OW 5983   3.216   0.694   5.869
 1695SOL    HW1 5984   3.204   0.727   5.775
 1695SOL    HW2 5985   3.299   0.639   5.874
 1696SOL     OW 5986   4.239   6.072   0.427
 1696SOL    HW1 5987   4.178   6.019   0.486
 1696SOL    HW2 5988   4.270   6.154   0.476
 1697SOL     OW 5989   4.868   2.777   1.963
 1697SOL    HW1 5990   4.790   2.723   1.994
 1697SOL    HW2 5991   4.857   2.872   1.993
 1698SOL     OW 5992   4.140   1.430   1.191
 1698SOL    HW1 5993   4.152   1.332   1.173
 1698SOL    HW2 5994   4.135   1.444   1.290
 1699SOL     OW 5995   2.386   0.129   0.225
 1699SOL    HW1 5996   2.403   0.222   0.192
 1699SOL    HW2 5997   2.352   0.073   0.150
 1700SOL     OW 5998   5.699   2.818   2.984
 1700SOL    HW1 5999   5.616   2.803   2.930
 1700SOL    HW2 6000   5.749   2.732   2.993
 1701SOL     OW 6001   0.220   6.210   5.059
 1701SOL    HW1 6002   0.246   6.125   5.014
 1701SOL    HW2 6003   0.122   6.227   5.044
 1702SOL     OW 6004   2.088   2.393   0.086
 1702SOL    HW1 6005   2.063   2.300   0.060
 1702SOL    HW2 6006   2.027   2.458   0.041
 1703SOL     OW 6007   1.285   1.691   1.998
 1703SOL    HW1 6008   1.200   1.730   1.964
 1703SOL    HW2 6009   1.345   1.670   1.921
 1704SOL     OW 6010   3.136   2.401   0.584
 1704SOL    HW1 6011   3.043   2.365   0.597
 1704SOL    HW2 6012   3.188   2.390   0.668
 1705SOL     OW 6013   4.684   2.554   0.607
 1705SOL    HW1 6014   4.718   2.540   0.700
 1705SOL    HW2 6015   4.708   2.475   0.551
 1706SOL     OW 6016   6.217   2.264   6.525
 1706SOL    HW1 6017   6.226   2.200   6.448
 1706SOL    HW2 6018   6.157   2.339   6.499
 1707SOL     OW 6019   4.166   1.375   1.776
 1707SOL    HW1 6020   4.097   1.432   1.820
 1707SOL    HW2 6021   4.126   1.285   1.755
 1708SOL     OW 6022   2.907   4.777   2.202
 1708SOL    HW1 6023   2.881   4.704   2.139
 1708SOL    HW2 6024   2.920   4.863   2.151
 1709SOL     OW 6025   5.048   4.990   0.688
 1709SOL    HW1 6026   4.994   5.055   0.741
 1709SOL    HW2 6027   5.117   5.038   0.635
 1710SOL     OW 6028   4.795   3.997   2.370
 1710SOL    HW1 6029   4.742   4.033   2.293
 1710SOL    HW2 6030   4.814   4.071   2.434
 1711SOL     OW 6031   3.637   5.188   6.959
 1711SOL    HW1 6032   3.736   5.193   6.972
 1711SOL    HW2 6033   3.590   5.196   0.026
 1712SOL     OW 6034   0.577   1.475   2.084
 1712SOL    HW1 6035   0.644   1.425   2.029
 1712SOL    HW2 6036   0.618   1.499   2.172
 1713SOL     OW 6037   3.231   1.470   2.550
 1713SOL    HW1 6038   3.265   1.558   2.516
 1713SOL    HW2 6039   3.302   1.400   2.536
 1714SOL     OW 6040   2.795   3.734   0.989
 1714SOL    HW1 6041   2.787   3.643   0.949
 1714SOL    HW2 6042   2.891   3.762   0.990
 1715SOL     OW 6043   1.483   6.260   1.746
 1715SOL    HW1 6044   1.435   6.184   1.703
 1715SOL    HW2 6045   1.578   6.234   1.765
 1716SOL     OW 6046   3.578   1.369   2.889
 1716SOL    HW1 6047   3.506   1.436   2.872
 1716SOL    HW2 6048   3.667   1.414   2.888
 1717SOL     OW 6049   3.066   5.703   4.307
 1717SOL    HW1 6050   3.084   5.800   4.325
 1717SOL    HW2 6051   3.127   5.647   4.364
 1718SOL     OW 6052   1.974   2.699   1.550
 1718SOL    HW1 6053   2.042   2.771   1.559
 1718SOL    HW2 6054   1.882   2.739   1.556
 1719SOL     OW 6055   1.228   5.299   2.694
 1719SOL    HW1 6056   1.322   5.322   2.668
 1719SOL    HW2 6057   1.206   5.207   2.661
 1720SOL     OW 6058   1.082   3.324   5.296
 1720SOL    HW1 6059   0.982   3.325   5.288
 1720SOL    HW2 6060   1.109   3.247   5.355
 1721SOL     OW 6061   2.061   2.972   0.195
 1721SOL    HW1 6062   2.093   2.880   0.169
 1721SOL    HW2 6063   2.057   3.030   0.113
 1722SOL     OW 6064   2.318   2.430   4.423
 1722SOL    HW1 6065   2.376   2.498   4.469
 1722SOL    HW2 6066   2.302   2.352   4.484
 1723SOL     OW 6067   5.735   4.304   1.303
 1723SOL    HW1 6068   5.701   4.356   1.382
 1723SOL    HW2 6069   5.835   4.302   1.305
 1724SOL     OW 6070   5.090   2.514   0.996
 1724SOL    HW1 6071   5.185   2.520   0.963
 1724SOL    HW2 6072   5.068   2.596   1.049
 1725SOL     OW 6073   1.850   6.283   6.026
 1725SOL    HW1 6074   1.871   6.381   6.032
 1725SOL    HW2 6075   1.751   6.271   6.019
 1726SOL     OW 6076   5.377   4.126   2.928
 1726SOL    HW1 6077   5.311   4.192   2.965
 1726SOL    HW2 6078   5.366   4.119   2.829
 1727SOL     OW 6079   3.037   3.898   3.066
 1727SOL    HW1 6080   3.034   3.823   3.001
 1727SOL    HW2 6081   3.124   3.897   3.115
 1728SOL     OW 6082   5.801   2.224   4.103
 1728SOL    HW1 6083   5.794   2.310   4.051
 1728SOL    HW2 6084   5.730   2.161   4.073
 1729SOL     OW 6085   1.054   2.626   2.897
 1729SOL    HW1 6086   0.998   2.699   2.937
 1729SOL    HW2 6087   0.994   2.553   2.864
 1730SOL     OW 6088   1.849   6.386   4.238
 1730SOL    HW1 6089   1.759   6.420   4.264
 1730SOL    HW2 6090   1.890   6.337   4.315
 1731SOL     OW 6091   5.194   5.139   3.635
 1731SOL    HW1 6092   5.243   5.211   3.685
 1731SOL    HW2 6093   5.137   5.088   3.698
 1732SOL     OW 6094   2.922   3.737   5.250
 1732SOL    HW1 6095   2.881   3.735   5.341
 1732SOL    HW2 6096   2.906   3.650   5.204
 1733SOL     OW 6097   1.917   2.826   6.178
 1733SOL    HW1 6098   1.975   2.756   6.219
 1733SOL    HW2 6099   1.927   2.912   6.229
 1734SOL     OW 6100   6.590   3.047   0.899
 1734SOL    HW1 6101   6.507   3.101   0.905
 1734SOL    HW2 6102   6.633   3.041   0.989
 1735SOL     OW 6103   3.580   5.497   6.233
 1735SOL    HW1 6104   3.676   5.470   6.229
 1735SOL    HW2 6105   3.572   5.581   6.287
 1736SOL     OW 6106   5.381   2.337   6.304
 1736SOL    HW1 6107   5.348   2.258   6.252
 1736SOL    HW2 6108   5.350   2.421   6.260
 1737SOL     OW 6109   3.401   1.201   6.110
 1737SOL    HW1 6110   3.413   1.116   6.162
 1737SOL    HW2 6111   3.435   1.189   6.017
 1738SOL     OW 6112   1.925   3.572   2.571
 1738SOL    HW1 6113   1.996   3.628   2.528
 1738SOL    HW2 6114   1.884   3.511   2.503
 1739SOL     OW 6115   5.333   0.060   3.293
 1739SOL    HW1 6116   5.337   0.141   3.234
 1739SOL    HW2 6117   5.423   0.045   3.335
 1740SOL     OW 6118   6.007   2.964   5.021
 1740SOL    HW1 6119   6.021   3.033   4.951
 1740SOL    HW2 6120   5.970   3.006   5.103
 1741SOL     OW 6121   0.739   2.157   4.768
 1741SOL    HW1 6122   0.833   2.192   4.776
 1741SOL    HW2 6123   0.708   2.170   4.674
 1742SOL     OW 6124   6.139   6.545   6.874
 1742SOL    HW1 6125   6.068   6.596   6.826
 1742SOL    HW2 6126   6.220   6.539   6.816
 1743SOL     OW 6127   1.776   2.041   2.228
 1743SOL    HW1 6128   1.781   2.120   2.167
 1743SOL    HW2 6129   1.828   2.060   2.311
 1744SOL     OW 6130   3.485   2.415   5.606
 1744SOL    HW1 6131   3.427   2.378   5.534
 1744SOL    HW2 6132   3.443   2.398   5.695
 1745SOL     OW 6133   6.184   6.207   1.076
 1745SOL    HW1 6134   6.215   6.125   1.029
 1745SOL    HW2 6135   6.126   6.182   1.153
 1746SOL     OW 6136   2.828   4.741   3.219
 1746SOL    HW1 6137   2.764   4.701   3.285
 1746SOL    HW2 6138   2.920   4.741   3.259
 1747SOL     OW 6139   3.659   0.039   2.473
 1747SOL    HW1 6140   3.753   0.028   2.507
 1747SOL    HW2 6141   3.642   0.136   2.455
 1748SOL     OW 6142   6.854   2.376   4.426
 1748SOL    HW1 6143   6.755   2.361   4.430
 1748SOL    HW2 6144   6.884   2.378   4.331
 1749SOL     OW 6145   6.877   5.542   1.523
 1749SOL    HW1 6146   6.904   5.520   1.429
 1749SOL    HW2 6147   6.930   5.487   1.587
 1750SOL     OW 6148   3.137   0.691   0.286
 1750SOL    HW1 6149   3.138   0.600   0.328
 1750SOL    HW2 6150   3.048   0.734   0.303
 1751SOL     OW 6151   5.433   3.333   4.719
 1751SOL    HW1 6152   5.371   3.411   4.728
 1751SOL    HW2 6153   5.391   3.264   4.660
 1752SOL     OW 6154   0.460   0.670   2.453
 1752SOL    HW1 6155   0.369   0.630   2.455
 1752SOL    HW2 6156   0.454   0.767   2.476
 1753SOL     OW 6157   0.050   1.310   1.327
 1753SOL    HW1 6158   7.008   1.387   1.319
 1753SOL    HW2 6159   0.085   1.287   1.236
 1754SOL     OW 6160   3.006   5.317   3.359
 1754SOL    HW1 6161   3.070   5.244   3.333
 1754SOL    HW2 6162   2.978   5.367   3.277
 1755SOL     OW 6163   6.709   0.403   5.716
 1755SOL    HW1 6164   6.689   0.316   5.760
 1755SOL    HW2 6165   6.639   0.423   5.648
 1756SOL     OW 6166   4.616   5.788   0.997
 1756SOL    HW1 6167   4.662   5.875   0.978
 1756SOL    HW2 6168   4.517   5.800   0.986
 1757SOL     OW 6169   2.882   4.771   5.326
 1757SOL    HW1 6170   2.872   4.722   5.412
 1757SOL    HW2 6171   2.882   4.706   5.250
 1758SOL     OW 6172   1.430   6.228   3.814
 1758SOL    HW1 6173   1.460   6.290   3.888
 1758SOL    HW2 6174   1.348   6.266   3.771
 1759SOL     OW 6175   1.152   5.916   0.272
 1759SOL    HW1 6176   1.064   5.868   0.274
 1759SOL    HW2 6177   1.139   6.007   0.232
 1760SOL     OW 6178   6.963   1.586   4.671
 1760SOL    HW1 6179   7.010   1.655   4.616
 1760SOL    HW2 6180   6.990   1.595   4.766
 1761SOL     OW 6181   5.413   1.056   2.724
 1761SOL    HW1 6182   5.357   1.139   2.729
 1761SOL    HW2 6183   5.368   0.989   2.665
 1762SOL     OW 6184   0.465   1.927   5.661
 1762SOL    HW1 6185   0.510   1.981   5.732
 1762SOL    HW2 6186   0.367   1.945   5.662
 1763SOL     OW 6187   1.347   5.028   3.870
 1763SOL    HW1 6188   1.350   5.127   3.884
 1763SOL    HW2 6189   1.427   4.986   3.912
 1764SOL     OW 6190   0.740   6.134   3.617
 1764SOL    HW1 6191   0.749   6.149   3.519
 1764SOL    HW2 6192   0.830   6.132   3.660
 1765SOL     OW 6193   5.677   4.162   1.983
 1765SOL    HW1 6194   5.668   4.147   2.081
 1765SOL    HW2 6195   5.600   4.121   1.935
 1766SOL     OW 6196   4.813   4.341   4.102
 1766SOL    HW1 6197   4.893   4.336   4.042
 1766SOL    HW2 6198   4.783   4.248   4.125
 1767SOL     OW 6199   0.304   5.027   1.555
 1767SOL    HW1 6200   0.213   5.045   1.519
 1767SOL    HW2 6201   0.334   5.105   1.611
 1768SOL     OW 6202   5.251   4.354   2.687
 1768SOL    HW1 6203   5.205   4.289   2.626
 1768SOL    HW2 6204   5.308   4.415   2.632
 1769SOL     OW 6205   5.504   0.332   0.937
 1769SOL    HW1 6206   5.591   0.318   0.889
 1769SOL    HW2 6207   5.520   0.332   1.035
 1770SOL     OW 6208   1.881   4.975   0.387
 1770SOL    HW1 6209   1.913   5.062   0.425
 1770SOL    HW2 6210   1.954   4.907   0.396
 1771SOL     OW 6211   2.130   3.319   6.175
 1771SOL    HW1 6212   2.039   3.324   6.216
 1771SOL    HW2 6213   2.128   3.261   6.094
 1772SOL     OW 6214   2.117   3.960   2.501
 1772SOL    HW1 6215   2.188   3.996   2.441
 1772SOL    HW2 6216   2.072   3.882   2.456
 1773SOL     OW 6217   2.321   6.429   5.850
 1773SOL    HW1 6218   2.244   6.440   5.913
 1773SOL    HW2 6219   2.293   6.457   5.758
 1774SOL     OW 6220   5.843   5.742   1.526
 1774SOL    HW1 6221   5.841   5.837   1.494
 1774SOL    HW2 6222   5.765   5.727   1.587
 1775SOL     OW 6223   2.057   5.186   0.980
 1775SOL    HW1 6224   2.061   5.086   0.988
 1775SOL    HW2 6225   2.148   5.224   0.996
 1776SOL     OW 6226   4.428   2.739   5.887
 1776SOL    HW1 6227   4.378   2.730   5.973
 1776SOL    HW2 6228   4.463   2.649   5.859
 1777SOL     OW 6229   4.310   6.341   6.986
 1777SOL    HW1 6230   4.248   6.413   7.018
 1777SOL    HW2 6231   4.387   6.332   0.028
 1778SOL     OW 6232   5.927   0.123   4.372
 1778SOL    HW1 6233   5.974   0.039   4.400
 1778SOL    HW2 6234   5.913   0.120   4.273
 1779SOL     OW 6235   5.426   0.697   4.892
 1779SOL    HW1 6236   5.399   0.777   4.838
 1779SOL    HW2 6237   5.494   0.644   4.840
 1780SOL     OW 6238   2.307   5.732   5.872
 1780SOL    HW1 6239   2.362   5.713   5.790
 1780SOL    HW2 6240   2.365   5.721   5.953
 1781SOL     OW 6241   3.863   0.901   5.678
 1781SOL    HW1 6242   3.926   0.936   5.608
 1781SOL    HW2 6243   3.841   0.975   5.742
 1782SOL     OW 6244   5.222   1.242   2.729
 1782SOL    HW1 6245   5.127   1.222   2.755
 1782SOL    HW2 6246   5.257   1.316   2.785
 1783SOL     OW 6247   1.825   4.432   0.205
 1783SOL    HW1 6248   1.910   4.453   0.253
 1783SOL    HW2 6249   1.781   4.353   0.248
 1784SOL     OW 6250   2.725   6.707   1.639
 1784SOL    HW1 6251   2.784   6.650   1.697
 1784SOL    HW2 6252   2.742   6.685   1.543
 1785SOL     OW 6253   1.648   6.932   4.360
 1785SOL    HW1 6254   1.661   6.943   4.262
 1785SOL    HW2 6255   1.682   6.843   4.389
 1786SOL     OW 6256   0.639   6.196   1.694
 1786SOL    HW1 6257   0.659   6.277   1.638
 1786SOL    HW2 6258   0.679   6.115   1.651
 1787SOL     OW 6259   1.932   3.380   5.694
 1787SOL    HW1 6260   1.921   3.283   5.716
 1787SOL    HW2 6261   1.973   3.428   5.772
 1788SOL     OW 6262   3.851   3.345   0.797
 1788SOL    HW1 6263   3.931   3.299   0.758
 1788SOL    HW2 6264   3.881   3.412   0.864
 1789SOL     OW 6265   6.135   3.093   2.125
 1789SOL    HW1 6266   6.129   3.177   2.179
 1789SOL    HW2 6267   6.231   3.073   2.104
 1790SOL     OW 6268   1.609   2.444   4.875
 1790SOL    HW1 6269   1.537   2.376   4.888
 1790SOL    HW2 6270   1.605   2.481   4.783
 1791SOL     OW 6271   4.898   0.457   3.748
 1791SOL    HW1 6272   4.953   0.392   3.697
 1791SOL    HW2 6273   4.930   0.550   3.729
 1792SOL     OW 6274   6.832   2.652   6.789
 1792SOL    HW1 6275   6.785   2.565   6.801
 1792SOL    HW2 6276   6.907   2.659   6.854
 1793SOL     OW 6277   6.695   1.627   5.008
 1793SOL    HW1 6278   6.781   1.583   5.033
 1793SOL    HW2 6279   6.660   1.679   5.086
 1794SOL     OW 6280   0.017   1.384   6.276
 1794SOL    HW1 6281   0.047   1.290   6.260
 1794SOL    HW2 6282   0.005   1.431   6.188
 1795SOL     OW 6283   5.276   4.686   0.968
 1795SOL    HW1 6284   5.333   4.700   0.886
 1795SOL    HW2 6285   5.334   4.659   1.044
 1796SOL     OW 6286   6.584   0.228   0.464
 1796SOL    HW1 6287   6.585   0.128   0.472
 1796SOL    HW2 6288   6.625   0.268   0.546
 1797SOL     OW 6289   2.769   5.688   5.704
 1797SOL    HW1 6290   2.722   5.759   5.650
 1797SOL    HW2 6291   2.836   5.642   5.647
 1798SOL     OW 6292   2.197   3.969   5.523
 1798SOL    HW1 6293   2.202   3.877   5.483
 1798SOL    HW2 6294   2.289   4.008   5.527
 1799SOL     OW 6295   2.745   1.286   1.668
 1799SOL    HW1 6296   2.820   1.352   1.673
 1799SOL    HW2 6297   2.701   1.292   1.578
 1800SOL     OW 6298   6.334   3.282   5.507
 1800SOL    HW1 6299   6.344   3.196   5.557
 1800SOL    HW2 6300   6.237   3.300   5.490
 1801SOL     OW 6301   0.518   0.327   3.265
 1801SOL    HW1 6302   0.525   0.424   3.242
 1801SOL    HW2 6303   0.421   0.303   3.277
 1802SOL     OW 6304   6.287   4.644   3.976
 1802SOL    HW1 6305   6.362   4.679   3.919
 1802SOL    HW2 6306   6.319   4.564   4.028
 1803SOL     OW 6307   6.623   0.067   4.114
 1803SOL    HW1 6308   6.584   7.015   4.058
 1803SOL    HW2 6309   6.659   0.139   4.054
 1804SOL     OW 6310   2.000   2.368   6.134
 1804SOL    HW1 6311   2.086   2.412   6.108
 1804SOL    HW2 6312   1.979   2.390   6.230
 1805SOL     OW 6313   6.437   4.957   1.033
 1805SOL    HW1 6314   6.419   5.026   1.103
 1805SOL    HW2 6315   6.382   4.977   0.952
 1806SOL     OW 6316   0.486   1.507   0.736
 1806SOL    HW1 6317   0.453   1.600   0.720
 1806SOL    HW2 6318   0.515   1.498   0.831
 1807SOL     OW 6319   6.419   2.601   3.000
 1807SOL    HW1 6320   6.322   2.607   2.975
 1807SOL    HW2 6321   6.475   2.637   2.925
 1808SOL     OW 6322   5.548   1.017   6.209
 1808SOL    HW1 6323   5.585   1.103   6.243
 1808SOL    HW2 6324   5.551   0.948   6.282
 1809SOL     OW 6325   5.900   0.521   5.454
 1809SOL    HW1 6326   5.996   0.543   5.435
 1809SOL    HW2 6327   5.843   0.601   5.432
 1810SOL     OW 6328   1.149   0.727   4.442
 1810SOL    HW1 6329   1.244   0.698   4.451
 1810SOL    HW2 6330   1.102   0.664   4.380
 1811SOL     OW 6331   3.334   6.078   2.192
 1811SOL    HW1 6332   3.390   6.106   2.113
 1811SOL    HW2 6333   3.252   6.032   2.159
 1812SOL     OW 6334   3.716   6.561   6.873
 1812SOL    HW1 6335   3.807   6.525   6.851
 1812SOL    HW2 6336   3.648   6.515   6.816
 1813SOL     OW 6337   4.841   4.014   2.028
 1813SOL    HW1 6338   4.814   4.009   1.932
 1813SOL    HW2 6339   4.799   4.094   2.071
 1814SOL     OW 6340   6.256   6.114   0.380
 1814SOL    HW1 6341   6.280   6.095   0.475
 1814SOL    HW2 6342   6.213   6.034   0.339
 1815SOL     OW 6343   5.544   5.802   1.413
 1815SOL    HW1 6344   5.617   5.856   1.370
 1815SOL    HW2 6345   5.457   5.824   1.370
 1816SOL     OW 6346   4.365   4.873   5.213
 1816SOL    HW1 6347   4.426   4.951   5.204
 1816SOL    HW2 6348   4.322   4.854   5.124
 1817SOL     OW 6349   0.452   2.800   3.493
 1817SOL    HW1 6350   0.487   2.826   3.403
 1817SOL    HW2 6351   0.355   2.777   3.486
 1818SOL     OW 6352   2.529   0.991   0.380
 1818SOL    HW1 6353   2.558   0.984   0.285
 1818SOL    HW2 6354   2.526   0.899   0.421
 1819SOL     OW 6355   1.353   4.189   1.954
 1819SOL    HW1 6356   1.268   4.153   1.993
 1819SOL    HW2 6357   1.403   4.240   2.023
 1820SOL     OW 6358   3.612   0.371   4.334
 1820SOL    HW1 6359   3.664   0.441   4.383
 1820SOL    HW2 6360   3.648   0.280   4.355
 1821SOL     OW 6361   3.352   1.609   2.277
 1821SOL    HW1 6362   3.446   1.606   2.312
 1821SOL    HW2 6363   3.297   1.670   2.335
 1822SOL     OW 6364   1.086   3.897   3.883
 1822SOL    HW1 6365   1.130   3.902   3.793
 1822SOL    HW2 6366   1.026   3.817   3.886
 1823SOL     OW 6367   4.066   6.843   3.176
 1823SOL    HW1 6368   4.017   6.840   3.263
 1823SOL    HW2 6369   4.161   6.812   3.190
 1824SOL     OW 6370   4.351   3.086   1.713
 1824SOL    HW1 6371   4.355   3.143   1.630
 1824SOL    HW2 6372   4.443   3.077   1.752
 1825SOL     OW 6373   1.185   3.374   6.230
 1825SOL    HW1 6374   1.242   3.430   6.171
 1825SOL    HW2 6375   1.130   3.432   6.290
 1826SOL     OW 6376   3.941   2.319   1.222
 1826SOL    HW1 6377   3.895   2.388   1.279
 1826SOL    HW2 6378   4.005   2.365   1.160
 1827SOL     OW 6379   5.530   4.515   0.488
 1827SOL    HW1 6380   5.492   4.538   0.399
 1827SOL    HW2 6381   5.504   4.585   0.555
 1828SOL     OW 6382   1.612   4.423   4.560
 1828SOL    HW1 6383   1.602   4.487   4.636
 1828SOL    HW2 6384   1.556   4.342   4.577
 1829SOL     OW 6385   3.016   6.063   1.803
 1829SOL    HW1 6386   3.061   6.107   1.881
 1829SOL    HW2 6387   2.932   6.112   1.781
 1830SOL     OW 6388   4.077   1.367   6.075
 1830SOL    HW1 6389   4.068   1.268   6.062
 1830SOL    HW2 6390   4.132   1.405   6.001
 1831SOL     OW 6391   3.340   4.608   0.701
 1831SOL    HW1 6392   3.399   4.536   0.665
 1831SOL    HW2 6393   3.265   4.567   0.754
 1832SOL     OW 6394   2.052   3.164   5.969
 1832SOL    HW1 6395   2.106   3.184   5.888
 1832SOL    HW2 6396   1.957   3.145   5.943
 1833SOL     OW 6397   6.432   1.031   6.742
 1833SOL    HW1 6398   6.498   0.978   6.690
 1833SOL    HW2 6399   6.403   0.978   6.822
 1834SOL     OW 6400   0.957   3.500   5.901
 1834SOL    HW1 6401   0.950   3.408   5.940
 1834SOL    HW2 6402   0.949   3.495   5.802
 1835SOL     OW 6403   6.947   6.038   1.254
 1835SOL    HW1 6404   7.002   5.964   1.214
 1835SOL    HW2 6405   6.996   6.125   1.244
 1836SOL     OW 6406   5.432   1.492   2.739
 1836SOL    HW1 6407   5.523   1.531   2.756
 1836SOL    HW2 6408   5.396   1.454   2.825
 1837SOL     OW 6409   2.529   2.156   6.920
 1837SOL    HW1 6410   2.588   2.173   6.841
 1837SOL    HW2 6411   2.551   2.220   6.993
 1838SOL     OW 6412   4.981   0.890   0.423
 1838SOL    HW1 6413   5.024   0.904   0.334
 1838SOL    HW2 6414   4.952   0.979   0.460
 1839SOL     OW 6415   6.060   0.743   0.089
 1839SOL    HW1 6416   6.047   0.837   0.121
 1839SOL    HW2 6417   6.157   0.724   0.079
 1840SOL     OW 6418   4.252   6.693   4.021
 1840SOL    HW1 6419   4.296   6.757   4.084
 1840SOL    HW2 6420   4.160   6.672   4.054
 1841SOL     OW 6421   1.855   0.463   1.473
 1841SOL    HW1 6422   1.836   0.496   1.565
 1841SOL    HW2 6423   1.933   0.513   1.435
 1842SOL     OW 6424   0.159   5.111   1.094
 1842SOL    HW1 6425   0.237   5.157   1.136
 1842SOL    HW2 6426   0.139   5.026   1.143
 1843SOL     OW 6427   2.560   1.246   0.179
 1843SOL    HW1 6428   2.537   1.225   0.274
 1843SOL    HW2 6429   2.556   1.162   0.124
 1844SOL     OW 6430   5.655   2.625   6.441
 1844SOL    HW1 6431   5.630   2.587   6.352
 1844SOL    HW2 6432   5.741   2.674   6.434
 1845SOL     OW 6433   1.134   2.403   4.027
 1845SOL    HW1 6434   1.230   2.375   4.030
 1845SOL    HW2 6435   1.108   2.425   3.933
 1846SOL     OW 6436   2.750   0.961   1.717
 1846SOL    HW1 6437   2.748   1.061   1.718
 1846SOL    HW2 6438   2.672   0.925   1.770
 1847SOL     OW 6439   2.118   5.570   6.428
 1847SOL    HW1 6440   2.155   5.574   6.335
 1847SOL    HW2 6441   2.181   5.615   6.491
 1848SOL     OW 6442   4.091   6.584   3.332
 1848SOL    HW1 6443   4.159   6.633   3.386
 1848SOL    HW2 6444   4.005   6.579   3.384
 1849SOL     OW 6445   4.929   2.456   2.939
 1849SOL    HW1 6446   4.931   2.453   2.839
 1849SOL    HW2 6447   4.835   2.462   2.971
 1850SOL     OW 6448   4.163   1.998   1.102
 1850SOL    HW1 6449   4.194   1.991   1.007
 1850SOL    HW2 6450   4.235   2.040   1.157
 1851SOL     OW 6451   0.495   4.575   4.582
 1851SOL    HW1 6452   0.447   4.661   4.597
 1851SOL    HW2 6453   0.593   4.589   4.599
 1852SOL     OW 6454   0.530   7.004   3.451
 1852SOL    HW1 6455   0.581   6.965   3.374
 1852SOL    HW2 6456   0.432   6.992   3.435
 1853SOL     OW 6457   0.655   2.373   5.505
 1853SOL    HW1 6458   0.690   2.332   5.590
 1853SOL    HW2 6459   0.566   2.332   5.483
 1854SOL     OW 6460   6.967   0.269   4.001
 1854SOL    HW1 6461   6.937   0.331   3.928
 1854SOL    HW2 6462   6.896   0.263   4.071
 1855SOL     OW 6463   5.593   2.372   5.222
 1855SOL    HW1 6464   5.562   2.293   5.275
 1855SOL    HW2 6465   5.515   2.429   5.198
 1856SOL     OW 6466   4.760   3.400   0.399
 1856SOL    HW1 6467   4.697   3.327   0.426
 1856SOL    HW2 6468   4.804   3.438   0.481
 1857SOL     OW 6469   3.743   0.777   6.477
 1857SOL    HW1 6470   3.806   0.839   6.524
 1857SOL    HW2 6471   3.711   0.708   6.541
 1858SOL     OW 6472   5.602   1.826   4.551
 1858SOL    HW1 6473   5.586   1.728   4.544
 1858SOL    HW2 6474   5.612   1.851   4.648
 1859SOL     OW 6475   6.712   0.659   3.561
 1859SOL    HW1 6476   6.710   0.759   3.550
 1859SOL    HW2 6477   6.646   0.633   3.631
 1860SOL     OW 6478   2.748   0.912   6.536
 1860SOL    HW1 6479   2.691   0.948   6.610
 1860SOL    HW2 6480   2.834   0.962   6.533
 1861SOL     OW 6481   5.977   6.526   4.933
 1861SOL    HW1 6482   6.056   6.479   4.973
 1861SOL    HW2 6483   5.900   6.462   4.927
 1862SOL     OW 6484   3.089   5.913   5.664
 1862SOL    HW1 6485   3.083   5.868   5.575
 1862SOL    HW2 6486   3.107   6.010   5.651
 1863SOL     OW 6487   0.066   1.570   1.199
 1863SOL    HW1 6488   0.130   1.507   1.156
 1863SOL    HW2 6489   0.116   1.628   1.264
 1864SOL     OW 6490   2.790   6.253   2.081
 1864SOL    HW1 6491   2.852   6.274   2.005
 1864SOL    HW2 6492   2.817   6.306   2.161
 1865SOL     OW 6493   6.123   2.159   5.830
 1865SOL    HW1 6494   6.178   2.219   5.771
 1865SOL    HW2 6495   6.138   2.185   5.925
 1866SOL     OW 6496   0.585   5.541   3.416
 1866SOL    HW1 6497   0.590   5.500   3.507
 1866SOL    HW2 6498   0.519   5.491   3.360
 1867SOL     OW 6499   1.151   1.498   1.382
 1867SOL    HW1 6500   1.056   1.466   1.381
 1867SOL    HW2 6501   1.160   1.577   1.323
 1868SOL     OW 6502   5.569   3.452   6.167
 1868SOL    HW1 6503   5.477   3.483   6.142
 1868SOL    HW2 6504   5.628   3.455   6.087
 1869SOL     OW 6505   5.185   0.708   5.422
 1869SOL    HW1 6506   5.146   0.757   5.500
 1869SOL    HW2 6507   5.174   0.763   5.340
 1870SOL     OW 6508   6.062   0.393   6.266
 1870SOL    HW1 6509   6.047   0.319   6.201
 1870SOL    HW2 6510   6.152   0.382   6.308
 1871SOL     OW 6511   0.954   6.262   6.913
 1871SOL    HW1 6512   0.985   6.315   6.992
 1871SOL    HW2 6513   0.890   6.191   6.942
 1872SOL     OW 6514   2.330   2.740   1.475
 1872SOL    HW1 6515   2.408   2.797   1.504
 1872SOL    HW2 6516   2.246   2.793   1.484
 1873SOL     OW 6517   5.968   1.193   1.491
 1873SOL    HW1 6518   6.031   1.244   1.549
 1873SOL    HW2 6519   6.020   1.132   1.430
 1874SOL     OW 6520   1.423   5.797   6.637
 1874SOL    HW1 6521   1.404   5.893   6.654
 1874SOL    HW2 6522   1.449   5.784   6.541
 1875SOL     OW 6523   0.225   6.462   2.043
 1875SOL    HW1 6524   0.258   6.424   2.129
 1875SOL    HW2 6525   0.286   6.435   1.968
 1876SOL     OW 6526   0.344   4.776   0.625
 1876SOL    HW1 6527   0.306   4.867   0.606
 1876SOL    HW2 6528   0.281   4.706   0.590
 1877SOL     OW 6529   1.388   1.899   2.322
 1877SOL    HW1 6530   1.409   1.807   2.354
 1877SOL    HW2 6531   1.291   1.919   2.339
 1878SOL     OW 6532   4.988   3.578   4.206
 1878SOL    HW1 6533   4.950   3.578   4.299
 1878SOL    HW2 6534   5.074   3.528   4.206
 1879SOL     OW 6535   4.393   6.387   4.683
 1879SOL    HW1 6536   4.326   6.392   4.757
 1879SOL    HW2 6537   4.465   6.322   4.708
 1880SOL     OW 6538   0.996   1.989   4.139
 1880SOL    HW1 6539   0.986   1.905   4.085
 1880SOL    HW2 6540   1.067   2.047   4.099
 1881SOL     OW 6541   2.132   1.273   3.484
 1881SOL    HW1 6542   2.201   1.246   3.552
 1881SOL    HW2 6543   2.099   1.193   3.436
 1882SOL     OW 6544   2.907   5.419   0.467
 1882SOL    HW1 6545   2.818   5.374   0.471
 1882SOL    HW2 6546   2.896   5.508   0.422
 1883SOL     OW 6547   2.370   2.580   2.390
 1883SOL    HW1 6548   2.345   2.654   2.327
 1883SOL    HW2 6549   2.362   2.613   2.484
 1884SOL     OW 6550   4.917   0.608   0.367
 1884SOL    HW1 6551   4.917   0.556   0.453
 1884SOL    HW2 6552   4.959   0.697   0.383
 1885SOL     OW 6553   0.015   1.647   0.587
 1885SOL    HW1 6554   0.044   1.734   0.548
 1885SOL    HW2 6555   0.095   1.596   0.618
 1886SOL     OW 6556   3.746   2.657   5.773
 1886SOL    HW1 6557   3.819   2.657   5.841
 1886SOL    HW2 6558   3.681   2.730   5.793
 1887SOL     OW 6559   0.935   6.119   5.080
 1887SOL    HW1 6560   0.914   6.205   5.034
 1887SOL    HW2 6561   0.956   6.049   5.012
 1888SOL     OW 6562   1.703   2.173   6.148
 1888SOL    HW1 6563   1.790   2.143   6.109
 1888SOL    HW2 6564   1.715   2.261   6.193
 1889SOL     OW 6565   2.846   3.424   0.189
 1889SOL    HW1 6566   2.909   3.382   0.124
 1889SOL    HW2 6567   2.752   3.402   0.164
 1890SOL     OW 6568   5.940   6.041   6.682
 1890SOL    HW1 6569   5.909   6.114   6.622
 1890SOL    HW2 6570   6.000   6.080   6.752
 1891SOL     OW 6571   5.127   3.607   6.849
 1891SOL    HW1 6572   5.169   3.671   6.784
 1891SOL    HW2 6573   5.195   3.578   6.916
 1892SOL     OW 6574   3.935   0.013   2.620
 1892SOL    HW1 6575   3.957   6.945   2.659
 1892SOL    HW2 6576   3.874   0.063   2.681
 1893SOL     OW 6577   2.867   1.088   5.958
 1893SOL    HW1 6578   2.920   1.004   5.947
 1893SOL    HW2 6579   2.845   1.101   6.055
 1894SOL     OW 6580   5.019   3.810   1.379
 1894SOL    HW1 6581   5.106   3.856   1.358
 1894SOL    HW2 6582   4.977   3.854   1.459
 1895SOL     OW 6583   4.479   6.084   3.426
 1895SOL    HW1 6584   4.549   6.154   3.432
 1895SOL    HW2 6585   4.448   6.060   3.518
 1896SOL     OW 6586   6.248   2.073   5.167
 1896SOL    HW1 6587   6.264   2.167   5.200
 1896SOL    HW2 6588   6.231   2.014   5.246
 1897SOL     OW 6589   5.743   4.904   3.100
 1897SOL    HW1 6590   5.684   4.868   3.028
 1897SOL    HW2 6591   5.733   5.004   3.104
 1898SOL     OW 6592   5.826   6.861   6.869
 1898SOL    HW1 6593   5.897   6.926   6.896
 1898SOL    HW2 6594   5.841   6.774   6.916
 1899SOL     OW 6595   1.744   2.769   3.880
 1899SOL    HW1 6596   1.704   2.812   3.961
 1899SOL    HW2 6597   1.775   2.840   3.817
 1900SOL     OW 6598   2.445   5.910   1.566
 1900SOL    HW1 6599   2.517   5.856   1.608
 1900SOL    HW2 6600   2.385   5.946   1.637
 1901SOL     OW 6601   1.217   0.626   5.997
 1901SOL    HW1 6602   1.168   0.539   5.993
 1901SOL    HW2 6603   1.159   0.699   5.961
 1902SOL     OW 6604   1.551   2.648   5.271
 1902SOL    HW1 6605   1.521   2.690   5.186
 1902SOL    HW2 6606   1.647   2.619   5.261
 1903SOL     OW 6607   6.698   4.793   3.948
 1903SOL    HW1 6608   6.629   4.782   3.876
 1903SOL    HW2 6609   6.739   4.704   3.967
 1904SOL     OW 6610   0.154   0.315   4.183
 1904SOL    HW1 6611   0.136   0.235   4.240
 1904SOL    HW2 6612   0.087   0.320   4.110
 1905SOL     OW 6613   6.443   2.780   4.315
 1905SOL    HW1 6614   6.379   2.712   4.278
 1905SOL    HW2 6615   6.441   2.775   4.415
 1906SOL     OW 6616   3.041   6.197   6.210
 1906SOL    HW1 6617   2.945   6.215   6.189
 1906SOL    HW2 6618   3.049   6.105   6.249
 1907SOL     OW 6619   4.418   6.186   3.885
 1907SOL    HW1 6620   4.507   6.171   3.927
 1907SOL    HW2 6621   4.383   6.276   3.914
 1908SOL     OW 6622   5.147   6.033   0.708
 1908SOL    HW1 6623   5.111   6.090   0.634
 1908SOL    HW2 6624   5.247   6.031   0.702
 1909SOL     OW 6625   4.574   5.791   3.710
 1909SOL    HW1 6626   4.501   5.747   3.761
 1909SOL    HW2 6627   4.662   5.767   3.751
 1910SOL     OW 6628   4.916   3.385   5.089
 1910SOL    HW1 6629   4.861   3.468   5.077
 1910SOL    HW2 6630   4.984   3.380   5.015
 1911SOL     OW 6631   0.163   3.530   5.661
 1911SOL    HW1 6632   0.172   3.590   5.582
 1911SOL    HW2 6633   0.189   3.579   5.744
 1912SOL     OW 6634   2.686   5.940   3.243
 1912SOL    HW1 6635   2.638   6.025   3.263
 1912SOL    HW2 6636   2.768   5.934   3.301
 1913SOL     OW 6637   1.642   4.555   5.254
 1913SOL    HW1 6638   1.740   4.551   5.274
 1913SOL    HW2 6639   1.610   4.463   5.228
 1914SOL     OW 6640   4.342   1.154   5.549
 1914SOL    HW1 6641   4.298   1.132   5.462
 1914SOL    HW2 6642   4.332   1.252   5.568
 1915SOL     OW 6643   2.839   0.294   5.193
 1915SOL    HW1 6644   2.790   0.221   5.145
 1915SOL    HW2 6645   2.806   0.383   5.160
 1916SOL     OW 6646   3.860   6.199   2.918
 1916SOL    HW1 6647   3.951   6.192   2.959
 1916SOL    HW2 6648   3.829   6.294   2.923
 1917SOL     OW 6649   3.317   3.613   4.253
 1917SOL    HW1 6650   3.386   3.672   4.294
 1917SOL    HW2 6651   3.318   3.623   4.154
 1918SOL     OW 6652   6.673   6.896   5.553
 1918SOL    HW1 6653   6.629   6.872   5.640
 1918SOL    HW2 6654   6.646   6.831   5.483
 1919SOL     OW 6655   6.503   0.017   2.849
 1919SOL    HW1 6656   6.439   0.008   2.924
 1919SOL    HW2 6657   6.596   0.005   2.883
 1920SOL     OW 6658   6.582   6.087   5.155
 1920SOL    HW1 6659   6.561   6.118   5.247
 1920SOL    HW2 6660   6.532   6.142   5.089
 1921SOL     OW 6661   1.777   6.886   6.893
 1921SOL    HW1 6662   1.723   6.809   6.860
 1921SOL    HW2 6663   1.874   6.866   6.882
 1922SOL     OW 6664   4.230   4.008   0.888
 1922SOL    HW1 6665   4.321   3.985   0.921
 1922SOL    HW2 6666   4.161   3.957   0.939
 1923SOL     OW 6667   1.721   2.947   0.042
 1923SOL    HW1 6668   1.624   2.921   0.035
 1923SOL    HW2 6669   1.729   3.046   0.039
 1924SOL     OW 6670   0.402   4.228   1.007
 1924SOL    HW1 6671   0.380   4.325   0.992
 1924SOL    HW2 6672   0.427   4.214   1.103
 1925SOL     OW 6673   3.466   4.411   0.172
 1925SOL    HW1 6674   3.456   4.507   0.144
 1925SOL    HW2 6675   3.545   4.371   0.125
 1926SOL     OW 6676   0.429   0.462   3.604
 1926SOL    HW1 6677   0.334   0.447   3.629
 1926SOL    HW2 6678   0.474   0.374   3.588
 1927SOL     OW 6679   4.465   3.301   1.125
 1927SOL    HW1 6680   4.544   3.291   1.185
 1927SOL    HW2 6681   4.381   3.296   1.179
 1928SOL     OW 6682   0.141   5.732   4.965
 1928SOL    HW1 6683   0.193   5.665   5.017
 1928SOL    HW2 6684   0.118   5.696   4.875
 1929SOL     OW 6685   1.701   6.123   3.359
 1929SOL    HW1 6686   1.776   6.178   3.397
 1929SOL    HW2 6687   1.738   6.039   3.321
 1930SOL     OW 6688   6.928   5.189   6.683
 1930SOL    HW1 6689   6.841   5.149   6.712
 1930SOL    HW2 6690   6.926   5.207   6.585
 1931SOL     OW 6691   0.512   2.125   4.942
 1931SOL    HW1 6692   0.437   2.064   4.917
 1931SOL    HW2 6693   0.585   2.118   4.874
 1932SOL     OW 6694   6.360   2.745   2.625
 1932SOL    HW1 6695   6.383   2.821   2.564
 1932SOL    HW2 6696   6.437   2.728   2.686
 1933SOL     OW 6697   2.662   5.048   0.768
 1933SOL    HW1 6698   2.571   5.013   0.789
 1933SOL    HW2 6699   2.724   4.972   0.751
 1934SOL     OW 6700   6.808   6.432   3.799
 1934SOL    HW1 6701   6.813   6.361   3.869
 1934SOL    HW2 6702   6.766   6.514   3.838
 1935SOL     OW 6703   2.061   0.818   3.027
 1935SOL    HW1 6704   1.993   0.887   3.054
 1935SOL    HW2 6705   2.020   0.756   2.960
 1936SOL     OW 6706   0.014   6.109   5.259
 1936SOL    HW1 6707   7.011   6.158   5.174
 1936SOL    HW2 6708   0.113   6.104   5.267
 1937SOL     OW 6709   3.871   1.140   2.911
 1937SOL    HW1 6710   3.792   1.170   2.857
 1937SOL    HW2 6711   3.841   1.112   3.002
 1938SOL     OW 6712   5.098   1.198   4.341
 1938SOL    HW1 6713   5.088   1.264   4.415
 1938SOL    HW2 6714   5.096   1.246   4.253
 1939SOL     OW 6715   2.608   0.832   3.879
 1939SOL    HW1 6716   2.673   0.827   3.955
 1939SOL    HW2 6717   2.553   0.748   3.877
 1940SOL     OW 6718   6.133   5.237   6.477
 1940SOL    HW1 6719   6.225   5.220   6.513
 1940SOL    HW2 6720   6.083   5.150   6.474
 1941SOL     OW 6721   5.468   5.047   2.914
 1941SOL    HW1 6722   5.421   5.088   2.993
 1941SOL    HW2 6723   5.465   4.947   2.922
 1942SOL     OW 6724   7.019   4.425   3.300
 1942SOL    HW1 6725   6.972   4.513   3.304
 1942SOL    HW2 6726   0.048   4.410   3.384
 1943SOL     OW 6727   3.059   5.503   2.879
 1943SOL    HW1 6728   3.107   5.472   2.797
 1943SOL    HW2 6729   3.097   5.589   2.910
 1944SOL     OW 6730   0.024   0.082   2.171
 1944SOL    HW1 6731   0.081   0.164   2.156
 1944SOL    HW2 6732   7.005   0.055   2.084
 1945SOL     OW 6733   3.360   4.954   3.656
 1945SOL    HW1 6734   3.337   4.902   3.738
 1945SOL    HW2 6735   3.454   4.935   3.629
 1946SOL     OW 6736   1.887   6.195   0.029
 1946SOL    HW1 6737   1.806   6.251   0.048
 1946SOL    HW2 6738   1.931   6.170   0.115
 1947SOL     OW 6739   4.896   0.078   3.716
 1947SOL    HW1 6740   4.893   0.067   3.815
 1947SOL    HW2 6741   4.818   0.133   3.686
 1948SOL     OW 6742   6.810   3.805   5.512
 1948SOL    HW1 6743   6.907   3.781   5.507
 1948SOL    HW2 6744   6.792   3.854   5.597
 1949SOL     OW 6745   4.995   4.050   6.289
 1949SOL    HW1 6746   4.937   4.036   6.369
 1949SOL    HW2 6747   5.079   3.997   6.299
 1950SOL     OW 6748   3.175   5.164   1.247
 1950SOL    HW1 6749   3.091   5.114   1.266
 1950SOL    HW2 6750   3.232   5.110   1.185
 1951SOL     OW 6751   6.722   2.825   0.373
 1951SOL    HW1 6752   6.690   2.918   0.388
 1951SOL    HW2 6753   6.648   2.770   0.333
 1952SOL     OW 6754   3.594   3.092   5.077
 1952SOL    HW1 6755   3.681   3.093   5.126
 1952SOL    HW2 6756   3.559   2.998   5.072
 1953SOL     OW 6757   0.110   2.761   4.532
 1953SOL    HW1 6758   0.012   2.763   4.513
 1953SOL    HW2 6759   0.125   2.780   4.630
 1954SOL     OW 6760   2.433   2.014   3.354
 1954SOL    HW1 6761   2.476   1.927   3.379
 1954SOL    HW2 6762   2.374   2.044   3.429
 1955SOL     OW 6763   6.005   5.205   1.977
 1955SOL    HW1 6764   6.091   5.214   1.928
 1955SOL    HW2 6765   5.993   5.110   2.007
 1956SOL     OW 6766   5.460   6.289   2.127
 1956SOL    HW1 6767   5.377   6.328   2.166
 1956SOL    HW2 6768   5.506   6.232   2.195
 1957SOL     OW 6769   0.851   6.580   5.551
 1957SOL    HW1 6770   0.755   6.580   5.523
 1957SOL    HW2 6771   0.890   6.671   5.536
 1958SOL     OW 6772   4.570   3.205   5.826
 1958SOL    HW1 6773   4.553   3.209   5.924
 1958SOL    HW2 6774   4.565   3.110   5.795
 1959SOL     OW 6775   2.195   1.652   0.338
 1959SOL    HW1 6776   2.279   1.702   0.317
 1959SOL    HW2 6777   2.186   1.575   0.274
 1960SOL     OW 6778   5.460   6.323   2.646
 1960SOL    HW1 6779   5.416   6.329   2.736
 1960SOL    HW2 6780   5.544   6.269   2.654
 1961SOL     OW 6781   6.250   4.768   5.383
 1961SOL    HW1 6782   6.161   4.739   5.418
 1961SOL    HW2 6783   6.246   4.773   5.283
 1962SOL     OW 6784   6.711   6.673   3.876
 1962SOL    HW1 6785   6.784   6.686   3.943
 1962SOL    HW2 6786   6.630   6.724   3.904
 1963SOL     OW 6787   2.915   0.263   3.139
 1963SOL    HW1 6788   2.887   0.288   3.047
 1963SOL    HW2 6789   2.877   0.328   3.205
 1964SOL     OW 6790   5.927   4.281   2.002
 1964SOL    HW1 6791   5.970   4.237   2.081
 1964SOL    HW2 6792   5.828   4.266   2.005
 1965SOL     OW 6793   2.515   5.767   3.747
 1965SOL    HW1 6794   2.607   5.733   3.768
 1965SOL    HW2 6795   2.453   5.689   3.737
 1966SOL     OW 6796   6.019   6.359   6.638
 1966SOL    HW1 6797   5.936   6.321   6.598
 1966SOL    HW2 6798   6.003   6.454   6.666
 1967SOL     OW 6799   4.999   3.320   4.622
 1967SOL    HW1 6800   5.001   3.403   4.678
 1967SOL    HW2 6801   4.988   3.240   4.680
 1968SOL     OW 6802   3.670   5.595   5.024
 1968SOL    HW1 6803   3.756   5.644   5.038
 1968SOL    HW2 6804   3.665   5.517   5.086
 1969SOL     OW 6805   6.989   1.853   1.591
 1969SOL    HW1 6806   7.016   1.806   1.674
 1969SOL    HW2 6807   6.900   1.898   1.605
 1970SOL     OW 6808   1.713   6.946   3.740
 1970SOL    HW1 6809   1.672   7.007   3.672
 1970SOL    HW2 6810   1.641   6.900   3.792
 1971SOL     OW 6811   0.033   0.993   5.958
 1971SOL    HW1 6812   0.095   1.069   5.939
 1971SOL    HW2 6813   0.083   0.907   5.954
 1972SOL     OW 6814   1.758   5.863   3.648
 1972SOL    HW1 6815   1.816   5.919   3.588
 1972SOL    HW2 6816   1.663   5.893   3.640
 1973SOL     OW 6817   2.533   2.670   6.661
 1973SOL    HW1 6818   2.530   2.753   6.716
 1973SOL    HW2 6819   2.563   2.593   6.717
 1974SOL     OW 6820   5.488   6.831   4.384
 1974SOL    HW1 6821   5.554   6.762   4.415
 1974SOL    HW2 6822   5.536   6.900   4.330
 1975SOL     OW 6823   3.186   0.200   3.214
 1975SOL    HW1 6824   3.205   0.247   3.300
 1975SOL    HW2 6825   3.089   0.209   3.192
 1976SOL     OW 6826   6.866   4.382   6.962
 1976SOL    HW1 6827   6.949   4.408   7.012
 1976SOL    HW2 6828   6.808   4.326   7.021
 1977SOL     OW 6829   2.842   2.051   5.217
 1977SOL    HW1 6830   2.788   2.134   5.209
 1977SOL    HW2 6831   2.936   2.068   5.187
 1978SOL     OW 6832   6.854   2.122   4.947
 1978SOL    HW1 6833   6.872   2.219   4.964
 1978SOL    HW2 6834   6.788   2.113   4.873
 1979SOL     OW 6835   5.780   4.401   3.166
 1979SOL    HW1 6836   5.723   4.469   3.118
 1979SOL    HW2 6837   5.783   4.424   3.263
 1980SOL     OW 6838   3.232   1.060   1.225
 1980SOL    HW1 6839   3.169   1.085   1.299
 1980SOL    HW2 6840   3.325   1.086   1.251
 1981SOL     OW 6841   4.895   3.367   1.681
 1981SOL    HW1 6842   4.854   3.305   1.747
 1981SOL    HW2 6843   4.894   3.460   1.717
 1982SOL     OW 6844   6.136   0.097   5.317
 1982SOL    HW1 6845   6.072   0.166   5.283
 1982SOL    HW2 6846   6.198   0.070   5.244
 1983SOL     OW 6847   0.460   4.606   2.111
 1983SOL    HW1 6848   0.496   4.520   2.074
 1983SOL    HW2 6849   0.444   4.595   2.210
 1984SOL     OW 6850   4.296   0.793   5.458
 1984SOL    HW1 6851   4.223   0.726   5.448
 1984SOL    HW2 6852   4.318   0.804   5.555
 1985SOL     OW 6853   1.895   6.413   1.385
 1985SOL    HW1 6854   1.952   6.479   1.432
 1985SOL    HW2 6855   1.819   6.461   1.339
 1986SOL     OW 6856   0.062   1.966   6.704
 1986SOL    HW1 6857   0.088   2.045   6.649
 1986SOL    HW2 6858   0.036   1.891   6.644
 1987SOL     OW 6859   2.957   4.089   0.738
 1987SOL    HW1 6860   2.987   4.028   0.664
 1987SOL    HW2 6861   2.915   4.170   0.699
 1988SOL     OW 6862   4.796   3.037   0.660
 1988SOL    HW1 6863   4.780   3.052   0.758
 1988SOL    HW2 6864   4.884   3.076   0.634
 1989SOL     OW 6865   2.401   1.207   4.104
 1989SOL    HW1 6866   2.498   1.217   4.126
 1989SOL    HW2 6867   2.364   1.297   4.078
 1990SOL     OW 6868   2.148   1.335   2.608
 1990SOL    HW1 6869   2.248   1.335   2.614
 1990SOL    HW2 6870   2.119   1.415   2.555
 1991SOL     OW 6871   4.886   5.771   3.374
 1991SOL    HW1 6872   4.878   5.865   3.405
 1991SOL    HW2 6873   4.981   5.752   3.348
 1992SOL     OW 6874   1.996   6.535   5.422
 1992SOL    HW1 6875   1.985   6.436   5.419
 1992SOL    HW2 6876   2.088   6.558   5.455
 1993SOL     OW 6877   3.299   3.123   4.128
 1993SOL    HW1 6878   3.345   3.192   4.071
 1993SOL    HW2 6879   3.205   3.151   4.144
 1994SOL     OW 6880   5.772   2.479   2.091
 1994SOL    HW1 6881   5.840   2.459   2.162
 1994SOL    HW2 6882   5.692   2.419   2.104
 1995SOL     OW 6883   4.281   2.407   1.452
 1995SOL    HW1 6884   4.204   2.434   1.509
 1995SOL    HW2 6885   4.363   2.400   1.508
 1996SOL     OW 6886   2.898   4.022   5.269
 1996SOL    HW1 6887   2.930   3.930   5.248
 1996SOL    HW2 6888   2.810   4.017   5.315
 1997SOL     OW 6889   5.657   0.280   4.087
 1997SOL    HW1 6890   5.684   0.205   4.027
 1997SOL    HW2 6891   5.720   0.357   4.075
 1998SOL     OW 6892   3.088   4.819   5.085
 1998SOL    HW1 6893   3.171   4.830   5.139
 1998SOL    HW2 6894   3.039   4.737   5.113
 1999SOL     OW 6895   2.403   0.596   2.015
 1999SOL    HW1 6896   2.340   0.520   1.999
 1999SOL    HW2 6897   2.495   0.569   1.988
 2000SOL     OW 6898   3.596   1.683   4.663
 2000SOL    HW1 6899   3.653   1.725   4.593
 2000SOL    HW2 6900   3.602   1.583   4.655
 2001SOL     OW 6901   2.475   3.318   6.769
 2001SOL    HW1 6902   2.436   3.270   6.848
 2001SOL    HW2 6903   2.401   3.351   6.711
 2002SOL     OW 6904   1.419   5.456   5.057
 2002SOL    HW1 6905   1.409   5.456   5.157
 2002SOL    HW2 6906   1.345   5.511   5.017
 2003SOL     OW 6907   6.314   4.807   3.399
 2003SOL    HW1 6908   6.316   4.898   3.357
 2003SOL    HW2 6909   6.405   4.766   3.396
 2004SOL     OW 6910   3.432   0.354   6.611
 2004SOL    HW1 6911   3.447   0.355   6.512
 2004SOL    HW2 6912   3.353   0.295   6.632
 2005SOL     OW 6913   2.567   6.352   5.057
 2005SOL    HW1 6914   2.543   6.313   5.146
 2005SOL    HW2 6915   2.661   6.328   5.035
 2006SOL     OW 6916   4.494   5.788   3.385
 2006SOL    HW1 6917   4.492   5.885   3.411
 2006SOL    HW2 6918   4.571   5.744   3.431
 2007SOL     OW 6919   6.306   5.342   0.013
 2007SOL    HW1 6920   6.315   5.266   0.078
 2007SOL    HW2 6921   6.286   5.426   0.064
 2008SOL     OW 6922   6.881   6.526   4.473
 2008SOL    HW1 6923   6.851   6.448   4.418
 2008SOL    HW2 6924   6.900   6.604   4.413
 2009SOL     OW 6925   0.860   0.367   0.449
 2009SOL    HW1 6926   0.920   0.412   0.514
 2009SOL    HW2 6927   0.864   0.414   0.361
 2010SOL     OW 6928   1.232   6.945   1.085
 2010SOL    HW1 6929   1.277   6.994   1.160
 2010SOL    HW2 6930   1.286   6.956   1.001
 2011SOL     OW 6931   6.956   2.390   4.920
 2011SOL    HW1 6932   6.871   2.431   4.887
 2011SOL    HW2 6933   7.002   2.344   4.845
 2012SOL     OW 6934   0.021   3.569   0.845
 2012SOL    HW1 6935   0.107   3.520   0.835
 2012SOL    HW2 6936   6.985   3.521   0.912
 2013SOL     OW 6937   4.633   1.264   2.730
 2013SOL    HW1 6938   4.622   1.237   2.634
 2013SOL    HW2 6939   4.642   1.363   2.737
 2014SOL     OW 6940   2.299   5.599   3.303
 2014SOL    HW1 6941   2.348   5.523   3.259
 2014SOL    HW2 6942   2.362   5.675   3.317
 2015SOL     OW 6943   3.467   6.529   0.142
 2015SOL    HW1 6944   3.384   6.508   0.091
 2015SOL    HW2 6945   3.537   6.460   0.123
 2016SOL     OW 6946   6.138   5.140   3.626
 2016SOL    HW1 6947   6.041   5.164   3.630
 2016SOL    HW2 6948   6.181   5.189   3.550
 2017SOL     OW 6949   2.049   4.934   1.852
 2017SOL    HW1 6950   1.957   4.912   1.820
 2017SOL    HW2 6951   2.115   4.873   1.809
 2018SOL     OW 6952   0.342   4.251   6.600
 2018SOL    HW1 6953   0.353   4.162   6.556
 2018SOL    HW2 6954   0.276   4.306   6.549
 2019SOL     OW 6955   5.629   1.655   2.874
 2019SOL    HW1 6956   5.725   1.660   2.847
 2019SOL    HW2 6957   5.578   1.727   2.826
 2020SOL     OW 6958   1.430   5.131   3.472
 2020SOL    HW1 6959   1.446   5.135   3.374
 2020SOL    HW2 6960   1.373   5.208   3.500
 2021SOL     OW 6961   1.615   6.487   1.982
 2021SOL    HW1 6962   1.533   6.430   1.988
 2021SOL    HW2 6963   1.591   6.582   1.999
 2022SOL     OW 6964   2.755   4.537   1.244
 2022SOL    HW1 6965   2.844   4.580   1.229
 2022SOL    HW2 6966   2.737   4.533   1.342
 2023SOL     OW 6967   6.206   1.508   6.274
 2023SOL    HW1 6968   6.197   1.548   6.365
 2023SOL    HW2 6969   6.241   1.577   6.210
 2024SOL     OW 6970   6.257   0.380   2.772
 2024SOL    HW1 6971   6.235   0.467   2.729
 2024SOL    HW2 6972   6.172   0.330   2.790
 2025SOL     OW 6973   6.488   0.876   0.798
 2025SOL    HW1 6974   6.571   0.837   0.759
 2025SOL    HW2 6975   6.481   0.852   0.895
 2026SOL     OW 6976   1.356   2.242   5.491
 2026SOL    HW1 6977   1.406   2.302   5.429
 2026SOL    HW2 6978   1.400   2.245   5.581
 2027SOL     OW 6979   0.650   1.248   2.444
 2027SOL    HW1 6980   0.554   1.254   2.470
 2027SOL    HW2 6981   0.705   1.311   2.500
 2028SOL     OW 6982   3.319   4.175   5.793
 2028SOL    HW1 6983   3.314   4.123   5.708
 2028SOL    HW2 6984   3.409   4.164   5.834
 2029SOL     OW 6985   1.921   0.262   0.411
 2029SOL    HW1 6986   1.880   0.299   0.495
 2029SOL    HW2 6987   1.851   0.257   0.340
 2030SOL     OW 6988   1.642   1.695   2.646
 2030SOL    HW1 6989   1.705   1.707   2.723
 2030SOL    HW2 6990   1.692   1.703   2.560
 2031SOL     OW 6991   4.776   7.018   2.724
 2031SOL    HW1 6992   4.723   0.032   2.647
 2031SOL    HW2 6993   4.846   6.955   2.689
 2032SOL     OW 6994   5.600   6.448   1.414
 2032SOL    HW1 6995   5.565   6.420   1.324
 2032SOL    HW2 6996   5.525   6.485   1.469
 2033SOL     OW 6997   6.824   5.911   6.611
 2033SOL    HW1 6998   6.897   5.949   6.668
 2033SOL    HW2 6999   6.739   5.911   6.663
 2034SOL     OW 7000   2.715   6.957   3.304
 2034SOL    HW1 7001   2.646   0.008   3.302
 2034SOL    HW2 7002   2.789   6.979   3.241
 2035SOL     OW 7003   0.897   2.943   1.201
 2035SOL    HW1 7004   0.884   2.966   1.105
 2035SOL    HW2 7005   0.808   2.931   1.245
 2036SOL     OW 7006   0.995   4.410   0.278
 2036SOL    HW1 7007   0.896   4.398   0.282
 2036SOL    HW2 7008   1.018   4.505   0.300
 2037SOL     OW 7009   7.014   1.584   6.060
 2037SOL    HW1 7010   0.088   1.582   6.029
 2037SOL    HW2 7011   6.961   1.517   6.008
 2038SOL     OW 7012   0.713   0.029   5.369
 2038SOL    HW1 7013   0.768   0.110   5.350
 2038SOL    HW2 7014   0.616   0.053   5.369
 2039SOL     OW 7015   1.451   5.210   1.940
 2039SOL    HW1 7016   1.482   5.235   1.849
 2039SOL    HW2 7017   1.474   5.283   2.004
 2040SOL     OW 7018   2.977   3.866   4.242
 2040SOL    HW1 7019   3.002   3.861   4.145
 2040SOL    HW2 7020   3.018   3.947   4.283
 2041SOL     OW 7021   6.307   3.494   0.071
 2041SOL    HW1 7022   6.250   3.575   0.085
 2041SOL    HW2 7023   6.252   3.422   0.027
 2042SOL     OW 7024   3.358   5.269   0.433
 2042SOL    HW1 7025   3.271   5.295   0.474
 2042SOL    HW2 7026   3.415   5.350   0.421
 2043SOL     OW 7027   4.531   4.554   2.419
 2043SOL    HW1 7028   4.527   4.454   2.411
 2043SOL    HW2 7029   4.551   4.580   2.513
 2044SOL     OW 7030   6.387   0.411   1.838
 2044SOL    HW1 7031   6.357   0.342   1.904
 2044SOL    HW2 7032   6.455   0.471   1.880
 2045SOL     OW 7033   2.261   5.642   6.190
 2045SOL    HW1 7034   2.327   5.710   6.222
 2045SOL    HW2 7035   2.183   5.689   6.147
 2046SOL     OW 7036   6.062   0.154   4.883
 2046SOL    HW1 7037   6.077   0.249   4.856
 2046SOL    HW2 7038   6.000   0.151   4.962
 2047SOL     OW 7039   5.602   2.337   6.987
 2047SOL    HW1 7040   5.527   2.327   6.922
 2047SOL    HW2 7041   5.600   2.430   0.003
 2048SOL     OW 7042   4.043   6.651   5.358
 2048SOL    HW1 7043   4.021   6.609   5.269
 2048SOL    HW2 7044   3.971   6.716   5.383
 2049SOL     OW 7045   4.898   5.885   0.776
 2049SOL    HW1 7046   4.799   5.898   0.773
 2049SOL    HW2 7047   4.943   5.972   0.754
 2050SOL     OW 7048   5.346   1.029   4.259
 2050SOL    HW1 7049   5.338   1.114   4.207
 2050SOL    HW2 7050   5.308   1.042   4.350
 2051SOL     OW 7051   2.615   5.224   0.522
 2051SOL    HW1 7052   2.606   5.144   0.581
 2051SOL    HW2 7053   2.672   5.292   0.566
 2052SOL     OW 7054   1.388   2.598   0.745
 2052SOL    HW1 7055   1.423   2.507   0.724
 2052SOL    HW2 7056   1.289   2.595   0.755
 2053SOL     OW 7057   5.519   1.171   0.538
 2053SOL    HW1 7058   5.576   1.253   0.542
 2053SOL    HW2 7059   5.493   1.143   0.630
 2054SOL     OW 7060   6.866   3.576   1.724
 2054SOL    HW1 7061   6.960   3.582   1.757
 2054SOL    HW2 7062   6.829   3.485   1.744
 2055SOL     OW 7063   6.398   2.040   4.159
 2055SOL    HW1 7064   6.466   1.982   4.115
 2055SOL    HW2 7065   6.411   2.038   4.258
 2056SOL     OW 7066   1.285   0.439   2.293
 2056SOL    HW1 7067   1.347   0.428   2.370
 2056SOL    HW2 7068   1.191   0.428   2.323
 2057SOL     OW 7069   6.949   2.334   3.868
 2057SOL    HW1 7070   6.907   2.244   3.880
 2057SOL    HW2 7071   6.890   2.404   3.907
 2058SOL     OW 7072   0.302   1.960   1.884
 2058SOL    HW1 7073   0.350   1.882   1.924
 2058SOL    HW2 7074   0.344   1.984   1.797
 2059SOL     OW 7075   1.366   1.155   6.504
 2059SOL    HW1 7076   1.428   1.189   6.433
 2059SOL    HW2 7077   1.272   1.177   6.478
 2060SOL     OW 7078   0.719   5.540   1.954
 2060SOL    HW1 7079   0.642   5.488   1.918
 2060SOL    HW2 7080   0.751   5.605   1.885
 2061SOL     OW 7081   0.892   1.466   1.349
 2061SOL    HW1 7082   0.853   1.394   1.291
 2061SOL    HW2 7083   0.818   1.519   1.390
 2062SOL     OW 7084   4.231   0.390   3.201
 2062SOL    HW1 7085   4.278   0.345   3.125
 2062SOL    HW2 7086   4.133   0.390   3.184
 2063SOL     OW 7087   2.801   1.787   0.577
 2063SOL    HW1 7088   2.702   1.787   0.591
 2063SOL    HW2 7089   2.845   1.835   0.653
 2064SOL     OW 7090   1.013   2.409   0.177
 2064SOL    HW1 7091   0.991   2.387   0.082
 2064SOL    HW2 7092   0.928   2.427   0.227
 2065SOL     OW 7093   6.136   2.886   1.794
 2065SOL    HW1 7094   6.128   2.818   1.722
 2065SOL    HW2 7095   6.048   2.934   1.805
 2066SOL     OW 7096   2.154   6.814   3.429
 2066SOL    HW1 7097   2.219   6.852   3.495
 2066SOL    HW2 7098   2.072   6.784   3.476
 2067SOL     OW 7099   0.251   6.812   1.145
 2067SOL    HW1 7100   0.301   6.755   1.080
 2067SOL    HW2 7101   0.307   6.890   1.172
 2068SOL     OW 7102   2.011   1.065   5.086
 2068SOL    HW1 7103   2.009   1.075   4.987
 2068SOL    HW2 7104   2.104   1.082   5.119
 2069SOL     OW 7105   0.687   1.688   1.816
 2069SOL    HW1 7106   0.688   1.774   1.866
 2069SOL    HW2 7107   0.594   1.651   1.814
 2070SOL     OW 7108   0.634   1.528   2.960
 2070SOL    HW1 7109   0.639   1.485   2.870
 2070SOL    HW2 7110   0.723   1.521   3.005
 2071SOL     OW 7111   1.604   6.520   4.898
 2071SOL    HW1 7112   1.655   6.436   4.877
 2071SOL    HW2 7113   1.579   6.520   4.995
 2072SOL     OW 7114   4.816   4.895   2.315
 2072SOL    HW1 7115   4.731   4.842   2.314
 2072SOL    HW2 7116   4.881   4.853   2.378
 2073SOL     OW 7117   3.492   6.267   5.559
 2073SOL    HW1 7118   3.536   6.180   5.535
 2073SOL    HW2 7119   3.443   6.302   5.479
 2074SOL     OW 7120   6.426   2.091   1.891
 2074SOL    HW1 7121   6.512   2.094   1.842
 2074SOL    HW2 7122   6.437   2.040   1.976
 2075SOL     OW 7123   3.952   3.598   6.059
 2075SOL    HW1 7124   3.979   3.693   6.040
 2075SOL    HW2 7125   4.030   3.538   6.045
 2076SOL     OW 7126   4.882   0.772   1.052
 2076SOL    HW1 7127   4.853   0.684   1.089
 2076SOL    HW2 7128   4.978   0.788   1.075
 2077SOL     OW 7129   5.268   1.949   3.214
 2077SOL    HW1 7130   5.358   1.930   3.253
 2077SOL    HW2 7131   5.209   1.869   3.225
 2078SOL     OW 7132   4.623   5.781   5.462
 2078SOL    HW1 7133   4.548   5.771   5.527
 2078SOL    HW2 7134   4.705   5.811   5.511
 2079SOL     OW 7135   5.882   1.671   3.259
 2079SOL    HW1 7136   5.793   1.639   3.227
 2079SOL    HW2 7137   5.922   1.603   3.320
 2080SOL     OW 7138   3.161   2.010   4.533
 2080SOL    HW1 7139   3.142   2.063   4.616
 2080SOL    HW2 7140   3.084   2.018   4.470
 2081SOL     OW 7141   0.779   6.341   5.016
 2081SOL    HW1 7142   0.695   6.325   4.965
 2081SOL    HW2 7143   0.778   6.433   5.055
 2082SOL     OW 7144   4.788   0.532   2.187
 2082SOL    HW1 7145   4.876   0.570   2.216
 2082SOL    HW2 7146   4.717   0.601   2.200
 2083SOL     OW 7147   3.518   4.995   5.345
 2083SOL    HW1 7148   3.553   5.036   5.260
 2083SOL    HW2 7149   3.469   4.911   5.323
 2084SOL     OW 7150   7.004   3.115   2.989
 2084SOL    HW1 7151   6.981   3.050   3.061
 2084SOL    HW2 7152   6.933   3.186   2.984
 2085SOL     OW 7153   5.312   6.537   6.452
 2085SOL    HW1 7154   5.269   6.448   6.469
 2085SOL    HW2 7155   5.383   6.527   6.382
 2086SOL     OW 7156   3.031   4.906   0.739
 2086SOL    HW1 7157   3.050   4.951   0.652
 2086SOL    HW2 7158   3.045   4.971   0.814
 2087SOL     OW 7159   5.758   5.801   3.645
 2087SOL    HW1 7160   5.700   5.728   3.680
 2087SOL    HW2 7161   5.853   5.781   3.668
 2088SOL     OW 7162   2.676   0.009   0.719
 2088SOL    HW1 7163   2.581   7.009   0.696
 2088SOL    HW2 7164   2.696   0.104   0.692
 2089SOL     OW 7165   2.854   0.569   6.214
 2089SOL    HW1 7166   2.764   0.549   6.173
 2089SOL    HW2 7167   2.924   0.564   6.143
 2090SOL     OW 7168   3.449   2.933   3.888
 2090SOL    HW1 7169   3.364   2.976   3.856
 2090SOL    HW2 7170   3.433   2.885   3.973
 2091SOL     OW 7171   2.227   4.759   0.196
 2091SOL    HW1 7172   2.170   4.767   0.278
 2091SOL    HW2 7173   2.171   4.725   0.120
 2092SOL     OW 7174   6.420   6.418   0.578
 2092SOL    HW1 7175   6.330   6.452   0.547
 2092SOL    HW2 7176   6.408   6.331   0.625
 2093SOL     OW 7177   1.376   2.678   1.552
 2093SOL    HW1 7178   1.414   2.649   1.464
 2093SOL    HW2 7179   1.334   2.768   1.542
 2094SOL     OW 7180   5.978   0.640   2.166
 2094SOL    HW1 7181   6.022   0.552   2.146
 2094SOL    HW2 7182   5.895   0.624   2.219
 2095SOL     OW 7183   0.179   4.972   4.985
 2095SOL    HW1 7184   0.230   4.899   4.938
 2095SOL    HW2 7185   0.144   5.037   4.917
 2096SOL     OW 7186   4.928   3.821   3.238
 2096SOL    HW1 7187   4.912   3.908   3.192
 2096SOL    HW2 7188   4.902   3.746   3.177
 2097SOL     OW 7189   6.806   3.346   0.086
 2097SOL    HW1 7190   6.734   3.276   0.079
 2097SOL    HW2 7191   6.885   3.307   0.133
 2098SOL     OW 7192   4.762   0.542   4.220
 2098SOL    HW1 7193   4.762   0.522   4.122
 2098SOL    HW2 7194   4.854   0.571   4.248
 2099SOL     OW 7195   2.701   1.112   3.938
 2099SOL    HW1 7196   2.758   1.192   3.917
 2099SOL    HW2 7197   2.664   1.074   3.854
 2100SOL     OW 7198   3.718   3.946   6.581
 2100SOL    HW1 7199   3.662   3.983   6.507
 2100SOL    HW2 7200   3.679   3.858   6.611
 2101SOL     OW 7201   6.500   0.400   3.210
 2101SOL    HW1 7202   6.459   0.446   3.132
 2101SOL    HW2 7203   6.517   0.304   3.187
 2102SOL     OW 7204   0.546   5.019   1.887
 2102SOL    HW1 7205   0.572   4.981   1.976
 2102SOL    HW2 7206   0.473   4.963   1.848
 2103SOL     OW 7207   2.565   3.956   6.795
 2103SOL    HW1 7208   2.547   3.898   6.716
 2103SOL    HW2 7209   2.657   3.940   6.828
 2104SOL     OW 7210   1.301   3.701   5.097
 2104SOL    HW1 7211   1.344   3.788   5.120
 2104SOL    HW2 7212   1.247   3.668   5.174
 2105SOL     OW 7213   6.249   5.570   1.602
 2105SOL    HW1 7214   6.293   5.580   1.513
 2105SOL    HW2 7215   6.157   5.533   1.590
 2106SOL     OW 7216   5.162   5.980   6.652
 2106SOL    HW1 7217   5.062   5.989   6.651
 2106SOL    HW2 7218   5.188   5.894   6.609
 2107SOL     OW 7219   3.528   4.062   6.961
 2107SOL    HW1 7220   3.441   4.108   6.979
 2107SOL    HW2 7221   3.577   4.110   6.889
 2108SOL     OW 7222   5.493   4.911   5.370
 2108SOL    HW1 7223   5.593   4.903   5.374
 2108SOL    HW2 7224   5.457   4.847   5.302
 2109SOL     OW 7225   5.382   6.804   2.521
 2109SOL    HW1 7226   5.380   6.705   2.506
 2109SOL    HW2 7227   5.439   6.824   2.600
 2110SOL     OW 7228   2.485   4.820   5.326
 2110SOL    HW1 7229   2.505   4.905   5.277
 2110SOL    HW2 7230   2.484   4.744   5.261
 2111SOL     OW 7231   1.462   2.479   6.715
 2111SOL    HW1 7232   1.374   2.516   6.746
 2111SOL    HW2 7233   1.447   2.419   6.637
 2112SOL     OW 7234   5.437   3.295   1.212
 2112SOL    HW1 7235   5.484   3.218   1.255
 2112SOL    HW2 7236   5.423   3.367   1.281
 2113SOL     OW 7237   0.006   1.144   3.021
 2113SOL    HW1 7238   0.051   1.150   2.932
 2113SOL    HW2 7239   6.981   1.231   3.041
 2114SOL     OW 7240   1.598   4.029   6.516
 2114SOL    HW1 7241   1.549   4.045   6.430
 2114SOL    HW2 7242   1.587   4.109   6.575
 2115SOL     OW 7243   2.823   5.023   2.101
 2115SOL    HW1 7244   2.909   5.066   2.130
 2115SOL    HW2 7245   2.746   5.077   2.134
 2116SOL     OW 7246   0.077   4.048   3.262
 2116SOL    HW1 7247   0.023   3.982   3.211
 2116SOL    HW2 7248   0.147   4.087   3.203
 2117SOL     OW 7249   6.672   4.890   0.451
 2117SOL    HW1 7250   6.586   4.902   0.501
 2117SOL    HW2 7251   6.719   4.978   0.445
 2118SOL     OW 7252   6.930   4.113   2.002
 2118SOL    HW1 7253   6.950   4.024   1.961
 2118SOL    HW2 7254   6.952   4.186   1.937
 2119SOL     OW 7255   3.285   5.515   1.323
 2119SOL    HW1 7256   3.229   5.451   1.376
 2119SOL    HW2 7257   3.245   5.606   1.329
 2120SOL     OW 7258   0.221   5.667   1.998
 2120SOL    HW1 7259   0.131   5.676   2.041
 2120SOL    HW2 7260   0.228   5.577   1.954
 2121SOL     OW 7261   0.822   4.127   5.039
 2121SOL    HW1 7262   0.866   4.063   4.977
 2121SOL    HW2 7263   0.883   4.145   5.117
 2122SOL     OW 7264   4.492   4.460   5.322
 2122SOL    HW1 7265   4.562   4.389   5.334
 2122SOL    HW2 7266   4.437   4.440   5.241
 2123SOL     OW 7267   4.683   4.643   3.456
 2123SOL    HW1 7268   4.595   4.667   3.498
 2123SOL    HW2 7269   4.714   4.719   3.399
 2124SOL     OW 7270   2.555   1.315   1.214
 2124SOL    HW1 7271   2.629   1.255   1.243
 2124SOL    HW2 7272   2.504   1.346   1.294
 2125SOL     OW 7273   2.876   0.030   1.316
 2125SOL    HW1 7274   2.945   0.098   1.340
 2125SOL    HW2 7275   2.789   0.076   1.299
 2126SOL     OW 7276   2.909   0.762   2.078
 2126SOL    HW1 7277   2.856   0.847   2.085
 2126SOL    HW2 7278   3.005   0.784   2.060
 2127SOL     OW 7279   5.604   3.043   4.903
 2127SOL    HW1 7280   5.625   2.967   4.842
 2127SOL    HW2 7281   5.623   3.017   4.997
 2128SOL     OW 7282   0.749   4.657   4.487
 2128SOL    HW1 7283   0.842   4.694   4.493
 2128SOL    HW2 7284   0.752   4.568   4.442
 2129SOL     OW 7285   3.695   2.282   5.714
 2129SOL    HW1 7286   3.632   2.339   5.661
 2129SOL    HW2 7287   3.642   2.228   5.780
 2130SOL     OW 7288   4.304   6.714   3.439
 2130SOL    HW1 7289   4.259   6.796   3.473
 2130SOL    HW2 7290   4.402   6.719   3.459
 2131SOL     OW 7291   5.479   1.983   6.830
 2131SOL    HW1 7292   5.382   1.969   6.849
 2131SOL    HW2 7293   5.495   2.080   6.810
 2132SOL     OW 7294   2.089   3.159   0.433
 2132SOL    HW1 7295   2.055   3.114   0.351
 2132SOL    HW2 7296   2.173   3.114   0.464
 2133SOL     OW 7297   3.248   3.590   5.958
 2133SOL    HW1 7298   3.320   3.621   6.020
 2133SOL    HW2 7299   3.240   3.654   5.881
 2134SOL     OW 7300   0.950   6.884   1.050
 2134SOL    HW1 7301   0.891   6.936   0.988
 2134SOL    HW2 7302   1.046   6.907   1.034
 2135SOL     OW 7303   6.623   4.359   4.552
 2135SOL    HW1 7304   6.600   4.388   4.645
 2135SOL    HW2 7305   6.720   4.377   4.534
 2136SOL     OW 7306   1.227   5.046   1.094
 2136SOL    HW1 7307   1.170   5.128   1.096
 2136SOL    HW2 7308   1.312   5.063   1.144
 2137SOL     OW 7309   1.660   6.112   4.316
 2137SOL    HW1 7310   1.589   6.121   4.246
 2137SOL    HW2 7311   1.620   6.129   4.406
 2138SOL     OW 7312   5.196   1.330   1.510
 2138SOL    HW1 7313   5.235   1.339   1.602
 2138SOL    HW2 7314   5.102   1.362   1.510
 2139SOL     OW 7315   2.695   0.091   5.623
 2139SOL    HW1 7316   2.745   0.173   5.651
 2139SOL    HW2 7317   2.758   0.014   5.618
 2140SOL     OW 7318   2.464   1.773   4.720
 2140SOL    HW1 7319   2.485   1.752   4.815
 2140SOL    HW2 7320   2.501   1.701   4.661
 2141SOL     OW 7321   6.549   3.488   3.049
 2141SOL    HW1 7322   6.532   3.426   2.972
 2141SOL    HW2 7323   6.467   3.496   3.105
 2142SOL     OW 7324   1.601   2.416   2.852
 2142SOL    HW1 7325   1.652   2.440   2.770
 2142SOL    HW2 7326   1.504   2.405   2.830
 2143SOL     OW 7327   0.720   4.459   6.279
 2143SOL    HW1 7328   0.676   4.534   6.228
 2143SOL    HW2 7329   0.680   4.454   6.371
 2144SOL     OW 7330   6.265   4.578   3.625
 2144SOL    HW1 7331   6.273   4.670   3.663
 2144SOL    HW2 7332   6.185   4.573   3.566
 2145SOL     OW 7333   4.355   1.020   3.787
 2145SOL    HW1 7334   4.317   1.094   3.731
 2145SOL    HW2 7335   4.284   0.951   3.802
 2146SOL     OW 7336   2.446   2.984   0.397
 2146SOL    HW1 7337   2.392   2.957   0.476
 2146SOL    HW2 7338   2.425   2.924   0.320
 2147SOL     OW 7339   6.072   6.936   4.485
 2147SOL    HW1 7340   6.029   6.852   4.453
 2147SOL    HW2 7341   6.036   6.962   4.574
 2148SOL     OW 7342   0.646   3.480   5.813
 2148SOL    HW1 7343   0.740   3.492   5.782
 2148SOL    HW2 7344   0.596   3.566   5.803
 2149SOL     OW 7345   1.038   0.140   0.488
 2149SOL    HW1 7346   0.956   0.182   0.526
 2149SOL    HW2 7347   1.067   0.192   0.407
 2150SOL     OW 7348   1.782   2.487   1.487
 2150SOL    HW1 7349   1.815   2.396   1.514
 2150SOL    HW2 7350   1.854   2.554   1.499
 2151SOL     OW 7351   0.954   5.592   0.283
 2151SOL    HW1 7352   0.888   5.594   0.208
 2151SOL    HW2 7353   0.942   5.673   0.340
 2152SOL     OW 7354   5.384   5.788   4.429
 2152SOL    HW1 7355   5.359   5.839   4.347
 2152SOL    HW2 7356   5.323   5.709   4.440
 2153SOL     OW 7357   4.970   1.384   3.733
 2153SOL    HW1 7358   4.956   1.407   3.637
 2153SOL    HW2 7359   5.041   1.315   3.742
 2154SOL     OW 7360   3.550   0.462   3.095
 2154SOL    HW1 7361   3.510   0.434   3.009
 2154SOL    HW2 7362   3.622   0.529   3.078
 2155SOL     OW 7363   4.077   0.775   0.893
 2155SOL    HW1 7364   4.008   0.705   0.873
 2155SOL    HW2 7365   4.167   0.731   0.901
 2156SOL     OW 7366   5.229   1.649   4.950
 2156SOL    HW1 7367   5.245   1.746   4.964
 2156SOL    HW2 7368   5.197   1.633   4.857
 2157SOL     OW 7369   3.660   6.184   4.348
 2157SOL    HW1 7370   3.672   6.124   4.269
 2157SOL    HW2 7371   3.565   6.215   4.351
 2158SOL     OW 7372   3.769   6.789   0.491
 2158SOL    HW1 7373   3.764   6.884   0.461
 2158SOL    HW2 7374   3.859   6.771   0.530
 2159SOL     OW 7375   0.460   0.726   5.821
 2159SOL    HW1 7376   0.459   0.769   5.731
 2159SOL    HW2 7377   0.551   0.734   5.861
 2160SOL     OW 7378   5.688   0.588   0.623
 2160SOL    HW1 7379   5.638   0.506   0.594
 2160SOL    HW2 7380   5.724   0.635   0.543
 2161SOL     OW 7381   1.555   2.773   1.776
 2161SOL    HW1 7382   1.494   2.759   1.697
 2161SOL    HW2 7383   1.649   2.784   1.743
 2162SOL     OW 7384   1.473   6.395   1.459
 2162SOL    HW1 7385   1.429   6.445   1.533
 2162SOL    HW2 7386   1.546   6.337   1.496
 2163SOL     OW 7387   2.031   2.667   2.831
 2163SOL    HW1 7388   2.107   2.732   2.820
 2163SOL    HW2 7389   1.994   2.673   2.923
 2164SOL     OW 7390   2.073   2.927   2.562
 2164SOL    HW1 7391   2.120   2.890   2.482
 2164SOL    HW2 7392   2.138   2.938   2.637
 2165SOL     OW 7393   6.516   1.559   3.720
 2165SOL    HW1 7394   6.550   1.651   3.703
 2165SOL    HW2 7395   6.561   1.495   3.658
 2166SOL     OW 7396   6.989   3.964   2.646
 2166SOL    HW1 7397   6.923   3.941   2.718
 2166SOL    HW2 7398   0.001   3.880   2.603
 2167SOL     OW 7399   2.595   1.764   3.173
 2167SOL    HW1 7400   2.580   1.758   3.272
 2167SOL    HW2 7401   2.551   1.846   3.138
 2168SOL     OW 7402   1.464   2.036   2.936
 2168SOL    HW1 7403   1.543   2.081   2.979
 2168SOL    HW2 7404   1.476   1.937   2.942
 2169SOL     OW 7405   0.757   6.962   1.486
 2169SOL    HW1 7406   0.834   6.927   1.433
 2169SOL    HW2 7407   0.673   6.917   1.457
 2170SOL     OW 7408   1.464   3.825   5.725
 2170SOL    HW1 7409   1.456   3.861   5.632
 2170SOL    HW2 7410   1.373   3.808   5.762
 2171SOL     OW 7411   6.696   5.744   1.218
 2171SOL    HW1 7412   6.696   5.838   1.186
 2171SOL    HW2 7413   6.655   5.740   1.310
 2172SOL     OW 7414   1.446   1.572   5.290
 2172SOL    HW1 7415   1.525   1.510   5.287
 2172SOL    HW2 7416   1.468   1.650   5.349
 2173SOL     OW 7417   5.672   0.683   5.392
 2173SOL    HW1 7418   5.696   0.723   5.480
 2173SOL    HW2 7419   5.651   0.757   5.326
 2174SOL     OW 7420   5.619   0.497   5.846
 2174SOL    HW1 7421   5.541   0.482   5.906
 2174SOL    HW2 7422   5.605   0.449   5.759
 2175SOL     OW 7423   2.625   3.957   5.358
 2175SOL    HW1 7424   2.631   3.866   5.400
 2175SOL    HW2 7425   2.550   3.958   5.291
 2176SOL     OW 7426   5.380   2.294   2.506
 2176SOL    HW1 7427   5.335   2.344   2.580
 2176SOL    HW2 7428   5.311   2.245   2.452
 2177SOL     OW 7429   0.370   0.334   4.815
 2177SOL    HW1 7430   0.397   0.425   4.784
 2177SOL    HW2 7431   0.450   0.287   4.852
 2178SOL     OW 7432   0.568   2.098   2.993
 2178SOL    HW1 7433   0.576   2.004   3.024
 2178SOL    HW2 7434   0.520   2.152   3.062
 2179SOL     OW 7435   1.675   4.328   6.050
 2179SOL    HW1 7436   1.673   4.245   5.994
 2179SOL    HW2 7437   1.701   4.304   6.143
 2180SOL     OW 7438   0.347   6.283   2.787
 2180SOL    HW1 7439   0.368   6.320   2.878
 2180SOL    HW2 7440   0.311   6.190   2.797
 2181SOL     OW 7441   2.974   4.986   4.619
 2181SOL    HW1 7442   3.018   4.983   4.709
 2181SOL    HW2 7443   2.880   4.955   4.626
 2182SOL     OW 7444   6.836   6.596   2.717
 2182SOL    HW1 7445   6.817   6.658   2.641
 2182SOL    HW2 7446   6.853   6.504   2.681
 2183SOL     OW 7447   3.312   3.358   6.371
 2183SOL    HW1 7448   3.395   3.374   6.319
 2183SOL    HW2 7449   3.317   3.270   6.417
 2184SOL     OW 7450   6.746   1.429   0.024
 2184SOL    HW1 7451   6.744   1.341   6.997
 2184SOL    HW2 7452   6.666   1.434   0.085
 2185SOL     OW 7453   1.379   0.066   6.551
 2185SOL    HW1 7454   1.403   0.081   6.455
 2185SOL    HW2 7455   1.402   0.148   6.604
 2186SOL     OW 7456   0.116   5.508   5.407
 2186SOL    HW1 7457   0.109   5.606   5.387
 2186SOL    HW2 7458   0.067   5.456   5.337
 2187SOL     OW 7459   0.609   5.700   2.161
 2187SOL    HW1 7460   0.594   5.797   2.182
 2187SOL    HW2 7461   0.591   5.684   2.064
 2188SOL     OW 7462   2.863   0.601   1.107
 2188SOL    HW1 7463   2.844   0.650   1.022
 2188SOL    HW2 7464   2.942   0.541   1.093
 2189SOL     OW 7465   1.772   1.332   1.660
 2189SOL    HW1 7466   1.712   1.338   1.580
 2189SOL    HW2 7467   1.720   1.357   1.742
 2190SOL     OW 7468   6.213   4.090   1.984
 2190SOL    HW1 7469   6.173   4.063   1.896
 2190SOL    HW2 7470   6.218   4.190   1.989
 2191SOL     OW 7471   2.748   0.388   6.641
 2191SOL    HW1 7472   2.690   0.309   6.623
 2191SOL    HW2 7473   2.830   0.384   6.584
 2192SOL     OW 7474   5.085   2.090   1.797
 2192SOL    HW1 7475   5.137   2.068   1.714
 2192SOL    HW2 7476   5.092   2.188   1.815
 2193SOL     OW 7477   1.646   6.879   5.739
 2193SOL    HW1 7478   1.697   6.795   5.759
 2193SOL    HW2 7479   1.549   6.859   5.736
 2194SOL     OW 7480   0.884   4.097   6.398
 2194SOL    HW1 7481   0.943   4.134   6.326
 2194SOL    HW2 7482   0.916   4.006   6.424
 2195SOL     OW 7483   0.614   3.783   4.688
 2195SOL    HW1 7484   0.650   3.697   4.651
 2195SOL    HW2 7485   0.516   3.790   4.667
 2196SOL     OW 7486   2.434   0.445   6.670
 2196SOL    HW1 7487   2.347   0.406   6.701
 2196SOL    HW2 7488   2.509   0.393   6.710
 2197SOL     OW 7489   3.666   5.401   5.871
 2197SOL    HW1 7490   3.751   5.447   5.895
 2197SOL    HW2 7491   3.621   5.369   5.954
 2198SOL     OW 7492   0.826   0.471   0.204
 2198SOL    HW1 7493   0.885   0.542   0.166
 2198SOL    HW2 7494   0.731   0.490   0.181
 2199SOL     OW 7495   3.797   6.294   4.846
 2199SOL    HW1 7496   3.811   6.216   4.906
 2199SOL    HW2 7497   3.723   6.352   4.882
 2200SOL     OW 7498   2.459   2.182   3.925
 2200SOL    HW1 7499   2.451   2.096   3.976
 2200SOL    HW2 7500   2.367   2.216   3.903
 2201SOL     OW 7501   6.152   3.789   5.030
 2201SOL    HW1 7502   6.119   3.872   5.075
 2201SOL    HW2 7503   6.214   3.740   5.091
 2202SOL     OW 7504   3.398   0.304   2.046
 2202SOL    HW1 7505   3.490   0.328   2.015
 2202SOL    HW2 7506   3.377   0.351   2.131
 2203SOL     OW 7507   2.296   4.635   1.064
 2203SOL    HW1 7508   2.294   4.539   1.092
 2203SOL    HW2 7509   2.218   4.683   1.105
 2204SOL     OW 7510   5.948   3.391   0.546
 2204SOL    HW1 7511   5.926   3.480   0.506
 2204SOL    HW2 7512   6.047   3.376   0.542
 2205SOL     OW 7513   0.236   5.473   0.437
 2205SOL    HW1 7514   0.273   5.546   0.495
 2205SOL    HW2 7515   0.213   5.394   0.494
 2206SOL     OW 7516   3.942   2.387   5.755
 2206SOL    HW1 7517   3.847   2.360   5.742
 2206SOL    HW2 7518   3.999   2.346   5.684
 2207SOL     OW 7519   4.948   5.555   0.709
 2207SOL    HW1 7520   4.933   5.578   0.613
 2207SOL    HW2 7521   5.008   5.622   0.751
 2208SOL     OW 7522   6.512   6.258   3.651
 2208SOL    HW1 7523   6.527   6.186   3.584
 2208SOL    HW2 7524   6.599   6.290   3.687
 2209SOL     OW 7525   2.448   5.973   4.087
 2209SOL    HW1 7526   2.422   5.891   4.138
 2209SOL    HW2 7527   2.387   6.048   4.111
 2210SOL     OW 7528   4.434   0.427   1.380
 2210SOL    HW1 7529   4.397   0.339   1.352
 2210SOL    HW2 7530   4.484   0.416   1.467
 2211SOL     OW 7531   0.796   1.633   1.004
 2211SOL    HW1 7532   0.793   1.668   1.097
 2211SOL    HW2 7533   0.830   1.705   0.943
 2212SOL     OW 7534   3.062   5.727   6.881
 2212SOL    HW1 7535   3.067   5.670   6.799
 2212SOL    HW2 7536   2.970   5.766   6.889
 2213SOL     OW 7537   3.164   2.176   4.743
 2213SOL    HW1 7538   3.154   2.271   4.772
 2213SOL    HW2 7539   3.248   2.138   4.781
 2214SOL     OW 7540   4.211   3.892   6.969
 2214SOL    HW1 7541   4.151   3.815   6.994
 2214SOL    HW2 7542   4.299   3.880   7.016
 2215SOL     OW 7543   3.691   6.997   6.918
 2215SOL    HW1 7544   3.782   6.956   6.911
 2215SOL    HW2 7545   3.669   0.022   6.833
 2216SOL     OW 7546   0.796   6.723   6.486
 2216SOL    HW1 7547   0.840   6.754   6.570
 2216SOL    HW2 7548   0.797   6.797   6.418
 2217SOL     OW 7549   4.176   0.726   4.002
 2217SOL    HW1 7550   4.142   0.758   3.913
 2217SOL    HW2 7551   4.202   0.805   4.058
 2218SOL     OW 7552   0.567   6.104   5.541
 2218SOL    HW1 7553   0.483   6.052   5.555
 2218SOL    HW2 7554   0.643   6.041   5.527
 2219SOL     OW 7555   5.799   0.959   1.104
 2219SOL    HW1 7556   5.799   0.993   1.199
 2219SOL    HW2 7557   5.724   1.002   1.054
 2220SOL     OW 7558   0.553   5.998   4.785
 2220SOL    HW1 7559   0.466   5.951   4.779
 2220SOL    HW2 7560   0.537   6.097   4.791
 2221SOL     OW 7561   6.507   1.605   4.148
 2221SOL    HW1 7562   6.601   1.577   4.163
 2221SOL    HW2 7563   6.456   1.529   4.106
 2222SOL     OW 7564   4.915   0.310   2.351
 2222SOL    HW1 7565   4.872   0.382   2.297
 2222SOL    HW2 7566   4.999   0.280   2.306
 2223SOL     OW 7567   0.341   6.424   5.600
 2223SOL    HW1 7568   0.277   6.487   5.643
 2223SOL    HW2 7569   0.402   6.385   5.669
 2224SOL     OW 7570   6.115   3.931   0.614
 2224SOL    HW1 7571   6.201   3.881   0.627
 2224SOL    HW2 7572   6.040   3.878   0.654
 2225SOL     OW 7573   6.677   6.355   2.238
 2225SOL    HW1 7574   6.766   6.315   2.220
 2225SOL    HW2 7575   6.672   6.385   2.333
 2226SOL     OW 7576   2.625   4.948   0.431
 2226SOL    HW1 7577   2.557   5.018   0.453
 2226SOL    HW2 7578   2.585   4.858   0.444
 2227SOL     OW 7579   3.870   2.087   1.883
 2227SOL    HW1 7580   3.870   2.100   1.784
 2227SOL    HW2 7581   3.784   2.120   1.921
 2228SOL     OW 7582   5.646   5.474   6.872
 2228SOL    HW1 7583   5.726   5.479   6.932
 2228SOL    HW2 7584   5.578   5.412   6.911
 2229SOL     OW 7585   3.379   3.343   3.405
 2229SOL    HW1 7586   3.376   3.298   3.494
 2229SOL    HW2 7587   3.392   3.275   3.333
 2230SOL     OW 7588   5.811   0.413   6.953
 2230SOL    HW1 7589   5.814   0.404   6.854
 2230SOL    HW2 7590   5.718   0.398   6.985
 2231SOL     OW 7591   1.473   6.838   6.669
 2231SOL    HW1 7592   1.552   6.778   6.653
 2231SOL    HW2 7593   1.454   6.891   6.587
 2232SOL     OW 7594   1.217   0.754   5.151
 2232SOL    HW1 7595   1.192   0.657   5.160
 2232SOL    HW2 7596   1.227   0.777   5.054
 2233SOL     OW 7597   2.961   4.700   1.122
 2233SOL    HW1 7598   2.974   4.790   1.081
 2233SOL    HW2 7599   3.051   4.660   1.143
 2234SOL     OW 7600   4.705   1.491   1.544
 2234SOL    HW1 7601   4.666   1.475   1.635
 2234SOL    HW2 7602   4.667   1.574   1.505
 2235SOL     OW 7603   1.091   1.981   2.978
 2235SOL    HW1 7604   1.006   2.024   2.946
 2235SOL    HW2 7605   1.145   2.048   3.029
 2236SOL     OW 7606   1.988   4.959   5.353
 2236SOL    HW1 7607   2.083   4.952   5.384
 2236SOL    HW2 7608   1.983   5.017   5.272
 2237SOL     OW 7609   6.374   5.009   5.796
 2237SOL    HW1 7610   6.392   5.101   5.762
 2237SOL    HW2 7611   6.420   4.942   5.738
 2238SOL     OW 7612   5.769   3.943   1.764
 2238SOL    HW1 7613   5.742   4.022   1.819
 2238SOL    HW2 7614   5.853   3.904   1.802
 2239SOL     OW 7615   4.681   6.651   3.101
 2239SOL    HW1 7616   4.656   6.717   3.173
 2239SOL    HW2 7617   4.709   6.701   3.019
 2240SOL     OW 7618   4.859   5.234   2.950
 2240SOL    HW1 7619   4.924   5.231   3.026
 2240SOL    HW2 7620   4.893   5.297   2.880
 2241SOL     OW 7621   0.573   1.192   1.910
 2241SOL    HW1 7622   0.606   1.118   1.851
 2241SOL    HW2 7623   0.646   1.260   1.921
 2242SOL     OW 7624   5.132   2.614   3.421
 2242SOL    HW1 7625   5.128   2.704   3.466
 2242SOL    HW2 7626   5.225   2.578   3.425
 2243SOL     OW 7627   2.051   6.698   0.589
 2243SOL    HW1 7628   1.951   6.691   0.599
 2243SOL    HW2 7629   2.084   6.622   0.533
 2244SOL     OW 7630   2.467   0.769   0.534
 2244SOL    HW1 7631   2.510   0.692   0.582
 2244SOL    HW2 7632   2.373   0.780   0.568
 2245SOL     OW 7633   0.177   0.390   6.911
 2245SOL    HW1 7634   0.119   0.309   6.898
 2245SOL    HW2 7635   0.166   0.425   7.004
 2246SOL     OW 7636   2.854   1.297   5.139
 2246SOL    HW1 7637   2.844   1.370   5.207
 2246SOL    HW2 7638   2.770   1.292   5.084
 2247SOL     OW 7639   2.948   3.225   2.807
 2247SOL    HW1 7640   2.937   3.292   2.880
 2247SOL    HW2 7641   3.003   3.148   2.839
 2248SOL     OW 7642   4.641   4.128   5.191
 2248SOL    HW1 7643   4.705   4.190   5.236
 2248SOL    HW2 7644   4.683   4.038   5.180
 2249SOL     OW 7645   1.443   6.370   3.486
 2249SOL    HW1 7646   1.512   6.390   3.556
 2249SOL    HW2 7647   1.435   6.448   3.424
 2250SOL     OW 7648   4.463   5.350   6.307
 2250SOL    HW1 7649   4.482   5.337   6.404
 2250SOL    HW2 7650   4.528   5.416   6.269
 2251SOL     OW 7651   5.761   6.305   5.550
 2251SOL    HW1 7652   5.852   6.265   5.540
 2251SOL    HW2 7653   5.732   6.300   5.646
 2252SOL     OW 7654   4.129   1.938   2.600
 2252SOL    HW1 7655   4.051   1.878   2.581
 2252SOL    HW2 7656   4.188   1.943   2.520
 2253SOL     OW 7657   0.420   3.410   1.310
 2253SOL    HW1 7658   0.516   3.388   1.328
 2253SOL    HW2 7659   0.371   3.422   1.396
 2254SOL     OW 7660   4.160   3.550   2.653
 2254SOL    HW1 7661   4.148   3.618   2.725
 2254SOL    HW2 7662   4.202   3.468   2.692
 2255SOL     OW 7663   2.953   3.337   6.337
 2255SOL    HW1 7664   2.928   3.415   6.394
 2255SOL    HW2 7665   3.024   3.365   6.272
 2256SOL     OW 7666   5.359   0.047   1.441
 2256SOL    HW1 7667   5.321   0.139   1.447
 2256SOL    HW2 7668   5.454   0.048   1.471
 2257SOL     OW 7669   0.415   1.375   5.184
 2257SOL    HW1 7670   0.507   1.367   5.146
 2257SOL    HW2 7671   0.386   1.471   5.181
 2258SOL     OW 7672   2.214   5.603   4.000
 2258SOL    HW1 7673   2.130   5.602   3.947
 2258SOL    HW2 7674   2.291   5.580   3.941
 2259SOL     OW 7675   5.908   2.406   4.917
 2259SOL    HW1 7676   5.893   2.373   5.010
 2259SOL    HW2 7677   5.907   2.328   4.854
 2260SOL     OW 7678   0.898   4.241   1.102
 2260SOL    HW1 7679   0.983   4.292   1.088
 2260SOL    HW2 7680   0.849   4.234   1.015
 2261SOL     OW 7681   5.416   4.103   6.780
 2261SOL    HW1 7682   5.318   4.100   6.800
 2261SOL    HW2 7683   5.431   4.084   6.683
 2262SOL     OW 7684   6.690   0.370   4.846
 2262SOL    HW1 7685   6.751   0.296   4.875
 2262SOL    HW2 7686   6.724   0.457   4.883
 2263SOL     OW 7687   2.348   4.201   6.420
 2263SOL    HW1 7688   2.424   4.265   6.432
 2263SOL    HW2 7689   2.291   4.201   6.502
 2264SOL     OW 7690   2.436   7.016   5.706
 2264SOL    HW1 7691   2.530   0.027   5.706
 2264SOL    HW2 7692   2.392   0.016   5.619
 2265SOL     OW 7693   0.557   6.406   4.562
 2265SOL    HW1 7694   0.552   6.505   4.575
 2265SOL    HW2 7695   0.652   6.377   4.551
 2266SOL     OW 7696   3.872   2.504   6.883
 2266SOL    HW1 7697   3.967   2.517   6.910
 2266SOL    HW2 7698   3.866   2.434   6.812
 2267SOL     OW 7699   4.972   2.332   3.948
 2267SOL    HW1 7700   5.067   2.300   3.957
 2267SOL    HW2 7701   4.956   2.408   4.011
 2268SOL     OW 7702   0.880   5.715   5.047
 2268SOL    HW1 7703   0.977   5.692   5.051
 2268SOL    HW2 7704   0.825   5.634   5.067
 2269SOL     OW 7705   1.662   2.305   5.106
 2269SOL    HW1 7706   1.698   2.354   5.186
 2269SOL    HW2 7707   1.658   2.367   5.028
 2270SOL     OW 7708   5.098   1.988   5.947
 2270SOL    HW1 7709   5.013   1.994   5.896
 2270SOL    HW2 7710   5.173   2.026   5.892
 2271SOL     OW 7711   5.019   5.333   5.879
 2271SOL    HW1 7712   4.929   5.314   5.918
 2271SOL    HW2 7713   5.010   5.395   5.801
 2272SOL     OW 7714   5.348   1.146   6.049
 2272SOL    HW1 7715   5.413   1.085   6.095
 2272SOL    HW2 7716   5.387   1.238   6.045
 2273SOL     OW 7717   0.852   2.416   3.008
 2273SOL    HW1 7718   0.841   2.358   3.089
 2273SOL    HW2 7719   0.904   2.365   2.939
 2274SOL     OW 7720   0.211   1.773   6.870
 2274SOL    HW1 7721   0.184   1.855   6.820
 2274SOL    HW2 7722   0.255   1.709   6.808
 2275SOL     OW 7723   5.694   5.141   3.221
 2275SOL    HW1 7724   5.768   5.120   3.286
 2275SOL    HW2 7725   5.606   5.136   3.269
 2276SOL     OW 7726   1.452   2.772   1.056
 2276SOL    HW1 7727   1.403   2.722   0.984
 2276SOL    HW2 7728   1.415   2.864   1.064
 2277SOL     OW 7729   3.761   3.450   3.636
 2277SOL    HW1 7730   3.837   3.386   3.624
 2277SOL    HW2 7731   3.798   3.542   3.651
 2278SOL     OW 7732   0.435   2.885   4.083
 2278SOL    HW1 7733   0.362   2.916   4.023
 2278SOL    HW2 7734   0.523   2.899   4.038
 2279SOL     OW 7735   0.741   5.908   5.484
 2279SOL    HW1 7736   0.718   5.811   5.494
 2279SOL    HW2 7737   0.794   5.921   5.399
 2280SOL     OW 7738   5.028   1.661   5.562
 2280SOL    HW1 7739   5.103   1.616   5.611
 2280SOL    HW2 7740   5.066   1.721   5.491
 2281SOL     OW 7741   5.778   6.891   2.541
 2281SOL    HW1 7742   5.864   6.941   2.531
 2281SOL    HW2 7743   5.704   6.945   2.501
 2282SOL     OW 7744   4.180   6.278   5.124
 2282SOL    HW1 7745   4.083   6.278   5.146
 2282SOL    HW2 7746   4.234   6.275   5.208
 2283SOL     OW 7747   0.129   0.192   3.771
 2283SOL    HW1 7748   0.159   0.273   3.720
 2283SOL    HW2 7749   0.091   0.220   3.859
 2284SOL     OW 7750   1.258   2.625   6.832
 2284SOL    HW1 7751   1.170   2.579   6.831
 2284SOL    HW2 7752   1.244   2.724   6.832
 2285SOL     OW 7753   1.740   4.270   6.309
 2285SOL    HW1 7754   1.749   4.171   6.317
 2285SOL    HW2 7755   1.802   4.315   6.374
 2286SOL     OW 7756   4.783   5.654   3.857
 2286SOL    HW1 7757   4.854   5.706   3.810
 2286SOL    HW2 7758   4.805   5.647   3.954
 2287SOL     OW 7759   1.933   1.048   3.136
 2287SOL    HW1 7760   1.900   1.033   3.229
 2287SOL    HW2 7761   1.854   1.060   3.075
 2288SOL     OW 7762   6.922   6.514   2.981
 2288SOL    HW1 7763   6.904   6.551   2.890
 2288SOL    HW2 7764   7.007   6.462   2.979
 2289SOL     OW 7765   0.715   5.194   1.441
 2289SOL    HW1 7766   0.682   5.118   1.385
 2289SOL    HW2 7767   0.638   5.236   1.489
 2290SOL     OW 7768   0.320   6.078   0.335
 2290SOL    HW1 7769   0.413   6.114   0.331
 2290SOL    HW2 7770   0.316   6.002   0.401
 2291SOL     OW 7771   2.135   1.751   6.534
 2291SOL    HW1 7772   2.043   1.713   6.525
 2291SOL    HW2 7773   2.164   1.746   6.629
 2292SOL     OW 7774   1.063   1.346   4.983
 2292SOL    HW1 7775   1.076   1.342   4.883
 2292SOL    HW2 7776   1.152   1.346   5.028
 2293SOL     OW 7777   5.475   4.519   2.584
 2293SOL    HW1 7778   5.518   4.496   2.496
 2293SOL    HW2 7779   5.518   4.601   2.621
 2294SOL     OW 7780   3.547   6.453   6.648
 2294SOL    HW1 7781   3.595   6.470   6.562
 2294SOL    HW2 7782   3.449   6.440   6.630
 2295SOL     OW 7783   0.706   2.286   1.546
 2295SOL    HW1 7784   0.651   2.364   1.516
 2295SOL    HW2 7785   0.686   2.207   1.488
 2296SOL     OW 7786   3.212   6.304   0.186
 2296SOL    HW1 7787   3.290   6.267   0.236
 2296SOL    HW2 7788   3.189   6.394   0.221
 2297SOL     OW 7789   4.641   5.867   5.782
 2297SOL    HW1 7790   4.588   5.913   5.711
 2297SOL    HW2 7791   4.712   5.811   5.740
 2298SOL     OW 7792   3.946   3.161   0.072
 2298SOL    HW1 7793   3.930   3.233   0.139
 2298SOL    HW2 7794   4.012   3.095   0.108
 2299SOL     OW 7795   4.548   6.096   0.413
 2299SOL    HW1 7796   4.544   6.009   0.462
 2299SOL    HW2 7797   4.642   6.132   0.415
 2300SOL     OW 7798   1.648   5.086   1.029
 2300SOL    HW1 7799   1.652   5.096   1.129
 2300SOL    HW2 7800   1.575   5.143   0.992
 2301SOL     OW 7801   4.159   3.458   2.396
 2301SOL    HW1 7802   4.158   3.499   2.487
 2301SOL    HW2 7803   4.130   3.526   2.329
 2302SOL     OW 7804   2.794   5.634   2.852
 2302SOL    HW1 7805   2.781   5.628   2.951
 2302SOL    HW2 7806   2.880   5.588   2.827
 2303SOL     OW 7807   1.297   3.070   4.461
 2303SOL    HW1 7808   1.386   3.093   4.422
 2303SOL    HW2 7809   1.242   3.021   4.393
 2304SOL     OW 7810   2.311   1.206   3.662
 2304SOL    HW1 7811   2.354   1.157   3.737
 2304SOL    HW2 7812   2.361   1.290   3.643
 2305SOL     OW 7813   3.957   5.228   1.800
 2305SOL    HW1 7814   3.879   5.166   1.808
 2305SOL    HW2 7815   3.967   5.281   1.884
 2306SOL     OW 7816   0.967   3.362   1.207
 2306SOL    HW1 7817   0.975   3.311   1.293
 2306SOL    HW2 7818   0.889   3.327   1.155
 2307SOL     OW 7819   0.642   2.530   2.874
 2307SOL    HW1 7820   0.722   2.481   2.910
 2307SOL    HW2 7821   0.565   2.518   2.936
 2308SOL     OW 7822   0.369   0.008   0.739
 2308SOL    HW1 7823   0.338   0.058   0.820
 2308SOL    HW2 7824   0.323   0.044   0.658
 2309SOL     OW 7825   3.403   5.136   5.798
 2309SOL    HW1 7826   3.469   5.092   5.738
 2309SOL    HW2 7827   3.440   5.141   5.891
 2310SOL     OW 7828   5.591   0.987   2.220
 2310SOL    HW1 7829   5.539   1.071   2.213
 2310SOL    HW2 7830   5.562   0.936   2.301
 2311SOL     OW 7831   3.370   0.258   2.958
 2311SOL    HW1 7832   3.296   0.209   2.912
 2311SOL    HW2 7833   3.371   0.234   3.054
 2312SOL     OW 7834   3.463   1.269   2.599
 2312SOL    HW1 7835   3.528   1.197   2.623
 2312SOL    HW2 7836   3.466   1.340   2.669
 2313SOL     OW 7837   5.114   4.037   1.627
 2313SOL    HW1 7838   5.182   4.110   1.617
 2313SOL    HW2 7839   5.118   4.000   1.720
 2314SOL     OW 7840   6.326   7.004   3.067
 2314SOL    HW1 7841   6.239   0.022   3.038
 2314SOL    HW2 7842   6.309   6.934   3.136
 2315SOL     OW 7843   4.520   5.379   5.492
 2315SOL    HW1 7844   4.519   5.283   5.466
 2315SOL    HW2 7845   4.601   5.397   5.548
 2316SOL     OW 7846   3.453   1.700   6.206
 2316SOL    HW1 7847   3.418   1.625   6.262
 2316SOL    HW2 7848   3.453   1.784   6.260
 2317SOL     OW 7849   6.522   5.758   3.768
 2317SOL    HW1 7850   6.607   5.763   3.715
 2317SOL    HW2 7851   6.445   5.744   3.706
 2318SOL     OW 7852   1.864   4.734   5.164
 2318SOL    HW1 7853   1.888   4.749   5.260
 2318SOL    HW2 7854   1.934   4.774   5.105
 2319SOL     OW 7855   2.623   4.969   3.845
 2319SOL    HW1 7856   2.692   5.037   3.822
 2319SOL    HW2 7857   2.666   4.879   3.853
 2320SOL     OW 7858   1.697   3.343   5.088
 2320SOL    HW1 7859   1.772   3.393   5.044
 2320SOL    HW2 7860   1.650   3.288   5.019
 2321SOL     OW 7861   2.818   5.221   5.774
 2321SOL    HW1 7862   2.759   5.288   5.821
 2321SOL    HW2 7863   2.786   5.129   5.794
 2322SOL     OW 7864   0.936   3.673   2.063
 2322SOL    HW1 7865   0.990   3.720   2.132
 2322SOL    HW2 7866   0.995   3.645   1.987
 2323SOL     OW 7867   2.252   4.737   1.866
 2323SOL    HW1 7868   2.274   4.644   1.837
 2323SOL    HW2 7869   2.336   4.790   1.879
 2324SOL     OW 7870   0.052   5.792   1.723
 2324SOL    HW1 7871   7.002   5.779   1.654
 2324SOL    HW2 7872   0.096   5.881   1.709
 2325SOL     OW 7873   6.928   5.366   1.716
 2325SOL    HW1 7874   6.940   5.282   1.663
 2325SOL    HW2 7875   6.954   5.350   1.811
 2326SOL     OW 7876   1.142   0.894   6.486
 2326SOL    HW1 7877   1.240   0.872   6.488
 2326SOL    HW2 7878   1.119   0.950   6.566
 2327SOL     OW 7879   6.661   0.612   2.833
 2327SOL    HW1 7880   6.743   0.617   2.776
 2327SOL    HW2 7881   6.685   0.575   2.923
 2328SOL     OW 7882   1.997   2.445   2.347
 2328SOL    HW1 7883   1.898   2.453   2.333
 2328SOL    HW2 7884   2.023   2.493   2.431
 2329SOL     OW 7885   0.629   5.908   3.743
 2329SOL    HW1 7886   0.671   5.970   3.677
 2329SOL    HW2 7887   0.551   5.953   3.786
 2330SOL     OW 7888   6.106   2.680   0.129
 2330SOL    HW1 7889   6.192   2.630   0.139
 2330SOL    HW2 7890   6.030   2.615   0.128
 2331SOL     OW 7891   4.089   6.232   0.242
 2331SOL    HW1 7892   4.151   6.253   0.166
 2331SOL    HW2 7893   4.131   6.162   0.300
 2332SOL     OW 7894   5.549   6.424   6.353
 2332SOL    HW1 7895   5.580   6.427   6.447
 2332SOL    HW2 7896   5.545   6.329   6.321
 2333SOL     OW 7897   0.274   5.081   2.318
 2333SOL    HW1 7898   0.301   5.109   2.226
 2333SOL    HW2 7899   0.233   5.158   2.366
 2334SOL     OW 7900   2.661   0.822   5.587
 2334SOL    HW1 7901   2.747   0.853   5.626
 2334SOL    HW2 7902   2.585   0.859   5.641
 2335SOL     OW 7903   6.249   1.449   3.507
 2335SOL    HW1 7904   6.324   1.384   3.493
 2335SOL    HW2 7905   6.282   1.527   3.560
 2336SOL     OW 7906   2.139   1.593   2.479
 2336SOL    HW1 7907   2.234   1.613   2.505
 2336SOL    HW2 7908   2.134   1.576   2.381
 2337SOL     OW 7909   4.083   1.712   1.437
 2337SOL    HW1 7910   4.050   1.771   1.364
 2337SOL    HW2 7911   4.085   1.763   1.523
 2338SOL     OW 7912   0.191   3.997   4.192
 2338SOL    HW1 7913   0.157   4.085   4.226
 2338SOL    HW2 7914   0.187   3.997   4.092
 2339SOL     OW 7915   3.557   2.995   2.959
 2339SOL    HW1 7916   3.565   2.964   3.054
 2339SOL    HW2 7917   3.634   2.959   2.906
 2340SOL     OW 7918   1.126   5.261   6.387
 2340SOL    HW1 7919   1.029   5.243   6.408
 2340SOL    HW2 7920   1.157   5.340   6.440
 2341SOL     OW 7921   2.634   4.599   3.405
 2341SOL    HW1 7922   2.594   4.567   3.319
 2341SOL    HW2 7923   2.600   4.543   3.480
 2342SOL     OW 7924   3.198   6.998   3.946
 2342SOL    HW1 7925   3.261   0.021   4.010
 2342SOL    HW2 7926   3.239   6.914   3.912
 2343SOL     OW 7927   1.775   6.546   2.353
 2343SOL    HW1 7928   1.678   6.569   2.348
 2343SOL    HW2 7929   1.829   6.625   2.327
 2344SOL     OW 7930   5.927   4.482   0.962
 2344SOL    HW1 7931   6.013   4.488   0.912
 2344SOL    HW2 7932   5.945   4.466   1.059
 2345SOL     OW 7933   2.838   5.999   4.936
 2345SOL    HW1 7934   2.827   5.908   4.895
 2345SOL    HW2 7935   2.816   5.995   5.033
 2346SOL     OW 7936   3.806   3.892   6.291
 2346SOL    HW1 7937   3.814   3.988   6.317
 2346SOL    HW2 7938   3.847   3.878   6.201
 2347SOL     OW 7939   0.677   2.408   1.823
 2347SOL    HW1 7940   0.674   2.358   1.736
 2347SOL    HW2 7941   0.653   2.345   1.898
 2348SOL     OW 7942   0.882   5.294   3.161
 2348SOL    HW1 7943   0.976   5.282   3.192
 2348SOL    HW2 7944   0.844   5.378   3.199
 2349SOL     OW 7945   0.213   4.668   6.540
 2349SOL    HW1 7946   0.202   4.766   6.527
 2349SOL    HW2 7947   0.162   4.640   6.621
 2350SOL     OW 7948   6.500   4.188   6.450
 2350SOL    HW1 7949   6.516   4.270   6.505
 2350SOL    HW2 7950   6.482   4.110   6.509
 2351SOL     OW 7951   2.811   4.798   2.937
 2351SOL    HW1 7952   2.720   4.781   2.899
 2351SOL    HW2 7953   2.826   4.737   3.015
 2352SOL     OW 7954   0.280   3.219   3.374
 2352SOL    HW1 7955   0.248   3.265   3.457
 2352SOL    HW2 7956   0.210   3.154   3.343
 2353SOL     OW 7957   3.924   5.517   5.155
 2353SOL    HW1 7958   3.885   5.456   5.224
 2353SOL    HW2 7959   3.892   5.610   5.170
 2354SOL     OW 7960   2.645   1.508   3.968
 2354SOL    HW1 7961   2.553   1.471   3.983
 2354SOL    HW2 7962   2.646   1.605   3.989
 2355SOL     OW 7963   1.939   6.063   4.602
 2355SOL    HW1 7964   1.996   6.113   4.667
 2355SOL    HW2 7965   1.925   5.970   4.636
 2356SOL     OW 7966   0.302   3.053   6.722
 2356SOL    HW1 7967   0.261   3.035   6.811
 2356SOL    HW2 7968   0.235   3.038   6.650
 2357SOL     OW 7969   3.144   0.549   2.434
 2357SOL    HW1 7970   3.190   0.597   2.508
 2357SOL    HW2 7971   3.054   0.519   2.464
 2358SOL     OW 7972   3.592   4.516   6.379
 2358SOL    HW1 7973   3.537   4.599   6.380
 2358SOL    HW2 7974   3.536   4.439   6.411
 2359SOL     OW 7975   0.747   0.533   5.324
 2359SOL    HW1 7976   0.657   0.510   5.362
 2359SOL    HW2 7977   0.791   0.450   5.290
 2360SOL     OW 7978   6.778   3.335   0.483
 2360SOL    HW1 7979   6.718   3.411   0.506
 2360SOL    HW2 7980   6.871   3.356   0.515
 2361SOL     OW 7981   3.790   1.717   5.705
 2361SOL    HW1 7982   3.782   1.626   5.664
 2361SOL    HW2 7983   3.886   1.742   5.712
 2362SOL     OW 7984   3.289   5.200   3.558
 2362SOL    HW1 7985   3.329   5.116   3.593
 2362SOL    HW2 7986   3.320   5.216   3.465
 2363SOL     OW 7987   3.870   1.530   4.017
 2363SOL    HW1 7988   3.964   1.564   4.008
 2363SOL    HW2 7989   3.808   1.588   3.964
 2364SOL     OW 7990   0.998   2.153   1.408
 2364SOL    HW1 7991   0.963   2.090   1.340
 2364SOL    HW2 7992   0.970   2.246   1.385
 2365SOL     OW 7993   5.777   2.160   6.636
 2365SOL    HW1 7994   5.784   2.225   6.560
 2365SOL    HW2 7995   5.823   2.197   6.717
 2366SOL     OW 7996   3.878   5.194   1.073
 2366SOL    HW1 7997   3.813   5.266   1.049
 2366SOL    HW2 7998   3.866   5.116   1.011
 2367SOL     OW 7999   2.044   3.388   6.686
 2367SOL    HW1 8000   1.984   3.312   6.664
 2367SOL    HW2 8001   2.137   3.367   6.657
 2368SOL     OW 8002   5.794   6.620   3.988
 2368SOL    HW1 8003   5.770   6.702   4.039
 2368SOL    HW2 8004   5.732   6.546   4.014
 2369SOL     OW 8005   2.125   0.333   3.835
 2369SOL    HW1 8006   2.191   0.304   3.767
 2369SOL    HW2 8007   2.035   0.345   3.792
 2370SOL     OW 8008   5.598   2.742   6.731
 2370SOL    HW1 8009   5.687   2.783   6.710
 2370SOL    HW2 8010   5.567   2.689   6.652
 2371SOL     OW 8011   3.052   0.175   1.461
 2371SOL    HW1 8012   3.023   0.175   1.557
 2371SOL    HW2 8013   3.123   0.105   1.448
 2372SOL     OW 8014   6.730   2.972   2.088
 2372SOL    HW1 8015   6.703   2.907   2.016
 2372SOL    HW2 8016   6.827   2.993   2.079
 2373SOL     OW 8017   1.854   3.309   6.247
 2373SOL    HW1 8018   1.801   3.363   6.182
 2373SOL    HW2 8019   1.852   3.354   6.336
 2374SOL     OW 8020   6.171   2.530   4.896
 2374SOL    HW1 8021   6.266   2.502   4.904
 2374SOL    HW2 8022   6.113   2.468   4.949
 2375SOL     OW 8023   3.286   5.957   5.172
 2375SOL    HW1 8024   3.354   5.889   5.144
 2375SOL    HW2 8025   3.265   5.946   5.269
 2376SOL     OW 8026   6.189   2.880   3.892
 2376SOL    HW1 8027   6.097   2.918   3.901
 2376SOL    HW2 8028   6.236   2.887   3.980
 2377SOL     OW 8029   3.063   3.196   4.197
 2377SOL    HW1 8030   3.016   3.166   4.114
 2377SOL    HW2 8031   3.049   3.295   4.210
 2378SOL     OW 8032   5.433   2.476   6.531
 2378SOL    HW1 8033   5.400   2.418   6.456
 2378SOL    HW2 8034   5.528   2.501   6.514
 2379SOL     OW 8035   6.547   0.370   0.961
 2379SOL    HW1 8036   6.455   0.394   0.931
 2379SOL    HW2 8037   6.615   0.410   0.899
 2380SOL     OW 8038   5.727   2.507   1.320
 2380SOL    HW1 8039   5.782   2.424   1.316
 2380SOL    HW2 8040   5.669   2.512   1.239
 2381SOL     OW 8041   1.986   6.121   3.078
 2381SOL    HW1 8042   1.941   6.158   2.997
 2381SOL    HW2 8043   2.023   6.031   3.056
 2382SOL     OW 8044   2.181   3.201   5.165
 2382SOL    HW1 8045   2.182   3.220   5.263
 2382SOL    HW2 8046   2.266   3.154   5.140
 2383SOL     OW 8047   6.730   5.967   1.427
 2383SOL    HW1 8048   6.695   6.052   1.465
 2383SOL    HW2 8049   6.792   5.986   1.352
 2384SOL     OW 8050   4.774   1.993   2.187
 2384SOL    HW1 8051   4.746   2.055   2.260
 2384SOL    HW2 8052   4.815   1.910   2.226
 2385SOL     OW 8053   0.502   1.441   6.772
 2385SOL    HW1 8054   0.439   1.385   6.825
 2385SOL    HW2 8055   0.594   1.402   6.776
 2386SOL     OW 8056   5.474   5.708   4.842
 2386SOL    HW1 8057   5.512   5.617   4.825
 2386SOL    HW2 8058   5.381   5.712   4.806
 2387SOL     OW 8059   2.057   1.285   3.925
 2387SOL    HW1 8060   2.060   1.285   3.825
 2387SOL    HW2 8061   2.058   1.380   3.958
 2388SOL     OW 8062   6.595   2.567   3.777
 2388SOL    HW1 8063   6.573   2.599   3.685
 2388SOL    HW2 8064   6.613   2.646   3.836
 2389SOL     OW 8065   4.031   4.807   3.225
 2389SOL    HW1 8066   3.982   4.872   3.284
 2389SOL    HW2 8067   3.971   4.778   3.151
 2390SOL     OW 8068   3.403   3.913   2.703
 2390SOL    HW1 8069   3.339   3.949   2.634
 2390SOL    HW2 8070   3.497   3.929   2.672
 2391SOL     OW 8071   4.393   5.209   5.945
 2391SOL    HW1 8072   4.434   5.289   5.902
 2391SOL    HW2 8073   4.332   5.238   6.019
 2392SOL     OW 8074   3.045   0.390   6.593
 2392SOL    HW1 8075   3.099   0.402   6.676
 2392SOL    HW2 8076   3.051   0.295   6.563
 2393SOL     OW 8077   4.288   4.735   5.960
 2393SOL    HW1 8078   4.377   4.721   5.917
 2393SOL    HW2 8079   4.222   4.670   5.921
 2394SOL     OW 8080   0.217   4.148   4.848
 2394SOL    HW1 8081   0.188   4.159   4.752
 2394SOL    HW2 8082   0.253   4.235   4.882
 2395SOL     OW 8083   4.165   6.492   6.157
 2395SOL    HW1 8084   4.220   6.566   6.197
 2395SOL    HW2 8085   4.223   6.412   6.141
 2396SOL     OW 8086   4.278   4.653   0.230
 2396SOL    HW1 8087   4.346   4.597   0.277
 2396SOL    HW2 8088   4.189   4.643   0.276
 2397SOL     OW 8089   0.526   4.201   4.754
 2397SOL    HW1 8090   0.483   4.198   4.664
 2397SOL    HW2 8091   0.624   4.181   4.745
 2398SOL     OW 8092   4.515   4.707   5.790
 2398SOL    HW1 8093   4.580   4.752   5.850
 2398SOL    HW2 8094   4.545   4.612   5.775
 2399SOL     OW 8095   4.811   2.020   1.909
 2399SOL    HW1 8096   4.904   2.030   1.872
 2399SOL    HW2 8097   4.815   2.023   2.009
 2400SOL     OW 8098   2.409   4.994   0.870
 2400SOL    HW1 8099   2.339   5.051   0.912
 2400SOL    HW2 8100   2.462   4.947   0.942
 2401SOL     OW 8101   6.278   5.925   6.157
 2401SOL    HW1 8102   6.358   5.981   6.137
 2401SOL    HW2 8103   6.229   5.963   6.235
 2402SOL     OW 8104   0.460   0.056   4.384
 2402SOL    HW1 8105   0.452   0.147   4.342
 2402SOL    HW2 8106   0.532   0.004   4.338
 2403SOL     OW 8107   0.717   2.777   4.938
 2403SOL    HW1 8108   0.730   2.750   4.842
 2403SOL    HW2 8109   0.738   2.700   4.998
 2404SOL     OW 8110   1.685   0.510   0.605
 2404SOL    HW1 8111   1.713   0.414   0.615
 2404SOL    HW2 8112   1.764   0.564   0.576
 2405SOL     OW 8113   3.338   4.039   2.271
 2405SOL    HW1 8114   3.372   3.954   2.312
 2405SOL    HW2 8115   3.323   4.025   2.173
 2406SOL     OW 8116   4.477   1.654   0.454
 2406SOL    HW1 8117   4.496   1.731   0.393
 2406SOL    HW2 8118   4.551   1.646   0.521
 2407SOL     OW 8119   5.949   1.487   3.479
 2407SOL    HW1 8120   5.914   1.394   3.488
 2407SOL    HW2 8121   6.049   1.485   3.471
 2408SOL     OW 8122   4.697   4.488   1.900
 2408SOL    HW1 8123   4.677   4.512   1.806
 2408SOL    HW2 8124   4.621   4.434   1.938
 2409SOL     OW 8125   2.254   3.858   0.584
 2409SOL    HW1 8126   2.261   3.907   0.670
 2409SOL    HW2 8127   2.163   3.819   0.575
 2410SOL     OW 8128   3.296   2.906   3.260
 2410SOL    HW1 8129   3.363   2.977   3.237
 2410SOL    HW2 8130   3.265   2.918   3.354
 2411SOL     OW 8131   5.601   0.009   4.950
 2411SOL    HW1 8132   5.515   0.004   4.899
 2411SOL    HW2 8133   5.654   0.088   4.918
 2412SOL     OW 8134   4.710   3.304   0.917
 2412SOL    HW1 8135   4.782   3.235   0.930
 2412SOL    HW2 8136   4.637   3.289   0.985
 2413SOL     OW 8137   5.319   0.841   1.880
 2413SOL    HW1 8138   5.413   0.875   1.889
 2413SOL    HW2 8139   5.282   0.822   1.971
 2414SOL     OW 8140   5.102   3.220   3.923
 2414SOL    HW1 8141   5.026   3.223   3.857
 2414SOL    HW2 8142   5.189   3.223   3.874
 2415SOL     OW 8143   4.606   1.231   3.560
 2415SOL    HW1 8144   4.612   1.223   3.461
 2415SOL    HW2 8145   4.653   1.315   3.589
 2416SOL     OW 8146   4.844   1.495   5.696
 2416SOL    HW1 8147   4.874   1.503   5.791
 2416SOL    HW2 8148   4.912   1.536   5.636
 2417SOL     OW 8149   3.136   2.999   4.679
 2417SOL    HW1 8150   3.134   3.078   4.618
 2417SOL    HW2 8151   3.123   2.916   4.626
 2418SOL     OW 8152   3.821   2.966   3.137
 2418SOL    HW1 8153   3.752   2.895   3.155
 2418SOL    HW2 8154   3.857   2.955   3.045
 2419SOL     OW 8155   0.402   7.018   2.524
 2419SOL    HW1 8156   0.476   0.016   2.460
 2419SOL    HW2 8157   0.428   6.940   2.582
 2420SOL     OW 8158   2.258   6.865   1.720
 2420SOL    HW1 8159   2.351   6.893   1.744
 2420SOL    HW2 8160   2.227   6.793   1.782
 2421SOL     OW 8161   2.285   1.984   4.891
 2421SOL    HW1 8162   2.235   1.947   4.813
 2421SOL    HW2 8163   2.325   2.072   4.866
 2422SOL     OW 8164   4.991   1.672   1.046
 2422SOL    HW1 8165   4.944   1.673   0.958
 2422SOL    HW2 8166   4.927   1.694   1.119
 2423SOL     OW 8167   2.188   5.631   2.595
 2423SOL    HW1 8168   2.275   5.620   2.643
 2423SOL    HW2 8169   2.180   5.560   2.524
 2424SOL     OW 8170   5.816   0.678   0.391
 2424SOL    HW1 8171   5.882   0.750   0.415
 2424SOL    HW2 8172   5.861   0.608   0.336
 2425SOL     OW 8173   6.581   0.353   4.327
 2425SOL    HW1 8174   6.664   0.348   4.271
 2425SOL    HW2 8175   6.545   0.261   4.341
 2426SOL     OW 8176   2.358   4.787   4.055
 2426SOL    HW1 8177   2.448   4.785   4.099
 2426SOL    HW2 8178   2.332   4.881   4.037
 2427SOL     OW 8179   6.018   7.002   5.975
 2427SOL    HW1 8180   5.954   6.926   5.963
 2427SOL    HW2 8181   5.977   0.049   6.035
 2428SOL     OW 8182   0.315   0.771   0.517
 2428SOL    HW1 8183   0.215   0.763   0.513
 2428SOL    HW2 8184   0.346   0.760   0.611
 2429SOL     OW 8185   5.195   6.009   2.025
 2429SOL    HW1 8186   5.160   5.918   2.048
 2429SOL    HW2 8187   5.287   6.000   1.987
 2430SOL     OW 8188   5.888   0.883   2.660
 2430SOL    HW1 8189   5.958   0.939   2.705
 2430SOL    HW2 8190   5.914   0.787   2.663
 2431SOL     OW 8191   4.194   0.531   2.136
 2431SOL    HW1 8192   4.247   0.447   2.143
 2431SOL    HW2 8193   4.189   0.559   2.040
 2432SOL     OW 8194   2.602   6.181   2.309
 2432SOL    HW1 8195   2.625   6.090   2.275
 2432SOL    HW2 8196   2.597   6.179   2.409
 2433SOL     OW 8197   4.281   6.969   0.173
 2433SOL    HW1 8198   4.221   0.005   0.118
 2433SOL    HW2 8199   4.359   6.939   0.119
 2434SOL     OW 8200   4.211   2.545   6.067
 2434SOL    HW1 8201   4.125   2.591   6.047
 2434SOL    HW2 8202   4.217   2.526   6.165
 2435SOL     OW 8203   5.982   5.501   5.109
 2435SOL    HW1 8204   6.062   5.514   5.050
 2435SOL    HW2 8205   5.913   5.569   5.087
 2436SOL     OW 8206   2.977   5.932   0.374
 2436SOL    HW1 8207   2.964   6.013   0.316
 2436SOL    HW2 8208   3.044   5.871   0.332
 2437SOL     OW 8209   0.247   0.317   6.220
 2437SOL    HW1 8210   0.270   0.305   6.317
 2437SOL    HW2 8211   0.198   0.236   6.188
 2438SOL     OW 8212   2.788   2.845   1.385
 2438SOL    HW1 8213   2.735   2.765   1.413
 2438SOL    HW2 8214   2.725   2.917   1.354
 2439SOL     OW 8215   6.077   4.504   5.180
 2439SOL    HW1 8216   6.023   4.588   5.173
 2439SOL    HW2 8217   6.068   4.466   5.272
 2440SOL     OW 8218   5.838   5.056   6.249
 2440SOL    HW1 8219   5.882   5.019   6.331
 2440SOL    HW2 8220   5.739   5.058   6.263
 2441SOL     OW 8221   5.774   2.272   0.899
 2441SOL    HW1 8222   5.739   2.185   0.865
 2441SOL    HW2 8223   5.802   2.262   0.995
 2442SOL     OW 8224   6.848   3.570   4.500
 2442SOL    HW1 8225   6.918   3.639   4.484
 2442SOL    HW2 8226   6.790   3.600   4.576
 2443SOL     OW 8227   2.859   4.898   5.864
 2443SOL    HW1 8228   2.767   4.938   5.858
 2443SOL    HW2 8229   2.886   4.893   5.960
 2444SOL     OW 8230   2.847   3.496   5.150
 2444SOL    HW1 8231   2.823   3.432   5.223
 2444SOL    HW2 8232   2.912   3.453   5.088
 2445SOL     OW 8233   0.573   0.353   0.910
 2445SOL    HW1 8234   0.663   0.356   0.955
 2445SOL    HW2 8235   0.576   0.289   0.833
 2446SOL     OW 8236   5.784   3.472   5.986
 2446SOL    HW1 8237   5.797   3.556   6.039
 2446SOL    HW2 8238   5.805   3.490   5.890
 2447SOL     OW 8239   0.364   2.000   6.827
 2447SOL    HW1 8240   0.342   1.935   6.901
 2447SOL    HW2 8241   0.376   2.091   6.866
 2448SOL     OW 8242   0.639   0.283   4.505
 2448SOL    HW1 8243   0.544   0.263   4.528
 2448SOL    HW2 8244   0.677   0.208   4.450
 2449SOL     OW 8245   0.204   2.611   4.950
 2449SOL    HW1 8246   0.216   2.513   4.967
 2449SOL    HW2 8247   0.292   2.658   4.959
 2450SOL     OW 8248   2.088   3.425   2.228
 2450SOL    HW1 8249   2.149   3.379   2.292
 2450SOL    HW2 8250   2.141   3.484   2.167
 2451SOL     OW 8251   2.459   6.588   4.379
 2451SOL    HW1 8252   2.426   6.496   4.360
 2451SOL    HW2 8253   2.541   6.607   4.325
 2452SOL     OW 8254   1.833   2.554   4.492
 2452SOL    HW1 8255   1.748   2.533   4.444
 2452SOL    HW2 8256   1.825   2.526   4.588
 2453SOL     OW 8257   6.860   3.276   1.271
 2453SOL    HW1 8258   6.876   3.291   1.368
 2453SOL    HW2 8259   6.764   3.298   1.250
 2454SOL     OW 8260   2.217   0.670   2.655
 2454SOL    HW1 8261   2.150   0.634   2.590
 2454SOL    HW2 8262   2.281   0.597   2.680
 2455SOL     OW 8263   4.837   4.191   0.581
 2455SOL    HW1 8264   4.751   4.170   0.627
 2455SOL    HW2 8265   4.869   4.111   0.531
 2456SOL     OW 8266   3.162   6.455   1.106
 2456SOL    HW1 8267   3.086   6.442   1.043
 2456SOL    HW2 8268   3.162   6.550   1.139
 2457SOL     OW 8269   6.013   6.161   1.302
 2457SOL    HW1 8270   5.987   6.250   1.341
 2457SOL    HW2 8271   5.948   6.091   1.333
 2458SOL     OW 8272   0.379   5.979   2.864
 2458SOL    HW1 8273   0.435   5.902   2.837
 2458SOL    HW2 8274   0.283   5.961   2.841
 2459SOL     OW 8275   1.079   0.729   0.705
 2459SOL    HW1 8276   1.021   0.810   0.710
 2459SOL    HW2 8277   1.160   0.743   0.763
 2460SOL     OW 8278   3.737   5.212   1.524
 2460SOL    HW1 8279   3.642   5.186   1.543
 2460SOL    HW2 8280   3.787   5.219   1.611
 2461SOL     OW 8281   5.212   1.144   3.446
 2461SOL    HW1 8282   5.226   1.165   3.542
 2461SOL    HW2 8283   5.117   1.120   3.430
 2462SOL     OW 8284   2.628   4.627   6.390
 2462SOL    HW1 8285   2.626   4.715   6.436
 2462SOL    HW2 8286   2.596   4.638   6.296
 2463SOL     OW 8287   7.000   2.127   4.351
 2463SOL    HW1 8288   0.043   2.164   4.418
 2463SOL    HW2 8289   6.907   2.139   4.385
 2464SOL     OW 8290   1.061   3.271   1.466
 2464SOL    HW1 8291   1.109   3.358   1.472
 2464SOL    HW2 8292   1.070   3.222   1.553
 2465SOL     OW 8293   6.138   5.012   3.014
 2465SOL    HW1 8294   6.104   5.054   3.098
 2465SOL    HW2 8295   6.237   4.999   3.019
 2466SOL     OW 8296   3.685   1.763   2.054
 2466SOL    HW1 8297   3.780   1.794   2.059
 2466SOL    HW2 8298   3.645   1.760   2.146
 2467SOL     OW 8299   6.879   1.600   5.549
 2467SOL    HW1 8300   6.843   1.692   5.535
 2467SOL    HW2 8301   6.940   1.599   5.628
 2468SOL     OW 8302   6.898   4.012   0.352
 2468SOL    HW1 8303   6.816   3.986   0.302
 2468SOL    HW2 8304   6.977   4.009   0.290
 2469SOL     OW 8305   3.242   3.136   5.651
 2469SOL    HW1 8306   3.218   3.232   5.664
 2469SOL    HW2 8307   3.282   3.100   5.735
 2470SOL     OW 8308   5.651   2.893   0.699
 2470SOL    HW1 8309   5.685   2.873   0.791
 2470SOL    HW2 8310   5.588   2.971   0.703
 2471SOL     OW 8311   0.277   0.677   3.392
 2471SOL    HW1 8312   0.376   0.672   3.410
 2471SOL    HW2 8313   0.246   0.588   3.358
 2472SOL     OW 8314   5.493   1.535   3.679
 2472SOL    HW1 8315   5.527   1.477   3.753
 2472SOL    HW2 8316   5.517   1.494   3.591
 2473SOL     OW 8317   0.526   6.813   5.635
 2473SOL    HW1 8318   0.598   6.882   5.639
 2473SOL    HW2 8319   0.513   6.774   5.726
 2474SOL     OW 8320   6.257   5.770   4.649
 2474SOL    HW1 8321   6.235   5.832   4.574
 2474SOL    HW2 8322   6.198   5.789   4.727
 2475SOL     OW 8323   4.746   2.456   6.265
 2475SOL    HW1 8324   4.696   2.512   6.199
 2475SOL    HW2 8325   4.759   2.508   6.350
 2476SOL     OW 8326   0.752   1.523   3.365
 2476SOL    HW1 8327   0.816   1.480   3.428
 2476SOL    HW2 8328   0.801   1.553   3.283
 2477SOL     OW 8329   4.430   5.169   2.628
 2477SOL    HW1 8330   4.503   5.187   2.694
 2477SOL    HW2 8331   4.464   5.189   2.536
 2478SOL     OW 8332   6.585   6.905   3.667
 2478SOL    HW1 8333   6.677   6.921   3.632
 2478SOL    HW2 8334   6.523   6.977   3.634
 2479SOL     OW 8335   0.601   2.281   0.123
 2479SOL    HW1 8336   0.550   2.307   0.205
 2479SOL    HW2 8337   0.579   2.344   0.049
 2480SOL     OW 8338   0.786   5.020   2.105
 2480SOL    HW1 8339   0.816   4.998   2.012
 2480SOL    HW2 8340   0.712   4.958   2.131
 2481SOL     OW 8341   3.801   4.929   2.647
 2481SOL    HW1 8342   3.758   4.955   2.561
 2481SOL    HW2 8343   3.802   4.829   2.654
 2482SOL     OW 8344   4.774   2.303   3.715
 2482SOL    HW1 8345   4.705   2.244   3.758
 2482SOL    HW2 8346   4.832   2.344   3.786
 2483SOL     OW 8347   0.443   2.804   6.779
 2483SOL    HW1 8348   0.448   2.809   6.879
 2483SOL    HW2 8349   0.407   2.890   6.744
 2484SOL     OW 8350   3.665   3.176   6.320
 2484SOL    HW1 8351   3.739   3.226   6.366
 2484SOL    HW2 8352   3.629   3.231   6.245
 2485SOL     OW 8353   1.177   5.679   0.833
 2485SOL    HW1 8354   1.267   5.636   0.836
 2485SOL    HW2 8355   1.184   5.773   0.867
 2486SOL     OW 8356   0.690   5.124   3.304
 2486SOL    HW1 8357   0.739   5.202   3.265
 2486SOL    HW2 8358   0.732   5.039   3.273
 2487SOL     OW 8359   3.045   1.367   1.243
 2487SOL    HW1 8360   3.023   1.282   1.290
 2487SOL    HW2 8361   2.977   1.437   1.266
 2488SOL     OW 8362   3.322   6.592   6.458
 2488SOL    HW1 8363   3.233   6.577   6.415
 2488SOL    HW2 8364   3.310   6.639   6.545
 2489SOL     OW 8365   6.699   5.921   4.650
 2489SOL    HW1 8366   6.646   5.995   4.691
 2489SOL    HW2 8367   6.648   5.882   4.574
 2490SOL     OW 8368   5.544   3.149   1.766
 2490SOL    HW1 8369   5.512   3.101   1.684
 2490SOL    HW2 8370   5.532   3.247   1.755
 2491SOL     OW 8371   6.965   4.176   2.472
 2491SOL    HW1 8372   6.882   4.230   2.478
 2491SOL    HW2 8373   6.953   4.090   2.522
 2492SOL     OW 8374   4.439   1.739   6.020
 2492SOL    HW1 8375   4.344   1.766   6.026
 2492SOL    HW2 8376   4.452   1.652   6.068
 2493SOL     OW 8377   6.669   1.230   4.655
 2493SOL    HW1 8378   6.758   1.185   4.660
 2493SOL    HW2 8379   6.665   1.302   4.725
 2494SOL     OW 8380   4.416   4.385   1.146
 2494SOL    HW1 8381   4.456   4.454   1.086
 2494SOL    HW2 8382   4.424   4.414   1.241
 2495SOL     OW 8383   6.434   0.877   3.254
 2495SOL    HW1 8384   6.521   0.839   3.221
 2495SOL    HW2 8385   6.370   0.885   3.178
 2496SOL     OW 8386   1.699   5.608   6.887
 2496SOL    HW1 8387   1.791   5.570   6.898
 2496SOL    HW2 8388   1.705   5.701   6.851
 2497SOL     OW 8389   5.507   0.766   6.767
 2497SOL    HW1 8390   5.529   0.670   6.782
 2497SOL    HW2 8391   5.457   0.802   6.846
 2498SOL     OW 8392   0.544   3.096   4.893
 2498SOL    HW1 8393   0.560   3.062   4.800
 2498SOL    HW2 8394   0.600   3.177   4.908
 2499SOL     OW 8395   5.042   0.475   0.155
 2499SOL    HW1 8396   5.121   0.525   0.118
 2499SOL    HW2 8397   4.992   0.534   0.218
 2500SOL     OW 8398   4.218   3.613   6.720
 2500SOL    HW1 8399   4.305   3.660   6.705
 2500SOL    HW2 8400   4.143   3.672   6.692
 2501SOL     OW 8401   6.085   4.765   0.951
 2501SOL    HW1 8402   6.144   4.845   0.940
 2501SOL    HW2 8403   6.142   4.683   0.959
 2502SOL     OW 8404   0.937   6.532   2.777
 2502SOL    HW1 8405   0.932   6.603   2.707
 2502SOL    HW2 8406   0.952   6.574   2.866
 2503SOL     OW 8407   5.018   0.017   4.378
 2503SOL    HW1 8408   5.046   6.942   4.382
 2503SOL    HW2 8409   5.077   0.072   4.437
 2504SOL     OW 8410   2.008   4.232   2.989
 2504SOL    HW1 8411   2.001   4.314   2.932
 2504SOL    HW2 8412   2.036   4.155   2.933
 2505SOL     OW 8413   5.245   4.121   4.677
 2505SOL    HW1 8414   5.182   4.176   4.622
 2505SOL    HW2 8415   5.267   4.169   4.761
 2506SOL     OW 8416   1.097   1.939   1.067
 2506SOL    HW1 8417   1.001   1.955   1.090
 2506SOL    HW2 8418   1.155   1.964   1.144
 2507SOL     OW 8419   6.751   6.154   0.523
 2507SOL    HW1 8420   6.747   6.077   0.586
 2507SOL    HW2 8421   6.669   6.155   0.465
 2508SOL     OW 8422   2.261   2.385   1.816
 2508SOL    HW1 8423   2.294   2.476   1.844
 2508SOL    HW2 8424   2.337   2.320   1.817
 2509SOL     OW 8425   5.447   1.194   3.800
 2509SOL    HW1 8426   5.505   1.193   3.719
 2509SOL    HW2 8427   5.482   1.263   3.864
 2510SOL     OW 8428   4.080   6.281   2.090
 2510SOL    HW1 8429   4.092   6.291   2.189
 2510SOL    HW2 8430   4.078   6.371   2.047
 2511SOL     OW 8431   0.760   6.573   3.767
 2511SOL    HW1 8432   0.681   6.585   3.827
 2511SOL    HW2 8433   0.748   6.626   3.684
 2512SOL     OW 8434   5.829   2.697   4.062
 2512SOL    HW1 8435   5.790   2.729   4.149
 2512SOL    HW2 8436   5.928   2.709   4.064
 2513SOL     OW 8437   0.263   4.720   1.118
 2513SOL    HW1 8438   0.224   4.757   1.034
 2513SOL    HW2 8439   0.200   4.735   1.194
 2514SOL     OW 8440   0.568   2.807   3.208
 2514SOL    HW1 8441   0.607   2.762   3.127
 2514SOL    HW2 8442   0.609   2.897   3.220
 2515SOL     OW 8443   1.071   4.892   0.037
 2515SOL    HW1 8444   1.062   4.792   0.031
 2515SOL    HW2 8445   1.127   4.925   6.982
 2516SOL     OW 8446   5.209   6.442   4.324
 2516SOL    HW1 8447   5.218   6.527   4.273
 2516SOL    HW2 8448   5.146   6.456   4.400
 2517SOL     OW 8449   2.887   5.670   0.874
 2517SOL    HW1 8450   2.797   5.663   0.831
 2517SOL    HW2 8451   2.943   5.737   0.824
 2518SOL     OW 8452   1.963   3.089   6.637
 2518SOL    HW1 8453   1.913   3.012   6.676
 2518SOL    HW2 8454   2.058   3.085   6.666
 2519SOL     OW 8455   5.826   4.386   5.413
 2519SOL    HW1 8456   5.920   4.374   5.382
 2519SOL    HW2 8457   5.763   4.353   5.343
 2520SOL     OW 8458   3.335   5.778   1.848
 2520SOL    HW1 8459   3.307   5.794   1.943
 2520SOL    HW2 8460   3.434   5.770   1.843
 2521SOL     OW 8461   5.647   0.144   5.941
 2521SOL    HW1 8462   5.729   0.086   5.932
 2521SOL    HW2 8463   5.660   0.208   6.016
 2522SOL     OW 8464   2.238   4.519   4.203
 2522SOL    HW1 8465   2.275   4.562   4.121
 2522SOL    HW2 8466   2.223   4.421   4.186
 2523SOL     OW 8467   0.871   2.541   5.539
 2523SOL    HW1 8468   0.781   2.506   5.514
 2523SOL    HW2 8469   0.896   2.504   5.629
 2524SOL     OW 8470   1.284   0.040   4.763
 2524SOL    HW1 8471   1.266   0.137   4.743
 2524SOL    HW2 8472   1.316   0.031   4.857
 2525SOL     OW 8473   1.823   4.251   2.662
 2525SOL    HW1 8474   1.813   4.336   2.714
 2525SOL    HW2 8475   1.919   4.237   2.639
 2526SOL     OW 8476   1.509   2.700   4.991
 2526SOL    HW1 8477   1.545   2.640   4.919
 2526SOL    HW2 8478   1.473   2.783   4.949
 2527SOL     OW 8479   6.525   6.883   3.936
 2527SOL    HW1 8480   6.539   6.901   3.839
 2527SOL    HW2 8481   6.430   6.900   3.961
 2528SOL     OW 8482   5.977   5.257   0.046
 2528SOL    HW1 8483   6.016   5.165   0.034
 2528SOL    HW2 8484   6.047   5.318   0.084
 2529SOL     OW 8485   5.340   3.845   4.871
 2529SOL    HW1 8486   5.268   3.900   4.914
 2529SOL    HW2 8487   5.401   3.905   4.819
 2530SOL     OW 8488   0.623   6.214   3.993
 2530SOL    HW1 8489   0.563   6.229   3.914
 2530SOL    HW2 8490   0.705   6.165   3.964
 2531SOL     OW 8491   5.131   1.112   7.004
 2531SOL    HW1 8492   5.219   1.146   0.014
 2531SOL    HW2 8493   5.102   1.036   0.042
 2532SOL     OW 8494   0.368   4.574   6.230
 2532SOL    HW1 8495   0.339   4.605   6.321
 2532SOL    HW2 8496   0.457   4.614   6.208
 2533SOL     OW 8497   6.106   6.789   5.745
 2533SOL    HW1 8498   6.155   6.714   5.701
 2533SOL    HW2 8499   6.143   6.877   5.713
 2534SOL     OW 8500   0.038   1.560   2.896
 2534SOL    HW1 8501   0.082   1.597   2.979
 2534SOL    HW2 8502   6.962   1.581   2.898
 2535SOL     OW 8503   2.137   1.454   3.036
 2535SOL    HW1 8504   2.133   1.424   3.132
 2535SOL    HW2 8505   2.045   1.451   2.997
 2536SOL     OW 8506   0.596   0.639   3.818
 2536SOL    HW1 8507   0.516   0.581   3.806
 2536SOL    HW2 8508   0.605   0.663   3.915
 2537SOL     OW 8509   3.814   5.590   1.976
 2537SOL    HW1 8510   3.827   5.631   2.067
 2537SOL    HW2 8511   3.861   5.502   1.973
 2538SOL     OW 8512   1.129   4.653   4.946
 2538SOL    HW1 8513   1.034   4.670   4.971
 2538SOL    HW2 8514   1.184   4.639   5.029
 2539SOL     OW 8515   2.756   1.048   5.403
 2539SOL    HW1 8516   2.812   1.116   5.356
 2539SOL    HW2 8517   2.774   1.053   5.502
 2540SOL     OW 8518   5.342   1.969   2.393
 2540SOL    HW1 8519   5.425   1.979   2.338
 2540SOL    HW2 8520   5.353   2.019   2.479
 2541SOL     OW 8521   0.201   0.780   5.967
 2541SOL    HW1 8522   0.293   0.790   5.927
 2541SOL    HW2 8523   0.160   0.695   5.933
 2542SOL     OW 8524   3.782   1.988   3.625
 2542SOL    HW1 8525   3.812   2.053   3.695
 2542SOL    HW2 8526   3.709   2.029   3.570
 2543SOL     OW 8527   6.909   1.732   4.203
 2543SOL    HW1 8528   6.997   1.690   4.179
 2543SOL    HW2 8529   6.912   1.763   4.298
 2544SOL     OW 8530   6.931   6.087   1.702
 2544SOL    HW1 8531   6.849   6.034   1.723
 2544SOL    HW2 8532   6.904   6.177   1.666
 2545SOL     OW 8533   6.314   1.893   0.332
 2545SOL    HW1 8534   6.314   1.972   0.393
 2545SOL    HW2 8535   6.294   1.924   0.239
 2546SOL     OW 8536   6.387   3.018   1.861
 2546SOL    HW1 8537   6.294   2.984   1.843
 2546SOL    HW2 8538   6.382   3.104   1.911
 2547SOL     OW 8539   5.332   4.246   1.114
 2547SOL    HW1 8540   5.289   4.192   1.042
 2547SOL    HW2 8541   5.261   4.293   1.167
 2548SOL     OW 8542   6.160   0.534   5.515
 2548SOL    HW1 8543   6.127   0.448   5.554
 2548SOL    HW2 8544   6.228   0.574   5.576
 2549SOL     OW 8545   2.614   4.525   0.647
 2549SOL    HW1 8546   2.578   4.432   0.639
 2549SOL    HW2 8547   2.565   4.573   0.720
 2550SOL     OW 8548   3.800   6.154   0.630
 2550SOL    HW1 8549   3.777   6.188   0.539
 2550SOL    HW2 8550   3.755   6.066   0.645
 2551SOL     OW 8551   3.811   4.701   1.245
 2551SOL    HW1 8552   3.797   4.602   1.248
 2551SOL    HW2 8553   3.767   4.743   1.324
 2552SOL     OW 8554   2.288   4.209   1.950
 2552SOL    HW1 8555   2.380   4.244   1.969
 2552SOL    HW2 8556   2.233   4.282   1.911
 2553SOL     OW 8557   4.677   1.387   0.123
 2553SOL    HW1 8558   4.685   1.293   0.155
 2553SOL    HW2 8559   4.591   1.426   0.155
 2554SOL     OW 8560   1.712   5.400   0.880
 2554SOL    HW1 8561   1.745   5.440   0.965
 2554SOL    HW2 8562   1.631   5.344   0.898
 2555SOL     OW 8563   6.644   0.111   5.194
 2555SOL    HW1 8564   6.589   0.128   5.112
 2555SOL    HW2 8565   6.681   0.018   5.189
 2556SOL     OW 8566   4.485   6.952   0.848
 2556SOL    HW1 8567   4.451   6.957   0.754
 2556SOL    HW2 8568   4.434   6.882   0.898
 2557SOL     OW 8569   3.038   0.699   6.881
 2557SOL    HW1 8570   3.087   0.612   6.876
 2557SOL    HW2 8571   2.940   0.681   6.895
 2558SOL     OW 8572   5.503   1.560   1.549
 2558SOL    HW1 8573   5.429   1.625   1.565
 2558SOL    HW2 8574   5.561   1.554   1.630
 2559SOL     OW 8575   6.982   5.332   2.889
 2559SOL    HW1 8576   6.942   5.290   2.808
 2559SOL    HW2 8577   0.036   5.392   2.862
 2560SOL     OW 8578   5.152   2.218   2.396
 2560SOL    HW1 8579   5.106   2.256   2.316
 2560SOL    HW2 8580   5.132   2.120   2.403
 2561SOL     OW 8581   3.056   0.180   4.381
 2561SOL    HW1 8582   3.003   0.140   4.307
 2561SOL    HW2 8583   3.063   0.279   4.369
 2562SOL     OW 8584   1.476   6.951   5.308
 2562SOL    HW1 8585   1.502   6.879   5.244
 2562SOL    HW2 8586   1.414   6.913   5.377
 2563SOL     OW 8587   3.451   2.656   6.655
 2563SOL    HW1 8588   3.463   2.748   6.618
 2563SOL    HW2 8589   3.497   2.649   6.743
 2564SOL     OW 8590   1.299   2.429   0.283
 2564SOL    HW1 8591   1.353   2.364   0.228
 2564SOL    HW2 8592   1.206   2.433   0.248
 2565SOL     OW 8593   0.756   0.638   0.794
 2565SOL    HW1 8594   0.765   0.544   0.762
 2565SOL    HW2 8595   0.833   0.693   0.762
 2566SOL     OW 8596   2.979   1.055   0.946
 2566SOL    HW1 8597   3.035   0.982   0.983
 2566SOL    HW2 8598   2.892   1.059   0.996
 2567SOL     OW 8599   1.397   0.806   6.435
 2567SOL    HW1 8600   1.376   0.787   6.339
 2567SOL    HW2 8601   1.491   0.780   6.454
 2568SOL     OW 8602   2.225   5.527   1.257
 2568SOL    HW1 8603   2.160   5.452   1.243
 2568SOL    HW2 8604   2.201   5.577   1.340
 2569SOL     OW 8605   1.916   0.010   0.171
 2569SOL    HW1 8606   1.861   6.953   0.202
 2569SOL    HW2 8607   1.945   0.064   0.251
 2570SOL     OW 8608   0.772   6.025   4.387
 2570SOL    HW1 8609   0.768   6.105   4.327
 2570SOL    HW2 8610   0.859   6.023   4.435
 2571SOL     OW 8611   3.316   4.145   3.357
 2571SOL    HW1 8612   3.377   4.204   3.410
 2571SOL    HW2 8613   3.298   4.061   3.408
 2572SOL     OW 8614   2.282   4.899   2.386
 2572SOL    HW1 8615   2.209   4.932   2.446
 2572SOL    HW2 8616   2.356   4.859   2.440
 2573SOL     OW 8617   6.858   1.281   3.216
 2573SOL    HW1 8618   6.948   1.324   3.220
 2573SOL    HW2 8619   6.851   1.211   3.287
 2574SOL     OW 8620   0.622   3.361   1.898
 2574SOL    HW1 8621   0.535   3.330   1.860
 2574SOL    HW2 8622   0.687   3.375   1.824
 2575SOL     OW 8623   4.847   3.594   5.949
 2575SOL    HW1 8624   4.764   3.596   6.005
 2575SOL    HW2 8625   4.868   3.500   5.923
 2576SOL     OW 8626   1.270   6.994   3.448
 2576SOL    HW1 8627   1.289   0.040   3.377
 2576SOL    HW2 8628   1.203   0.010   3.512
 2577SOL     OW 8629   1.712   5.197   1.338
 2577SOL    HW1 8630   1.746   5.289   1.354
 2577SOL    HW2 8631   1.785   5.131   1.356
 2578SOL     OW 8632   4.488   2.230   4.580
 2578SOL    HW1 8633   4.516   2.222   4.484
 2578SOL    HW2 8634   4.561   2.198   4.640
 2579SOL     OW 8635   6.852   1.339   6.454
 2579SOL    HW1 8636   6.777   1.373   6.399
 2579SOL    HW2 8637   6.939   1.352   6.406
 2580SOL     OW 8638   1.385   1.481   5.660
 2580SOL    HW1 8639   1.328   1.520   5.589
 2580SOL    HW2 8640   1.389   1.382   5.649
 2581SOL     OW 8641   6.541   6.673   4.951
 2581SOL    HW1 8642   6.582   6.604   5.010
 2581SOL    HW2 8643   6.468   6.632   4.897
 2582SOL     OW 8644   0.429   5.111   2.695
 2582SOL    HW1 8645   0.435   5.059   2.610
 2582SOL    HW2 8646   0.411   5.207   2.674
 2583SOL     OW 8647   2.139   0.937   6.367
 2583SOL    HW1 8648   2.139   0.988   6.281
 2583SOL    HW2 8649   2.105   0.995   6.441
 2584SOL     OW 8650   4.953   0.395   2.627
 2584SOL    HW1 8651   5.046   0.384   2.661
 2584SOL    HW2 8652   4.940   0.338   2.545
 2585SOL     OW 8653   4.046   1.486   2.148
 2585SOL    HW1 8654   3.982   1.410   2.153
 2585SOL    HW2 8655   4.046   1.523   2.055
 2586SOL     OW 8656   0.081   1.227   4.310
 2586SOL    HW1 8657   0.015   1.254   4.380
 2586SOL    HW2 8658   0.170   1.269   4.330
 2587SOL     OW 8659   6.561   5.894   2.455
 2587SOL    HW1 8660   6.545   5.962   2.527
 2587SOL    HW2 8661   6.532   5.932   2.367
 2588SOL     OW 8662   4.860   0.156   2.065
 2588SOL    HW1 8663   4.786   0.214   2.101
 2588SOL    HW2 8664   4.887   0.090   2.135
 2589SOL     OW 8665   5.273   5.882   1.061
 2589SOL    HW1 8666   5.352   5.889   1.000
 2589SOL    HW2 8667   5.242   5.974   1.086
 2590SOL     OW 8668   3.179   6.503   3.032
 2590SOL    HW1 8669   3.134   6.563   3.099
 2590SOL    HW2 8670   3.116   6.430   3.006
 2591SOL     OW 8671   6.589   0.367   1.239
 2591SOL    HW1 8672   6.603   0.363   1.140
 2591SOL    HW2 8673   6.539   0.451   1.262
 2592SOL     OW 8674   3.276   4.824   1.596
 2592SOL    HW1 8675   3.337   4.828   1.517
 2592SOL    HW2 8676   3.275   4.731   1.632
 2593SOL     OW 8677   3.548   6.854   2.587
 2593SOL    HW1 8678   3.511   6.786   2.524
 2593SOL    HW2 8679   3.582   6.933   2.536
 2594SOL     OW 8680   1.348   6.044   6.752
 2594SOL    HW1 8681   1.250   6.034   6.735
 2594SOL    HW2 8682   1.388   6.106   6.684
 2595SOL     OW 8683   6.583   2.306   3.824
 2595SOL    HW1 8684   6.578   2.286   3.922
 2595SOL    HW2 8685   6.595   2.405   3.811
 2596SOL     OW 8686   4.109   2.152   1.402
 2596SOL    HW1 8687   4.057   2.199   1.331
 2596SOL    HW2 8688   4.205   2.182   1.399
 2597SOL     OW 8689   2.024   2.107   6.355
 2597SOL    HW1 8690   1.972   2.104   6.269
 2597SOL    HW2 8691   1.996   2.188   6.407
 2598SOL     OW 8692   6.301   1.298   2.663
 2598SOL    HW1 8693   6.269   1.390   2.640
 2598SOL    HW2 8694   6.340   1.298   2.755
 2599SOL     OW 8695   4.403   4.764   6.428
 2599SOL    HW1 8696   4.381   4.791   6.334
 2599SOL    HW2 8697   4.387   4.842   6.489
 2600SOL     OW 8698   6.838   2.582   4.013
 2600SOL    HW1 8699   6.900   2.594   4.091
 2600SOL    HW2 8700   6.744   2.576   4.047
 2601SOL     OW 8701   3.708   3.697   4.965
 2601SOL    HW1 8702   3.609   3.696   4.957
 2601SOL    HW2 8703   3.746   3.620   4.915
 2602SOL     OW 8704   6.416   5.700   5.679
 2602SOL    HW1 8705   6.330   5.735   5.717
 2602SOL    HW2 8706   6.396   5.650   5.594
 2603SOL     OW 8707   1.839   2.323   6.832
 2603SOL    HW1 8708   1.879   2.414   6.839
 2603SOL    HW2 8709   1.908   2.260   6.795
 2604SOL     OW 8710   5.986   1.281   0.497
 2604SOL    HW1 8711   5.975   1.370   0.541
 2604SOL    HW2 8712   6.079   1.272   0.461
 2605SOL     OW 8713   5.310   3.504   4.192
 2605SOL    HW1 8714   5.309   3.604   4.199
 2605SOL    HW2 8715   5.402   3.472   4.173
 2606SOL     OW 8716   6.748   4.437   1.200
 2606SOL    HW1 8717   6.828   4.421   1.141
 2606SOL    HW2 8718   6.726   4.352   1.248
 2607SOL     OW 8719   1.090   1.573   4.320
 2607SOL    HW1 8720   1.145   1.656   4.334
 2607SOL    HW2 8721   1.059   1.538   4.409
 2608SOL     OW 8722   5.299   0.113   0.532
 2608SOL    HW1 8723   5.304   0.133   0.629
 2608SOL    HW2 8724   5.284   0.198   0.481
 2609SOL     OW 8725   0.500   3.210   3.706
 2609SOL    HW1 8726   0.484   3.113   3.719
 2609SOL    HW2 8727   0.597   3.231   3.724
 2610SOL     OW 8728   5.856   5.611   4.485
 2610SOL    HW1 8729   5.949   5.578   4.470
 2610SOL    HW2 8730   5.791   5.542   4.452
 2611SOL     OW 8731   2.925   5.540   2.261
 2611SOL    HW1 8732   3.013   5.574   2.292
 2611SOL    HW2 8733   2.852   5.595   2.301
 2612SOL     OW 8734   6.815   6.924   5.106
 2612SOL    HW1 8735   6.870   6.936   5.024
 2612SOL    HW2 8736   6.875   6.919   5.186
 2613SOL     OW 8737   3.278   0.909   0.371
 2613SOL    HW1 8738   3.235   0.936   0.457
 2613SOL    HW2 8739   3.229   0.831   0.332
 2614SOL     OW 8740   6.001   6.089   6.992
 2614SOL    HW1 8741   6.054   6.016   0.015
 2614SOL    HW2 8742   6.054   6.174   6.993
 2615SOL     OW 8743   5.486   4.520   2.140
 2615SOL    HW1 8744   5.426   4.479   2.070
 2615SOL    HW2 8745   5.487   4.619   2.128
 2616SOL     OW 8746   4.125   3.649   2.182
 2616SOL    HW1 8747   4.198   3.708   2.219
 2616SOL    HW2 8748   4.160   3.599   2.103
 2617SOL     OW 8749   3.072   0.443   1.028
 2617SOL    HW1 8750   3.156   0.447   1.081
 2617SOL    HW2 8751   3.025   0.356   1.045
 2618SOL     OW 8752   1.393   6.937   0.306
 2618SOL    HW1 8753   1.432   6.852   0.271
 2618SOL    HW2 8754   1.442   7.015   0.266
 2619SOL     OW 8755   5.872   1.878   1.086
 2619SOL    HW1 8756   5.900   1.823   1.008
 2619SOL    HW2 8757   5.772   1.882   1.091
 2620SOL     OW 8758   1.607   5.354   3.728
 2620SOL    HW1 8759   1.566   5.442   3.705
 2620SOL    HW2 8760   1.565   5.282   3.673
 2621SOL     OW 8761   0.719   5.469   3.676
 2621SOL    HW1 8762   0.640   5.449   3.733
 2621SOL    HW2 8763   0.779   5.390   3.672
 2622SOL     OW 8764   2.232   2.946   5.966
 2622SOL    HW1 8765   2.197   2.896   5.888
 2622SOL    HW2 8766   2.169   3.020   5.990
 2623SOL     OW 8767   3.338   0.607   6.630
 2623SOL    HW1 8768   3.291   0.636   6.547
 2623SOL    HW2 8769   3.387   0.522   6.613
 2624SOL     OW 8770   6.419   2.007   3.820
 2624SOL    HW1 8771   6.490   1.992   3.889
 2624SOL    HW2 8772   6.350   2.071   3.856
 2625SOL     OW 8773   4.147   6.999   5.542
 2625SOL    HW1 8774   4.179   0.067   5.513
 2625SOL    HW2 8775   4.209   6.928   5.508
 2626SOL     OW 8776   2.564   0.022   2.661
 2626SOL    HW1 8777   2.556   0.109   2.710
 2626SOL    HW2 8778   2.629   0.033   2.585
 2627SOL     OW 8779   0.351   1.190   4.567
 2627SOL    HW1 8780   0.445   1.178   4.599
 2627SOL    HW2 8781   0.352   1.229   4.475
 2628SOL     OW 8782   4.149   5.912   6.408
 2628SOL    HW1 8783   4.146   5.937   6.505
 2628SOL    HW2 8784   4.134   5.993   6.352
 2629SOL     OW 8785   3.048   3.710   1.211
 2629SOL    HW1 8786   3.034   3.678   1.304
 2629SOL    HW2 8787   3.015   3.805   1.203
 2630SOL     OW 8788   2.575   2.500   2.053
 2630SOL    HW1 8789   2.672   2.523   2.055
 2630SOL    HW2 8790   2.540   2.514   1.960
 2631SOL     OW 8791   4.435   6.649   4.631
 2631SOL    HW1 8792   4.419   6.553   4.650
 2631SOL    HW2 8793   4.525   6.676   4.667
 2632SOL     OW 8794   5.401   1.120   0.803
 2632SOL    HW1 8795   5.345   1.039   0.822
 2632SOL    HW2 8796   5.353   1.201   0.836
 2633SOL     OW 8797   0.154   2.900   6.552
 2633SOL    HW1 8798   0.057   2.915   6.571
 2633SOL    HW2 8799   0.175   2.803   6.556
 2634SOL     OW 8800   3.274   5.138   1.497
 2634SOL    HW1 8801   3.228   5.155   1.410
 2634SOL    HW2 8802   3.210   5.100   1.562
 2635SOL     OW 8803   6.082   4.672   3.368
 2635SOL    HW1 8804   6.168   4.722   3.357
 2635SOL    HW2 8805   6.025   4.718   3.436
 2636SOL     OW 8806   5.954   6.971   4.736
 2636SOL    HW1 8807   6.001   0.026   4.780
 2636SOL    HW2 8808   5.935   6.900   4.804
 2637SOL     OW 8809   4.994   6.888   2.637
 2637SOL    HW1 8810   5.043   6.803   2.618
 2637SOL    HW2 8811   5.052   6.966   2.613
 2638SOL     OW 8812   5.154   5.749   0.777
 2638SOL    HW1 8813   5.077   5.812   0.763
 2638SOL    HW2 8814   5.220   5.791   0.840
 2639SOL     OW 8815   6.329   6.499   6.658
 2639SOL    HW1 8816   6.420   6.477   6.622
 2639SOL    HW2 8817   6.261   6.438   6.616
 2640SOL     OW 8818   5.928   6.990   6.317
 2640SOL    HW1 8819   5.880   0.028   6.381
 2640SOL    HW2 8820   5.882   6.901   6.314
 2641SOL     OW 8821   6.022   4.948   0.345
 2641SOL    HW1 8822   5.965   5.019   0.305
 2641SOL    HW2 8823   6.000   4.860   0.303
 2642SOL     OW 8824   6.650   0.237   3.870
 2642SOL    HW1 8825   6.556   0.270   3.877
 2642SOL    HW2 8826   6.709   0.312   3.840
 2643SOL     OW 8827   1.300   0.882   2.045
 2643SOL    HW1 8828   1.318   0.784   2.051
 2643SOL    HW2 8829   1.256   0.914   2.129
 2644SOL     OW 8830   6.966   5.542   5.845
 2644SOL    HW1 8831   0.022   5.528   5.907
 2644SOL    HW2 8832   6.914   5.457   5.836
 2645SOL     OW 8833   5.920   5.763   6.136
 2645SOL    HW1 8834   5.978   5.778   6.216
 2645SOL    HW2 8835   5.825   5.753   6.166
 2646SOL     OW 8836   6.186   6.307   7.009
 2646SOL    HW1 8837   6.183   6.392   6.957
 2646SOL    HW2 8838   6.223   6.325   0.079
 2647SOL     OW 8839   3.360   3.164   0.484
 2647SOL    HW1 8840   3.448   3.209   0.470
 2647SOL    HW2 8841   3.346   3.148   0.582
 2648SOL     OW 8842   3.859   0.996   3.700
 2648SOL    HW1 8843   3.804   1.005   3.782
 2648SOL    HW2 8844   3.812   1.041   3.623
 2649SOL     OW 8845   3.421   2.744   5.295
 2649SOL    HW1 8846   3.386   2.830   5.333
 2649SOL    HW2 8847   3.358   2.669   5.318
 2650SOL     OW 8848   6.870   6.550   2.357
 2650SOL    HW1 8849   6.827   6.641   2.358
 2650SOL    HW2 8850   6.871   6.515   2.263
 2651SOL     OW 8851   0.544   0.213   3.583
 2651SOL    HW1 8852   0.642   0.234   3.577
 2651SOL    HW2 8853   0.526   0.126   3.537
 2652SOL     OW 8854   3.337   3.092   2.748
 2652SOL    HW1 8855   3.380   3.025   2.688
 2652SOL    HW2 8856   3.354   3.067   2.843
 2653SOL     OW 8857   6.291   5.443   0.338
 2653SOL    HW1 8858   6.383   5.474   0.363
 2653SOL    HW2 8859   6.262   5.372   0.401
 2654SOL     OW 8860   6.035   1.457   5.824
 2654SOL    HW1 8861   6.020   1.365   5.859
 2654SOL    HW2 8862   6.119   1.458   5.770
 2655SOL     OW 8863   4.648   5.544   5.289
 2655SOL    HW1 8864   4.631   5.629   5.339
 2655SOL    HW2 8865   4.591   5.471   5.327
 2656SOL     OW 8866   5.246   3.514   4.521
 2656SOL    HW1 8867   5.275   3.556   4.435
 2656SOL    HW2 8868   5.214   3.421   4.502
 2657SOL     OW 8869   3.083   2.091   5.912
 2657SOL    HW1 8870   3.013   2.025   5.938
 2657SOL    HW2 8871   3.173   2.058   5.939
 2658SOL     OW 8872   6.023   4.627   5.502
 2658SOL    HW1 8873   5.950   4.651   5.438
 2658SOL    HW2 8874   5.986   4.570   5.575
 2659SOL     OW 8875   6.571   1.825   2.995
 2659SOL    HW1 8876   6.474   1.808   3.012
 2659SOL    HW2 8877   6.581   1.880   2.912
 2660SOL     OW 8878   6.495   1.931   2.711
 2660SOL    HW1 8879   6.553   2.005   2.677
 2660SOL    HW2 8880   6.402   1.966   2.725
 2661SOL     OW 8881   3.844   6.463   2.013
 2661SOL    HW1 8882   3.835   6.396   1.939
 2661SOL    HW2 8883   3.796   6.547   1.987
 2662SOL     OW 8884   3.761   0.244   3.718
 2662SOL    HW1 8885   3.772   0.264   3.815
 2662SOL    HW2 8886   3.687   0.301   3.681
 2663SOL     OW 8887   0.914   4.403   3.269
 2663SOL    HW1 8888   0.926   4.306   3.249
 2663SOL    HW2 8889   0.875   4.414   3.361
 2664SOL     OW 8890   4.145   3.815   1.880
 2664SOL    HW1 8891   4.203   3.892   1.852
 2664SOL    HW2 8892   4.086   3.843   1.956
 2665SOL     OW 8893   4.498   1.076   4.596
 2665SOL    HW1 8894   4.435   1.150   4.573
 2665SOL    HW2 8895   4.447   1.001   4.639
 2666SOL     OW 8896   4.770   6.008   2.030
 2666SOL    HW1 8897   4.764   5.976   2.124
 2666SOL    HW2 8898   4.765   5.930   1.968
 2667SOL     OW 8899   1.583   4.949   3.622
 2667SOL    HW1 8900   1.539   5.011   3.558
 2667SOL    HW2 8901   1.660   4.996   3.666
 2668SOL     OW 8902   6.230   2.590   6.089
 2668SOL    HW1 8903   6.324   2.623   6.085
 2668SOL    HW2 8904   6.186   2.604   6.000
 2669SOL     OW 8905   4.296   5.538   5.418
 2669SOL    HW1 8906   4.379   5.484   5.434
 2669SOL    HW2 8907   4.261   5.572   5.505
 2670SOL     OW 8908   1.984   6.851   5.723
 2670SOL    HW1 8909   2.045   6.913   5.674
 2670SOL    HW2 8910   1.906   6.827   5.665
 2671SOL     OW 8911   3.387   4.355   6.099
 2671SOL    HW1 8912   3.316   4.293   6.066
 2671SOL    HW2 8913   3.355   4.401   6.182
 2672SOL     OW 8914   0.997   4.270   0.645
 2672SOL    HW1 8915   1.048   4.254   0.730
 2672SOL    HW2 8916   0.969   4.366   0.641
 2673SOL     OW 8917   4.478   2.252   4.052
 2673SOL    HW1 8918   4.384   2.218   4.053
 2673SOL    HW2 8919   4.477   2.352   4.043
 2674SOL     OW 8920   6.129   5.283   5.493
 2674SOL    HW1 8921   6.193   5.289   5.416
 2674SOL    HW2 8922   6.105   5.374   5.525
 2675SOL     OW 8923   0.426   3.838   5.105
 2675SOL    HW1 8924   0.395   3.745   5.085
 2675SOL    HW2 8925   0.386   3.901   5.038
 2676SOL     OW 8926   4.593   0.657   2.384
 2676SOL    HW1 8927   4.635   0.635   2.472
 2676SOL    HW2 8928   4.502   0.695   2.399
 2677SOL     OW 8929   2.804   4.779   2.448
 2677SOL    HW1 8930   2.732   4.712   2.428
 2677SOL    HW2 8931   2.856   4.797   2.365
 2678SOL     OW 8932   0.106   6.460   6.472
 2678SOL    HW1 8933   0.077   6.373   6.433
 2678SOL    HW2 8934   0.057   6.476   6.558
 2679SOL     OW 8935   2.977   4.987   1.304
 2679SOL    HW1 8936   2.974   4.925   1.383
 2679SOL    HW2 8937   2.904   4.963   1.241
 2680SOL     OW 8938   1.315   2.111   1.833
 2680SOL    HW1 8939   1.291   2.098   1.737
 2680SOL    HW2 8940   1.256   2.055   1.891
 2681SOL     OW 8941   1.859   1.399   2.961
 2681SOL    HW1 8942   1.825   1.393   3.055
 2681SOL    HW2 8943   1.822   1.481   2.917
 2682SOL     OW 8944   6.798   2.532   3.571
 2682SOL    HW1 8945   6.812   2.570   3.663
 2682SOL    HW2 8946   6.705   2.555   3.540
 2683SOL     OW 8947   1.728   0.231   1.808
 2683SOL    HW1 8948   1.666   0.258   1.881
 2683SOL    HW2 8949   1.808   0.186   1.847
 2684SOL     OW 8950   2.601   5.819   3.032
 2684SOL    HW1 8951   2.625   5.891   3.097
 2684SOL    HW2 8952   2.653   5.737   3.052
 2685SOL     OW 8953   5.819   6.086   5.087
 2685SOL    HW1 8954   5.761   6.092   5.168
 2685SOL    HW2 8955   5.785   6.012   5.028
 2686SOL     OW 8956   1.082   3.183   4.557
 2686SOL    HW1 8957   1.091   3.273   4.600
 2686SOL    HW2 8958   1.173   3.153   4.526
 2687SOL     OW 8959   4.794   4.908   3.401
 2687SOL    HW1 8960   4.731   4.902   3.478
 2687SOL    HW2 8961   4.752   4.961   3.327
 2688SOL     OW 8962   3.900   5.148   5.652
 2688SOL    HW1 8963   3.970   5.214   5.680
 2688SOL    HW2 8964   3.857   5.108   5.732
 2689SOL     OW 8965   0.265   3.307   3.784
 2689SOL    HW1 8966   0.202   3.295   3.707
 2689SOL    HW2 8967   0.359   3.295   3.753
 2690SOL     OW 8968   3.141   3.179   3.082
 2690SOL    HW1 8969   3.166   3.087   3.049
 2690SOL    HW2 8970   3.224   3.235   3.088
 2691SOL     OW 8971   1.654   5.846   1.258
 2691SOL    HW1 8972   1.631   5.922   1.318
 2691SOL    HW2 8973   1.734   5.798   1.293
 2692SOL     OW 8974   0.159   5.477   3.167
 2692SOL    HW1 8975   0.183   5.549   3.103
 2692SOL    HW2 8976   0.147   5.391   3.117
 2693SOL     OW 8977   1.697   3.679   3.149
 2693SOL    HW1 8978   1.745   3.763   3.176
 2693SOL    HW2 8979   1.663   3.633   3.231
 2694SOL     OW 8980   2.150   0.932   2.761
 2694SOL    HW1 8981   2.135   0.935   2.860
 2694SOL    HW2 8982   2.202   0.850   2.738
 2695SOL     OW 8983   4.013   2.194   3.073
 2695SOL    HW1 8984   4.040   2.098   3.072
 2695SOL    HW2 8985   4.026   2.231   3.165
 2696SOL     OW 8986   4.270   3.658   5.172
 2696SOL    HW1 8987   4.331   3.694   5.244
 2696SOL    HW2 8988   4.322   3.647   5.087
 2697SOL     OW 8989   2.498   1.975   4.145
 2697SOL    HW1 8990   2.427   2.001   4.210
 2697SOL    HW2 8991   2.583   2.022   4.169
 2698SOL     OW 8992   2.315   3.413   6.559
 2698SOL    HW1 8993   2.391   3.379   6.503
 2698SOL    HW2 8994   2.331   3.510   6.580
 2699SOL     OW 8995   2.982   5.916   2.652
 2699SOL    HW1 8996   3.001   5.991   2.716
 2699SOL    HW2 8997   2.903   5.864   2.684
 2700SOL     OW 8998   1.265   4.101   2.811
 2700SOL    HW1 8999   1.166   4.102   2.796
 2700SOL    HW2 9000   1.299   4.195   2.821
 2701SOL     OW 9001   3.129   0.222   5.928
 2701SOL    HW1 9002   3.225   0.211   5.955
 2701SOL    HW2 9003   3.100   0.315   5.947
 2702SOL     OW 9004   6.965   6.900   2.804
 2702SOL    HW1 9005   6.919   6.925   2.719
 2702SOL    HW2 9006   0.041   6.886   2.786
 2703SOL     OW 9007   1.495   1.739   2.973
 2703SOL    HW1 9008   1.425   1.670   2.955
 2703SOL    HW2 9009   1.490   1.767   3.069
 2704SOL     OW 9010   1.854   5.920   0.240
 2704SOL    HW1 9011   1.903   6.006   0.228
 2704SOL    HW2 9012   1.915   5.851   0.279
 2705SOL     OW 9013   0.338   4.854   2.443
 2705SOL    HW1 9014   0.317   4.942   2.399
 2705SOL    HW2 9015   0.285   4.782   2.399
 2706SOL     OW 9016   6.731   2.111   2.070
 2706SOL    HW1 9017   6.676   2.071   2.143
 2706SOL    HW2 9018   6.752   2.040   2.002
 2707SOL     OW 9019   2.104   1.723   5.973
 2707SOL    HW1 9020   2.043   1.739   6.050
 2707SOL    HW2 9021   2.163   1.645   5.992
 2708SOL     OW 9022   2.004   3.817   0.313
 2708SOL    HW1 9023   1.957   3.746   0.260
 2708SOL    HW2 9024   1.996   3.796   0.410
 2709SOL     OW 9025   4.364   0.066   1.657
 2709SOL    HW1 9026   4.364   0.149   1.714
 2709SOL    HW2 9027   4.294   0.075   1.586
 2710SOL     OW 9028   6.127   4.282   2.482
 2710SOL    HW1 9029   6.185   4.303   2.561
 2710SOL    HW2 9030   6.038   4.327   2.493
 2711SOL     OW 9031   1.444   6.748   1.729
 2711SOL    HW1 9032   1.374   6.819   1.729
 2711SOL    HW2 9033   1.405   6.663   1.694
 2712SOL     OW 9034   3.034   5.407   1.925
 2712SOL    HW1 9035   3.100   5.332   1.925
 2712SOL    HW2 9036   3.082   5.493   1.906
 2713SOL     OW 9037   2.055   2.312   4.812
 2713SOL    HW1 9038   2.048   2.335   4.909
 2713SOL    HW2 9039   1.965   2.288   4.777
 2714SOL     OW 9040   5.676   6.753   5.713
 2714SOL    HW1 9041   5.617   6.829   5.741
 2714SOL    HW2 9042   5.752   6.743   5.777
 2715SOL     OW 9043   6.772   0.320   0.064
 2715SOL    HW1 9044   6.691   0.311   0.122
 2715SOL    HW2 9045   6.745   0.352   6.994
 2716SOL     OW 9046   0.212   6.683   2.788
 2716SOL    HW1 9047   0.198   6.756   2.721
 2716SOL    HW2 9048   0.156   6.605   2.765
 2717SOL     OW 9049   1.100   0.742   2.630
 2717SOL    HW1 9050   1.190   0.759   2.669
 2717SOL    HW2 9051   1.060   0.661   2.672
 2718SOL     OW 9052   1.068   4.598   3.118
 2718SOL    HW1 9053   1.022   4.521   3.163
 2718SOL    HW2 9054   1.102   4.568   3.029
 2719SOL     OW 9055   4.008   4.941   2.922
 2719SOL    HW1 9056   3.938   4.895   2.976
 2719SOL    HW2 9057   3.971   4.964   2.832
 2720SOL     OW 9058   0.383   6.048   3.892
 2720SOL    HW1 9059   0.455   6.000   3.941
 2720SOL    HW2 9060   0.352   6.126   3.946
 2721SOL     OW 9061   5.078   0.200   4.853
 2721SOL    HW1 9062   5.073   0.185   4.952
 2721SOL    HW2 9063   4.989   0.232   4.821
 2722SOL     OW 9064   1.482   5.681   1.137
 2722SOL    HW1 9065   1.427   5.626   1.201
 2722SOL    HW2 9066   1.534   5.749   1.188
 2723SOL     OW 9067   1.559   1.270   5.110
 2723SOL    HW1 9068   1.611   1.250   5.193
 2723SOL    HW2 9069   1.579   1.201   5.041
 2724SOL     OW 9070   3.093   5.666   6.325
 2724SOL    HW1 9071   3.182   5.645   6.365
 2724SOL    HW2 9072   3.107   5.721   6.242
 2725SOL     OW 9073   3.094   5.066   3.257
 2725SOL    HW1 9074   3.136   5.004   3.323
 2725SOL    HW2 9075   2.995   5.056   3.260
 2726SOL     OW 9076   4.685   6.332   2.525
 2726SOL    HW1 9077   4.735   6.381   2.454
 2726SOL    HW2 9078   4.668   6.238   2.496
 2727SOL     OW 9079   1.854   5.485   3.008
 2727SOL    HW1 9080   1.937   5.505   2.956
 2727SOL    HW2 9081   1.805   5.410   2.963
 2728SOL     OW 9082   3.577   6.807   5.294
 2728SOL    HW1 9083   3.485   6.817   5.334
 2728SOL    HW2 9084   3.597   6.887   5.237
 2729SOL     OW 9085   6.698   5.053   2.479
 2729SOL    HW1 9086   6.757   4.980   2.447
 2729SOL    HW2 9087   6.604   5.020   2.487
 2730SOL     OW 9088   1.182   4.572   1.357
 2730SOL    HW1 9089   1.157   4.669   1.354
 2730SOL    HW2 9090   1.280   4.562   1.342
 2731SOL     OW 9091   2.914   3.691   1.627
 2731SOL    HW1 9092   2.993   3.649   1.582
 2731SOL    HW2 9093   2.922   3.680   1.726
 2732SOL     OW 9094   5.433   2.527   4.000
 2732SOL    HW1 9095   5.394   2.457   3.940
 2732SOL    HW2 9096   5.418   2.500   4.096
 2733SOL     OW 9097   1.914   0.892   5.910
 2733SOL    HW1 9098   1.981   0.818   5.920
 2733SOL    HW2 9099   1.829   0.856   5.873
 2734SOL     OW 9100   2.264   6.544   3.731
 2734SOL    HW1 9101   2.184   6.518   3.677
 2734SOL    HW2 9102   2.347   6.522   3.679
 2735SOL     OW 9103   2.396   4.938   1.226
 2735SOL    HW1 9104   2.340   5.013   1.260
 2735SOL    HW2 9105   2.492   4.955   1.246
 2736SOL     OW 9106   3.627   6.816   6.610
 2736SOL    HW1 9107   3.726   6.824   6.622
 2736SOL    HW2 9108   3.585   6.792   6.698
 2737SOL     OW 9109   4.144   3.468   5.630
 2737SOL    HW1 9110   4.192   3.482   5.543
 2737SOL    HW2 9111   4.064   3.527   5.633
 2738SOL     OW 9112   6.167   4.209   4.210
 2738SOL    HW1 9113   6.124   4.296   4.185
 2738SOL    HW2 9114   6.186   4.207   4.308
 2739SOL     OW 9115   5.589   3.629   0.542
 2739SOL    HW1 9116   5.513   3.679   0.500
 2739SOL    HW2 9117   5.589   3.535   0.509
 2740SOL     OW 9118   6.728   2.841   3.218
 2740SOL    HW1 9119   6.646   2.873   3.172
 2740SOL    HW2 9120   6.802   2.831   3.152
 2741SOL     OW 9121   1.435   2.641   5.650
 2741SOL    HW1 9122   1.512   2.586   5.619
 2741SOL    HW2 9123   1.369   2.651   5.576
 2742SOL     OW 9124   2.612   6.323   5.349
 2742SOL    HW1 9125   2.590   6.374   5.433
 2742SOL    HW2 9126   2.707   6.340   5.324
 2743SOL     OW 9127   6.021   4.521   0.435
 2743SOL    HW1 9128   6.049   4.506   0.530
 2743SOL    HW2 9129   5.948   4.457   0.411
 2744SOL     OW 9130   4.456   0.263   6.950
 2744SOL    HW1 9131   4.432   0.296   6.858
 2744SOL    HW2 9132   4.550   0.231   6.950
 2745SOL     OW 9133   2.408   5.793   1.326
 2745SOL    HW1 9134   2.412   5.850   1.408
 2745SOL    HW2 9135   2.339   5.830   1.263
 2746SOL     OW 9136   1.273   2.384   6.482
 2746SOL    HW1 9137   1.190   2.340   6.518
 2746SOL    HW2 9138   1.337   2.314   6.451
 2747SOL     OW 9139   5.249   5.604   3.868
 2747SOL    HW1 9140   5.277   5.536   3.800
 2747SOL    HW2 9141   5.299   5.589   3.953
 2748SOL     OW 9142   4.206   1.105   4.826
 2748SOL    HW1 9143   4.142   1.028   4.830
 2748SOL    HW2 9144   4.186   1.169   4.900
 2749SOL     OW 9145   5.029   4.341   3.583
 2749SOL    HW1 9146   5.090   4.265   3.606
 2749SOL    HW2 9147   4.946   4.305   3.540
 2750SOL     OW 9148   0.086   6.301   1.316
 2750SOL    HW1 9149   0.148   6.237   1.363
 2750SOL    HW2 9150   0.077   6.384   1.370
 2751SOL     OW 9151   1.639   0.327   0.327
 2751SOL    HW1 9152   1.639   0.381   0.412
 2751SOL    HW2 9153   1.637   0.388   0.248
 2752SOL     OW 9154   6.605   6.404   5.792
 2752SOL    HW1 9155   6.628   6.380   5.698
 2752SOL    HW2 9156   6.657   6.486   5.819
 2753SOL     OW 9157   2.871   5.314   5.127
 2753SOL    HW1 9158   2.920   5.260   5.195
 2753SOL    HW2 9159   2.783   5.342   5.165
 2754SOL     OW 9160   1.059   5.823   4.182
 2754SOL    HW1 9161   1.073   5.759   4.107
 2754SOL    HW2 9162   1.032   5.772   4.264
 2755SOL     OW 9163   4.018   5.463   2.298
 2755SOL    HW1 9164   3.929   5.506   2.313
 2755SOL    HW2 9165   4.091   5.524   2.330
 2756SOL     OW 9166   0.080   3.540   5.229
 2756SOL    HW1 9167   0.122   3.619   5.272
 2756SOL    HW2 9168   0.037   3.567   5.144
 2757SOL     OW 9169   4.594   3.474   6.837
 2757SOL    HW1 9170   4.540   3.396   6.806
 2757SOL    HW2 9171   4.691   3.455   6.823
 2758SOL     OW 9172   0.244   6.737   1.790
 2758SOL    HW1 9173   0.245   6.661   1.726
 2758SOL    HW2 9174   0.167   6.727   1.853
 2759SOL     OW 9175   3.765   3.475   5.490
 2759SOL    HW1 9176   3.726   3.521   5.411
 2759SOL    HW2 9177   3.815   3.542   5.546
 2760SOL     OW 9178   6.024   5.870   2.425
 2760SOL    HW1 9179   5.972   5.817   2.358
 2760SOL    HW2 9180   6.093   5.812   2.468
 2761SOL     OW 9181   1.221   2.994   3.436
 2761SOL    HW1 9182   1.297   3.059   3.429
 2761SOL    HW2 9183   1.201   2.957   3.346
 2762SOL     OW 9184   3.224   2.157   0.837
 2762SOL    HW1 9185   3.180   2.106   0.911
 2762SOL    HW2 9186   3.323   2.145   0.843
 2763SOL     OW 9187   6.337   1.747   4.437
 2763SOL    HW1 9188   6.318   1.691   4.517
 2763SOL    HW2 9189   6.302   1.702   4.355
 2764SOL     OW 9190   0.315   2.983   3.052
 2764SOL    HW1 9191   0.249   2.964   3.125
 2764SOL    HW2 9192   0.356   3.073   3.067
 2765SOL     OW 9193   5.809   6.452   6.153
 2765SOL    HW1 9194   5.786   6.521   6.222
 2765SOL    HW2 9195   5.733   6.443   6.088
 2766SOL     OW 9196   4.498   6.934   7.001
 2766SOL    HW1 9197   4.548   6.977   0.055
 2766SOL    HW2 9198   4.547   6.948   6.915
 2767SOL     OW 9199   0.742   5.495   6.596
 2767SOL    HW1 9200   0.794   5.561   6.542
 2767SOL    HW2 9201   0.644   5.513   6.586
 2768SOL     OW 9202   4.227   0.086   1.278
 2768SOL    HW1 9203   4.230   0.164   1.214
 2768SOL    HW2 9204   4.179   0.114   1.361
 2769SOL     OW 9205   1.284   4.879   5.458
 2769SOL    HW1 9206   1.225   4.936   5.399
 2769SOL    HW2 9207   1.372   4.866   5.413
 2770SOL     OW 9208   2.191   6.920   0.756
 2770SOL    HW1 9209   2.138   7.004   0.759
 2770SOL    HW2 9210   2.135   6.847   0.716
 2771SOL     OW 9211   4.378   7.020   5.242
 2771SOL    HW1 9212   4.450   0.035   5.182
 2771SOL    HW2 9213   4.307   0.069   5.255
 2772SOL     OW 9214   4.542   1.531   4.002
 2772SOL    HW1 9215   4.503   1.440   3.994
 2772SOL    HW2 9216   4.623   1.537   3.944
 2773SOL     OW 9217   6.041   2.766   4.816
 2773SOL    HW1 9218   6.042   2.679   4.866
 2773SOL    HW2 9219   6.032   2.841   4.880
 2774SOL     OW 9220   6.041   1.658   3.989
 2774SOL    HW1 9221   6.136   1.687   4.003
 2774SOL    HW2 9222   6.016   1.668   3.893
 2775SOL     OW 9223   7.012   3.635   4.141
 2775SOL    HW1 9224   0.070   3.581   4.115
 2775SOL    HW2 9225   6.937   3.574   4.166
 2776SOL     OW 9226   4.664   4.706   6.055
 2776SOL    HW1 9227   4.725   4.646   6.107
 2776SOL    HW2 9228   4.667   4.798   6.094
 2777SOL     OW 9229   2.090   2.031   6.660
 2777SOL    HW1 9230   2.144   1.985   6.589
 2777SOL    HW2 9231   1.993   2.011   6.647
 2778SOL     OW 9232   2.785   0.838   6.104
 2778SOL    HW1 9233   2.782   0.758   6.165
 2778SOL    HW2 9234   2.776   0.921   6.159
 2779SOL     OW 9235   4.858   0.984   1.754
 2779SOL    HW1 9236   4.919   0.964   1.678
 2779SOL    HW2 9237   4.806   1.067   1.735
 2780SOL     OW 9238   6.697   1.349   4.936
 2780SOL    HW1 9239   6.782   1.365   4.987
 2780SOL    HW2 9240   6.657   1.437   4.911
 2781SOL     OW 9241   6.245   1.074   3.387
 2781SOL    HW1 9242   6.308   1.014   3.338
 2781SOL    HW2 9243   6.213   1.028   3.470
 2782SOL     OW 9244   5.194   0.792   5.894
 2782SOL    HW1 9245   5.280   0.792   5.944
 2782SOL    HW2 9246   5.119   0.816   5.956
 2783SOL     OW 9247   5.746   3.522   1.600
 2783SOL    HW1 9248   5.835   3.500   1.560
 2783SOL    HW2 9249   5.673   3.495   1.537
 2784SOL     OW 9250   0.297   3.171   1.314
 2784SOL    HW1 9251   0.341   3.260   1.299
 2784SOL    HW2 9252   0.356   3.098   1.279
 2785SOL     OW 9253   5.934   3.332   2.346
 2785SOL    HW1 9254   5.865   3.404   2.337
 2785SOL    HW2 9255   5.895   3.245   2.315
 2786SOL     OW 9256   1.424   6.401   0.112
 2786SOL    HW1 9257   1.380   6.325   0.159
 2786SOL    HW2 9258   1.373   6.421   0.028
 2787SOL     OW 9259   0.409   5.826   6.767
 2787SOL    HW1 9260   0.359   5.873   6.694
 2787SOL    HW2 9261   0.352   5.820   6.848
 2788SOL     OW 9262   2.442   6.969   6.597
 2788SOL    HW1 9263   2.408   0.036   6.630
 2788SOL    HW2 9264   2.403   6.896   6.653
 2789SOL     OW 9265   1.221   2.576   4.588
 2789SOL    HW1 9266   1.154   2.620   4.648
 2789SOL    HW2 9267   1.174   2.512   4.527
 2790SOL     OW 9268   0.704   5.616   1.562
 2790SOL    HW1 9269   0.722   5.625   1.660
 2790SOL    HW2 9270   0.620   5.664   1.539
 2791SOL     OW 9271   1.551   3.164   4.405
 2791SOL    HW1 9272   1.548   3.203   4.313
 2791SOL    HW2 9273   1.624   3.096   4.411
 2792SOL     OW 9274   3.672   1.466   5.944
 2792SOL    HW1 9275   3.749   1.412   5.977
 2792SOL    HW2 9276   3.612   1.409   5.888
 2793SOL     OW 9277   3.494   3.747   0.509
 2793SOL    HW1 9278   3.515   3.839   0.541
 2793SOL    HW2 9279   3.555   3.723   0.434
 2794SOL     OW 9280   1.805   2.265   0.128
 2794SOL    HW1 9281   1.843   2.352   0.159
 2794SOL    HW2 9282   1.868   2.222   0.063
 2795SOL     OW 9283   1.771   6.112   1.188
 2795SOL    HW1 9284   1.745   6.208   1.176
 2795SOL    HW2 9285   1.717   6.055   1.126
 2796SOL     OW 9286   1.721   5.840   6.721
 2796SOL    HW1 9287   1.628   5.806   6.709
 2796SOL    HW2 9288   1.763   5.852   6.631
 2797SOL     OW 9289   5.053   4.670   3.390
 2797SOL    HW1 9290   5.042   4.701   3.296
 2797SOL    HW2 9291   4.964   4.666   3.435
 2798SOL     OW 9292   5.311   1.387   1.746
 2798SOL    HW1 9293   5.282   1.303   1.791
 2798SOL    HW2 9294   5.401   1.372   1.704
 2799SOL     OW 9295   3.563   6.381   4.648
 2799SOL    HW1 9296   3.606   6.362   4.736
 2799SOL    HW2 9297   3.482   6.323   4.636
 2800SOL     OW 9298   4.713   0.496   6.097
 2800SOL    HW1 9299   4.802   0.503   6.051
 2800SOL    HW2 9300   4.708   0.410   6.147
 2801SOL     OW 9301   6.993   4.868   3.850
 2801SOL    HW1 9302   6.908   4.918   3.864
 2801SOL    HW2 9303   0.049   4.931   3.857
 2802SOL     OW 9304   1.667   5.048   4.587
 2802SOL    HW1 9305   1.749   5.063   4.532
 2802SOL    HW2 9306   1.685   4.976   4.654
 2803SOL     OW 9307   3.225   2.490   6.612
 2803SOL    HW1 9308   3.277   2.574   6.626
 2803SOL    HW2 9309   3.277   2.428   6.554
 2804SOL     OW 9310   6.644   3.075   3.383
 2804SOL    HW1 9311   6.674   3.003   3.320
 2804SOL    HW2 9312   6.560   3.048   3.428
 2805SOL     OW 9313   3.871   4.506   0.659
 2805SOL    HW1 9314   3.928   4.575   0.616
 2805SOL    HW2 9315   3.851   4.533   0.754
 2806SOL     OW 9316   0.243   2.937   5.371
 2806SOL    HW1 9317   0.308   3.000   5.328
 2806SOL    HW2 9318   0.170   2.990   5.415
 2807SOL     OW 9319   4.188   0.981   4.133
 2807SOL    HW1 9320   4.258   0.998   4.203
 2807SOL    HW2 9321   4.124   1.057   4.132
 2808SOL     OW 9322   0.828   5.624   5.757
 2808SOL    HW1 9323   0.868   5.533   5.752
 2808SOL    HW2 9324   0.745   5.621   5.813
 2809SOL     OW 9325   0.348   6.066   1.865
 2809SOL    HW1 9326   0.445   6.050   1.847
 2809SOL    HW2 9327   0.320   6.015   1.947
 2810SOL     OW 9328   1.607   6.461   2.753
 2810SOL    HW1 9329   1.554   6.394   2.805
 2810SOL    HW2 9330   1.702   6.460   2.784
 2811SOL     OW 9331   1.060   1.213   1.099
 2811SOL    HW1 9332   1.017   1.155   1.167
 2811SOL    HW2 9333   1.108   1.157   1.032
 2812SOL     OW 9334   1.367   1.931   0.554
 2812SOL    HW1 9335   1.317   1.881   0.484
 2812SOL    HW2 9336   1.465   1.918   0.539
 2813SOL     OW 9337   0.680   3.385   1.435
 2813SOL    HW1 9338   0.744   3.433   1.375
 2813SOL    HW2 9339   0.670   3.290   1.404
 2814SOL     OW 9340   2.610   4.474   6.943
 2814SOL    HW1 9341   2.704   4.440   6.935
 2814SOL    HW2 9342   2.546   4.402   6.912
 2815SOL     OW 9343   6.616   5.523   4.428
 2815SOL    HW1 9344   6.711   5.508   4.455
 2815SOL    HW2 9345   6.558   5.457   4.476
 2816SOL     OW 9346   0.908   5.260   4.647
 2816SOL    HW1 9347   0.938   5.228   4.737
 2816SOL    HW2 9348   0.809   5.274   4.647
 2817SOL     OW 9349   3.139   1.267   2.254
 2817SOL    HW1 9350   3.237   1.284   2.267
 2817SOL    HW2 9351   3.092   1.276   2.341
 2818SOL     OW 9352   1.304   0.488   0.209
 2818SOL    HW1 9353   1.288   0.493   0.308
 2818SOL    HW2 9354   1.323   0.580   0.174
 2819SOL     OW 9355   0.832   0.176   6.715
 2819SOL    HW1 9356   0.764   0.108   6.686
 2819SOL    HW2 9357   0.789   0.266   6.722
 2820SOL     OW 9358   1.301   2.019   6.998
 2820SOL    HW1 9359   1.361   1.951   0.019
 2820SOL    HW2 9360   1.345   2.108   6.999
 2821SOL     OW 9361   2.996   3.095   6.174
 2821SOL    HW1 9362   2.975   3.188   6.205
 2821SOL    HW2 9363   2.924   3.033   6.204
 2822SOL     OW 9364   4.769   2.814   0.493
 2822SOL    HW1 9365   4.788   2.877   0.568
 2822SOL    HW2 9366   4.741   2.725   0.529
 2823SOL     OW 9367   4.917   3.611   1.785
 2823SOL    HW1 9368   4.862   3.655   1.714
 2823SOL    HW2 9369   4.912   3.665   1.869
 2824SOL     OW 9370   0.871   4.554   5.050
 2824SOL    HW1 9371   0.873   4.541   5.149
 2824SOL    HW2 9372   0.858   4.466   5.004
 2825SOL     OW 9373   5.256   1.541   5.711
 2825SOL    HW1 9374   5.306   1.627   5.725
 2825SOL    HW2 9375   5.317   1.464   5.732
 2826SOL     OW 9376   2.849   2.958   6.887
 2826SOL    HW1 9377   2.867   2.901   6.807
 2826SOL    HW2 9378   2.803   3.042   6.858
 2827SOL     OW 9379   5.809   1.578   6.363
 2827SOL    HW1 9380   5.725   1.610   6.319
 2827SOL    HW2 9381   5.847   1.650   6.420
 2828SOL     OW 9382   1.732   3.764   1.021
 2828SOL    HW1 9383   1.764   3.785   1.113
 2828SOL    HW2 9384   1.658   3.826   0.996
 2829SOL     OW 9385   3.631   3.469   1.869
 2829SOL    HW1 9386   3.598   3.376   1.883
 2829SOL    HW2 9387   3.721   3.467   1.825
 2830SOL     OW 9388   3.108   5.690   4.818
 2830SOL    HW1 9389   3.116   5.782   4.779
 2830SOL    HW2 9390   3.040   5.690   4.891
 2831SOL     OW 9391   7.021   1.566   1.660
 2831SOL    HW1 9392   6.961   1.541   1.735
 2831SOL    HW2 9393   6.982   1.643   1.610
 2832SOL     OW 9394   0.753   3.875   2.389
 2832SOL    HW1 9395   0.667   3.916   2.360
 2832SOL    HW2 9396   0.738   3.781   2.417
 2833SOL     OW 9397   0.144   2.292   2.454
 2833SOL    HW1 9398   0.215   2.289   2.524
 2833SOL    HW2 9399   0.180   2.339   2.373
 2834SOL     OW 9400   3.823   6.937   4.008
 2834SOL    HW1 9401   3.763   6.878   4.061
 2834SOL    HW2 9402   3.863   6.885   3.933
 2835SOL     OW 9403   6.764   0.680   6.803
 2835SOL    HW1 9404   6.842   0.699   6.744
 2835SOL    HW2 9405   6.722   0.593   6.776
 2836SOL     OW 9406   3.339   5.705   3.019
 2836SOL    HW1 9407   3.407   5.763   2.973
 2836SOL    HW2 9408   3.248   5.725   2.983
 2837SOL     OW 9409   5.132   4.356   1.885
 2837SOL    HW1 9410   5.187   4.277   1.912
 2837SOL    HW2 9411   5.050   4.325   1.838
 2838SOL     OW 9412   6.741   3.985   6.170
 2838SOL    HW1 9413   6.706   4.077   6.190
 2838SOL    HW2 9414   6.786   3.985   6.080
 2839SOL     OW 9415   5.792   3.035   5.382
 2839SOL    HW1 9416   5.745   3.012   5.297
 2839SOL    HW2 9417   5.888   3.057   5.362
 2840SOL     OW 9418   6.185   6.363   4.613
 2840SOL    HW1 9419   6.198   6.433   4.543
 2840SOL    HW2 9420   6.087   6.341   4.619
 2841SOL     OW 9421   5.765   4.145   2.275
 2841SOL    HW1 9422   5.739   4.134   2.371
 2841SOL    HW2 9423   5.862   4.171   2.270
 2842SOL     OW 9424   0.680   6.739   3.524
 2842SOL    HW1 9425   0.638   6.809   3.581
 2842SOL    HW2 9426   0.766   6.773   3.487
 2843SOL     OW 9427   2.002   2.809   3.612
 2843SOL    HW1 9428   2.034   2.832   3.704
 2843SOL    HW2 9429   1.912   2.851   3.596
 2844SOL     OW 9430   5.289   3.377   0.632
 2844SOL    HW1 9431   5.334   3.415   0.551
 2844SOL    HW2 9432   5.322   3.423   0.714
 2845SOL     OW 9433   2.907   1.630   1.575
 2845SOL    HW1 9434   3.002   1.661   1.568
 2845SOL    HW2 9435   2.856   1.694   1.633
 2846SOL     OW 9436   6.046   0.052   7.012
 2846SOL    HW1 9437   6.063   0.044   6.914
 2846SOL    HW2 9438   6.006   0.141   0.011
 2847SOL     OW 9439   4.589   5.184   0.870
 2847SOL    HW1 9440   4.538   5.150   0.949
 2847SOL    HW2 9441   4.547   5.148   0.786
 2848SOL     OW 9442   0.500   4.127   6.087
 2848SOL    HW1 9443   0.572   4.132   6.157
 2848SOL    HW2 9444   0.412   4.148   6.129
 2849SOL     OW 9445   5.200   1.063   1.457
 2849SOL    HW1 9446   5.298   1.043   1.463
 2849SOL    HW2 9447   5.180   1.146   1.508
 2850SOL     OW 9448   1.044   0.301   1.883
 2850SOL    HW1 9449   0.954   0.293   1.925
 2850SOL    HW2 9450   1.056   0.394   1.847
 2851SOL     OW 9451   3.227   2.933   1.400
 2851SOL    HW1 9452   3.241   3.012   1.341
 2851SOL    HW2 9453   3.149   2.880   1.367
 2852SOL     OW 9454   0.415   5.447   5.398
 2852SOL    HW1 9455   0.355   5.449   5.478
 2852SOL    HW2 9456   0.363   5.417   5.318
 2853SOL     OW 9457   0.459   4.454   5.426
 2853SOL    HW1 9458   0.415   4.414   5.506
 2853SOL    HW2 9459   0.396   4.451   5.348
 2854SOL     OW 9460   2.543   0.598   5.804
 2854SOL    HW1 9461   2.515   0.636   5.892
 2854SOL    HW2 9462   2.643   0.591   5.802
 2855SOL     OW 9463   2.392   1.570   4.358
 2855SOL    HW1 9464   2.407   1.637   4.286
 2855SOL    HW2 9465   2.322   1.603   4.421
 2856SOL     OW 9466   0.364   5.508   4.341
 2856SOL    HW1 9467   0.439   5.527   4.405
 2856SOL    HW2 9468   0.301   5.586   4.339
 2857SOL     OW 9469   6.555   4.349   1.025
 2857SOL    HW1 9470   6.640   4.360   1.077
 2857SOL    HW2 9471   6.559   4.405   0.942
 2858SOL     OW 9472   5.169   4.209   2.447
 2858SOL    HW1 9473   5.150   4.294   2.398
 2858SOL    HW2 9474   5.127   4.132   2.398
 2859SOL     OW 9475   6.187   4.947   1.731
 2859SOL    HW1 9476   6.093   4.941   1.763
 2859SOL    HW2 9477   6.236   5.015   1.785
 2860SOL     OW 9478   1.189   0.483   2.975
 2860SOL    HW1 9479   1.172   0.403   3.032
 2860SOL    HW2 9480   1.126   0.482   2.897
 2861SOL     OW 9481   5.204   4.424   6.038
 2861SOL    HW1 9482   5.170   4.512   6.005
 2861SOL    HW2 9483   5.127   4.366   6.064
 2862SOL     OW 9484   4.809   1.545   0.840
 2862SOL    HW1 9485   4.767   1.633   0.862
 2862SOL    HW2 9486   4.763   1.473   0.893
 2863SOL     OW 9487   5.772   2.135   5.429
 2863SOL    HW1 9488   5.813   2.226   5.419
 2863SOL    HW2 9489   5.673   2.145   5.445
 2864SOL     OW 9490   3.811   4.152   0.819
 2864SOL    HW1 9491   3.756   4.070   0.836
 2864SOL    HW2 9492   3.860   4.143   0.732
 2865SOL     OW 9493   5.725   5.308   5.361
 2865SOL    HW1 9494   5.802   5.286   5.421
 2865SOL    HW2 9495   5.641   5.271   5.400
 2866SOL     OW 9496   3.819   4.834   0.545
 2866SOL    HW1 9497   3.813   4.795   0.453
 2866SOL    HW2 9498   3.734   4.818   0.594
 2867SOL     OW 9499   5.905   6.493   3.133
 2867SOL    HW1 9500   5.929   6.537   3.220
 2867SOL    HW2 9501   5.986   6.452   3.093
 2868SOL     OW 9502   0.319   0.124   5.973
 2868SOL    HW1 9503   0.418   0.127   5.982
 2868SOL    HW2 9504   0.289   0.193   5.907
 2869SOL     OW 9505   6.366   4.416   4.103
 2869SOL    HW1 9506   6.337   4.360   4.181
 2869SOL    HW2 9507   6.457   4.453   4.120
 2870SOL     OW 9508   0.061   1.834   1.850
 2870SOL    HW1 9509   0.027   1.762   1.911
 2870SOL    HW2 9510   0.151   1.865   1.882
 2871SOL     OW 9511   5.235   1.242   3.162
 2871SOL    HW1 9512   5.252   1.217   3.257
 2871SOL    HW2 9513   5.261   1.166   3.102
 2872SOL     OW 9514   2.420   2.096   2.656
 2872SOL    HW1 9515   2.350   2.149   2.704
 2872SOL    HW2 9516   2.379   2.051   2.576
 2873SOL     OW 9517   1.435   6.990   1.396
 2873SOL    HW1 9518   1.456   0.001   1.488
 2873SOL    HW2 9519   1.503   6.923   1.367
 2874SOL     OW 9520   2.140   1.491   3.303
 2874SOL    HW1 9521   2.237   1.513   3.293
 2874SOL    HW2 9522   2.130   1.413   3.365
 2875SOL     OW 9523   2.413   0.085   3.149
 2875SOL    HW1 9524   2.441   7.018   3.112
 2875SOL    HW2 9525   2.324   0.077   3.194
 2876SOL     OW 9526   1.400   6.265   0.879
 2876SOL    HW1 9527   1.403   6.173   0.918
 2876SOL    HW2 9528   1.321   6.314   0.915
 2877SOL     OW 9529   1.800   2.570   5.199
 2877SOL    HW1 9530   1.816   2.657   5.152
 2877SOL    HW2 9531   1.870   2.558   5.270
 2878SOL     OW 9532   3.957   3.118   4.671
 2878SOL    HW1 9533   4.031   3.170   4.629
 2878SOL    HW2 9534   3.955   3.138   4.769
 2879SOL     OW 9535   5.446   4.906   0.106
 2879SOL    HW1 9536   5.432   4.873   0.013
 2879SOL    HW2 9537   5.360   4.944   0.141
 2880SOL     OW 9538   1.759   1.475   3.657
 2880SOL    HW1 9539   1.784   1.475   3.560
 2880SOL    HW2 9540   1.750   1.569   3.689
 2881SOL     OW 9541   5.253   4.837   0.601
 2881SOL    HW1 9542   5.173   4.866   0.654
 2881SOL    HW2 9543   5.300   4.764   0.650
 2882SOL     OW 9544   4.713   6.536   0.131
 2882SOL    HW1 9545   4.781   6.604   0.101
 2882SOL    HW2 9546   4.690   6.476   0.056
 2883SOL     OW 9547   5.435   6.549   3.658
 2883SOL    HW1 9548   5.529   6.517   3.641
 2883SOL    HW2 9549   5.422   6.564   3.756
 2884SOL     OW 9550   6.293   5.668   3.586
 2884SOL    HW1 9551   6.307   5.757   3.543
 2884SOL    HW2 9552   6.339   5.597   3.532
 2885SOL     OW 9553   1.365   2.777   3.955
 2885SOL    HW1 9554   1.283   2.834   3.946
 2885SOL    HW2 9555   1.423   2.788   3.875
 2886SOL     OW 9556   2.307   4.798   5.690
 2886SOL    HW1 9557   2.305   4.781   5.789
 2886SOL    HW2 9558   2.402   4.796   5.658
 2887SOL     OW 9559   6.813   5.787   2.931
 2887SOL    HW1 9560   6.842   5.883   2.932
 2887SOL    HW2 9561   6.837   5.745   2.843
 2888SOL     OW 9562   4.967   6.882   6.316
 2888SOL    HW1 9563   5.065   6.901   6.306
 2888SOL    HW2 9564   4.952   6.783   6.317
 2889SOL     OW 9565   4.563   6.082   4.222
 2889SOL    HW1 9566   4.478   6.133   4.231
 2889SOL    HW2 9567   4.581   6.031   4.306
 2890SOL     OW 9568   1.206   2.405   0.539
 2890SOL    HW1 9569   1.255   2.342   0.599
 2890SOL    HW2 9570   1.263   2.428   0.460
 2891SOL     OW 9571   0.548   1.892   5.175
 2891SOL    HW1 9572   0.492   1.966   5.138
 2891SOL    HW2 9573   0.574   1.915   5.269
 2892SOL     OW 9574   5.470   4.539   1.698
 2892SOL    HW1 9575   5.496   4.470   1.766
 2892SOL    HW2 9576   5.371   4.542   1.689
 2893SOL     OW 9577   6.922   5.653   5.178
 2893SOL    HW1 9578   6.954   5.690   5.265
 2893SOL    HW2 9579   6.980   5.576   5.150
 2894SOL     OW 9580   2.579   5.317   1.461
 2894SOL    HW1 9581   2.560   5.398   1.405
 2894SOL    HW2 9582   2.660   5.271   1.427
 2895SOL     OW 9583   3.956   6.952   5.727
 2895SOL    HW1 9584   3.882   7.013   5.697
 2895SOL    HW2 9585   4.026   6.948   5.655
 2896SOL     OW 9586   6.076   0.415   4.871
 2896SOL    HW1 9587   6.122   0.445   4.955
 2896SOL    HW2 9588   6.012   0.485   4.840
 2897SOL     OW 9589   3.401   5.023   3.085
 2897SOL    HW1 9590   3.467   5.001   3.014
 2897SOL    HW2 9591   3.312   4.984   3.061
 2898SOL     OW 9592   4.963   2.398   2.674
 2898SOL    HW1 9593   4.922   2.320   2.627
 2898SOL    HW2 9594   5.005   2.459   2.606
 2899SOL     OW 9595   6.618   3.501   0.741
 2899SOL    HW1 9596   6.658   3.577   0.791
 2899SOL    HW2 9597   6.664   3.416   0.766
 2900SOL     OW 9598   2.232   2.518   6.112
 2900SOL    HW1 9599   2.283   2.600   6.136
 2900SOL    HW2 9600   2.215   2.517   6.013
 2901SOL     OW 9601   0.951   3.916   2.579
 2901SOL    HW1 9602   0.905   3.916   2.490
 2901SOL    HW2 9603   0.979   3.823   2.602
 2902SOL     OW 9604   5.886   5.213   3.657
 2902SOL    HW1 9605   5.795   5.172   3.668
 2902SOL    HW2 9606   5.899   5.284   3.726
 2903SOL     OW 9607   6.329   4.486   0.553
 2903SOL    HW1 9608   6.248   4.481   0.611
 2903SOL    HW2 9609   6.330   4.573   0.504
 2904SOL     OW 9610   2.369   4.434   4.823
 2904SOL    HW1 9611   2.315   4.393   4.896
 2904SOL    HW2 9612   2.308   4.473   4.754
 2905SOL     OW 9613   2.014   5.346   1.251
 2905SOL    HW1 9614   1.941   5.368   1.316
 2905SOL    HW2 9615   1.978   5.284   1.181
 2906SOL     OW 9616   6.402   6.373   5.408
 2906SOL    HW1 9617   6.304   6.391   5.402
 2906SOL    HW2 9618   6.421   6.280   5.376
 2907SOL     OW 9619   0.629   1.145   4.942
 2907SOL    HW1 9620   0.615   1.237   4.980
 2907SOL    HW2 9621   0.725   1.119   4.956
 2908SOL     OW 9622   3.912   0.077   3.571
 2908SOL    HW1 9623   3.974   0.141   3.525
 2908SOL    HW2 9624   3.855   0.127   3.636
 2909SOL     OW 9625   0.056   6.910   1.531
 2909SOL    HW1 9626   0.040   6.861   1.445
 2909SOL    HW2 9627   0.154   6.918   1.547
 2910SOL     OW 9628   0.563   1.437   4.365
 2910SOL    HW1 9629   0.624   1.359   4.353
 2910SOL    HW2 9630   0.468   1.407   4.358
 2911SOL     OW 9631   0.307   4.347   5.609
 2911SOL    HW1 9632   0.333   4.389   5.696
 2911SOL    HW2 9633   0.312   4.247   5.617
 2912SOL     OW 9634   0.771   0.864   1.537
 2912SOL    HW1 9635   0.857   0.911   1.554
 2912SOL    HW2 9636   0.788   0.773   1.502
 2913SOL     OW 9637   1.817   6.654   3.072
 2913SOL    HW1 9638   1.890   6.693   3.127
 2913SOL    HW2 9639   1.852   6.576   3.020
 2914SOL     OW 9640   4.021   4.866   1.252
 2914SOL    HW1 9641   3.931   4.823   1.238
 2914SOL    HW2 9642   4.014   4.934   1.324
 2915SOL     OW 9643   2.686   0.394   4.157
 2915SOL    HW1 9644   2.612   0.442   4.109
 2915SOL    HW2 9645   2.774   0.432   4.130
 2916SOL     OW 9646   1.418   5.778   0.147
 2916SOL    HW1 9647   1.332   5.820   0.177
 2916SOL    HW2 9648   1.435   5.695   0.200
 2917SOL     OW 9649   2.832   6.753   2.649
 2917SOL    HW1 9650   2.755   6.690   2.649
 2917SOL    HW2 9651   2.810   6.833   2.592
 2918SOL     OW 9652   5.533   2.640   2.046
 2918SOL    HW1 9653   5.501   2.566   1.987
 2918SOL    HW2 9654   5.630   2.626   2.068
 2919SOL     OW 9655   0.049   5.988   4.748
 2919SOL    HW1 9656   0.033   6.075   4.701
 2919SOL    HW2 9657   7.006   5.978   4.824
 2920SOL     OW 9658   2.709   2.189   1.469
 2920SOL    HW1 9659   2.730   2.237   1.384
 2920SOL    HW2 9660   2.707   2.255   1.545
 2921SOL     OW 9661   1.210   6.371   3.671
 2921SOL    HW1 9662   1.131   6.433   3.668
 2921SOL    HW2 9663   1.275   6.397   3.600
 2922SOL     OW 9664   4.001   5.093   3.824
 2922SOL    HW1 9665   3.964   5.043   3.746
 2922SOL    HW2 9666   4.073   5.156   3.792
 2923SOL     OW 9667   0.596   5.739   4.788
 2923SOL    HW1 9668   0.609   5.838   4.789
 2923SOL    HW2 9669   0.577   5.706   4.880
 2924SOL     OW 9670   5.577   1.638   6.238
 2924SOL    HW1 9671   5.643   1.662   6.167
 2924SOL    HW2 9672   5.491   1.608   6.195
 2925SOL     OW 9673   5.814   6.638   4.740
 2925SOL    HW1 9674   5.745   6.642   4.813
 2925SOL    HW2 9675   5.895   6.592   4.774
 2926SOL     OW 9676   6.582   2.263   4.103
 2926SOL    HW1 9677   6.515   2.190   4.093
 2926SOL    HW2 9678   6.543   2.339   4.155
 2927SOL     OW 9679   1.293   2.323   2.400
 2927SOL    HW1 9680   1.286   2.299   2.303
 2927SOL    HW2 9681   1.328   2.245   2.451
 2928SOL     OW 9682   5.703   2.882   0.014
 2928SOL    HW1 9683   5.791   2.836   0.005
 2928SOL    HW2 9684   5.704   2.942   0.094
 2929SOL     OW 9685   1.989   2.407   4.127
 2929SOL    HW1 9686   2.031   2.496   4.113
 2929SOL    HW2 9687   1.981   2.389   4.225
 2930SOL     OW 9688   0.383   3.788   4.148
 2930SOL    HW1 9689   0.454   3.787   4.218
 2930SOL    HW2 9690   0.313   3.855   4.172
 2931SOL     OW 9691   5.655   4.904   5.760
 2931SOL    HW1 9692   5.671   4.863   5.850
 2931SOL    HW2 9693   5.623   4.998   5.772
 2932SOL     OW 9694   6.072   5.029   1.471
 2932SOL    HW1 9695   6.167   5.001   1.486
 2932SOL    HW2 9696   6.070   5.111   1.414
 2933SOL     OW 9697   1.120   6.924   0.383
 2933SOL    HW1 9698   1.200   6.956   0.332
 2933SOL    HW2 9699   1.085   6.998   0.440
 2934SOL     OW 9700   4.620   5.159   1.831
 2934SOL    HW1 9701   4.680   5.079   1.841
 2934SOL    HW2 9702   4.530   5.128   1.801
 2935SOL     OW 9703   0.774   2.645   5.875
 2935SOL    HW1 9704   0.778   2.745   5.886
 2935SOL    HW2 9705   0.699   2.609   5.930
 2936SOL     OW 9706   4.928   7.010   2.245
 2936SOL    HW1 9707   4.994   6.956   2.297
 2936SOL    HW2 9708   4.884   6.951   2.176
 2937SOL     OW 9709   5.666   3.893   3.193
 2937SOL    HW1 9710   5.678   3.982   3.149
 2937SOL    HW2 9711   5.569   3.877   3.209
 2938SOL     OW 9712   0.497   5.425   6.834
 2938SOL    HW1 9713   0.510   5.517   6.870
 2938SOL    HW2 9714   0.491   5.360   6.910
 2939SOL     OW 9715   0.182   5.802   1.410
 2939SOL    HW1 9716   0.187   5.879   1.474
 2939SOL    HW2 9717   0.086   5.781   1.391
 2940SOL     OW 9718   4.755   6.515   3.779
 2940SOL    HW1 9719   4.666   6.522   3.734
 2940SOL    HW2 9720   4.825   6.491   3.712
 2941SOL     OW 9721   2.239   4.716   2.777
 2941SOL    HW1 9722   2.210   4.620   2.769
 2941SOL    HW2 9723   2.248   4.740   2.873
 2942SOL     OW 9724   3.610   2.113   1.701
 2942SOL    HW1 9725   3.618   2.209   1.730
 2942SOL    HW2 9726   3.513   2.090   1.690
 2943SOL     OW 9727   5.904   3.461   3.091
 2943SOL    HW1 9728   5.846   3.388   3.055
 2943SOL    HW2 9729   5.950   3.429   3.173
 2944SOL     OW 9730   1.704   5.873   2.412
 2944SOL    HW1 9731   1.795   5.834   2.394
 2944SOL    HW2 9732   1.681   5.937   2.339
 2945SOL     OW 9733   5.140   3.568   1.457
 2945SOL    HW1 9734   5.183   3.598   1.543
 2945SOL    HW2 9735   5.077   3.638   1.426
 2946SOL     OW 9736   3.608   2.965   4.338
 2946SOL    HW1 9737   3.633   2.943   4.244
 2946SOL    HW2 9738   3.686   3.006   4.385
 2947SOL     OW 9739   6.108   5.436   0.942
 2947SOL    HW1 9740   6.026   5.435   0.999
 2947SOL    HW2 9741   6.164   5.356   0.963
 2948SOL     OW 9742   0.120   3.636   1.804
 2948SOL    HW1 9743   0.102   3.589   1.891
 2948SOL    HW2 9744   0.147   3.731   1.823
 2949SOL     OW 9745   1.993   6.285   0.500
 2949SOL    HW1 9746   1.903   6.320   0.525
 2949SOL    HW2 9747   2.055   6.361   0.483
 2950SOL     OW 9748   6.219   5.666   2.469
 2950SOL    HW1 9749   6.284   5.671   2.545
 2950SOL    HW2 9750   6.268   5.672   2.382
 2951SOL     OW 9751   0.859   1.753   1.283
 2951SOL    HW1 9752   0.950   1.727   1.313
 2951SOL    HW2 9753   0.794   1.739   1.357
 2952SOL     OW 9754   0.070   2.013   5.252
 2952SOL    HW1 9755   0.062   2.098   5.200
 2952SOL    HW2 9756   0.165   2.000   5.282
 2953SOL     OW 9757   1.441   5.374   3.022
 2953SOL    HW1 9758   1.347   5.383   2.988
 2953SOL    HW2 9759   1.466   5.457   3.073
 2954SOL     OW 9760   0.586   4.160   6.404
 2954SOL    HW1 9761   0.684   4.166   6.389
 2954SOL    HW2 9762   0.566   4.081   6.462
 2955SOL     OW 9763   1.561   4.583   6.066
 2955SOL    HW1 9764   1.612   4.497   6.057
 2955SOL    HW2 9765   1.463   4.566   6.054
 2956SOL     OW 9766   5.268   4.574   4.610
 2956SOL    HW1 9767   5.358   4.573   4.568
 2956SOL    HW2 9768   5.198   4.562   4.540
 2957SOL     OW 9769   2.391   5.615   1.545
 2957SOL    HW1 9770   2.407   5.686   1.476
 2957SOL    HW2 9771   2.479   5.577   1.573
 2958SOL     OW 9772   1.630   4.013   2.050
 2958SOL    HW1 9773   1.688   3.935   2.074
 2958SOL    HW2 9774   1.539   4.000   2.088
 2959SOL     OW 9775   0.122   3.557   3.800
 2959SOL    HW1 9776   0.166   3.546   3.890
 2959SOL    HW2 9777   0.132   3.651   3.770
 2960SOL     OW 9778   5.027   6.591   1.384
 2960SOL    HW1 9779   4.993   6.620   1.295
 2960SOL    HW2 9780   4.978   6.508   1.413
 2961SOL     OW 9781   5.540   2.452   1.813
 2961SOL    HW1 9782   5.573   2.493   1.728
 2961SOL    HW2 9783   5.589   2.367   1.830
 2962SOL     OW 9784   6.854   0.060   3.854
 2962SOL    HW1 9785   6.915   0.122   3.904
 2962SOL    HW2 9786   6.768   0.107   3.833
 2963SOL     OW 9787   1.689   0.817   4.884
 2963SOL    HW1 9788   1.602   0.867   4.881
 2963SOL    HW2 9789   1.761   0.875   4.847
 2964SOL     OW 9790   1.653   0.740   6.556
 2964SOL    HW1 9791   1.679   0.739   6.652
 2964SOL    HW2 9792   1.718   0.683   6.504
 2965SOL     OW 9793   6.323   0.276   6.342
 2965SOL    HW1 9794   6.412   0.305   6.376
 2965SOL    HW2 9795   6.334   0.194   6.285
 2966SOL     OW 9796   2.884   5.339   2.533
 2966SOL    HW1 9797   2.931   5.280   2.599
 2966SOL    HW2 9798   2.951   5.378   2.470
 2967SOL     OW 9799   5.644   6.862   5.153
 2967SOL    HW1 9800   5.625   6.918   5.073
 2967SOL    HW2 9801   5.719   6.902   5.206
 2968SOL     OW 9802   1.056   3.706   0.811
 2968SOL    HW1 9803   1.069   3.648   0.891
 2968SOL    HW2 9804   0.977   3.765   0.825
 2969SOL     OW 9805   4.739   2.617   5.050
 2969SOL    HW1 9806   4.728   2.524   5.086
 2969SOL    HW2 9807   4.673   2.632   4.976
 2970SOL     OW 9808   2.700   2.622   5.654
 2970SOL    HW1 9809   2.732   2.638   5.561
 2970SOL    HW2 9810   2.712   2.705   5.709
 2971SOL     OW 9811   4.854   3.054   6.814
 2971SOL    HW1 9812   4.935   3.062   6.756
 2971SOL    HW2 9813   4.870   2.985   6.884
 2972SOL     OW 9814   6.738   5.506   6.119
 2972SOL    HW1 9815   6.834   5.484   6.102
 2972SOL    HW2 9816   6.728   5.606   6.123
 2973SOL     OW 9817   5.537   0.949   4.443
 2973SOL    HW1 9818   5.516   1.038   4.404
 2973SOL    HW2 9819   5.517   0.878   4.375
 2974SOL     OW 9820   4.859   6.819   2.075
 2974SOL    HW1 9821   4.931   6.753   2.096
 2974SOL    HW2 9822   4.840   6.817   1.977
 2975SOL     OW 9823   6.344   3.511   4.722
 2975SOL    HW1 9824   6.394   3.437   4.767
 2975SOL    HW2 9825   6.268   3.540   4.780
 2976SOL     OW 9826   3.481   1.171   1.318
 2976SOL    HW1 9827   3.481   1.136   1.412
 2976SOL    HW2 9828   3.558   1.233   1.305
 2977SOL     OW 9829   1.124   0.503   1.701
 2977SOL    HW1 9830   1.047   0.512   1.637
 2977SOL    HW2 9831   1.188   0.435   1.665
 2978SOL     OW 9832   3.906   5.465   6.706
 2978SOL    HW1 9833   3.999   5.496   6.684
 2978SOL    HW2 9834   3.891   5.375   6.663
 2979SOL     OW 9835   2.981   0.969   4.968
 2979SOL    HW1 9836   2.887   0.974   5.000
 2979SOL    HW2 9837   3.036   1.038   5.016
 2980SOL     OW 9838   3.182   3.009   4.377
 2980SOL    HW1 9839   3.245   2.984   4.304
 2980SOL    HW2 9840   3.099   3.048   4.338
 2981SOL     OW 9841   2.259   1.582   1.438
 2981SOL    HW1 9842   2.226   1.619   1.525
 2981SOL    HW2 9843   2.284   1.486   1.451
 2982SOL     OW 9844   1.856   0.949   1.232
 2982SOL    HW1 9845   1.929   1.017   1.245
 2982SOL    HW2 9846   1.801   0.974   1.152
 2983SOL     OW 9847   6.368   3.390   5.891
 2983SOL    HW1 9848   6.278   3.414   5.854
 2983SOL    HW2 9849   6.433   3.464   5.872
 2984SOL     OW 9850   0.435   6.066   1.490
 2984SOL    HW1 9851   0.517   6.017   1.520
 2984SOL    HW2 9852   0.367   6.065   1.563
 2985SOL     OW 9853   6.232   0.619   6.866
 2985SOL    HW1 9854   6.330   0.630   6.883
 2985SOL    HW2 9855   6.192   0.559   6.936
 2986SOL     OW 9856   3.603   3.180   1.897
 2986SOL    HW1 9857   3.663   3.101   1.910
 2986SOL    HW2 9858   3.563   3.176   1.805
 2987SOL     OW 9859   2.425   6.094   4.762
 2987SOL    HW1 9860   2.433   6.003   4.803
 2987SOL    HW2 9861   2.511   6.144   4.776
 2988SOL     OW 9862   6.518   1.860   5.605
 2988SOL    HW1 9863   6.469   1.777   5.580
 2988SOL    HW2 9864   6.455   1.927   5.644
 2989SOL     OW 9865   5.638   3.562   4.596
 2989SOL    HW1 9866   5.563   3.503   4.625
 2989SOL    HW2 9867   5.720   3.541   4.650
 2990SOL     OW 9868   5.153   2.044   5.206
 2990SOL    HW1 9869   5.215   1.995   5.268
 2990SOL    HW2 9870   5.130   2.133   5.246
 2991SOL     OW 9871   0.212   3.397   0.086
 2991SOL    HW1 9872   0.139   3.373   0.150
 2991SOL    HW2 9873   0.180   3.467   0.023
 2992SOL     OW 9874   0.672   3.804   4.967
 2992SOL    HW1 9875   0.674   3.801   4.868
 2992SOL    HW2 9876   0.577   3.810   4.999
 2993SOL     OW 9877   3.216   4.614   1.225
 2993SOL    HW1 9878   3.244   4.523   1.256
 2993SOL    HW2 9879   3.296   4.668   1.201
 2994SOL     OW 9880   2.923   5.263   4.615
 2994SOL    HW1 9881   3.002   5.204   4.635
 2994SOL    HW2 9882   2.850   5.208   4.577
 2995SOL     OW 9883   4.606   0.762   1.626
 2995SOL    HW1 9884   4.614   0.715   1.714
 2995SOL    HW2 9885   4.659   0.714   1.557
 2996SOL     OW 9886   6.688   1.146   4.112
 2996SOL    HW1 9887   6.731   1.146   4.202
 2996SOL    HW2 9888   6.664   1.052   4.086
 2997SOL     OW 9889   5.030   6.285   4.177
 2997SOL    HW1 9890   4.994   6.330   4.096
 2997SOL    HW2 9891   5.087   6.349   4.229
 2998SOL     OW 9892   2.523   0.863   1.830
 2998SOL    HW1 9893   2.466   0.944   1.819
 2998SOL    HW2 9894   2.476   0.797   1.889
 2999SOL     OW 9895   1.791   4.163   0.988
 2999SOL    HW1 9896   1.888   4.142   1.002
 2999SOL    HW2 9897   1.744   4.084   0.949
 3000SOL     OW 9898   2.088   4.279   5.368
 3000SOL    HW1 9899   2.115   4.375   5.365
 3000SOL    HW2 9900   2.169   4.221   5.358
 3001SOL     OW 9901   4.002   0.755   6.288
 3001SOL    HW1 9902   3.967   0.787   6.200
 3001SOL    HW2 9903   3.927   0.748   6.354
 3002SOL     OW 9904   1.568   1.893   1.827
 3002SOL    HW1 9905   1.580   1.912   1.925
 3002SOL    HW2 9906   1.502   1.819   1.816
 3003SOL     OW 9907   1.580   5.974   0.945
 3003SOL    HW1 9908   1.648   5.938   0.882
 3003SOL    HW2 9909   1.551   5.901   1.008
 3004SOL     OW 9910   2.772   6.839   4.061
 3004SOL    HW1 9911   2.826   6.899   4.003
 3004SOL    HW2 9912   2.694   6.890   4.100
 3005SOL     OW 9913   2.382   1.708   0.813
 3005SOL    HW1 9914   2.390   1.784   0.878
 3005SOL    HW2 9915   2.417   1.624   0.855
 3006SOL     OW 9916   5.433   1.306   5.700
 3006SOL    HW1 9917   5.524   1.276   5.729
 3006SOL    HW2 9918   5.371   1.227   5.700
 3007SOL     OW 9919   6.182   5.581   6.411
 3007SOL    HW1 9920   6.161   5.497   6.461
 3007SOL    HW2 9921   6.154   5.570   6.316
 3008SOL     OW 9922   4.848   3.976   5.528
 3008SOL    HW1 9923   4.903   3.995   5.447
 3008SOL    HW2 9924   4.856   3.879   5.552
 3009SOL     OW 9925   5.518   3.367   2.014
 3009SOL    HW1 9926   5.577   3.359   1.934
 3009SOL    HW2 9927   5.504   3.463   2.036
 3010SOL     OW 9928   4.806   4.950   1.933
 3010SOL    HW1 9929   4.860   4.951   2.017
 3010SOL    HW2 9930   4.744   4.871   1.935
 3011SOL     OW 9931   6.155   0.256   0.610
 3011SOL    HW1 9932   6.102   0.335   0.640
 3011SOL    HW2 9933   6.136   0.178   0.670
 3012SOL     OW 9934   1.912   1.840   4.781
 3012SOL    HW1 9935   1.980   1.788   4.833
 3012SOL    HW2 9936   1.822   1.799   4.794
 3013SOL     OW 9937   0.807   5.076   5.760
 3013SOL    HW1 9938   0.807   5.016   5.681
 3013SOL    HW2 9939   0.885   5.055   5.819
 3014SOL     OW 9940   4.924   0.092   6.619
 3014SOL    HW1 9941   4.840   0.039   6.602
 3014SOL    HW2 9942   4.902   0.170   6.677
 3015SOL     OW 9943   2.121   0.685   5.820
 3015SOL    HW1 9944   2.155   0.750   5.752
 3015SOL    HW2 9945   2.162   0.706   5.909
 3016SOL     OW 9946   2.087   0.675   4.046
 3016SOL    HW1 9947   2.068   0.662   4.143
 3016SOL    HW2 9948   2.105   0.586   4.003
 3017SOL     OW 9949   1.304   5.808   0.488
 3017SOL    HW1 9950   1.277   5.851   0.402
 3017SOL    HW2 9951   1.225   5.763   0.529
 3018SOL     OW 9952   3.249   1.714   1.901
 3018SOL    HW1 9953   3.246   1.627   1.951
 3018SOL    HW2 9954   3.343   1.733   1.872
 3019SOL     OW 9955   1.567   0.053   5.961
 3019SOL    HW1 9956   1.610   0.052   5.871
 3019SOL    HW2 9957   1.620   0.112   6.022
 3020SOL     OW 9958   5.452   4.771   6.882
 3020SOL    HW1 9959   5.462   4.726   6.794
 3020SOL    HW2 9960   5.542   4.784   6.924
 3021SOL     OW 9961   4.543   0.464   4.643
 3021SOL    HW1 9962   4.574   0.487   4.735
 3021SOL    HW2 9963   4.556   0.542   4.582
 3022SOL     OW 9964   4.173   6.036   3.917
 3022SOL    HW1 9965   4.229   6.106   3.874
 3022SOL    HW2 9966   4.180   6.043   4.016
 3023SOL     OW 9967   5.943   4.677   4.918
 3023SOL    HW1 9968   5.922   4.588   4.959
 3023SOL    HW2 9969   5.947   4.667   4.818
 3024SOL     OW 9970   0.293   0.853   0.147
 3024SOL    HW1 9971   0.253   0.943   0.129
 3024SOL    HW2 9972   0.361   0.861   0.220
 3025SOL     OW 9973   4.270   5.317   0.736
 3025SOL    HW1 9974   4.334   5.370   0.790
 3025SOL    HW2 9975   4.284   5.337   0.639
 3026SOL     OW 9976   0.579   0.585   2.217
 3026SOL    HW1 9977   0.541   0.599   2.308
 3026SOL    HW2 9978   0.517   0.623   2.148
 3027SOL     OW 9979   4.021   6.727   0.657
 3027SOL    HW1 9980   4.100   6.731   0.595
 3027SOL    HW2 9981   4.037   6.658   0.727
 3028SOL     OW 9982   3.380   3.554   4.659
 3028SOL    HW1 9983   3.330   3.635   4.628
 3028SOL    HW2 9984   3.459   3.539   4.600
 3029SOL     OW 9985   6.687   3.527   4.763
 3029SOL    HW1 9986   6.744   3.531   4.845
 3029SOL    HW2 9987   6.613   3.594   4.771
 3030SOL     OW 9988   1.514   2.991   6.555
 3030SOL    HW1 9989   1.508   2.957   6.649
 3030SOL    HW2 9990   1.587   2.942   6.506
 3031SOL     OW 9991   0.551   5.300   0.923
 3031SOL    HW1 9992   0.607   5.378   0.951
 3031SOL    HW2 9993   0.553   5.293   0.823
 3032SOL     OW 9994   2.552   6.785   3.730
 3032SOL    HW1 9995   2.516   6.865   3.777
 3032SOL    HW2 9996   2.651   6.795   3.718
 3033SOL     OW 9997   1.426   1.843   5.909
 3033SOL    HW1 9998   1.471   1.872   5.825
 3033SOL    HW2 9999   1.334   1.883   5.913
 3034SOL     OW10000   5.207   3.239   3.275
 3034SOL    HW110001   5.293   3.188   3.281
 3034SOL    HW210002   5.218   3.317   3.214
 3035SOL     OW10003   6.957   3.699   6.693
 3035SOL    HW110004   6.968   3.773   6.759
 3035SOL    HW210005   6.935   3.614   6.741
 3036SOL     OW10006   3.583   2.764   6.106
 3036SOL    HW110007   3.569   2.806   6.016
 3036SOL    HW210008   3.509   2.700   6.124
 3037SOL     OW10009   1.145   5.290   6.850
 3037SOL    HW110010   1.229   5.237   6.848
 3037SOL    HW210011   1.121   5.312   6.944
 3038SOL     OW10012   5.954   5.400   6.313
 3038SOL    HW110013   6.012   5.346   6.374
 3038SOL    HW210014   6.008   5.432   6.235
 3039SOL     OW10015   5.510   3.993   5.728
 3039SOL    HW110016   5.598   4.029   5.697
 3039SOL    HW210017   5.493   4.021   5.822
 3040SOL     OW10018   4.557   5.930   6.009
 3040SOL    HW110019   4.595   5.914   5.918
 3040SOL    HW210020   4.546   6.029   6.024
 3041SOL     OW10021   1.231   4.811   6.008
 3041SOL    HW110022   1.316   4.839   6.052
 3041SOL    HW210023   1.246   4.726   5.958
 3042SOL     OW10024   0.238   5.004   3.765
 3042SOL    HW110025   0.283   4.941   3.828
 3042SOL    HW210026   0.185   5.071   3.818
 3043SOL     OW10027   2.814   4.732   1.493
 3043SOL    HW110028   2.878   4.798   1.532
 3043SOL    HW210029   2.864   4.658   1.448
 3044SOL     OW10030   3.822   3.422   4.621
 3044SOL    HW110031   3.802   3.333   4.579
 3044SOL    HW210032   3.825   3.412   4.721
 3045SOL     OW10033   5.292   1.342   2.339
 3045SOL    HW110034   5.318   1.304   2.250
 3045SOL    HW210035   5.362   1.321   2.406
 3046SOL     OW10036   5.954   6.605   1.646
 3046SOL    HW110037   5.884   6.579   1.712
 3046SOL    HW210038   6.045   6.594   1.687
 3047SOL     OW10039   6.622   1.386   4.311
 3047SOL    HW110040   6.672   1.332   4.379
 3047SOL    HW210041   6.524   1.365   4.318
 3048SOL     OW10042   4.508   4.703   1.659
 3048SOL    HW110043   4.487   4.605   1.663
 3048SOL    HW210044   4.593   4.716   1.608
 3049SOL     OW10045   0.904   1.622   2.576
 3049SOL    HW110046   0.811   1.600   2.546
 3049SOL    HW210047   0.902   1.707   2.629
 3050SOL     OW10048   3.269   1.990   6.429
 3050SOL    HW110049   3.283   2.069   6.369
 3050SOL    HW210050   3.356   1.940   6.437
 3051SOL     OW10051   2.490   5.222   5.664
 3051SOL    HW110052   2.549   5.285   5.717
 3051SOL    HW210053   2.430   5.275   5.605
 3052SOL     OW10054   0.039   6.527   3.881
 3052SOL    HW110055   0.074   6.603   3.827
 3052SOL    HW210056   6.974   6.495   3.843
 3053SOL     OW10057   0.841   4.071   6.852
 3053SOL    HW110058   0.840   4.120   6.765
 3053SOL    HW210059   0.767   4.003   6.853
 3054SOL     OW10060   5.789   0.230   2.950
 3054SOL    HW110061   5.777   0.144   2.900
 3054SOL    HW210062   5.795   0.211   3.048
 3055SOL     OW10063   5.740   6.387   0.604
 3055SOL    HW110064   5.706   6.295   0.623
 3055SOL    HW210065   5.778   6.427   0.688
 3056SOL     OW10066   4.255   1.250   6.842
 3056SOL    HW110067   4.241   1.281   6.748
 3056SOL    HW210068   4.314   1.170   6.842
 3057SOL     OW10069   5.490   3.673   3.499
 3057SOL    HW110070   5.440   3.631   3.575
 3057SOL    HW210071   5.496   3.608   3.423
 3058SOL     OW10072   0.293   5.530   6.108
 3058SOL    HW110073   0.358   5.455   6.118
 3058SOL    HW210074   0.200   5.493   6.103
 3059SOL     OW10075   1.314   2.427   1.895
 3059SOL    HW110076   1.236   2.473   1.852
 3059SOL    HW210077   1.320   2.333   1.861
 3060SOL     OW10078   5.598   4.300   3.759
 3060SOL    HW110079   5.563   4.207   3.766
 3060SOL    HW210080   5.624   4.319   3.665
 3061SOL     OW10081   5.748   6.879   3.474
 3061SOL    HW110082   5.833   6.856   3.425
 3061SOL    HW210083   5.684   6.803   3.465
 3062SOL     OW10084   3.944   5.120   1.347
 3062SOL    HW110085   3.906   5.151   1.260
 3062SOL    HW210086   3.884   5.150   1.422
 3063SOL     OW10087   6.676   4.855   1.358
 3063SOL    HW110088   6.712   4.762   1.351
 3063SOL    HW210089   6.638   4.869   1.450
 3064SOL     OW10090   4.725   2.214   6.458
 3064SOL    HW110091   4.725   2.258   6.548
 3064SOL    HW210092   4.756   2.279   6.389
 3065SOL     OW10093   5.682   1.273   6.222
 3065SOL    HW110094   5.766   1.220   6.211
 3065SOL    HW210095   5.702   1.358   6.271
 3066SOL     OW10096   5.366   6.961   5.528
 3066SOL    HW110097   5.427   0.018   5.541
 3066SOL    HW210098   5.389   6.889   5.594
 3067SOL     OW10099   1.229   2.126   4.788
 3067SOL    HW110100   1.212   2.055   4.857
 3067SOL    HW210101   1.250   2.212   4.833
 3068SOL     OW10102   6.321   0.312   0.401
 3068SOL    HW110103   6.400   0.251   0.400
 3068SOL    HW210104   6.268   0.295   0.485
 3069SOL     OW10105   5.316   6.235   3.971
 3069SOL    HW110106   5.253   6.157   3.962
 3069SOL    HW210107   5.325   6.259   4.068
 3070SOL     OW10108   2.371   1.064   1.158
 3070SOL    HW110109   2.347   1.069   1.255
 3070SOL    HW210110   2.460   1.108   1.144
 3071SOL     OW10111   5.866   4.680   5.249
 3071SOL    HW110112   5.775   4.662   5.212
 3071SOL    HW210113   5.910   4.753   5.196
 3072SOL     OW10114   1.867   6.574   6.093
 3072SOL    HW110115   1.807   6.598   6.016
 3072SOL    HW210116   1.934   6.646   6.107
 3073SOL     OW10117   6.965   6.028   2.007
 3073SOL    HW110118   6.944   6.067   1.917
 3073SOL    HW210119   0.023   5.967   2.000
 3074SOL     OW10120   3.426   2.706   1.667
 3074SOL    HW110121   3.433   2.771   1.592
 3074SOL    HW210122   3.344   2.650   1.654
 3075SOL     OW10123   4.109   4.966   1.519
 3075SOL    HW110124   4.017   4.936   1.544
 3075SOL    HW210125   4.114   5.066   1.525
 3076SOL     OW10126   0.772   1.238   4.393
 3076SOL    HW110127   0.774   1.172   4.317
 3076SOL    HW210128   0.853   1.295   4.389
 3077SOL     OW10129   6.280   3.584   1.550
 3077SOL    HW110130   6.183   3.559   1.550
 3077SOL    HW210131   6.291   3.678   1.519
 3078SOL     OW10132   0.007   3.515   2.013
 3078SOL    HW110133   6.988   3.571   2.085
 3078SOL    HW210134   7.008   3.419   2.030
 3079SOL     OW10135   1.974   4.280   4.312
 3079SOL    HW110136   1.949   4.316   4.402
 3079SOL    HW210137   2.055   4.223   4.320
 3080SOL     OW10138   4.521   4.896   1.429
 3080SOL    HW110139   4.520   4.867   1.333
 3080SOL    HW210140   4.590   4.966   1.442
 3081SOL     OW10141   2.382   3.687   6.161
 3081SOL    HW110142   2.431   3.677   6.247
 3081SOL    HW210143   2.283   3.687   6.178
 3082SOL     OW10144   5.236   4.357   5.040
 3082SOL    HW110145   5.137   4.349   5.054
 3082SOL    HW210146   5.284   4.320   5.119
 3083SOL     OW10147   3.557   5.519   2.077
 3083SOL    HW110148   3.475   5.520   2.020
 3083SOL    HW210149   3.636   5.543   2.022
 3084SOL     OW10150   6.733   5.315   3.529
 3084SOL    HW110151   6.822   5.336   3.489
 3084SOL    HW210152   6.670   5.288   3.456
 3085SOL     OW10153   5.849   5.473   0.025
 3085SOL    HW110154   5.893   5.384   0.013
 3085SOL    HW210155   5.828   5.488   0.121
 3086SOL     OW10156   6.335   6.061   6.542
 3086SOL    HW110157   6.297   6.093   6.629
 3086SOL    HW210158   6.282   5.983   6.509
 3087SOL     OW10159   3.677   0.329   2.438
 3087SOL    HW110160   3.714   0.405   2.490
 3087SOL    HW210161   3.648   0.361   2.348
 3088SOL     OW10162   2.087   3.796   5.736
 3088SOL    HW110163   2.086   3.891   5.704
 3088SOL    HW210164   2.172   3.778   5.786
 3089SOL     OW10165   4.281   5.574   5.962
 3089SOL    HW110166   4.257   5.653   5.906
 3089SOL    HW210167   4.381   5.567   5.970
 3090SOL     OW10168   0.686   2.502   2.298
 3090SOL    HW110169   0.680   2.581   2.238
 3090SOL    HW210170   0.711   2.421   2.245
 3091SOL     OW10171   1.084   2.650   0.717
 3091SOL    HW110172   1.098   2.552   0.702
 3091SOL    HW210173   1.089   2.670   0.815
 3092SOL     OW10174   5.958   1.215   1.929
 3092SOL    HW110175   5.903   1.205   2.012
 3092SOL    HW210176   6.024   1.140   1.923
 3093SOL     OW10177   6.424   5.657   6.537
 3093SOL    HW110178   6.335   5.661   6.490
 3093SOL    HW210179   6.474   5.576   6.506
 3094SOL     OW10180   2.203   1.463   6.673
 3094SOL    HW110181   2.292   1.431   6.643
 3094SOL    HW210182   2.212   1.554   6.713
 3095SOL     OW10183   1.610   3.939   4.950
 3095SOL    HW110184   1.592   3.841   4.943
 3095SOL    HW210185   1.667   3.968   4.873
 3096SOL     OW10186   1.202   3.313   4.119
 3096SOL    HW110187   1.294   3.341   4.093
 3096SOL    HW210188   1.149   3.393   4.148
 3097SOL     OW10189   5.536   2.709   5.080
 3097SOL    HW110190   5.471   2.722   5.005
 3097SOL    HW210191   5.494   2.654   5.152
 3098SOL     OW10192   1.861   3.158   2.663
 3098SOL    HW110193   1.800   3.237   2.676
 3098SOL    HW210194   1.807   3.074   2.663
 3099SOL     OW10195   0.272   0.096   5.434
 3099SOL    HW110196   0.219   0.175   5.463
 3099SOL    HW210197   0.283   0.097   5.335
 3100SOL     OW10198   5.763   4.741   1.710
 3100SOL    HW110199   5.671   4.778   1.713
 3100SOL    HW210200   5.760   4.644   1.685
 3101SOL     OW10201   5.046   0.077   5.128
 3101SOL    HW110202   5.126   0.082   5.187
 3101SOL    HW210203   4.963   0.083   5.183
 3102SOL     OW10204   6.236   4.610   2.471
 3102SOL    HW110205   6.218   4.543   2.543
 3102SOL    HW210206   6.149   4.637   2.429
 3103SOL     OW10207   2.018   1.937   1.669
 3103SOL    HW110208   1.976   2.028   1.679
 3103SOL    HW210209   2.007   1.906   1.575
 3104SOL     OW10210   5.335   2.527   5.249
 3104SOL    HW110211   5.256   2.485   5.294
 3104SOL    HW210212   5.400   2.560   5.317
 3105SOL     OW10213   5.386   3.806   0.449
 3105SOL    HW110214   5.477   3.842   0.430
 3105SOL    HW210215   5.320   3.844   0.383
 3106SOL     OW10216   5.446   1.705   5.278
 3106SOL    HW110217   5.480   1.763   5.204
 3106SOL    HW210218   5.455   1.609   5.252
 3107SOL     OW10219   3.431   1.939   5.130
 3107SOL    HW110220   3.414   1.996   5.050
 3107SOL    HW210221   3.529   1.921   5.139
 3108SOL     OW10222   2.269   4.092   3.441
 3108SOL    HW110223   2.355   4.073   3.393
 3108SOL    HW210224   2.231   4.178   3.408
 3109SOL     OW10225   6.948   6.351   3.514
 3109SOL    HW110226   0.023   6.326   3.526
 3109SOL    HW210227   6.911   6.385   3.601
 3110SOL     OW10228   1.093   5.581   3.597
 3110SOL    HW110229   1.066   5.650   3.664
 3110SOL    HW210230   1.147   5.510   3.642
 3111SOL     OW10231   5.907   3.927   3.928
 3111SOL    HW110232   5.925   4.021   3.901
 3111SOL    HW210233   5.811   3.905   3.912
 3112SOL     OW10234   4.091   0.877   6.984
 3112SOL    HW110235   4.141   0.856   6.899
 3112SOL    HW210236   4.086   0.976   6.996
 3113SOL     OW10237   1.610   6.736   3.427
 3113SOL    HW110238   1.536   6.680   3.390
 3113SOL    HW210239   1.633   6.809   3.363
 3114SOL     OW10240   4.706   0.226   5.673
 3114SOL    HW110241   4.657   0.154   5.624
 3114SOL    HW210242   4.643   0.300   5.696
 3115SOL     OW10243   5.672   5.707   5.052
 3115SOL    HW110244   5.724   5.691   4.969
 3115SOL    HW210245   5.584   5.749   5.029
 3116SOL     OW10246   0.774   1.144   6.236
 3116SOL    HW110247   0.868   1.114   6.255
 3116SOL    HW210248   0.773   1.243   6.220
 3117SOL     OW10249   4.521   0.112   1.089
 3117SOL    HW110250   4.532   0.047   1.013
 3117SOL    HW210251   4.541   0.066   1.175
 3118SOL     OW10252   1.721   1.754   3.776
 3118SOL    HW110253   1.702   1.766   3.874
 3118SOL    HW210254   1.683   1.831   3.725
 3119SOL     OW10255   5.043   5.828   4.613
 3119SOL    HW110256   4.996   5.843   4.526
 3119SOL    HW210257   5.106   5.903   4.631
 3120SOL     OW10258   2.258   5.059   6.582
 3120SOL    HW110259   2.321   5.030   6.654
 3120SOL    HW210260   2.274   5.003   6.500
 3121SOL     OW10261   4.551   2.476   4.320
 3121SOL    HW110262   4.452   2.464   4.313
 3121SOL    HW210263   4.587   2.512   4.234
 3122SOL     OW10264   5.683   5.249   6.066
 3122SOL    HW110265   5.781   5.245   6.049
 3122SOL    HW210266   5.655   5.172   6.124
 3123SOL     OW10267   1.764   1.698   2.882
 3123SOL    HW110268   1.667   1.709   2.903
 3123SOL    HW210269   1.818   1.757   2.942
 3124SOL     OW10270   4.474   0.152   4.859
 3124SOL    HW110271   4.467   0.117   4.952
 3124SOL    HW210272   4.541   0.097   4.809
 3125SOL     OW10273   1.891   1.390   6.061
 3125SOL    HW110274   1.791   1.385   6.066
 3125SOL    HW210275   1.929   1.297   6.057
 3126SOL     OW10276   4.803   4.612   5.752
 3126SOL    HW110277   4.774   4.516   5.758
 3126SOL    HW210278   4.890   4.623   5.799
 3127SOL     OW10279   0.026   1.516   5.354
 3127SOL    HW110280   6.972   1.544   5.414
 3127SOL    HW210281   0.096   1.588   5.353
 3128SOL     OW10282   3.464   0.340   0.255
 3128SOL    HW110283   3.499   0.321   0.346
 3128SOL    HW210284   3.364   0.336   0.256
 3129SOL     OW10285   4.438   3.903   0.169
 3129SOL    HW110286   4.511   3.972   0.167
 3129SOL    HW210287   4.436   3.859   0.258
 3130SOL     OW10288   0.457   5.619   2.393
 3130SOL    HW110289   0.462   5.715   2.422
 3130SOL    HW210290   0.513   5.606   2.311
 3131SOL     OW10291   6.713   4.291   3.004
 3131SOL    HW110292   6.695   4.197   3.030
 3131SOL    HW210293   6.668   4.353   3.068
 3132SOL     OW10294   4.983   3.989   0.448
 3132SOL    HW110295   5.077   4.016   0.467
 3132SOL    HW210296   4.981   3.893   0.419
 3133SOL     OW10297   5.161   0.187   4.546
 3133SOL    HW110298   5.149   0.179   4.645
 3133SOL    HW210299   5.117   0.271   4.514
 3134SOL     OW10300   5.925   4.871   2.806
 3134SOL    HW110301   5.882   4.954   2.840
 3134SOL    HW210302   6.020   4.867   2.838
 3135SOL     OW10303   3.717   5.899   6.914
 3135SOL    HW110304   3.769   5.888   6.829
 3135SOL    HW210305   3.621   5.912   6.892
 3136SOL     OW10306   5.981   0.470   3.092
 3136SOL    HW110307   6.038   0.550   3.073
 3136SOL    HW210308   5.967   0.418   3.008
 3137SOL     OW10309   4.395   5.713   0.359
 3137SOL    HW110310   4.327   5.754   0.299
 3137SOL    HW210311   4.410   5.617   0.334
 3138SOL     OW10312   6.644   6.473   5.143
 3138SOL    HW110313   6.561   6.418   5.134
 3138SOL    HW210314   6.640   6.526   5.228
 3139SOL     OW10315   2.163   5.029   1.545
 3139SOL    HW110316   2.230   5.000   1.613
 3139SOL    HW210317   2.195   5.113   1.500
 3140SOL     OW10318   6.564   6.057   0.285
 3140SOL    HW110319   6.606   6.082   0.198
 3140SOL    HW210320   6.466   6.042   0.272
 3141SOL     OW10321   5.895   1.786   6.519
 3141SOL    HW110322   5.976   1.806   6.574
 3141SOL    HW210323   5.814   1.788   6.578
 3142SOL     OW10324   4.617   0.951   3.800
 3142SOL    HW110325   4.521   0.976   3.800
 3142SOL    HW210326   4.660   0.984   3.716
 3143SOL     OW10327   6.732   1.285   1.150
 3143SOL    HW110328   6.655   1.268   1.090
 3143SOL    HW210329   6.760   1.381   1.141
 3144SOL     OW10330   3.379   4.177   0.306
 3144SOL    HW110331   3.420   4.262   0.274
 3144SOL    HW210332   3.398   4.166   0.404
 3145SOL     OW10333   0.614   5.977   0.086
 3145SOL    HW110334   0.572   6.063   0.115
 3145SOL    HW210335   0.703   5.996   0.046
 3146SOL     OW10336   6.995   1.798   4.468
 3146SOL    HW110337   6.915   1.858   4.478
 3146SOL    HW210338   0.057   1.853   4.473
 3147SOL     OW10339   4.107   6.740   0.228
 3147SOL    HW110340   4.174   6.814   0.225
 3147SOL    HW210341   4.118   6.690   0.314
 3148SOL     OW10342   6.834   5.142   1.556
 3148SOL    HW110343   6.737   5.163   1.571
 3148SOL    HW210344   6.853   5.049   1.588
 3149SOL     OW10345   3.420   2.744   6.992
 3149SOL    HW110346   3.359   2.721   0.047
 3149SOL    HW210347   3.515   2.739   0.002
 3150SOL     OW10348   6.799   6.880   5.979
 3150SOL    HW110349   6.709   6.850   5.945
 3150SOL    HW210350   6.860   6.802   5.986
 3151SOL     OW10351   0.005   0.899   5.381
 3151SOL    HW110352   0.015   0.939   5.472
 3151SOL    HW210353   0.003   0.971   5.312
 3152SOL     OW10354   2.020   2.482   5.383
 3152SOL    HW110355   2.098   2.447   5.435
 3152SOL    HW210356   2.001   2.576   5.412
 3153SOL     OW10357   5.360   5.214   1.955
 3153SOL    HW110358   5.300   5.261   2.019
 3153SOL    HW210359   5.452   5.206   1.995
 3154SOL     OW10360   4.026   1.487   0.650
 3154SOL    HW110361   4.088   1.552   0.608
 3154SOL    HW210362   3.986   1.526   0.733
 3155SOL     OW10363   0.785   4.959   6.765
 3155SOL    HW110364   0.829   5.047   6.749
 3155SOL    HW210365   0.854   4.892   6.792
 3156SOL     OW10366   4.353   4.526   0.766
 3156SOL    HW110367   4.256   4.501   0.771
 3156SOL    HW210368   4.362   4.615   0.721
 3157SOL     OW10369   1.172   0.874   4.916
 3157SOL    HW110370   1.117   0.955   4.940
 3157SOL    HW210371   1.130   0.829   4.837
 3158SOL     OW10372   2.030   1.130   5.789
 3158SOL    HW110373   1.995   1.058   5.848
 3158SOL    HW210374   2.095   1.187   5.840
 3159SOL     OW10375   5.048   0.172   1.392
 3159SOL    HW110376   5.002   0.258   1.369
 3159SOL    HW210377   5.001   0.096   1.348
 3160SOL     OW10378   1.898   0.902   5.290
 3160SOL    HW110379   1.942   0.968   5.230
 3160SOL    HW210380   1.835   0.845   5.236
 3161SOL     OW10381   1.807   3.334   2.236
 3161SOL    HW110382   1.903   3.361   2.250
 3161SOL    HW210383   1.803   3.250   2.181
 3162SOL     OW10384   1.119   5.637   1.598
 3162SOL    HW110385   1.168   5.608   1.516
 3162SOL    HW210386   1.032   5.587   1.604
 3163SOL     OW10387   4.477   4.219   0.466
 3163SOL    HW110388   4.418   4.158   0.517
 3163SOL    HW210389   4.516   4.170   0.387
 3164SOL     OW10390   2.378   6.832   4.283
 3164SOL    HW110391   2.397   6.744   4.327
 3164SOL    HW210392   2.307   6.820   4.213
 3165SOL     OW10393   1.232   6.074   6.018
 3165SOL    HW110394   1.137   6.079   5.988
 3165SOL    HW210395   1.239   6.105   6.113
 3166SOL     OW10396   4.519   1.241   5.267
 3166SOL    HW110397   4.514   1.317   5.332
 3166SOL    HW210398   4.432   1.231   5.220
 3167SOL     OW10399   5.877   3.108   0.937
 3167SOL    HW110400   5.801   3.173   0.936
 3167SOL    HW210401   5.849   3.023   0.981
 3168SOL     OW10402   4.821   1.127   0.562
 3168SOL    HW110403   4.769   1.200   0.518
 3168SOL    HW210404   4.830   1.146   0.659
 3169SOL     OW10405   1.566   4.134   1.567
 3169SOL    HW110406   1.605   4.135   1.659
 3169SOL    HW210407   1.633   4.100   1.502
 3170SOL     OW10408   2.269   4.115   3.721
 3170SOL    HW110409   2.183   4.068   3.739
 3170SOL    HW210410   2.285   4.120   3.622
 3171SOL     OW10411   5.455   1.662   4.097
 3171SOL    HW110412   5.435   1.666   3.999
 3171SOL    HW210413   5.374   1.630   4.145
 3172SOL     OW10414   5.648   4.485   1.492
 3172SOL    HW110415   5.652   4.568   1.436
 3172SOL    HW210416   5.577   4.495   1.562
 3173SOL     OW10417   4.938   2.147   0.458
 3173SOL    HW110418   5.020   2.158   0.513
 3173SOL    HW210419   4.857   2.158   0.516
 3174SOL     OW10420   3.412   2.350   6.468
 3174SOL    HW110421   3.468   2.421   6.426
 3174SOL    HW210422   3.377   2.289   6.396
 3175SOL     OW10423   5.527   0.118   5.699
 3175SOL    HW110424   5.563   0.109   5.792
 3175SOL    HW210425   5.542   0.211   5.666
 3176SOL     OW10426   0.209   5.072   3.287
 3176SOL    HW110427   0.291   5.042   3.337
 3176SOL    HW210428   0.146   5.116   3.351
 3177SOL     OW10429   5.388   3.097   3.484
 3177SOL    HW110430   5.297   3.130   3.508
 3177SOL    HW210431   5.386   2.997   3.475
 3178SOL     OW10432   0.861   0.609   2.133
 3178SOL    HW110433   0.889   0.577   2.042
 3178SOL    HW210434   0.767   0.580   2.150
 3179SOL     OW10435   0.781   2.376   2.548
 3179SOL    HW110436   0.749   2.466   2.519
 3179SOL    HW210437   0.832   2.384   2.633
 3180SOL     OW10438   0.100   6.305   6.821
 3180SOL    HW110439   0.036   6.320   6.897
 3180SOL    HW210440   0.154   6.387   6.807
 3181SOL     OW10441   0.900   6.322   5.593
 3181SOL    HW110442   0.906   6.279   5.503
 3181SOL    HW210443   0.921   6.419   5.586
 3182SOL     OW10444   2.035   0.206   1.029
 3182SOL    HW110445   1.974   0.212   1.108
 3182SOL    HW210446   2.060   0.111   1.014
 3183SOL     OW10447   4.096   3.250   0.997
 3183SOL    HW110448   4.112   3.305   1.078
 3183SOL    HW210449   4.182   3.236   0.948
 3184SOL     OW10450   6.628   1.704   4.431
 3184SOL    HW110451   6.538   1.717   4.390
 3184SOL    HW210452   6.646   1.607   4.444
 3185SOL     OW10453   0.584   6.222   6.370
 3185SOL    HW110454   0.675   6.237   6.409
 3185SOL    HW210455   0.519   6.288   6.408
 3186SOL     OW10456   0.189   2.627   6.608
 3186SOL    HW110457   0.246   2.545   6.608
 3186SOL    HW210458   0.151   2.642   6.699
 3187SOL     OW10459   5.211   6.683   2.799
 3187SOL    HW110460   5.139   6.728   2.852
 3187SOL    HW210461   5.183   6.677   2.703
 3188SOL     OW10462   1.793   6.402   0.622
 3188SOL    HW110463   1.799   6.499   0.598
 3188SOL    HW210464   1.800   6.392   0.721
 3189SOL     OW10465   3.230   1.528   5.762
 3189SOL    HW110466   3.286   1.610   5.752
 3189SOL    HW210467   3.183   1.510   5.675
 3190SOL     OW10468   5.943   6.258   4.271
 3190SOL    HW110469   5.926   6.235   4.175
 3190SOL    HW210470   5.976   6.177   4.319
 3191SOL     OW10471   3.913   5.545   1.474
 3191SOL    HW110472   3.975   5.493   1.415
 3191SOL    HW210473   3.830   5.491   1.491
 3192SOL     OW10474   5.630   0.890   2.827
 3192SOL    HW110475   5.720   0.880   2.784
 3192SOL    HW210476   5.561   0.906   2.756
 3193SOL     OW10477   3.164   6.488   4.851
 3193SOL    HW110478   3.123   6.473   4.761
 3193SOL    HW210479   3.210   6.404   4.880
 3194SOL     OW10480   1.729   0.136   6.370
 3194SOL    HW110481   1.786   0.128   6.452
 3194SOL    HW210482   1.673   0.054   6.360
 3195SOL     OW10483   1.116   0.840   1.142
 3195SOL    HW110484   1.177   0.872   1.215
 3195SOL    HW210485   1.098   0.915   1.079
 3196SOL     OW10486   5.800   6.990   2.854
 3196SOL    HW110487   5.803   6.993   2.953
 3196SOL    HW210488   5.838   6.903   2.822
 3197SOL     OW10489   2.186   0.025   6.245
 3197SOL    HW110490   2.124   0.038   6.168
 3197SOL    HW210491   2.165   6.959   6.290
 3198SOL     OW10492   5.845   2.395   3.750
 3198SOL    HW110493   5.820   2.304   3.719
 3198SOL    HW210494   5.770   2.434   3.804
 3199SOL     OW10495   4.913   3.674   2.996
 3199SOL    HW110496   4.866   3.598   3.042
 3199SOL    HW210497   5.011   3.655   2.993
 3200SOL     OW10498   5.540   3.416   4.074
 3200SOL    HW110499   5.597   3.404   4.155
 3200SOL    HW210500   5.553   3.339   4.012
 3201SOL     OW10501   6.050   4.182   2.230
 3201SOL    HW110502   6.084   4.240   2.305
 3201SOL    HW210503   6.117   4.111   2.210
 3202SOL     OW10504   2.726   3.186   6.826
 3202SOL    HW110505   2.628   3.207   6.834
 3202SOL    HW210506   2.764   3.234   6.747
 3203SOL     OW10507   3.474   6.541   1.855
 3203SOL    HW110508   3.436   6.577   1.770
 3203SOL    HW210509   3.550   6.599   1.884
 3204SOL     OW10510   3.842   1.266   4.394
 3204SOL    HW110511   3.748   1.244   4.420
 3204SOL    HW210512   3.903   1.195   4.430
 3205SOL     OW10513   4.910   3.292   6.007
 3205SOL    HW110514   4.873   3.299   5.914
 3205SOL    HW210515   4.935   3.197   6.025
 3206SOL     OW10516   2.626   3.983   1.364
 3206SOL    HW110517   2.683   4.050   1.318
 3206SOL    HW210518   2.671   3.954   1.449
 3207SOL     OW10519   2.050   5.645   5.048
 3207SOL    HW110520   2.093   5.568   5.001
 3207SOL    HW210521   2.111   5.725   5.044
 3208SOL     OW10522   6.471   4.963   6.514
 3208SOL    HW110523   6.452   5.058   6.487
 3208SOL    HW210524   6.560   4.959   6.560
 3209SOL     OW10525   5.217   6.781   6.327
 3209SOL    HW110526   5.204   6.697   6.380
 3209SOL    HW210527   5.249   6.759   6.235
 3210SOL     OW10528   5.264   5.685   1.993
 3210SOL    HW110529   5.225   5.730   2.073
 3210SOL    HW210530   5.323   5.610   2.023
 3211SOL     OW10531   2.079   6.502   6.405
 3211SOL    HW110532   2.155   6.536   6.350
 3211SOL    HW210533   2.036   6.424   6.359
 3212SOL     OW10534   2.909   6.722   3.734
 3212SOL    HW110535   2.913   6.781   3.653
 3212SOL    HW210536   3.002   6.693   3.757
 3213SOL     OW10537   1.310   6.523   6.211
 3213SOL    HW110538   1.289   6.446   6.272
 3213SOL    HW210539   1.248   6.599   6.231
 3214SOL     OW10540   4.137   0.679   3.029
 3214SOL    HW110541   4.221   0.629   3.007
 3214SOL    HW210542   4.073   0.668   2.953
 3215SOL     OW10543   1.882   3.466   1.747
 3215SOL    HW110544   1.971   3.469   1.700
 3215SOL    HW210545   1.895   3.482   1.845
 3216SOL     OW10546   5.813   4.745   1.008
 3216SOL    HW110547   5.784   4.651   1.024
 3216SOL    HW210548   5.909   4.747   0.981
 3217SOL     OW10549   6.989   5.843   2.292
 3217SOL    HW110550   6.893   5.814   2.286
 3217SOL    HW210551   7.008   5.909   2.220
 3218SOL     OW10552   5.703   1.166   2.848
 3218SOL    HW110553   5.704   1.242   2.783
 3218SOL    HW210554   5.620   1.112   2.835
 3219SOL     OW10555   6.482   1.755   4.750
 3219SOL    HW110556   6.459   1.689   4.822
 3219SOL    HW210557   6.581   1.758   4.738
 3220SOL     OW10558   0.124   4.209   5.848
 3220SOL    HW110559   0.146   4.303   5.874
 3220SOL    HW210560   0.038   4.206   5.799
 3221SOL     OW10561   3.504   1.757   1.848
 3221SOL    HW110562   3.574   1.740   1.918
 3221SOL    HW210563   3.522   1.700   1.768
 3222SOL     OW10564   3.075   1.052   3.112
 3222SOL    HW110565   3.043   0.987   3.043
 3222SOL    HW210566   3.005   1.062   3.182
 3223SOL     OW10567   1.470   5.205   0.265
 3223SOL    HW110568   1.401   5.219   0.335
 3223SOL    HW210569   1.452   5.120   0.216
 3224SOL     OW10570   4.141   1.948   4.135
 3224SOL    HW110571   4.110   1.901   4.052
 3224SOL    HW210572   4.072   1.939   4.206
 3225SOL     OW10573   4.474   1.280   4.865
 3225SOL    HW110574   4.552   1.270   4.802
 3225SOL    HW210575   4.405   1.340   4.824
 3226SOL     OW10576   5.916   0.422   0.668
 3226SOL    HW110577   5.886   0.511   0.704
 3226SOL    HW210578   5.863   0.349   0.713
 3227SOL     OW10579   5.639   4.571   5.120
 3227SOL    HW110580   5.636   4.602   5.025
 3227SOL    HW210581   5.554   4.598   5.166
 3228SOL     OW10582   2.739   4.225   0.428
 3228SOL    HW110583   2.718   4.127   0.431
 3228SOL    HW210584   2.791   4.250   0.510
 3229SOL     OW10585   1.685   2.217   0.547
 3229SOL    HW110586   1.694   2.317   0.548
 3229SOL    HW210587   1.669   2.187   0.453
 3230SOL     OW10588   3.121   6.273   5.339
 3230SOL    HW110589   3.094   6.244   5.247
 3230SOL    HW210590   3.074   6.218   5.407
 3231SOL     OW10591   1.993   2.353   3.027
 3231SOL    HW110592   1.964   2.297   3.105
 3231SOL    HW210593   1.922   2.420   3.006
 3232SOL     OW10594   3.897   5.048   4.304
 3232SOL    HW110595   3.830   5.070   4.233
 3232SOL    HW210596   3.871   5.094   4.389
 3233SOL     OW10597   1.168   0.246   0.215
 3233SOL    HW110598   1.244   0.202   0.167
 3233SOL    HW210599   1.195   0.339   0.240
 3234SOL     OW10600   2.891   3.195   0.730
 3234SOL    HW110601   2.861   3.283   0.695
 3234SOL    HW210602   2.886   3.127   0.656
 3235SOL     OW10603   1.041   0.677   3.363
 3235SOL    HW110604   1.004   0.588   3.338
 3235SOL    HW210605   1.089   0.717   3.285
 3236SOL     OW10606   4.479   0.813   0.181
 3236SOL    HW110607   4.554   0.758   0.144
 3236SOL    HW210608   4.431   0.761   0.251
 3237SOL     OW10609   5.724   1.564   5.412
 3237SOL    HW110610   5.704   1.617   5.330
 3237SOL    HW210611   5.642   1.513   5.440
 3238SOL     OW10612   6.394   4.743   1.738
 3238SOL    HW110613   6.304   4.772   1.703
 3238SOL    HW210614   6.432   4.673   1.677
 3239SOL     OW10615   6.941   0.277   5.001
 3239SOL    HW110616   6.910   0.205   4.939
 3239SOL    HW210617   7.020   0.323   4.962
 3240SOL     OW10618   0.024   0.707   0.199
 3240SOL    HW110619   0.109   0.759   0.188
 3240SOL    HW210620   6.980   0.735   0.129
 3241SOL     OW10621   6.452   3.015   5.344
 3241SOL    HW110622   6.444   3.114   5.353
 3241SOL    HW210623   6.530   2.983   5.398
 3242SOL     OW10624   6.480   3.811   4.609
 3242SOL    HW110625   6.463   3.891   4.552
 3242SOL    HW210626   6.458   3.728   4.557
 3243SOL     OW10627   6.002   4.461   4.235
 3243SOL    HW110628   5.986   4.530   4.165
 3243SOL    HW210629   6.032   4.505   4.319
 3244SOL     OW10630   5.156   6.925   0.391
 3244SOL    HW110631   5.221   6.854   0.364
 3244SOL    HW210632   5.204   7.001   0.435
 3245SOL     OW10633   3.580   6.698   4.992
 3245SOL    HW110634   3.578   6.704   4.892
 3245SOL    HW210635   3.594   6.790   5.030
 3246SOL     OW10636   0.125   0.212   2.659
 3246SOL    HW110637   0.087   0.267   2.733
 3246SOL    HW210638   0.056   0.147   2.627
 3247SOL     OW10639   0.871   4.324   3.563
 3247SOL    HW110640   0.777   4.306   3.590
 3247SOL    HW210641   0.924   4.239   3.568
 3248SOL     OW10642   5.486   2.190   3.612
 3248SOL    HW110643   5.559   2.134   3.574
 3248SOL    HW210644   5.400   2.139   3.610
 3249SOL     OW10645   2.874   3.476   3.488
 3249SOL    HW110646   2.800   3.413   3.467
 3249SOL    HW210647   2.909   3.516   3.403
 3250SOL     OW10648   4.889   5.630   2.752
 3250SOL    HW110649   4.799   5.658   2.718
 3250SOL    HW210650   4.895   5.651   2.850
 3251SOL     OW10651   2.944   1.870   2.927
 3251SOL    HW110652   2.909   1.919   3.006
 3251SOL    HW210653   2.950   1.932   2.849
 3252SOL     OW10654   1.753   1.362   3.198
 3252SOL    HW110655   1.809   1.396   3.275
 3252SOL    HW210656   1.657   1.360   3.225
 3253SOL     OW10657   6.596   3.159   0.055
 3253SOL    HW110658   6.518   3.163   7.014
 3253SOL    HW210659   6.578   3.091   0.126
 3254SOL     OW10660   6.432   6.566   1.158
 3254SOL    HW110661   6.348   6.612   1.128
 3254SOL    HW210662   6.444   6.482   1.105
 3255SOL     OW10663   4.710   6.425   1.765
 3255SOL    HW110664   4.617   6.451   1.791
 3255SOL    HW210665   4.706   6.356   1.693
 3256SOL     OW10666   4.798   2.482   1.147
 3256SOL    HW110667   4.711   2.484   1.197
 3256SOL    HW210668   4.825   2.387   1.131
 3257SOL     OW10669   2.934   1.569   2.938
 3257SOL    HW110670   2.956   1.665   2.955
 3257SOL    HW210671   2.930   1.519   3.025
 3258SOL     OW10672   1.506   5.392   4.437
 3258SOL    HW110673   1.489   5.464   4.370
 3258SOL    HW210674   1.519   5.305   4.389
 3259SOL     OW10675   5.402   3.862   4.075
 3259SOL    HW110676   5.319   3.907   4.042
 3259SOL    HW210677   5.385   3.824   4.166
 3260SOL     OW10678   1.207   4.561   3.365
 3260SOL    HW110679   1.207   4.464   3.387
 3260SOL    HW210680   1.166   4.575   3.274
 3261SOL     OW10681   5.600   0.026   4.258
 3261SOL    HW110682   5.566   0.045   4.166
 3261SOL    HW210683   5.633   0.111   4.300
 3262SOL     OW10684   3.029   1.631   3.689
 3262SOL    HW110685   2.997   1.666   3.777
 3262SOL    HW210686   3.106   1.568   3.705
 3263SOL     OW10687   6.993   0.827   2.180
 3263SOL    HW110688   6.932   0.776   2.120
 3263SOL    HW210689   0.029   0.888   2.126
 3264SOL     OW10690   1.635   4.975   6.631
 3264SOL    HW110691   1.633   4.992   6.730
 3264SOL    HW210692   1.654   4.878   6.615
 3265SOL     OW10693   6.877   5.371   6.924
 3265SOL    HW110694   6.845   5.456   6.881
 3265SOL    HW210695   6.873   5.296   6.858
 3266SOL     OW10696   3.582   5.018   5.618
 3266SOL    HW110697   3.574   4.971   5.530
 3266SOL    HW210698   3.570   5.116   5.605
 3267SOL     OW10699   3.829   6.589   0.307
 3267SOL    HW110700   3.807   6.664   0.369
 3267SOL    HW210701   3.894   6.527   0.352
 3268SOL     OW10702   5.756   5.169   1.805
 3268SOL    HW110703   5.849   5.165   1.841
 3268SOL    HW210704   5.725   5.264   1.801
 3269SOL     OW10705   1.403   5.020   1.595
 3269SOL    HW110706   1.335   4.951   1.619
 3269SOL    HW210707   1.372   5.110   1.625
 3270SOL     OW10708   0.712   2.795   5.646
 3270SOL    HW110709   0.768   2.718   5.677
 3270SOL    HW210710   0.617   2.778   5.671
 3271SOL     OW10711   0.804   3.632   1.307
 3271SOL    HW110712   0.895   3.662   1.277
 3271SOL    HW210713   0.764   3.700   1.368
 3272SOL     OW10714   4.633   5.949   0.736
 3272SOL    HW110715   4.623   6.048   0.747
 3272SOL    HW210716   4.544   5.908   0.718
 3273SOL     OW10717   3.986   3.754   6.702
 3273SOL    HW110718   3.917   3.797   6.760
 3273SOL    HW210719   3.949   3.742   6.609
 3274SOL     OW10720   5.551   0.126   2.072
 3274SOL    HW110721   5.512   0.215   2.049
 3274SOL    HW210722   5.633   0.139   2.127
 3275SOL     OW10723   5.141   0.694   1.533
 3275SOL    HW110724   5.094   0.780   1.515
 3275SOL    HW210725   5.090   0.641   1.600
 3276SOL     OW10726   5.603   6.569   6.916
 3276SOL    HW110727   5.678   6.597   6.976
 3276SOL    HW210728   5.517   6.605   6.951
 3277SOL     OW10729   2.991   2.182   2.355
 3277SOL    HW110730   3.054   2.192   2.277
 3277SOL    HW210731   2.899   2.210   2.327
 3278SOL     OW10732   5.597   0.853   6.432
 3278SOL    HW110733   5.668   0.850   6.503
 3278SOL    HW210734   5.508   0.866   6.475
 3279SOL     OW10735   3.631   0.263   1.615
 3279SOL    HW110736   3.591   0.353   1.635
 3279SOL    HW210737   3.593   0.229   1.529
 3280SOL     OW10738   6.381   3.495   4.302
 3280SOL    HW110739   6.317   3.514   4.377
 3280SOL    HW210740   6.420   3.581   4.269
 3281SOL     OW10741   6.006   2.687   1.629
 3281SOL    HW110742   5.946   2.734   1.565
 3281SOL    HW210743   6.078   2.640   1.578
 3282SOL     OW10744   0.278   5.279   5.183
 3282SOL    HW110745   0.268   5.195   5.237
 3282SOL    HW210746   0.314   5.256   5.092
 3283SOL     OW10747   3.342   2.140   0.133
 3283SOL    HW110748   3.441   2.155   0.130
 3283SOL    HW210749   3.313   2.129   0.228
 3284SOL     OW10750   2.147   6.922   4.565
 3284SOL    HW110751   2.140   6.849   4.498
 3284SOL    HW210752   2.219   6.986   4.536
 3285SOL     OW10753   3.841   2.138   4.329
 3285SOL    HW110754   3.782   2.155   4.250
 3285SOL    HW210755   3.786   2.141   4.412
 3286SOL     OW10756   1.349   2.353   2.743
 3286SOL    HW110757   1.362   2.263   2.701
 3286SOL    HW210758   1.288   2.408   2.686
 3287SOL     OW10759   2.475   0.247   0.668
 3287SOL    HW110760   2.511   0.212   0.582
 3287SOL    HW210761   2.468   0.172   0.734
 3288SOL     OW10762   2.284   5.994   1.783
 3288SOL    HW110763   2.203   5.936   1.777
 3288SOL    HW210764   2.341   5.962   1.859
 3289SOL     OW10765   4.199   0.773   6.767
 3289SOL    HW110766   4.263   0.764   6.691
 3289SOL    HW210767   4.121   0.713   6.752
 3290SOL     OW10768   0.309   5.800   0.427
 3290SOL    HW110769   0.309   5.738   0.506
 3290SOL    HW210770   0.226   5.786   0.374
 3291SOL     OW10771   5.210   6.634   5.185
 3291SOL    HW110772   5.151   6.712   5.163
 3291SOL    HW210773   5.294   6.666   5.228
 3292SOL     OW10774   0.127   2.236   0.345
 3292SOL    HW110775   0.075   2.299   0.402
 3292SOL    HW210776   0.116   2.260   0.249
 3293SOL     OW10777   6.136   5.350   3.451
 3293SOL    HW110778   6.095   5.441   3.449
 3293SOL    HW210779   6.129   5.308   3.360
 3294SOL     OW10780   5.034   2.850   5.041
 3294SOL    HW110781   5.024   2.768   5.098
 3294SOL    HW210782   5.128   2.856   5.009
 3295SOL     OW10783   0.653   2.147   2.665
 3295SOL    HW110784   0.654   2.218   2.594
 3295SOL    HW210785   0.700   2.181   2.747
 3296SOL     OW10786   1.870   1.099   6.069
 3296SOL    HW110787   1.859   1.028   5.999
 3296SOL    HW210788   1.797   1.091   6.137
 3297SOL     OW10789   3.626   0.888   5.488
 3297SOL    HW110790   3.656   0.874   5.582
 3297SOL    HW210791   3.606   0.985   5.472
 3298SOL     OW10792   4.469   3.834   6.093
 3298SOL    HW110793   4.449   3.737   6.077
 3298SOL    HW210794   4.501   3.875   6.008
 3299SOL     OW10795   2.362   5.545   3.719
 3299SOL    HW110796   2.288   5.543   3.652
 3299SOL    HW210797   2.406   5.455   3.722
 3300SOL     OW10798   2.406   0.641   3.855
 3300SOL    HW110799   2.325   0.701   3.854
 3300SOL    HW210800   2.386   0.559   3.907
 3301SOL     OW10801   0.918   1.240   3.000
 3301SOL    HW110802   0.829   1.235   3.044
 3301SOL    HW210803   0.984   1.280   3.064
 3302SOL     OW10804   1.433   5.183   4.917
 3302SOL    HW110805   1.395   5.240   4.990
 3302SOL    HW210806   1.418   5.087   4.939
 3303SOL     OW10807   3.208   3.475   0.096
 3303SOL    HW110808   3.218   3.415   0.175
 3303SOL    HW210809   3.278   3.453   0.028
 3304SOL     OW10810   2.164   4.284   0.021
 3304SOL    HW110811   2.233   4.211   0.014
 3304SOL    HW210812   2.104   4.266   0.099
 3305SOL     OW10813   3.421   2.797   0.599
 3305SOL    HW110814   3.349   2.782   0.532
 3305SOL    HW210815   3.508   2.810   0.551
 3306SOL     OW10816   2.314   0.774   6.919
 3306SOL    HW110817   2.304   0.775   6.819
 3306SOL    HW210818   2.410   0.786   6.943
 3307SOL     OW10819   1.459   6.177   4.803
 3307SOL    HW110820   1.537   6.190   4.742
 3307SOL    HW210821   1.493   6.158   4.896
 3308SOL     OW10822   4.073   4.735   1.023
 3308SOL    HW110823   4.159   4.761   0.979
 3308SOL    HW210824   4.058   4.793   1.103
 3309SOL     OW10825   5.486   3.172   3.178
 3309SOL    HW110826   5.565   3.213   3.132
 3309SOL    HW210827   5.499   3.073   3.185
 3310SOL     OW10828   6.435   4.775   6.197
 3310SOL    HW110829   6.401   4.694   6.246
 3310SOL    HW210830   6.359   4.819   6.149
 3311SOL     OW10831   2.435   3.934   0.204
 3311SOL    HW110832   2.365   3.863   0.215
 3311SOL    HW210833   2.515   3.895   0.159
 3312SOL     OW10834   4.610   2.911   6.531
 3312SOL    HW110835   4.575   2.886   6.441
 3312SOL    HW210836   4.706   2.883   6.539
 3313SOL     OW10837   6.847   0.314   4.239
 3313SOL    HW110838   6.902   0.279   4.315
 3313SOL    HW210839   6.865   0.412   4.228
 3314SOL     OW10840   3.890   5.749   2.639
 3314SOL    HW110841   3.937   5.790   2.560
 3314SOL    HW210842   3.862   5.822   2.702
 3315SOL     OW10843   0.541   5.612   4.507
 3315SOL    HW110844   0.586   5.647   4.425
 3315SOL    HW210845   0.558   5.675   4.583
 3316SOL     OW10846   4.688   2.344   6.700
 3316SOL    HW110847   4.731   2.332   6.789
 3316SOL    HW210848   4.641   2.433   6.697
 3317SOL     OW10849   5.138   2.846   1.951
 3317SOL    HW110850   5.198   2.773   1.915
 3317SOL    HW210851   5.042   2.820   1.935
 3318SOL     OW10852   3.010   2.804   0.651
 3318SOL    HW110853   3.072   2.758   0.588
 3318SOL    HW210854   3.003   2.901   0.626
 3319SOL     OW10855   6.750   5.757   3.630
 3319SOL    HW110856   6.793   5.846   3.617
 3319SOL    HW210857   6.764   5.701   3.549
 3320SOL     OW10858   6.146   6.534   1.842
 3320SOL    HW110859   6.152   6.445   1.797
 3320SOL    HW210860   6.116   6.520   1.937
 3321SOL     OW10861   4.668   2.098   0.279
 3321SOL    HW110862   4.702   2.040   0.354
 3321SOL    HW210863   4.581   2.063   0.247
 3322SOL     OW10864   6.219   3.280   0.611
 3322SOL    HW110865   6.265   3.235   0.535
 3322SOL    HW210866   6.155   3.217   0.654
 3323SOL     OW10867   1.485   2.276   1.267
 3323SOL    HW110868   1.534   2.360   1.246
 3323SOL    HW210869   1.423   2.293   1.344
 3324SOL     OW10870   5.404   5.576   5.458
 3324SOL    HW110871   5.481   5.567   5.394
 3324SOL    HW210872   5.435   5.623   5.541
 3325SOL     OW10873   2.232   4.629   5.362
 3325SOL    HW110874   2.232   4.729   5.373
 3325SOL    HW210875   2.303   4.589   5.419
 3326SOL     OW10876   3.475   2.105   2.655
 3326SOL    HW110877   3.551   2.042   2.665
 3326SOL    HW210878   3.447   2.110   2.559
 3327SOL     OW10879   0.777   5.310   6.065
 3327SOL    HW110880   0.871   5.280   6.053
 3327SOL    HW210881   0.715   5.232   6.056
 3328SOL     OW10882   4.713   2.401   5.711
 3328SOL    HW110883   4.697   2.457   5.631
 3328SOL    HW210884   4.648   2.426   5.783
 3329SOL     OW10885   6.527   5.955   5.683
 3329SOL    HW110886   6.592   5.978   5.756
 3329SOL    HW210887   6.510   5.856   5.684
 3330SOL     OW10888   0.138   3.559   2.932
 3330SOL    HW110889   0.184   3.565   3.020
 3330SOL    HW210890   0.040   3.569   2.944
 3331SOL     OW10891   2.300   3.217   6.962
 3331SOL    HW110892   2.203   3.194   6.954
 3331SOL    HW210893   2.339   3.170   0.020
 3332SOL     OW10894   6.634   4.022   1.551
 3332SOL    HW110895   6.684   3.995   1.633
 3332SOL    HW210896   6.560   4.084   1.576
 3333SOL     OW10897   3.559   5.440   6.563
 3333SOL    HW110898   3.480   5.437   6.502
 3333SOL    HW210899   3.606   5.528   6.553
 3334SOL     OW10900   1.813   3.810   1.722
 3334SOL    HW110901   1.884   3.756   1.768
 3334SOL    HW210902   1.724   3.790   1.763
 3335SOL     OW10903   5.877   4.159   4.424
 3335SOL    HW110904   5.922   4.075   4.393
 3335SOL    HW210905   5.929   4.238   4.395
 3336SOL     OW10906   2.690   5.865   6.056
 3336SOL    HW110907   2.691   5.892   6.152
 3336SOL    HW210908   2.779   5.881   6.015
 3337SOL     OW10909   3.822   1.839   0.734
 3337SOL    HW110910   3.887   1.914   0.722
 3337SOL    HW210911   3.729   1.875   0.735
 3338SOL     OW10912   6.639   4.376   0.438
 3338SOL    HW110913   6.696   4.386   0.520
 3338SOL    HW210914   6.587   4.460   0.423
 3339SOL     OW10915   0.597   5.926   6.292
 3339SOL    HW110916   0.583   6.013   6.245
 3339SOL    HW210917   0.566   5.934   6.387
 3340SOL     OW10918   4.072   0.290   1.919
 3340SOL    HW110919   4.036   0.221   1.982
 3340SOL    HW210920   4.167   0.267   1.895
 3341SOL     OW10921   0.867   0.080   1.742
 3341SOL    HW110922   0.817   0.044   1.664
 3341SOL    HW210923   0.938   0.143   1.710
 3342SOL     OW10924   2.794   0.514   5.007
 3342SOL    HW110925   2.712   0.568   5.025
 3342SOL    HW210926   2.860   0.569   4.956
 3343SOL     OW10927   6.359   2.137   1.483
 3343SOL    HW110928   6.311   2.055   1.514
 3343SOL    HW210929   6.403   2.119   1.395
 3344SOL     OW10930   0.034   3.086   5.489
 3344SOL    HW110931   0.047   3.165   5.548
 3344SOL    HW210932   7.006   3.113   5.407
 3345SOL     OW10933   2.975   3.274   5.909
 3345SOL    HW110934   3.024   3.294   5.993
 3345SOL    HW210935   3.033   3.295   5.830
 3346SOL     OW10936   1.698   5.571   2.401
 3346SOL    HW110937   1.740   5.519   2.475
 3346SOL    HW210938   1.721   5.667   2.410
 3347SOL     OW10939   6.081   4.007   4.635
 3347SOL    HW110940   6.140   3.988   4.556
 3347SOL    HW210941   6.017   3.931   4.647
 3348SOL     OW10942   3.998   3.791   3.222
 3348SOL    HW110943   3.905   3.788   3.184
 3348SOL    HW210944   4.059   3.738   3.164
 3349SOL     OW10945   6.015   4.075   5.963
 3349SOL    HW110946   5.977   4.002   5.907
 3349SOL    HW210947   6.044   4.037   6.051
 3350SOL     OW10948   1.787   2.394   0.984
 3350SOL    HW110949   1.696   2.355   0.973
 3350SOL    HW210950   1.849   2.353   0.918
 3351SOL     OW10951   5.250   2.221   0.111
 3351SOL    HW110952   5.182   2.258   0.175
 3351SOL    HW210953   5.277   2.130   0.140
 3352SOL     OW10954   0.565   3.037   0.481
 3352SOL    HW110955   0.483   3.059   0.533
 3352SOL    HW210956   0.590   3.115   0.424
 3353SOL     OW10957   1.784   6.440   6.357
 3353SOL    HW110958   1.832   6.511   6.305
 3353SOL    HW210959   1.695   6.424   6.315
 3354SOL     OW10960   1.003   1.331   2.339
 3354SOL    HW110961   1.046   1.403   2.393
 3354SOL    HW210962   1.004   1.246   2.391
 3355SOL     OW10963   6.564   1.505   2.691
 3355SOL    HW110964   6.595   1.413   2.667
 3355SOL    HW210965   6.518   1.503   2.779
 3356SOL     OW10966   2.125   3.629   6.240
 3356SOL    HW110967   2.110   3.605   6.336
 3356SOL    HW210968   2.047   3.599   6.186
 3357SOL     OW10969   2.137   5.140   1.989
 3357SOL    HW110970   2.169   5.210   1.926
 3357SOL    HW210971   2.098   5.063   1.937
 3358SOL     OW10972   6.773   4.444   2.791
 3358SOL    HW110973   6.867   4.476   2.797
 3358SOL    HW210974   6.760   4.366   2.851
 3359SOL     OW10975   1.058   1.447   1.877
 3359SOL    HW110976   1.104   1.424   1.963
 3359SOL    HW210977   1.124   1.444   1.803
 3360SOL     OW10978   1.522   0.471   6.236
 3360SOL    HW110979   1.585   0.548   6.231
 3360SOL    HW210980   1.448   0.493   6.299
 3361SOL     OW10981   4.890   0.670   3.029
 3361SOL    HW110982   4.921   0.590   2.978
 3361SOL    HW210983   4.795   0.690   3.005
 3362SOL     OW10984   2.157   1.173   5.502
 3362SOL    HW110985   2.091   1.153   5.574
 3362SOL    HW210986   2.201   1.261   5.521
 3363SOL     OW10987   0.093   1.487   6.587
 3363SOL    HW110988   0.040   1.434   6.653
 3363SOL    HW210989   0.077   1.452   6.495
 3364SOL     OW10990   1.928   4.413   6.077
 3364SOL    HW110991   1.838   4.378   6.049
 3364SOL    HW210992   1.917   4.504   6.117
 3365SOL     OW10993   5.813   1.905   5.289
 3365SOL    HW110994   5.844   1.834   5.353
 3365SOL    HW210995   5.808   1.992   5.336
 3366SOL     OW10996   5.227   1.340   6.253
 3366SOL    HW110997   5.151   1.405   6.253
 3366SOL    HW210998   5.230   1.292   6.165
 3367SOL     OW10999   1.676   0.466   2.256
 3367SOL    HW111000   1.732   0.538   2.296
 3367SOL    HW211001   1.587   0.464   2.302
 3368SOL     OW11002   6.408   0.447   5.878
 3368SOL    HW111003   6.314   0.450   5.911
 3368SOL    HW211004   6.417   0.377   5.807
 3369SOL     OW11005   3.738   6.177   5.908
 3369SOL    HW111006   3.771   6.266   5.874
 3369SOL    HW211007   3.763   6.167   6.004
 3370SOL     OW11008   4.860   0.302   4.751
 3370SOL    HW111009   4.777   0.249   4.733
 3370SOL    HW211010   4.884   0.355   4.670
 3371SOL     OW11011   6.971   5.170   1.318
 3371SOL    HW111012   7.018   5.087   1.288
 3371SOL    HW211013   6.937   5.157   1.412
 3372SOL     OW11014   0.222   1.843   2.871
 3372SOL    HW111015   0.283   1.905   2.822
 3372SOL    HW211016   0.275   1.777   2.923
 3373SOL     OW11017   0.523   2.321   5.957
 3373SOL    HW111018   0.546   2.389   6.028
 3373SOL    HW211019   0.585   2.243   5.965
 3374SOL     OW11020   3.224   5.075   5.188
 3374SOL    HW111021   3.131   5.112   5.192
 3374SOL    HW211022   3.239   5.015   5.266
 3375SOL     OW11023   4.169   3.993   5.304
 3375SOL    HW111024   4.265   4.004   5.329
 3375SOL    HW211025   4.132   4.081   5.272
 3376SOL     OW11026   3.029   3.754   2.188
 3376SOL    HW111027   3.127   3.760   2.172
 3376SOL    HW211028   3.010   3.759   2.286
 3377SOL     OW11029   3.068   5.791   5.435
 3377SOL    HW111030   2.981   5.780   5.387
 3377SOL    HW211031   3.135   5.728   5.395
 3378SOL     OW11032   0.906   1.073   1.282
 3378SOL    HW111033   0.954   1.054   1.368
 3378SOL    HW211034   0.822   1.020   1.279
 3379SOL     OW11035   1.058   4.734   6.701
 3379SOL    HW111036   0.979   4.677   6.677
 3379SOL    HW211037   1.049   4.824   6.659
 3380SOL     OW11038   0.852   3.856   6.113
 3380SOL    HW111039   0.766   3.822   6.151
 3380SOL    HW211040   0.846   3.857   6.013
 3381SOL     OW11041   3.155   3.108   0.827
 3381SOL    HW111042   3.089   3.113   0.751
 3381SOL    HW211043   3.105   3.089   0.912
 3382SOL     OW11044   6.624   6.644   0.157
 3382SOL    HW111045   6.678   6.689   0.228
 3382SOL    HW211046   6.597   6.711   0.088
 3383SOL     OW11047   0.051   4.373   2.644
 3383SOL    HW111048   0.151   4.373   2.644
 3383SOL    HW211049   0.018   4.296   2.591
 3384SOL     OW11050   3.523   2.846   4.763
 3384SOL    HW111051   3.479   2.869   4.676
 3384SOL    HW211052   3.530   2.747   4.771
 3385SOL     OW11053   6.441   4.150   3.223
 3385SOL    HW111054   6.454   4.067   3.168
 3385SOL    HW211055   6.382   4.129   3.301
 3386SOL     OW11056   6.394   4.166   5.100
 3386SOL    HW111057   6.370   4.083   5.049
 3386SOL    HW211058   6.331   4.240   5.075
 3387SOL     OW11059   2.869   2.013   3.215
 3387SOL    HW111060   2.961   2.052   3.214
 3387SOL    HW211061   2.802   2.086   3.209
 3388SOL     OW11062   5.122   2.930   2.219
 3388SOL    HW111063   5.209   2.978   2.228
 3388SOL    HW211064   5.118   2.883   2.130
 3389SOL     OW11065   5.360   4.568   3.209
 3389SOL    HW111066   5.415   4.489   3.182
 3389SOL    HW211067   5.307   4.600   3.131
 3390SOL     OW11068   5.096   2.989   6.023
 3390SOL    HW111069   5.174   3.051   6.031
 3390SOL    HW211070   5.074   2.951   6.113
 3391SOL     OW11071   3.727   1.761   4.415
 3391SOL    HW111072   3.656   1.811   4.364
 3391SOL    HW211073   3.735   1.668   4.380
 3392SOL     OW11074   4.661   6.069   3.712
 3392SOL    HW111075   4.663   6.135   3.787
 3392SOL    HW211076   4.600   5.994   3.736
 3393SOL     OW11077   6.341   0.665   0.184
 3393SOL    HW111078   6.381   0.755   0.171
 3393SOL    HW211079   6.396   0.597   0.133
 3394SOL     OW11080   5.543   1.735   1.293
 3394SOL    HW111081   5.501   1.670   1.229
 3394SOL    HW211082   5.472   1.779   1.347
 3395SOL     OW11083   1.094   3.697   4.871
 3395SOL    HW111084   1.068   3.611   4.829
 3395SOL    HW211085   1.158   3.680   4.946
 3396SOL     OW11086   0.023   4.230   4.237
 3396SOL    HW111087   0.046   4.327   4.239
 3396SOL    HW211088   6.998   4.208   4.151
 3397SOL     OW11089   3.258   6.433   5.941
 3397SOL    HW111090   3.273   6.343   5.982
 3397SOL    HW211091   3.340   6.463   5.893
 3398SOL     OW11092   6.837   6.952   4.282
 3398SOL    HW111093   6.763   6.999   4.235
 3398SOL    HW211094   6.897   7.019   4.326
 3399SOL     OW11095   4.445   5.415   4.551
 3399SOL    HW111096   4.459   5.355   4.630
 3399SOL    HW211097   4.517   5.400   4.484
 3400SOL     OW11098   4.460   2.289   6.360
 3400SOL    HW111099   4.550   2.282   6.403
 3400SOL    HW211100   4.396   2.333   6.425
 3401SOL     OW11101   6.068   5.014   0.022
 3401SOL    HW111102   6.045   4.943   6.977
 3401SOL    HW211103   6.120   4.974   0.097
 3402SOL     OW11104   4.814   5.540   2.413
 3402SOL    HW111105   4.802   5.445   2.440
 3402SOL    HW211106   4.733   5.593   2.441
 3403SOL     OW11107   2.757   1.612   5.077
 3403SOL    HW111108   2.743   1.710   5.067
 3403SOL    HW211109   2.762   1.569   4.987
 3404SOL     OW11110   4.460   0.777   1.000
 3404SOL    HW111111   4.386   0.789   1.065
 3404SOL    HW211112   4.492   0.867   0.969
 3405SOL     OW11113   5.926   3.796   0.770
 3405SOL    HW111114   5.829   3.797   0.796
 3405SOL    HW211115   5.980   3.839   0.842
 3406SOL     OW11116   1.386   4.761   1.860
 3406SOL    HW111117   1.429   4.674   1.883
 3406SOL    HW211118   1.417   4.832   1.923
 3407SOL     OW11119   1.775   5.399   2.578
 3407SOL    HW111120   1.743   5.451   2.658
 3407SOL    HW211121   1.721   5.315   2.569
 3408SOL     OW11122   5.175   3.674   2.936
 3408SOL    HW111123   5.183   3.695   2.839
 3408SOL    HW211124   5.188   3.758   2.989
 3409SOL     OW11125   2.977   0.560   5.587
 3409SOL    HW111126   3.043   0.490   5.561
 3409SOL    HW211127   2.989   0.641   5.528
 3410SOL     OW11128   6.597   0.021   6.885
 3410SOL    HW111129   6.592   0.098   6.948
 3410SOL    HW211130   6.512   6.990   6.888
 3411SOL     OW11131   5.011   2.341   2.188
 3411SOL    HW111132   4.945   2.397   2.238
 3411SOL    HW211133   5.004   2.361   2.090
 3412SOL     OW11134   3.989   4.465   6.878
 3412SOL    HW111135   4.031   4.436   6.792
 3412SOL    HW211136   4.059   4.495   6.942
 3413SOL     OW11137   4.085   2.220   2.648
 3413SOL    HW111138   4.094   2.120   2.651
 3413SOL    HW211139   4.108   2.257   2.738
 3414SOL     OW11140   3.374   2.024   5.618
 3414SOL    HW111141   3.466   1.986   5.610
 3414SOL    HW211142   3.330   2.025   5.528
 3415SOL     OW11143   0.472   5.446   3.831
 3415SOL    HW111144   0.453   5.393   3.748
 3415SOL    HW211145   0.390   5.447   3.889
 3416SOL     OW11146   1.850   4.433   5.442
 3416SOL    HW111147   1.901   4.358   5.399
 3416SOL    HW211148   1.900   4.518   5.431
 3417SOL     OW11149   5.709   0.578   2.273
 3417SOL    HW111150   5.680   0.487   2.300
 3417SOL    HW211151   5.652   0.610   2.197
 3418SOL     OW11152   3.073   1.168   6.415
 3418SOL    HW111153   3.057   1.080   6.458
 3418SOL    HW211154   3.148   1.215   6.462
 3419SOL     OW11155   4.447   3.831   0.434
 3419SOL    HW111156   4.513   3.855   0.506
 3419SOL    HW211157   4.364   3.795   0.476
 3420SOL     OW11158   4.294   2.337   4.289
 3420SOL    HW111159   4.230   2.316   4.362
 3420SOL    HW211160   4.271   2.284   4.207
 3421SOL     OW11161   0.456   6.229   4.373
 3421SOL    HW111162   0.457   6.138   4.413
 3421SOL    HW211163   0.499   6.294   4.436
 3422SOL     OW11164   3.255   1.144   2.039
 3422SOL    HW111165   3.208   1.157   2.127
 3422SOL    HW211166   3.193   1.167   1.964
 3423SOL     OW11167   2.728   0.651   1.341
 3423SOL    HW111168   2.811   0.659   1.397
 3423SOL    HW211169   2.754   0.635   1.246
 3424SOL     OW11170   4.418   1.648   2.802
 3424SOL    HW111171   4.320   1.636   2.818
 3424SOL    HW211172   4.469   1.580   2.854
 3425SOL     OW11173   4.396   4.458   1.755
 3425SOL    HW111174   4.363   4.516   1.829
 3425SOL    HW211175   4.420   4.368   1.792
 3426SOL     OW11176   4.082   3.209   0.676
 3426SOL    HW111177   4.074   3.112   0.653
 3426SOL    HW211178   4.161   3.224   0.735
 3427SOL     OW11179   0.037   1.994   0.002
 3427SOL    HW111180   0.108   1.982   6.954
 3427SOL    HW211181   0.029   1.911   0.057
 3428SOL     OW11182   4.499   4.680   3.210
 3428SOL    HW111183   4.469   4.707   3.301
 3428SOL    HW211184   4.516   4.582   3.208
 3429SOL     OW11185   0.470   3.264   6.692
 3429SOL    HW111186   0.544   3.212   6.648
 3429SOL    HW211187   0.397   3.201   6.720
 3430SOL     OW11188   1.217   6.252   0.234
 3430SOL    HW111189   1.144   6.306   0.194
 3430SOL    HW211190   1.243   6.179   0.170
 3431SOL     OW11191   0.773   6.077   0.463
 3431SOL    HW111192   0.693   6.114   0.417
 3431SOL    HW211193   0.753   5.986   0.497
 3432SOL     OW11194   3.296   1.735   6.693
 3432SOL    HW111195   3.294   1.820   6.746
 3432SOL    HW211196   3.334   1.754   6.602
 3433SOL     OW11197   4.015   0.713   5.168
 3433SOL    HW111198   4.056   0.671   5.248
 3433SOL    HW211199   3.923   0.675   5.153
 3434SOL     OW11200   4.249   1.869   2.922
 3434SOL    HW111201   4.166   1.881   2.868
 3434SOL    HW211202   4.329   1.871   2.861
 3435SOL     OW11203   0.639   0.954   0.020
 3435SOL    HW111204   0.734   0.928   0.001
 3435SOL    HW211205   0.606   0.901   0.099
 3436SOL     OW11206   4.335   6.756   3.172
 3436SOL    HW111207   4.335   6.720   3.266
 3436SOL    HW211208   4.429   6.767   3.141
 3437SOL     OW11209   3.798   6.957   6.322
 3437SOL    HW111210   3.843   6.981   6.237
 3437SOL    HW211211   3.757   6.866   6.314
 3438SOL     OW11212   1.408   3.804   6.642
 3438SOL    HW111213   1.430   3.828   6.547
 3438SOL    HW211214   1.337   3.734   6.643
 3439SOL     OW11215   2.866   5.682   3.556
 3439SOL    HW111216   2.771   5.659   3.532
 3439SOL    HW211217   2.872   5.697   3.655
 3440SOL     OW11218   4.555   1.889   0.687
 3440SOL    HW111219   4.550   1.793   0.714
 3440SOL    HW211220   4.476   1.938   0.724
 3441SOL     OW11221   2.972   0.235   3.660
 3441SOL    HW111222   3.024   0.318   3.643
 3441SOL    HW211223   3.034   0.157   3.666
 3442SOL     OW11224   1.847   4.748   3.284
 3442SOL    HW111225   1.890   4.687   3.217
 3442SOL    HW211226   1.757   4.713   3.308
 3443SOL     OW11227   6.112   0.852   3.646
 3443SOL    HW111228   6.147   0.921   3.709
 3443SOL    HW211229   6.030   0.811   3.685
 3444SOL     OW11230   4.385   5.284   0.065
 3444SOL    HW111231   4.287   5.266   0.058
 3444SOL    HW211232   4.403   5.345   0.142
 3445SOL     OW11233   6.153   4.262   4.503
 3445SOL    HW111234   6.161   4.348   4.553
 3445SOL    HW211235   6.142   4.187   4.568
 3446SOL     OW11236   3.405   6.546   2.592
 3446SOL    HW111237   3.327   6.578   2.537
 3446SOL    HW211238   3.395   6.578   2.686
 3447SOL     OW11239   5.564   5.107   6.266
 3447SOL    HW111240   5.505   5.167   6.319
 3447SOL    HW211241   5.515   5.023   6.243
 3448SOL     OW11242   3.493   2.115   0.837
 3448SOL    HW111243   3.555   2.166   0.778
 3448SOL    HW211244   3.502   2.017   0.819
 3449SOL     OW11245   6.149   6.142   3.714
 3449SOL    HW111246   6.135   6.179   3.622
 3449SOL    HW211247   6.204   6.205   3.768
 3450SOL     OW11248   1.162   1.740   1.264
 3450SOL    HW111249   1.198   1.792   1.342
 3450SOL    HW211250   1.209   1.767   1.181
 3451SOL     OW11251   0.928   5.049   4.470
 3451SOL    HW111252   0.904   5.118   4.539
 3451SOL    HW211253   0.911   5.086   4.379
 3452SOL     OW11254   6.126   1.902   6.654
 3452SOL    HW111255   6.201   1.968   6.646
 3452SOL    HW211256   6.066   1.930   6.729
 3453SOL     OW11257   5.697   5.656   5.896
 3453SOL    HW111258   5.796   5.652   5.911
 3453SOL    HW211259   5.673   5.737   5.844
 3454SOL     OW11260   0.708   0.709   0.418
 3454SOL    HW111261   0.722   0.807   0.405
 3454SOL    HW211262   0.685   0.667   0.331
 3455SOL     OW11263   1.837   2.834   4.807
 3455SOL    HW111264   1.847   2.741   4.772
 3455SOL    HW211265   1.854   2.834   4.906
 3456SOL     OW11266   6.537   0.087   1.670
 3456SOL    HW111267   6.496   0.060   1.758
 3456SOL    HW211268   6.545   0.007   1.611
 3457SOL     OW11269   2.185   5.221   3.268
 3457SOL    HW111270   2.115   5.291   3.274
 3457SOL    HW211271   2.203   5.183   3.359
 3458SOL     OW11272   5.136   5.531   1.298
 3458SOL    HW111273   5.090   5.480   1.370
 3458SOL    HW211274   5.188   5.469   1.240
 3459SOL     OW11275   6.336   6.304   3.843
 3459SOL    HW111276   6.330   6.404   3.846
 3459SOL    HW211277   6.412   6.278   3.784
 3460SOL     OW11278   4.086   3.357   6.689
 3460SOL    HW111279   4.035   3.350   6.775
 3460SOL    HW211280   4.133   3.445   6.686
 3461SOL     OW11281   3.270   5.531   2.655
 3461SOL    HW111282   3.261   5.630   2.664
 3461SOL    HW211283   3.367   5.507   2.661
 3462SOL     OW11284   4.942   3.164   3.248
 3462SOL    HW111285   5.038   3.187   3.266
 3462SOL    HW211286   4.929   3.066   3.256
 3463SOL     OW11287   2.212   3.010   1.101
 3463SOL    HW111288   2.212   3.050   1.009
 3463SOL    HW211289   2.301   2.967   1.117
 3464SOL     OW11290   4.525   2.606   6.755
 3464SOL    HW111291   4.449   2.669   6.770
 3464SOL    HW211292   4.582   2.603   6.837
 3465SOL     OW11293   1.739   3.737   2.068
 3465SOL    HW111294   1.718   3.729   2.165
 3465SOL    HW211295   1.770   3.648   2.034
 3466SOL     OW11296   6.041   4.679   4.074
 3466SOL    HW111297   5.985   4.752   4.034
 3466SOL    HW211298   6.132   4.680   4.033
 3467SOL     OW11299   3.060   2.749   1.331
 3467SOL    HW111300   2.967   2.781   1.344
 3467SOL    HW211301   3.071   2.660   1.375
 3468SOL     OW11302   3.563   1.623   0.971
 3468SOL    HW111303   3.517   1.696   1.022
 3468SOL    HW211304   3.660   1.644   0.964
 3469SOL     OW11305   4.087   5.787   5.204
 3469SOL    HW111306   4.149   5.861   5.232
 3469SOL    HW211307   4.115   5.702   5.249
 3470SOL     OW11308   1.134   2.937   1.775
 3470SOL    HW111309   1.145   2.917   1.872
 3470SOL    HW211310   1.140   2.852   1.722
 3471SOL     OW11311   5.125   2.960   3.854
 3471SOL    HW111312   5.113   3.059   3.861
 3471SOL    HW211313   5.223   2.938   3.853
 3472SOL     OW11314   4.120   1.510   3.483
 3472SOL    HW111315   4.206   1.559   3.497
 3472SOL    HW211316   4.045   1.575   3.473
 3473SOL     OW11317   0.054   4.330   1.850
 3473SOL    HW111318   0.152   4.318   1.832
 3473SOL    HW211319   0.042   4.379   1.936
 3474SOL     OW11320   5.621   5.242   3.961
 3474SOL    HW111321   5.621   5.180   4.040
 3474SOL    HW211322   5.648   5.333   3.991
 3475SOL     OW11323   6.898   4.109   4.049
 3475SOL    HW111324   6.922   4.012   4.057
 3475SOL    HW211325   6.847   4.124   3.965
 3476SOL     OW11326   1.225   1.053   3.234
 3476SOL    HW111327   1.167   0.975   3.207
 3476SOL    HW211328   1.237   1.052   3.333
 3477SOL     OW11329   0.290   3.954   2.131
 3477SOL    HW111330   0.338   3.869   2.152
 3477SOL    HW211331   0.230   3.978   2.207
 3478SOL     OW11332   2.103   0.793   0.977
 3478SOL    HW111333   2.180   0.760   1.031
 3478SOL    HW211334   2.018   0.759   1.017
 3479SOL     OW11335   1.541   4.361   4.294
 3479SOL    HW111336   1.615   4.298   4.271
 3479SOL    HW211337   1.551   4.391   4.388
 3480SOL     OW11338   1.343   4.760   6.989
 3480SOL    HW111339   1.349   4.807   6.901
 3480SOL    HW211340   1.382   4.669   6.982
 3481SOL     OW11341   5.693   0.936   5.231
 3481SOL    HW111342   5.594   0.931   5.223
 3481SOL    HW211343   5.722   1.032   5.229
 3482SOL     OW11344   6.180   3.948   5.273
 3482SOL    HW111345   6.102   3.986   5.223
 3482SOL    HW211346   6.206   4.011   5.346
 3483SOL     OW11347   5.256   2.916   4.626
 3483SOL    HW111348   5.203   2.909   4.541
 3483SOL    HW211349   5.307   2.831   4.640
 3484SOL     OW11350   2.143   3.507   5.418
 3484SOL    HW111351   2.188   3.596   5.420
 3484SOL    HW211352   2.202   3.439   5.461
 3485SOL     OW11353   0.435   2.445   6.340
 3485SOL    HW111354   0.368   2.418   6.271
 3485SOL    HW211355   0.434   2.544   6.352
 3486SOL     OW11356   1.934   6.901   4.940
 3486SOL    HW111357   1.935   6.974   4.872
 3486SOL    HW211358   1.949   6.813   4.895
 3487SOL     OW11359   4.916   1.509   6.762
 3487SOL    HW111360   4.963   1.421   6.751
 3487SOL    HW211361   4.906   1.552   6.672
 3488SOL     OW11362   5.655   0.586   4.769
 3488SOL    HW111363   5.671   0.681   4.744
 3488SOL    HW211364   5.734   0.551   4.819
 3489SOL     OW11365   3.476   6.578   0.412
 3489SOL    HW111366   3.478   6.585   0.312
 3489SOL    HW211367   3.399   6.631   0.447
 3490SOL     OW11368   3.574   5.663   0.094
 3490SOL    HW111369   3.501   5.618   0.043
 3490SOL    HW211370   3.540   5.749   0.132
 3491SOL     OW11371   5.027   4.734   6.157
 3491SOL    HW111372   5.101   4.756   6.220
 3491SOL    HW211373   4.984   4.648   6.183
 3492SOL     OW11374   5.910   4.545   2.849
 3492SOL    HW111375   5.937   4.618   2.787
 3492SOL    HW211376   5.979   4.536   2.921
 3493SOL     OW11377   5.958   3.376   4.953
 3493SOL    HW111378   5.900   3.303   4.919
 3493SOL    HW211379   5.914   3.420   5.032
 3494SOL     OW11380   4.088   1.648   1.869
 3494SOL    HW111381   4.170   1.662   1.924
 3494SOL    HW211382   4.095   1.701   1.784
 3495SOL     OW11383   0.781   2.942   2.633
 3495SOL    HW111384   0.742   2.853   2.657
 3495SOL    HW211385   0.825   2.935   2.543
 3496SOL     OW11386   5.453   5.456   1.482
 3496SOL    HW111387   5.458   5.555   1.470
 3496SOL    HW211388   5.434   5.435   1.577
 3497SOL     OW11389   3.380   6.763   2.360
 3497SOL    HW111390   3.292   6.727   2.391
 3497SOL    HW211391   3.373   6.862   2.349
 3498SOL     OW11392   2.181   2.296   1.528
 3498SOL    HW111393   2.179   2.301   1.628
 3498SOL    HW211394   2.273   2.317   1.496
 3499SOL     OW11395   6.171   5.404   5.792
 3499SOL    HW111396   6.184   5.460   5.709
 3499SOL    HW211397   6.075   5.378   5.801
 3500SOL     OW11398   1.607   2.025   4.146
 3500SOL    HW111399   1.648   2.102   4.195
 3500SOL    HW211400   1.675   1.985   4.084
 3501SOL     OW11401   1.339   0.360   5.694
 3501SOL    HW111402   1.272   0.289   5.714
 3501SOL    HW211403   1.401   0.371   5.772
 3502SOL     OW11404   4.830   2.986   2.227
 3502SOL    HW111405   4.783   3.012   2.143
 3502SOL    HW211406   4.924   2.960   2.206
 3503SOL     OW11407   6.176   5.830   0.032
 3503SOL    HW111408   6.210   5.814   6.960
 3503SOL    HW211409   6.155   5.742   0.075
 3504SOL     OW11410   1.475   1.020   1.096
 3504SOL    HW111411   1.514   0.986   1.181
 3504SOL    HW211412   1.420   1.102   1.114
 3505SOL     OW11413   5.730   4.854   6.025
 3505SOL    HW111414   5.779   4.779   5.981
 3505SOL    HW211415   5.775   4.877   6.112
 3506SOL     OW11416   5.101   4.611   4.845
 3506SOL    HW111417   5.096   4.546   4.769
 3506SOL    HW211418   5.088   4.704   4.810
 3507SOL     OW11419   3.262   6.704   0.512
 3507SOL    HW111420   3.200   6.654   0.572
 3507SOL    HW211421   3.222   6.793   0.488
 3508SOL     OW11422   3.052   2.263   5.392
 3508SOL    HW111423   3.113   2.270   5.471
 3508SOL    HW211424   3.092   2.312   5.315
 3509SOL     OW11425   4.116   5.202   6.678
 3509SOL    HW111426   4.161   5.290   6.659
 3509SOL    HW211427   4.024   5.203   6.639
 3510SOL     OW11428   2.911   0.889   0.703
 3510SOL    HW111429   2.948   0.955   0.768
 3510SOL    HW211430   2.865   0.936   0.628
 3511SOL     OW11431   2.676   4.563   1.688
 3511SOL    HW111432   2.765   4.553   1.733
 3511SOL    HW211433   2.670   4.654   1.647
 3512SOL     OW11434   0.218   4.933   6.518
 3512SOL    HW111435   0.226   5.010   6.582
 3512SOL    HW211436   0.241   4.965   6.426
 3513SOL     OW11437   6.076   2.294   0.173
 3513SOL    HW111438   6.150   2.335   0.227
 3513SOL    HW211439   6.107   2.282   0.079
 3514SOL     OW11440   3.962   1.407   2.533
 3514SOL    HW111441   4.015   1.323   2.545
 3514SOL    HW211442   3.900   1.397   2.455
 3515SOL     OW11443   6.289   5.581   4.256
 3515SOL    HW111444   6.208   5.538   4.215
 3515SOL    HW211445   6.371   5.536   4.221
 3516SOL     OW11446   4.839   0.454   1.501
 3516SOL    HW111447   4.767   0.509   1.458
 3516SOL    HW211448   4.899   0.514   1.554
 3517SOL     OW11449   6.125   0.667   0.908
 3517SOL    HW111450   6.056   0.719   0.857
 3517SOL    HW211451   6.092   0.649   1.000
 3518SOL     OW11452   5.106   1.079   5.366
 3518SOL    HW111453   5.069   1.065   5.458
 3518SOL    HW211454   5.055   1.152   5.320
 3519SOL     OW11455   3.514   0.886   0.593
 3519SOL    HW111456   3.474   0.796   0.607
 3519SOL    HW211457   3.477   0.927   0.510
 3520SOL     OW11458   2.486   6.534   4.865
 3520SOL    HW111459   2.521   6.454   4.914
 3520SOL    HW211460   2.393   6.554   4.895
 3521SOL     OW11461   2.522   2.642   0.453
 3521SOL    HW111462   2.566   2.720   0.497
 3521SOL    HW211463   2.557   2.631   0.361
 3522SOL     OW11464   0.198   5.853   6.588
 3522SOL    HW111465   0.193   5.952   6.576
 3522SOL    HW211466   0.163   5.807   6.507
 3523SOL     OW11467   1.442   5.233   6.257
 3523SOL    HW111468   1.400   5.308   6.307
 3523SOL    HW211469   1.540   5.249   6.249
 3524SOL     OW11470   5.655   1.328   3.123
 3524SOL    HW111471   5.634   1.260   3.194
 3524SOL    HW211472   5.707   1.285   3.049
 3525SOL     OW11473   6.071   4.233   3.424
 3525SOL    HW111474   6.075   4.323   3.380
 3525SOL    HW211475   5.979   4.218   3.460
 3526SOL     OW11476   0.836   6.277   3.060
 3526SOL    HW111477   0.738   6.257   3.063
 3526SOL    HW211478   0.871   6.254   2.969
 3527SOL     OW11479   6.554   2.510   5.709
 3527SOL    HW111480   6.613   2.500   5.629
 3527SOL    HW211481   6.522   2.605   5.715
 3528SOL     OW11482   2.195   6.431   4.737
 3528SOL    HW111483   2.294   6.445   4.745
 3528SOL    HW211484   2.174   6.334   4.751
 3529SOL     OW11485   4.140   5.103   0.795
 3529SOL    HW111486   4.110   5.082   0.702
 3529SOL    HW211487   4.187   5.191   0.796
 3530SOL     OW11488   0.002   0.469   1.580
 3530SOL    HW111489   6.937   0.487   1.533
 3530SOL    HW211490   7.021   0.507   1.672
 3531SOL     OW11491   5.237   1.936   0.194
 3531SOL    HW111492   5.263   1.891   0.280
 3531SOL    HW211493   5.139   1.952   0.193
 3532SOL     OW11494   1.803   1.714   1.886
 3532SOL    HW111495   1.772   1.807   1.866
 3532SOL    HW211496   1.725   1.653   1.894
 3533SOL     OW11497   0.467   0.900   2.614
 3533SOL    HW111498   0.553   0.952   2.616
 3533SOL    HW211499   0.393   0.956   2.652
 3534SOL     OW11500   0.070   0.706   1.236
 3534SOL    HW111501   7.019   0.638   1.230
 3534SOL    HW211502   0.146   0.671   1.290
 3535SOL     OW11503   2.635   5.847   4.420
 3535SOL    HW111504   2.709   5.785   4.395
 3535SOL    HW211505   2.579   5.805   4.491
 3536SOL     OW11506   3.546   2.138   2.907
 3536SOL    HW111507   3.507   2.133   2.815
 3536SOL    HW211508   3.473   2.146   2.974
 3537SOL     OW11509   1.639   6.011   2.981
 3537SOL    HW111510   1.625   5.922   2.938
 3537SOL    HW211511   1.684   5.999   3.069
 3538SOL     OW11512   3.309   5.570   3.966
 3538SOL    HW111513   3.213   5.545   3.956
 3538SOL    HW211514   3.352   5.512   4.035
 3539SOL     OW11515   3.394   3.922   4.383
 3539SOL    HW111516   3.466   3.981   4.421
 3539SOL    HW211517   3.332   3.978   4.327
 3540SOL     OW11518   1.852   1.988   3.826
 3540SOL    HW111519   1.902   1.907   3.795
 3540SOL    HW211520   1.907   2.037   3.894
 3541SOL     OW11521   3.225   4.005   4.892
 3541SOL    HW111522   3.322   3.986   4.909
 3541SOL    HW211523   3.170   3.963   4.964
 3542SOL     OW11524   0.270   5.411   1.837
 3542SOL    HW111525   0.249   5.315   1.819
 3542SOL    HW211526   0.255   5.465   1.755
 3543SOL     OW11527   5.892   2.837   4.555
 3543SOL    HW111528   5.868   2.780   4.477
 3543SOL    HW211529   5.964   2.793   4.609
 3544SOL     OW11530   2.061   5.320   6.349
 3544SOL    HW111531   2.053   5.266   6.433
 3544SOL    HW211532   2.059   5.418   6.372
 3545SOL     OW11533   3.928   5.222   6.943
 3545SOL    HW111534   3.939   5.302   6.884
 3545SOL    HW211535   3.978   5.144   6.905
 3546SOL     OW11536   6.317   5.089   3.318
 3546SOL    HW111537   6.231   5.111   3.272
 3546SOL    HW211538   6.384   5.161   3.301
 3547SOL     OW11539   5.241   4.864   4.381
 3547SOL    HW111540   5.294   4.857   4.465
 3547SOL    HW211541   5.145   4.877   4.403
 3548SOL     OW11542   4.794   2.963   5.362
 3548SOL    HW111543   4.839   3.039   5.314
 3548SOL    HW211544   4.760   2.897   5.295
 3549SOL     OW11545   5.862   4.303   2.689
 3549SOL    HW111546   5.886   4.353   2.772
 3549SOL    HW211547   5.801   4.227   2.712
 3550SOL     OW11548   5.770   2.183   2.262
 3550SOL    HW111549   5.811   2.171   2.171
 3550SOL    HW211550   5.824   2.248   2.315
 3551SOL     OW11551   2.753   6.666   3.321
 3551SOL    HW111552   2.701   6.638   3.401
 3551SOL    HW211553   2.749   6.766   3.312
 3552SOL     OW11554   6.562   4.948   3.061
 3552SOL    HW111555   6.502   5.021   3.093
 3552SOL    HW211556   6.621   4.918   3.136
 3553SOL     OW11557   5.847   1.731   2.730
 3553SOL    HW111558   5.928   1.772   2.771
 3553SOL    HW211559   5.816   1.787   2.653
 3554SOL     OW11560   3.863   5.247   6.537
 3554SOL    HW111561   3.766   5.233   6.519
 3554SOL    HW211562   3.912   5.260   6.451
 3555SOL     OW11563   1.337   2.834   3.633
 3555SOL    HW111564   1.302   2.866   3.545
 3555SOL    HW211565   1.409   2.896   3.664
 3556SOL     OW11566   3.822   0.461   6.564
 3556SOL    HW111567   3.770   0.507   6.636
 3556SOL    HW211568   3.764   0.393   6.520
 3557SOL     OW11569   1.141   0.506   5.099
 3557SOL    HW111570   1.238   0.501   5.075
 3557SOL    HW211571   1.117   0.430   5.160
 3558SOL     OW11572   0.275   5.533   1.371
 3558SOL    HW111573   0.282   5.632   1.373
 3558SOL    HW211574   0.270   5.502   1.275
 3559SOL     OW11575   0.565   0.814   5.567
 3559SOL    HW111576   0.638   0.858   5.620
 3559SOL    HW211577   0.569   0.846   5.473
 3560SOL     OW11578   6.799   6.528   1.377
 3560SOL    HW111579   6.791   6.489   1.285
 3560SOL    HW211580   6.895   6.546   1.398
 3561SOL     OW11581   4.735   4.813   4.838
 3561SOL    HW111582   4.780   4.765   4.914
 3561SOL    HW211583   4.665   4.754   4.798
 3562SOL     OW11584   4.471   1.435   3.015
 3562SOL    HW111585   4.565   1.407   3.037
 3562SOL    HW211586   4.413   1.354   3.010
 3563SOL     OW11587   4.857   1.001   1.285
 3563SOL    HW111588   4.928   1.035   1.222
 3563SOL    HW211589   4.799   0.936   1.237
 3564SOL     OW11590   0.407   4.384   3.061
 3564SOL    HW111591   0.355   4.304   3.032
 3564SOL    HW211592   0.413   4.449   2.985
 3565SOL     OW11593   1.758   0.423   5.126
 3565SOL    HW111594   1.839   0.365   5.132
 3565SOL    HW211595   1.699   0.405   5.205
 3566SOL     OW11596   0.794   3.801   5.497
 3566SOL    HW111597   0.857   3.787   5.420
 3566SOL    HW211598   0.793   3.898   5.522
 3567SOL     OW11599   0.262   2.979   0.996
 3567SOL    HW111600   0.180   2.980   1.052
 3567SOL    HW211601   0.247   3.035   0.914
 3568SOL     OW11602   5.271   3.531   3.349
 3568SOL    HW111603   5.185   3.563   3.390
 3568SOL    HW211604   5.251   3.487   3.261
 3569SOL     OW11605   3.621   3.221   3.873
 3569SOL    HW111606   3.645   3.144   3.932
 3569SOL    HW211607   3.682   3.298   3.892
 3570SOL     OW11608   0.233   2.536   5.950
 3570SOL    HW111609   0.142   2.514   5.914
 3570SOL    HW211610   0.224   2.593   6.031
 3571SOL     OW11611   2.072   6.702   5.137
 3571SOL    HW111612   2.046   6.771   5.070
 3571SOL    HW211613   2.032   6.614   5.111
 3572SOL     OW11614   4.821   4.652   2.077
 3572SOL    HW111615   4.899   4.696   2.032
 3572SOL    HW211616   4.770   4.599   2.009
 3573SOL     OW11617   6.953   3.892   3.053
 3573SOL    HW111618   0.009   3.861   2.998
 3573SOL    HW211619   6.908   3.813   3.094
 3574SOL     OW11620   2.191   2.086   5.467
 3574SOL    HW111621   2.206   2.182   5.490
 3574SOL    HW211622   2.251   2.029   5.523
 3575SOL     OW11623   5.289   0.179   0.010
 3575SOL    HW111624   5.200   0.172   0.055
 3575SOL    HW211625   5.326   0.087   7.016
 3576SOL     OW11626   1.282   2.985   1.107
 3576SOL    HW111627   1.248   3.018   1.018
 3576SOL    HW211628   1.245   3.043   1.180
 3577SOL     OW11629   2.470   2.915   5.668
 3577SOL    HW111630   2.434   2.851   5.601
 3577SOL    HW211631   2.530   2.980   5.623
 3578SOL     OW11632   3.080   2.832   6.365
 3578SOL    HW111633   3.125   2.848   6.277
 3578SOL    HW211634   3.050   2.737   6.371
 3579SOL     OW11635   0.682   2.924   1.755
 3579SOL    HW111636   0.743   2.926   1.835
 3579SOL    HW211637   0.725   2.975   1.680
 3580SOL     OW11638   0.542   4.427   1.637
 3580SOL    HW111639   0.584   4.338   1.621
 3580SOL    HW211640   0.483   4.450   1.559
 3581SOL     OW11641   1.555   0.017   2.784
 3581SOL    HW111642   1.611   0.013   2.867
 3581SOL    HW211643   1.614   0.038   2.705
 3582SOL     OW11644   3.843   4.634   6.442
 3582SOL    HW111645   3.767   4.586   6.398
 3582SOL    HW211646   3.851   4.606   6.537
 3583SOL     OW11647   0.708   4.991   0.803
 3583SOL    HW111648   0.718   5.039   0.716
 3583SOL    HW211649   0.796   4.987   0.850
 3584SOL     OW11650   6.216   4.760   4.862
 3584SOL    HW111651   6.208   4.789   4.767
 3584SOL    HW211652   6.132   4.714   4.890
 3585SOL     OW11653   3.325   1.483   2.907
 3585SOL    HW111654   3.239   1.505   2.861
 3585SOL    HW211655   3.330   1.385   2.924
 3586SOL     OW11656   6.618   2.774   5.093
 3586SOL    HW111657   6.569   2.779   5.005
 3586SOL    HW211658   6.634   2.866   5.127
 3587SOL     OW11659   2.799   6.862   6.599
 3587SOL    HW111660   2.877   6.808   6.629
 3587SOL    HW211661   2.772   6.926   6.671
 3588SOL     OW11662   6.340   4.878   4.634
 3588SOL    HW111663   6.429   4.918   4.610
 3588SOL    HW211664   6.320   4.802   4.572
 3589SOL     OW11665   0.347   0.496   6.061
 3589SOL    HW111666   0.311   0.425   6.121
 3589SOL    HW211667   0.272   0.539   6.012
 3590SOL     OW11668   6.430   5.130   0.164
 3590SOL    HW111669   6.393   5.138   0.257
 3590SOL    HW211670   6.500   5.200   0.150
 3591SOL     OW11671   6.029   1.572   6.654
 3591SOL    HW111672   6.038   1.600   6.749
 3591SOL    HW211673   6.112   1.597   6.604
 3592SOL     OW11674   1.966   6.143   1.348
 3592SOL    HW111675   1.951   6.242   1.348
 3592SOL    HW211676   1.906   6.101   1.279
 3593SOL     OW11677   4.375   2.995   5.356
 3593SOL    HW111678   4.440   2.921   5.339
 3593SOL    HW211679   4.308   2.966   5.424
 3594SOL     OW11680   4.577   4.671   5.107
 3594SOL    HW111681   4.489   4.647   5.065
 3594SOL    HW211682   4.652   4.646   5.046
 3595SOL     OW11683   5.238   6.367   4.742
 3595SOL    HW111684   5.219   6.405   4.833
 3595SOL    HW211685   5.223   6.268   4.744
 3596SOL     OW11686   4.141   2.144   3.757
 3596SOL    HW111687   4.216   2.208   3.744
 3596SOL    HW211688   4.133   2.086   3.676
 3597SOL     OW11689   2.767   3.285   5.345
 3597SOL    HW111690   2.796   3.195   5.311
 3597SOL    HW211691   2.825   3.312   5.421
 3598SOL     OW11692   1.436   5.829   5.376
 3598SOL    HW111693   1.434   5.852   5.474
 3598SOL    HW211694   1.366   5.882   5.328
 3599SOL     OW11695   3.455   1.115   5.120
 3599SOL    HW111696   3.477   1.027   5.078
 3599SOL    HW211697   3.540   1.163   5.143
 3600SOL     OW11698   3.223   3.360   0.346
 3600SOL    HW111699   3.246   3.447   0.390
 3600SOL    HW211700   3.264   3.285   0.398
 3601SOL     OW11701   4.560   0.904   5.016
 3601SOL    HW111702   4.483   0.899   5.078
 3601SOL    HW211703   4.643   0.927   5.067
 3602SOL     OW11704   2.295   1.925   1.276
 3602SOL    HW111705   2.286   1.899   1.372
 3602SOL    HW211706   2.348   2.009   1.269
 3603SOL     OW11707   2.605   0.837   5.283
 3603SOL    HW111708   2.672   0.897   5.327
 3603SOL    HW211709   2.547   0.795   5.352
 3604SOL     OW11710   7.012   0.455   3.477
 3604SOL    HW111711   0.059   0.446   3.404
 3604SOL    HW211712   6.935   0.395   3.458
 3605SOL     OW11713   1.178   6.552   4.120
 3605SOL    HW111714   1.117   6.594   4.053
 3605SOL    HW211715   1.266   6.534   4.078
 3606SOL     OW11716   2.719   6.543   2.311
 3606SOL    HW111717   2.642   6.492   2.273
 3606SOL    HW211718   2.698   6.567   2.406
 3607SOL     OW11719   5.967   2.008   3.062
 3607SOL    HW111720   5.990   1.999   3.159
 3607SOL    HW211721   5.872   1.979   3.048
 3608SOL     OW11722   2.658   2.045   6.050
 3608SOL    HW111723   2.746   1.999   6.056
 3608SOL    HW211724   2.670   2.142   6.072
 3609SOL     OW11725   2.928   0.894   4.661
 3609SOL    HW111726   2.980   0.929   4.739
 3609SOL    HW211727   2.866   0.966   4.629
 3610SOL     OW11728   1.601   0.337   5.356
 3610SOL    HW111729   1.630   0.282   5.434
 3610SOL    HW211730   1.520   0.297   5.315
 3611SOL     OW11731   5.356   5.135   3.146
 3611SOL    HW111732   5.324   5.102   3.234
 3611SOL    HW211733   5.321   5.227   3.129
 3612SOL     OW11734   6.155   1.262   7.000
 3612SOL    HW111735   6.059   1.242   0.002
 3612SOL    HW211736   6.192   1.327   0.045
 3613SOL     OW11737   4.534   6.200   2.053
 3613SOL    HW111738   4.556   6.127   1.988
 3613SOL    HW211739   4.517   6.285   2.003
 3614SOL     OW11740   3.468   5.356   6.824
 3614SOL    HW111741   3.529   5.286   6.861
 3614SOL    HW211742   3.511   5.400   6.745
 3615SOL     OW11743   5.542   2.142   5.816
 3615SOL    HW111744   5.494   2.226   5.790
 3615SOL    HW211745   5.640   2.152   5.800
 3616SOL     OW11746   1.088   1.954   0.117
 3616SOL    HW111747   1.178   1.980   0.082
 3616SOL    HW211748   1.033   2.037   0.132
 3617SOL     OW11749   3.681   5.807   5.476
 3617SOL    HW111750   3.666   5.822   5.378
 3617SOL    HW211751   3.625   5.871   5.529
 3618SOL     OW11752   1.076   5.076   4.012
 3618SOL    HW111753   1.148   5.097   4.079
 3618SOL    HW211754   1.083   4.980   3.985
 3619SOL     OW11755   5.999   3.693   2.155
 3619SOL    HW111756   5.913   3.714   2.203
 3619SOL    HW211757   5.981   3.627   2.083
 3620SOL     OW11758   6.089   5.856   4.839
 3620SOL    HW111759   6.127   5.919   4.907
 3620SOL    HW211760   6.025   5.905   4.780
 3621SOL     OW11761   3.542   2.931   3.482
 3621SOL    HW111762   3.443   2.944   3.471
 3621SOL    HW211763   3.586   3.021   3.490
 3622SOL     OW11764   1.603   6.228   5.989
 3622SOL    HW111765   1.550   6.312   6.001
 3622SOL    HW211766   1.557   6.153   6.036
 3623SOL     OW11767   1.059   5.633   6.111
 3623SOL    HW111768   1.106   5.645   6.198
 3623SOL    HW211769   0.962   5.615   6.127
 3624SOL     OW11770   2.711   2.555   1.478
 3624SOL    HW111771   2.773   2.482   1.449
 3624SOL    HW211772   2.716   2.565   1.577
 3625SOL     OW11773   6.980   2.106   0.718
 3625SOL    HW111774   6.933   2.053   0.788
 3625SOL    HW211775   6.914   2.140   0.651
 3626SOL     OW11776   1.742   3.027   5.073
 3626SOL    HW111777   1.658   3.074   5.044
 3626SOL    HW211778   1.821   3.084   5.051
 3627SOL     OW11779   3.469   2.013   1.983
 3627SOL    HW111780   3.547   2.076   1.989
 3627SOL    HW211781   3.493   1.937   1.922
 3628SOL     OW11782   6.725   1.937   1.619
 3628SOL    HW111783   6.634   1.896   1.610
 3628SOL    HW211784   6.724   2.028   1.577
 3629SOL     OW11785   1.053   1.280   4.456
 3629SOL    HW111786   1.142   1.321   4.437
 3629SOL    HW211787   1.061   1.180   4.453
 3630SOL     OW11788   0.024   2.157   1.678
 3630SOL    HW111789   6.996   2.076   1.648
 3630SOL    HW211790   0.045   2.149   1.775
 3631SOL     OW11791   1.710   6.925   2.443
 3631SOL    HW111792   1.634   6.988   2.433
 3631SOL    HW211793   1.684   6.851   2.505
 3632SOL     OW11794   4.565   3.905   1.630
 3632SOL    HW111795   4.587   3.815   1.592
 3632SOL    HW211796   4.474   3.903   1.671
 3633SOL     OW11797   3.705   3.999   0.174
 3633SOL    HW111798   3.654   4.077   0.137
 3633SOL    HW211799   3.666   3.914   0.137
 3634SOL     OW11800   3.247   5.383   6.442
 3634SOL    HW111801   3.216   5.478   6.444
 3634SOL    HW211802   3.246   5.349   6.348
 3635SOL     OW11803   1.638   5.899   2.028
 3635SOL    HW111804   1.638   5.975   2.093
 3635SOL    HW211805   1.730   5.890   1.988
 3636SOL     OW11806   0.407   5.239   6.387
 3636SOL    HW111807   0.439   5.317   6.441
 3636SOL    HW211808   0.480   5.171   6.380
 3637SOL     OW11809   6.006   3.027   0.168
 3637SOL    HW111810   6.082   2.983   0.215
 3637SOL    HW211811   5.979   3.109   0.218
 3638SOL     OW11812   6.507   3.330   2.831
 3638SOL    HW111813   6.542   3.261   2.768
 3638SOL    HW211814   6.407   3.334   2.824
 3639SOL     OW11815   3.925   3.031   3.679
 3639SOL    HW111816   3.963   3.012   3.589
 3639SOL    HW211817   3.838   2.982   3.690
 3640SOL     OW11818   4.419   2.083   2.105
 3640SOL    HW111819   4.364   2.142   2.045
 3640SOL    HW211820   4.372   1.996   2.119
 3641SOL     OW11821   6.018   4.032   2.598
 3641SOL    HW111822   6.101   4.051   2.650
 3641SOL    HW211823   6.007   4.101   2.526
 3642SOL     OW11824   5.316   3.176   6.050
 3642SOL    HW111825   5.315   3.206   6.145
 3642SOL    HW211826   5.276   3.246   5.992
 3643SOL     OW11827   3.973   5.602   4.856
 3643SOL    HW111828   3.934   5.520   4.898
 3643SOL    HW211829   4.072   5.589   4.845
 3644SOL     OW11830   3.019   0.458   1.671
 3644SOL    HW111831   2.955   0.526   1.707
 3644SOL    HW211832   3.070   0.417   1.746
 3645SOL     OW11833   1.309   4.015   3.419
 3645SOL    HW111834   1.308   3.973   3.328
 3645SOL    HW211835   1.394   4.065   3.433
 3646SOL     OW11836   1.486   4.601   5.569
 3646SOL    HW111837   1.524   4.509   5.577
 3646SOL    HW211838   1.521   4.644   5.486
 3647SOL     OW11839   2.500   0.218   6.351
 3647SOL    HW111840   2.402   0.198   6.352
 3647SOL    HW211841   2.514   0.317   6.349
 3648SOL     OW11842   4.684   5.622   3.497
 3648SOL    HW111843   4.682   5.646   3.594
 3648SOL    HW211844   4.772   5.648   3.457
 3649SOL     OW11845   5.820   2.784   0.312
 3649SOL    HW111846   5.858   2.871   0.281
 3649SOL    HW211847   5.758   2.747   0.243
 3650SOL     OW11848   5.340   6.110   6.455
 3650SOL    HW111849   5.243   6.117   6.477
 3650SOL    HW211850   5.393   6.164   6.521
 3651SOL     OW11851   0.717   2.141   5.665
 3651SOL    HW111852   0.809   2.128   5.628
 3651SOL    HW211853   0.718   2.126   5.763
 3652SOL     OW11854   4.388   1.666   1.689
 3652SOL    HW111855   4.324   1.741   1.706
 3652SOL    HW211856   4.339   1.591   1.642
 3653SOL     OW11857   1.367   1.803   1.082
 3653SOL    HW111858   1.403   1.819   0.989
 3653SOL    HW211859   1.390   1.881   1.140
 3654SOL     OW11860   4.432   6.565   1.617
 3654SOL    HW111861   4.345   6.615   1.614
 3654SOL    HW211862   4.422   6.478   1.568
 3655SOL     OW11863   1.036   1.071   4.123
 3655SOL    HW111864   1.035   0.974   4.097
 3655SOL    HW211865   0.950   1.114   4.094
 3656SOL     OW11866   0.289   0.150   1.621
 3656SOL    HW111867   0.271   0.181   1.715
 3656SOL    HW211868   0.325   0.057   1.623
 3657SOL     OW11869   6.098   5.544   6.117
 3657SOL    HW111870   6.177   5.573   6.063
 3657SOL    HW211871   6.016   5.591   6.083
 3658SOL     OW11872   1.848   4.962   5.670
 3658SOL    HW111873   1.915   4.888   5.663
 3658SOL    HW211874   1.796   4.952   5.754
 3659SOL     OW11875   0.245   2.360   6.180
 3659SOL    HW111876   0.220   2.263   6.183
 3659SOL    HW211877   0.249   2.390   6.084
 3660SOL     OW11878   4.930   5.574   6.141
 3660SOL    HW111879   4.984   5.625   6.207
 3660SOL    HW211880   4.984   5.558   6.058
 3661SOL     OW11881   0.334   1.731   4.704
 3661SOL    HW111882   0.354   1.649   4.758
 3661SOL    HW211883   0.413   1.753   4.646
 3662SOL     OW11884   2.941   1.786   5.643
 3662SOL    HW111885   2.936   1.867   5.585
 3662SOL    HW211886   3.021   1.792   5.703
 3663SOL     OW11887   2.553   2.473   6.887
 3663SOL    HW111888   2.455   2.451   6.887
 3663SOL    HW211889   2.606   2.389   6.875
 3664SOL     OW11890   3.516   1.979   1.377
 3664SOL    HW111891   3.467   2.035   1.311
 3664SOL    HW211892   3.614   1.989   1.363
 3665SOL     OW11893   0.535   5.575   5.852
 3665SOL    HW111894   0.486   5.605   5.934
 3665SOL    HW211895   0.542   5.652   5.788
 3666SOL     OW11896   2.188   3.185   4.598
 3666SOL    HW111897   2.163   3.276   4.630
 3666SOL    HW211898   2.225   3.132   4.674
 3667SOL     OW11899   1.859   6.673   1.099
 3667SOL    HW111900   1.853   6.772   1.086
 3667SOL    HW211901   1.777   6.641   1.147
 3668SOL     OW11902   6.339   1.101   0.827
 3668SOL    HW111903   6.403   1.041   0.779
 3668SOL    HW211904   6.283   1.047   0.890
 3669SOL     OW11905   0.746   1.091   3.395
 3669SOL    HW111906   0.821   1.084   3.461
 3669SOL    HW211907   0.662   1.055   3.438
 3670SOL     OW11908   2.789   0.282   1.622
 3670SOL    HW111909   2.828   0.197   1.658
 3670SOL    HW211910   2.858   0.354   1.625
 3671SOL     OW11911   6.903   0.600   4.325
 3671SOL    HW111912   7.001   0.619   4.326
 3671SOL    HW211913   6.877   0.556   4.411
 3672SOL     OW11914   3.656   6.972   3.756
 3672SOL    HW111915   3.711   6.955   3.838
 3672SOL    HW211916   3.637   0.048   3.747
 3673SOL     OW11917   3.491   0.137   1.141
 3673SOL    HW111918   3.405   0.087   1.134
 3673SOL    HW211919   3.512   0.179   1.052
 3674SOL     OW11920   0.640   4.649   6.792
 3674SOL    HW111921   0.644   4.728   6.730
 3674SOL    HW211922   0.562   4.658   6.853
 3675SOL     OW11923   1.060   0.575   4.239
 3675SOL    HW111924   0.968   0.538   4.223
 3675SOL    HW211925   1.128   0.513   4.200
 3676SOL     OW11926   3.539   1.310   4.822
 3676SOL    HW111927   3.617   1.311   4.884
 3676SOL    HW211928   3.566   1.353   4.735
 3677SOL     OW11929   1.469   1.060   4.450
 3677SOL    HW111930   1.434   1.154   4.454
 3677SOL    HW211931   1.525   1.042   4.532
 3678SOL     OW11932   1.291   0.967   3.784
 3678SOL    HW111933   1.198   0.966   3.748
 3678SOL    HW211934   1.304   0.889   3.845
 3679SOL     OW11935   4.349   0.297   2.183
 3679SOL    HW111936   4.309   0.206   2.186
 3679SOL    HW211937   4.374   0.325   2.276
 3680SOL     OW11938   3.245   1.755   4.520
 3680SOL    HW111939   3.260   1.833   4.459
 3680SOL    HW211940   3.269   1.781   4.614
 3681SOL     OW11941   0.992   6.462   4.323
 3681SOL    HW111942   1.074   6.475   4.268
 3681SOL    HW211943   0.928   6.537   4.306
 3682SOL     OW11944   5.315   1.907   0.754
 3682SOL    HW111945   5.388   1.871   0.812
 3682SOL    HW211946   5.347   1.988   0.705
 3683SOL     OW11947   6.516   1.353   0.205
 3683SOL    HW111948   6.459   1.435   0.203
 3683SOL    HW211949   6.547   1.336   0.299
 3684SOL     OW11950   2.283   6.450   5.036
 3684SOL    HW111951   2.360   6.387   5.023
 3684SOL    HW211952   2.201   6.398   5.060
 3685SOL     OW11953   1.672   6.103   4.615
 3685SOL    HW111954   1.625   6.016   4.629
 3685SOL    HW211955   1.768   6.086   4.595
 3686SOL     OW11956   0.419   3.554   1.065
 3686SOL    HW111957   0.512   3.533   1.037
 3686SOL    HW211958   0.395   3.498   1.145
 3687SOL     OW11959   5.939   4.296   5.045
 3687SOL    HW111960   5.938   4.321   4.948
 3687SOL    HW211961   6.013   4.345   5.091
 3688SOL     OW11962   6.192   2.549   1.457
 3688SOL    HW111963   6.237   2.565   1.370
 3688SOL    HW211964   6.257   2.508   1.522
 3689SOL     OW11965   1.133   0.178   6.250
 3689SOL    HW111966   1.231   0.159   6.261
 3689SOL    HW211967   1.096   0.211   6.337
 3690SOL     OW11968   5.397   5.496   1.745
 3690SOL    HW111969   5.325   5.428   1.751
 3690SOL    HW211970   5.462   5.483   1.820
 3691SOL     OW11971   1.818   2.957   0.373
 3691SOL    HW111972   1.856   2.980   0.283
 3691SOL    HW211973   1.852   2.867   0.401
 3692SOL     OW11974   1.052   2.878   5.159
 3692SOL    HW111975   0.959   2.911   5.178
 3692SOL    HW211976   1.069   2.794   5.211
 3693SOL     OW11977   0.373   1.221   2.482
 3693SOL    HW111978   0.313   1.298   2.501
 3693SOL    HW211979   0.330   1.161   2.414
 3694SOL     OW11980   6.565   0.152   3.166
 3694SOL    HW111981   6.663   0.151   3.143
 3694SOL    HW211982   6.522   0.070   3.127
 3695SOL     OW11983   5.747   3.534   3.321
 3695SOL    HW111984   5.802   3.532   3.404
 3695SOL    HW211985   5.688   3.453   3.317
 3696SOL     OW11986   4.180   0.673   4.667
 3696SOL    HW111987   4.275   0.685   4.698
 3696SOL    HW211988   4.158   0.575   4.666
 3697SOL     OW11989   6.417   6.290   3.167
 3697SOL    HW111990   6.384   6.229   3.240
 3697SOL    HW211991   6.465   6.367   3.208
 3698SOL     OW11992   1.800   0.269   3.012
 3698SOL    HW111993   1.807   0.169   3.017
 3698SOL    HW211994   1.779   0.296   2.918
 3699SOL     OW11995   2.534   2.518   3.142
 3699SOL    HW111996   2.437   2.506   3.119
 3699SOL    HW211997   2.590   2.480   3.070
 3700SOL     OW11998   0.785   4.972   5.020
 3700SOL    HW111999   0.784   5.023   4.934
 3700SOL    HW212000   0.695   4.977   5.062
 3701SOL     OW12001   0.409   0.966   2.069
 3701SOL    HW112002   0.479   0.998   2.004
 3701SOL    HW212003   0.399   0.867   2.061
 3702SOL     OW12004   5.896   3.946   3.568
 3702SOL    HW112005   5.963   3.898   3.625
 3702SOL    HW212006   5.804   3.915   3.593
 3703SOL     OW12007   1.331   1.677   3.337
 3703SOL    HW112008   1.382   1.754   3.298
 3703SOL    HW212009   1.390   1.628   3.402
 3704SOL     OW12010   6.361   0.794   0.578
 3704SOL    HW112011   6.383   0.829   0.669
 3704SOL    HW212012   6.424   0.721   0.555
 3705SOL     OW12013   5.763   4.429   3.928
 3705SOL    HW112014   5.762   4.524   3.898
 3705SOL    HW212015   5.697   4.376   3.873
 3706SOL     OW12016   1.252   4.540   6.162
 3706SOL    HW112017   1.266   4.565   6.066
 3706SOL    HW212018   1.213   4.618   6.211
 3707SOL     OW12019   1.117   4.739   3.527
 3707SOL    HW112020   1.144   4.661   3.471
 3707SOL    HW212021   1.191   4.764   3.589
 3708SOL     OW12022   2.329   6.204   1.158
 3708SOL    HW112023   2.356   6.147   1.080
 3708SOL    HW212024   2.349   6.155   1.243
 3709SOL     OW12025   1.268   1.442   1.642
 3709SOL    HW112026   1.243   1.476   1.551
 3709SOL    HW212027   1.284   1.344   1.638
 3710SOL     OW12028   1.296   4.179   5.278
 3710SOL    HW112029   1.374   4.241   5.270
 3710SOL    HW212030   1.211   4.230   5.265
 3711SOL     OW12031   0.998   5.473   4.523
 3711SOL    HW112032   1.085   5.495   4.567
 3711SOL    HW212033   0.961   5.388   4.561
 3712SOL     OW12034   2.243   5.777   4.206
 3712SOL    HW112035   2.232   5.735   4.116
 3712SOL    HW212036   2.237   5.706   4.277
 3713SOL     OW12037   5.913   0.711   4.465
 3713SOL    HW112038   5.983   0.640   4.479
 3713SOL    HW212039   5.851   0.713   4.543
 3714SOL     OW12040   0.420   4.126   0.479
 3714SOL    HW112041   0.344   4.122   0.414
 3714SOL    HW212042   0.440   4.222   0.501
 3715SOL     OW12043   5.725   4.681   3.880
 3715SOL    HW112044   5.630   4.693   3.911
 3715SOL    HW212045   5.784   4.745   3.929
 3716SOL     OW12046   5.585   5.953   4.840
 3716SOL    HW112047   5.631   5.933   4.753
 3716SOL    HW212048   5.517   5.881   4.858
 3717SOL     OW12049   4.732   0.773   0.537
 3717SOL    HW112050   4.756   0.844   0.472
 3717SOL    HW212051   4.789   0.782   0.619
 3718SOL     OW12052   5.972   6.645   6.666
 3718SOL    HW112053   6.036   6.720   6.651
 3718SOL    HW212054   5.880   6.674   6.639
 3719SOL     OW12055   3.281   3.927   0.209
 3719SOL    HW112056   3.290   4.025   0.224
 3719SOL    HW212057   3.283   3.909   0.110
 3720SOL     OW12058   0.243   3.223   0.839
 3720SOL    HW112059   0.147   3.219   0.866
 3720SOL    HW212060   0.272   3.318   0.830
 3721SOL     OW12061   6.241   0.038   5.659
 3721SOL    HW112062   6.211   0.118   5.609
 3721SOL    HW212063   6.289   6.997   5.597
 3722SOL     OW12064   5.775   0.091   2.265
 3722SOL    HW112065   5.794   0.160   2.335
 3722SOL    HW212066   5.699   0.033   2.295
 3723SOL     OW12067   4.469   3.271   6.720
 3723SOL    HW112068   4.456   3.189   6.776
 3723SOL    HW212069   4.436   3.254   6.627
 3724SOL     OW12070   0.400   4.335   4.512
 3724SOL    HW112071   0.446   4.423   4.523
 3724SOL    HW212072   0.447   4.281   4.443
 3725SOL     OW12073   1.630   6.254   0.469
 3725SOL    HW112074   1.601   6.169   0.512
 3725SOL    HW212075   1.694   6.302   0.530
 3726SOL     OW12076   6.063   4.222   5.729
 3726SOL    HW112077   6.130   4.167   5.678
 3726SOL    HW212078   6.057   4.187   5.823
 3727SOL     OW12079   6.549   2.625   4.080
 3727SOL    HW112080   6.482   2.592   4.014
 3727SOL    HW212081   6.533   2.722   4.097
 3728SOL     OW12082   2.531   3.966   0.980
 3728SOL    HW112083   2.517   3.919   1.067
 3728SOL    HW212084   2.612   3.929   0.934
 3729SOL     OW12085   0.214   0.715   5.603
 3729SOL    HW112086   0.161   0.799   5.614
 3729SOL    HW212087   0.194   0.675   5.514
 3730SOL     OW12088   5.099   5.389   4.750
 3730SOL    HW112089   5.064   5.332   4.676
 3730SOL    HW212090   5.161   5.335   4.807
 3731SOL     OW12091   6.898   2.025   0.256
 3731SOL    HW112092   6.934   2.046   0.165
 3731SOL    HW212093   6.975   2.010   0.319
 3732SOL     OW12094   3.667   3.218   0.012
 3732SOL    HW112095   3.764   3.218   7.009
 3732SOL    HW212096   3.653   3.154   0.088
 3733SOL     OW12097   1.522   0.179   3.841
 3733SOL    HW112098   1.517   0.263   3.787
 3733SOL    HW212099   1.611   0.172   3.885
 3734SOL     OW12100   3.944   0.431   1.313
 3734SOL    HW112101   3.900   0.417   1.225
 3734SOL    HW212102   3.913   0.361   1.377
 3735SOL     OW12103   4.650   6.943   2.946
 3735SOL    HW112104   4.707   6.953   2.865
 3735SOL    HW212105   4.573   6.883   2.925
 3736SOL     OW12106   0.016   1.121   6.781
 3736SOL    HW112107   6.985   1.202   6.757
 3736SOL    HW212108   0.016   1.109   6.881
 3737SOL     OW12109   5.852   1.788   2.419
 3737SOL    HW112110   5.862   1.882   2.451
 3737SOL    HW212111   5.942   1.744   2.418
 3738SOL     OW12112   0.394   0.359   1.466
 3738SOL    HW112113   0.327   0.386   1.396
 3738SOL    HW212114   0.363   0.275   1.510
 3739SOL     OW12115   3.358   3.812   6.677
 3739SOL    HW112116   3.319   3.728   6.638
 3739SOL    HW212117   3.294   3.888   6.664
 3740SOL     OW12118   4.536   5.587   6.960
 3740SOL    HW112119   4.440   5.562   6.946
 3740SOL    HW212120   4.542   5.667   7.019
 3741SOL     OW12121   5.684   3.336   0.579
 3741SOL    HW112122   5.781   3.332   0.558
 3741SOL    HW212123   5.671   3.367   0.673
 3742SOL     OW12124   4.451   5.831   1.280
 3742SOL    HW112125   4.451   5.929   1.301
 3742SOL    HW212126   4.403   5.815   1.194
 3743SOL     OW12127   3.565   4.200   1.243
 3743SOL    HW112128   3.503   4.214   1.166
 3743SOL    HW212129   3.603   4.107   1.240
 3744SOL     OW12130   6.597   6.371   2.522
 3744SOL    HW112131   6.540   6.450   2.541
 3744SOL    HW212132   6.673   6.368   2.588
 3745SOL     OW12133   4.757   2.838   2.433
 3745SOL    HW112134   4.743   2.902   2.357
 3745SOL    HW212135   4.855   2.820   2.443
 3746SOL     OW12136   6.336   0.723   4.523
 3746SOL    HW112137   6.344   0.625   4.506
 3746SOL    HW212138   6.333   0.772   4.435
 3747SOL     OW12139   3.398   5.952   5.429
 3747SOL    HW112140   3.454   6.023   5.384
 3747SOL    HW212141   3.349   5.993   5.506
 3748SOL     OW12142   5.113   2.394   3.608
 3748SOL    HW112143   5.212   2.393   3.595
 3748SOL    HW212144   5.068   2.401   3.519
 3749SOL     OW12145   6.379   6.215   2.446
 3749SOL    HW112146   6.423   6.154   2.380
 3749SOL    HW212147   6.435   6.297   2.458
 3750SOL     OW12148   5.305   4.092   0.891
 3750SOL    HW112149   5.251   4.014   0.922
 3750SOL    HW212150   5.402   4.073   0.906
 3751SOL     OW12151   1.027   4.374   2.057
 3751SOL    HW112152   1.041   4.409   2.149
 3751SOL    HW212153   1.087   4.296   2.042
 3752SOL     OW12154   0.384   6.282   5.976
 3752SOL    HW112155   0.404   6.201   6.030
 3752SOL    HW212156   0.454   6.292   5.905
 3753SOL     OW12157   0.005   0.906   4.657
 3753SOL    HW112158   6.970   0.875   4.581
 3753SOL    HW212159   0.069   0.834   4.683
 3754SOL     OW12160   6.672   6.191   1.847
 3754SOL    HW112161   6.585   6.206   1.894
 3754SOL    HW212162   6.672   6.100   1.806
 3755SOL     OW12163   5.456   2.906   2.859
 3755SOL    HW112164   5.417   2.996   2.844
 3755SOL    HW212165   5.384   2.841   2.881
 3756SOL     OW12166   3.078   0.124   6.902
 3756SOL    HW112167   3.115   0.110   6.810
 3756SOL    HW212168   3.126   0.200   6.946
 3757SOL     OW12169   3.557   4.720   6.820
 3757SOL    HW112170   3.614   4.639   6.830
 3757SOL    HW212171   3.464   4.693   6.797
 3758SOL     OW12172   0.254   0.559   3.044
 3758SOL    HW112173   0.348   0.562   3.009
 3758SOL    HW212174   0.197   0.621   2.990
 3759SOL     OW12175   4.656   5.113   0.387
 3759SOL    HW112176   4.750   5.147   0.387
 3759SOL    HW212177   4.642   5.051   0.310
 3760SOL     OW12178   2.208   2.357   5.548
 3760SOL    HW112179   2.294   2.406   5.565
 3760SOL    HW212180   2.141   2.381   5.618
 3761SOL     OW12181   0.228   6.791   4.328
 3761SOL    HW112182   0.183   6.736   4.258
 3761SOL    HW212183   0.280   6.732   4.390
 3762SOL     OW12184   0.563   3.608   6.824
 3762SOL    HW112185   0.622   3.551   6.767
 3762SOL    HW212186   0.583   3.590   6.920
 3763SOL     OW12187   6.467   3.823   6.106
 3763SOL    HW112188   6.480   3.820   6.205
 3763SOL    HW212189   6.456   3.918   6.077
 3764SOL     OW12190   2.580   6.987   4.144
 3764SOL    HW112191   2.522   6.923   4.194
 3764SOL    HW212192   2.588   0.051   4.196
 3765SOL     OW12193   6.439   1.249   3.499
 3765SOL    HW112194   6.447   1.203   3.588
 3765SOL    HW212195   6.370   1.204   3.443
 3766SOL     OW12196   1.629   0.452   4.881
 3766SOL    HW112197   1.663   0.454   4.975
 3766SOL    HW212198   1.705   0.468   4.818
 3767SOL     OW12199   1.544   3.951   0.932
 3767SOL    HW112200   1.519   4.018   0.862
 3767SOL    HW212201   1.542   3.995   1.022
 3768SOL     OW12202   4.775   6.486   1.109
 3768SOL    HW112203   4.788   6.582   1.087
 3768SOL    HW212204   4.862   6.438   1.106
 3769SOL     OW12205   4.548   6.559   4.958
 3769SOL    HW112206   4.574   6.542   5.053
 3769SOL    HW212207   4.456   6.522   4.942
 3770SOL     OW12208   2.176   1.072   0.691
 3770SOL    HW112209   2.194   1.102   0.598
 3770SOL    HW212210   2.230   1.126   0.755
 3771SOL     OW12211   5.010   1.288   5.209
 3771SOL    HW112212   5.001   1.270   5.111
 3771SOL    HW212213   4.927   1.333   5.242
 3772SOL     OW12214   4.768   1.089   2.880
 3772SOL    HW112215   4.848   1.148   2.890
 3772SOL    HW212216   4.716   1.117   2.799
 3773SOL     OW12217   6.683   2.300   6.967
 3773SOL    HW112218   6.689   2.319   6.869
 3773SOL    HW212219   6.604   2.348   7.005
 3774SOL     OW12220   0.661   1.909   1.964
 3774SOL    HW112221   0.699   1.913   2.057
 3774SOL    HW212222   0.575   1.959   1.961
 3775SOL     OW12223   5.702   2.831   3.472
 3775SOL    HW112224   5.775   2.781   3.519
 3775SOL    HW212225   5.711   2.929   3.492
 3776SOL     OW12226   2.956   2.466   6.568
 3776SOL    HW112227   3.054   2.469   6.590
 3776SOL    HW212228   2.907   2.533   6.624
 3777SOL     OW12229   1.510   4.185   3.483
 3777SOL    HW112230   1.554   4.246   3.417
 3777SOL    HW212231   1.560   4.188   3.569
 3778SOL     OW12232   2.453   6.748   2.053
 3778SOL    HW112233   2.420   6.841   2.066
 3778SOL    HW212234   2.551   6.749   2.034
 3779SOL     OW12235   2.999   5.074   6.799
 3779SOL    HW112236   3.074   5.141   6.793
 3779SOL    HW212237   2.979   5.057   6.896
 3780SOL     OW12238   2.587   0.119   4.829
 3780SOL    HW112239   2.519   0.091   4.761
 3780SOL    HW212240   2.550   0.195   4.883
 3781SOL     OW12241   2.706   5.508   4.624
 3781SOL    HW112242   2.754   5.423   4.648
 3781SOL    HW212243   2.758   5.558   4.556
 3782SOL     OW12244   2.548   1.364   3.053
 3782SOL    HW112245   2.558   1.455   3.014
 3782SOL    HW212246   2.474   1.315   3.007
 3783SOL     OW12247   5.111   5.669   5.902
 3783SOL    HW112248   5.181   5.634   5.964
 3783SOL    HW212249   5.155   5.710   5.822
 3784SOL     OW12250   4.765   1.580   3.851
 3784SOL    HW112251   4.818   1.646   3.905
 3784SOL    HW212252   4.825   1.504   3.823
 3785SOL     OW12253   1.449   1.646   1.756
 3785SOL    HW112254   1.366   1.592   1.738
 3785SOL    HW212255   1.514   1.634   1.681
 3786SOL     OW12256   3.631   5.490   2.804
 3786SOL    HW112257   3.558   5.430   2.837
 3786SOL    HW212258   3.664   5.546   2.880
 3787SOL     OW12259   4.202   1.139   4.549
 3787SOL    HW112260   4.203   1.132   4.649
 3787SOL    HW212261   4.196   1.235   4.523
 3788SOL     OW12262   5.818   3.575   1.961
 3788SOL    HW112263   5.743   3.610   2.017
 3788SOL    HW212264   5.780   3.523   1.884
 3789SOL     OW12265   1.185   5.003   2.666
 3789SOL    HW112266   1.213   4.985   2.760
 3789SOL    HW212267   1.261   4.985   2.604
 3790SOL     OW12268   2.232   3.050   3.666
 3790SOL    HW112269   2.167   3.006   3.728
 3790SOL    HW212270   2.306   2.986   3.645
 3791SOL     OW12271   5.566   0.387   2.409
 3791SOL    HW112272   5.546   0.313   2.474
 3791SOL    HW212273   5.481   0.426   2.376
 3792SOL     OW12274   7.007   6.763   6.355
 3792SOL    HW112275   6.999   6.663   6.351
 3792SOL    HW212276   0.082   6.788   6.370
 3793SOL     OW12277   2.188   6.464   2.923
 3793SOL    HW112278   2.247   6.461   3.004
 3793SOL    HW212279   2.141   6.376   2.912
 3794SOL     OW12280   4.300   6.083   2.299
 3794SOL    HW112281   4.323   6.082   2.202
 3794SOL    HW212282   4.272   6.174   2.327
 3795SOL     OW12283   4.915   0.287   0.958
 3795SOL    HW112284   4.838   0.251   0.905
 3795SOL    HW212285   4.975   0.339   0.897
 3796SOL     OW12286   1.975   2.691   1.249
 3796SOL    HW112287   2.017   2.600   1.241
 3796SOL    HW212288   1.926   2.698   1.335
 3797SOL     OW12289   0.406   5.364   2.582
 3797SOL    HW112290   0.321   5.331   2.542
 3797SOL    HW212291   0.421   5.459   2.555
 3798SOL     OW12292   0.916   4.377   1.578
 3798SOL    HW112293   0.849   4.311   1.544
 3798SOL    HW212294   1.008   4.344   1.558
 3799SOL     OW12295   1.419   0.489   5.178
 3799SOL    HW112296   1.471   0.547   5.115
 3799SOL    HW212297   1.460   0.494   5.269
 3800SOL     OW12298   5.088   2.338   5.254
 3800SOL    HW112299   5.062   2.349   5.350
 3800SOL    HW212300   5.028   2.394   5.196
 3801SOL     OW12301   6.859   0.231   6.625
 3801SOL    HW112302   6.885   0.184   6.541
 3801SOL    HW212303   6.871   0.330   6.613
 3802SOL     OW12304   1.470   2.298   5.749
 3802SOL    HW112305   1.531   2.356   5.695
 3802SOL    HW212306   1.467   2.331   5.843
 3803SOL     OW12307   3.884   1.606   1.116
 3803SOL    HW112308   3.946   1.537   1.153
 3803SOL    HW212309   3.909   1.696   1.150
 3804SOL     OW12310   4.512   2.766   5.285
 3804SOL    HW112311   4.580   2.808   5.225
 3804SOL    HW212312   4.505   2.668   5.265
 3805SOL     OW12313   2.217   3.681   1.325
 3805SOL    HW112314   2.274   3.761   1.344
 3805SOL    HW212315   2.165   3.657   1.407
 3806SOL     OW12316   3.123   1.608   0.549
 3806SOL    HW112317   3.091   1.664   0.473
 3806SOL    HW212318   3.044   1.563   0.593
 3807SOL     OW12319   1.240   6.808   3.029
 3807SOL    HW112320   1.287   6.751   2.962
 3807SOL    HW212321   1.280   6.899   3.029
 3808SOL     OW12322   3.479   0.640   0.367
 3808SOL    HW112323   3.560   0.675   0.413
 3808SOL    HW212324   3.497   0.548   0.332
 3809SOL     OW12325   4.750   0.237   6.239
 3809SOL    HW112326   4.790   0.161   6.187
 3809SOL    HW212327   4.822   0.280   6.294
 3810SOL     OW12328   2.765   3.034   5.539
 3810SOL    HW112329   2.764   3.107   5.607
 3810SOL    HW212330   2.854   3.031   5.493
 3811SOL     OW12331   0.194   0.644   6.288
 3811SOL    HW112332   0.172   0.547   6.272
 3811SOL    HW212333   0.277   0.650   6.343
 3812SOL     OW12334   5.456   1.467   5.469
 3812SOL    HW112335   5.433   1.427   5.558
 3812SOL    HW212336   5.373   1.474   5.414
 3813SOL     OW12337   3.905   4.814   1.912
 3813SOL    HW112338   3.956   4.783   1.991
 3813SOL    HW212339   3.814   4.773   1.912
 3814SOL     OW12340   1.532   6.678   2.339
 3814SOL    HW112341   1.521   6.730   2.254
 3814SOL    HW212342   1.443   6.643   2.368
 3815SOL     OW12343   5.680   2.218   1.875
 3815SOL    HW112344   5.631   2.132   1.883
 3815SOL    HW212345   5.755   2.208   1.809
 3816SOL     OW12346   0.554   6.488   1.489
 3816SOL    HW112347   0.529   6.411   1.430
 3816SOL    HW212348   0.492   6.564   1.473
 3817SOL     OW12349   5.222   1.426   5.303
 3817SOL    HW112350   5.150   1.357   5.298
 3817SOL    HW212351   5.266   1.435   5.214
 3818SOL     OW12352   4.955   5.348   2.717
 3818SOL    HW112353   5.049   5.356   2.683
 3818SOL    HW212354   4.922   5.438   2.746
 3819SOL     OW12355   5.770   4.488   6.121
 3819SOL    HW112356   5.831   4.518   6.047
 3819SOL    HW212357   5.787   4.391   6.141
 3820SOL     OW12358   5.405   6.230   4.242
 3820SOL    HW112359   5.392   6.329   4.257
 3820SOL    HW212360   5.499   6.206   4.265
 3821SOL     OW12361   1.014   3.906   1.070
 3821SOL    HW112362   1.001   4.002   1.096
 3821SOL    HW212363   0.932   3.873   1.024
 3822SOL     OW12364   1.662   4.737   1.719
 3822SOL    HW112365   1.647   4.675   1.642
 3822SOL    HW212366   1.573   4.770   1.753
 3823SOL     OW12367   2.447   2.651   5.338
 3823SOL    HW112368   2.387   2.731   5.338
 3823SOL    HW212369   2.538   2.678   5.369
 3824SOL     OW12370   6.696   2.412   6.708
 3824SOL    HW112371   6.604   2.426   6.672
 3824SOL    HW212372   6.747   2.350   6.648
 3825SOL     OW12373   6.396   6.671   6.052
 3825SOL    HW112374   6.493   6.671   6.072
 3825SOL    HW212375   6.345   6.637   6.131
 3826SOL     OW12376   6.635   2.184   0.876
 3826SOL    HW112377   6.581   2.139   0.803
 3826SOL    HW212378   6.721   2.135   0.888
 3827SOL     OW12379   4.976   2.679   1.179
 3827SOL    HW112380   4.990   2.699   1.276
 3827SOL    HW212381   4.912   2.603   1.169
 3828SOL     OW12382   4.087   1.110   1.705
 3828SOL    HW112383   4.129   1.031   1.750
 3828SOL    HW212384   4.124   1.120   1.613
 3829SOL     OW12385   1.049   5.522   4.059
 3829SOL    HW112386   0.989   5.513   4.138
 3829SOL    HW212387   1.027   5.451   3.992
 3830SOL     OW12388   3.224   0.929   4.870
 3830SOL    HW112389   3.290   0.940   4.945
 3830SOL    HW212390   3.132   0.937   4.906
 3831SOL     OW12391   4.322   2.066   2.392
 3831SOL    HW112392   4.288   2.146   2.441
 3831SOL    HW212393   4.418   2.050   2.416
 3832SOL     OW12394   5.373   0.149   2.519
 3832SOL    HW112395   5.337   0.121   2.430
 3832SOL    HW212396   5.321   0.104   2.592
 3833SOL     OW12397   1.655   5.798   0.382
 3833SOL    HW112398   1.726   5.846   0.330
 3833SOL    HW212399   1.608   5.862   0.442
 3834SOL     OW12400   2.679   2.307   1.001
 3834SOL    HW112401   2.670   2.386   1.062
 3834SOL    HW212402   2.662   2.335   0.907
 3835SOL     OW12403   3.388   5.809   4.355
 3835SOL    HW112404   3.487   5.817   4.363
 3835SOL    HW212405   3.351   5.768   4.439
 3836SOL     OW12406   1.790   3.400   5.348
 3836SOL    HW112407   1.873   3.455   5.349
 3836SOL    HW212408   1.757   3.392   5.254
 3837SOL     OW12409   3.076   3.823   0.344
 3837SOL    HW112410   2.995   3.858   0.298
 3837SOL    HW212411   3.158   3.861   0.301
 3838SOL     OW12412   5.829   3.494   5.178
 3838SOL    HW112413   5.783   3.416   5.221
 3838SOL    HW212414   5.865   3.555   5.248
 3839SOL     OW12415   6.327   6.242   6.177
 3839SOL    HW112416   6.247   6.249   6.118
 3839SOL    HW212417   6.320   6.308   6.252
 3840SOL     OW12418   2.495   0.687   3.576
 3840SOL    HW112419   2.499   0.653   3.670
 3840SOL    HW212420   2.574   0.654   3.525
 3841SOL     OW12421   0.983   4.129   5.326
 3841SOL    HW112422   1.043   4.051   5.345
 3841SOL    HW212423   0.890   4.108   5.357
 3842SOL     OW12424   1.469   4.696   6.368
 3842SOL    HW112425   1.398   4.658   6.308
 3842SOL    HW212426   1.491   4.789   6.338
 3843SOL     OW12427   5.628   3.917   0.388
 3843SOL    HW112428   5.687   3.841   0.360
 3843SOL    HW212429   5.665   3.959   0.471
 3844SOL     OW12430   2.785   3.772   6.177
 3844SOL    HW112431   2.810   3.867   6.193
 3844SOL    HW212432   2.866   3.714   6.187
 3845SOL     OW12433   3.150   3.516   3.569
 3845SOL    HW112434   3.203   3.572   3.506
 3845SOL    HW212435   3.059   3.500   3.532
 3846SOL     OW12436   6.977   3.862   3.970
 3846SOL    HW112437   6.900   3.860   3.907
 3846SOL    HW212438   6.976   3.779   4.026
 3847SOL     OW12439   0.807   6.779   0.746
 3847SOL    HW112440   0.775   6.772   0.652
 3847SOL    HW212441   0.885   6.842   0.751
 3848SOL     OW12442   3.020   5.118   0.928
 3848SOL    HW112443   3.065   5.163   1.005
 3848SOL    HW212444   2.974   5.186   0.872
 3849SOL     OW12445   1.915   1.806   6.155
 3849SOL    HW112446   1.933   1.904   6.163
 3849SOL    HW212447   1.817   1.791   6.139
 3850SOL     OW12448   2.359   3.583   1.113
 3850SOL    HW112449   2.436   3.644   1.131
 3850SOL    HW212450   2.288   3.599   1.182
 3851SOL     OW12451   2.122   2.944   1.525
 3851SOL    HW112452   2.117   3.005   1.604
 3851SOL    HW212453   2.106   2.996   1.441
 3852SOL     OW12454   4.576   0.881   5.802
 3852SOL    HW112455   4.492   0.841   5.763
 3852SOL    HW212456   4.600   0.963   5.750
 3853SOL     OW12457   1.377   2.846   2.162
 3853SOL    HW112458   1.394   2.781   2.088
 3853SOL    HW212459   1.340   2.797   2.241
 3854SOL     OW12460   1.856   3.570   4.947
 3854SOL    HW112461   1.841   3.615   4.859
 3854SOL    HW212462   1.940   3.516   4.943
 3855SOL     OW12463   0.057   1.934   4.984
 3855SOL    HW112464   0.058   1.942   5.083
 3855SOL    HW212465   6.998   1.981   4.947
 3856SOL     OW12466   0.733   0.016   5.663
 3856SOL    HW112467   0.801   7.010   5.731
 3856SOL    HW212468   0.779   0.038   5.577
 3857SOL     OW12469   1.222   6.966   6.818
 3857SOL    HW112470   1.283   6.933   6.890
 3857SOL    HW212471   1.276   7.008   6.745
 3858SOL     OW12472   2.431   5.138   6.828
 3858SOL    HW112473   2.516   5.089   6.844
 3858SOL    HW212474   2.450   5.235   6.812
 3859SOL     OW12475   6.639   2.306   1.294
 3859SOL    HW112476   6.576   2.326   1.219
 3859SOL    HW212477   6.732   2.294   1.258
 3860SOL     OW12478   1.989   6.414   5.068
 3860SOL    HW112479   2.012   6.438   4.974
 3860SOL    HW212480   1.975   6.316   5.075
 3861SOL     OW12481   4.365   4.251   0.034
 3861SOL    HW112482   4.320   4.340   0.033
 3861SOL    HW212483   4.318   4.189   6.992
 3862SOL     OW12484   0.948   5.375   5.739
 3862SOL    HW112485   0.878   5.305   5.724
 3862SOL    HW212486   1.003   5.351   5.819
 3863SOL     OW12487   2.873   3.513   0.447
 3863SOL    HW112488   2.862   3.474   0.356
 3863SOL    HW212489   2.791   3.567   0.470
 3864SOL     OW12490   2.894   1.591   0.156
 3864SOL    HW112491   2.831   1.533   0.104
 3864SOL    HW212492   2.983   1.547   0.162
 3865SOL     OW12493   3.907   0.903   2.633
 3865SOL    HW112494   3.929   0.912   2.536
 3865SOL    HW212495   3.976   0.950   2.688
 3866SOL     OW12496   3.839   6.265   6.413
 3866SOL    HW112497   3.868   6.176   6.450
 3866SOL    HW212498   3.867   6.338   6.476
 3867SOL     OW12499   1.603   4.320   3.259
 3867SOL    HW112500   1.693   4.285   3.232
 3867SOL    HW212501   1.601   4.419   3.246
 3868SOL     OW12502   2.126   5.210   2.496
 3868SOL    HW112503   2.113   5.111   2.490
 3868SOL    HW212504   2.183   5.232   2.576
 3869SOL     OW12505   1.258   1.417   3.682
 3869SOL    HW112506   1.171   1.421   3.634
 3869SOL    HW212507   1.248   1.363   3.766
 3870SOL     OW12508   4.302   4.080   0.597
 3870SOL    HW112509   4.282   3.990   0.634
 3870SOL    HW212510   4.255   4.150   0.651
 3871SOL     OW12511   3.295   1.487   4.620
 3871SOL    HW112512   3.221   1.424   4.642
 3871SOL    HW212513   3.256   1.573   4.586
 3872SOL     OW12514   4.218   3.716   0.536
 3872SOL    HW112515   4.183   3.626   0.560
 3872SOL    HW212516   4.159   3.787   0.576
 3873SOL     OW12517   5.035   4.735   1.940
 3873SOL    HW112518   5.112   4.673   1.926
 3873SOL    HW212519   5.067   4.821   1.978
 3874SOL     OW12520   4.862   6.248   6.248
 3874SOL    HW112521   4.899   6.203   6.328
 3874SOL    HW212522   4.837   6.180   6.179
 3875SOL     OW12523   2.371   4.414   0.355
 3875SOL    HW112524   2.367   4.438   0.452
 3875SOL    HW212525   2.352   4.316   0.344
 3876SOL     OW12526   5.473   4.035   2.148
 3876SOL    HW112527   5.457   4.037   2.247
 3876SOL    HW212528   5.443   3.946   2.112
 3877SOL     OW12529   5.127   1.601   1.804
 3877SOL    HW112530   5.195   1.528   1.795
 3877SOL    HW212531   5.139   1.667   1.729
 3878SOL     OW12532   4.505   6.058   4.539
 3878SOL    HW112533   4.535   6.119   4.612
 3878SOL    HW212534   4.513   5.963   4.569
 3879SOL     OW12535   2.883   5.613   1.395
 3879SOL    HW112536   2.924   5.664   1.320
 3879SOL    HW212537   2.944   5.540   1.424
 3880SOL     OW12538   5.487   2.139   4.258
 3880SOL    HW112539   5.515   2.138   4.162
 3880SOL    HW212540   5.530   2.216   4.305
 3881SOL     OW12541   1.041   5.203   0.709
 3881SOL    HW112542   1.012   5.176   0.801
 3881SOL    HW212543   1.104   5.135   0.672
 3882SOL     OW12544   0.970   5.753   6.677
 3882SOL    HW112545   0.923   5.728   6.592
 3882SOL    HW212546   1.038   5.683   6.699
 3883SOL     OW12547   3.012   1.954   6.329
 3883SOL    HW112548   2.967   2.037   6.362
 3883SOL    HW212549   3.107   1.953   6.361
 3884SOL     OW12550   1.965   5.231   5.676
 3884SOL    HW112551   2.050   5.198   5.715
 3884SOL    HW212552   1.899   5.156   5.671
 3885SOL     OW12553   0.315   1.956   4.868
 3885SOL    HW112554   0.314   1.871   4.817
 3885SOL    HW212555   0.222   1.982   4.895
 3886SOL     OW12556   0.209   6.307   5.366
 3886SOL    HW112557   0.263   6.290   5.283
 3886SOL    HW212558   0.269   6.337   5.440
 3887SOL     OW12559   5.891   3.096   4.535
 3887SOL    HW112560   5.809   3.135   4.495
 3887SOL    HW212561   5.884   2.996   4.536
 3888SOL     OW12562   5.926   1.992   2.027
 3888SOL    HW112563   5.902   1.904   1.986
 3888SOL    HW212564   5.986   1.977   2.105
 3889SOL     OW12565   6.469   5.830   7.006
 3889SOL    HW112566   6.496   5.912   6.955
 3889SOL    HW212567   6.420   5.768   6.945
 3890SOL     OW12568   6.550   3.076   2.681
 3890SOL    HW112569   6.488   3.005   2.647
 3890SOL    HW212570   6.644   3.044   2.674
 3891SOL     OW12571   5.300   4.947   5.962
 3891SOL    HW112572   5.364   5.018   5.933
 3891SOL    HW212573   5.312   4.867   5.904
 3892SOL     OW12574   5.802   5.569   4.191
 3892SOL    HW112575   5.850   5.652   4.162
 3892SOL    HW212576   5.705   5.590   4.206
 3893SOL     OW12577   2.712   6.264   4.411
 3893SOL    HW112578   2.694   6.179   4.360
 3893SOL    HW212579   2.753   6.331   4.350
 3894SOL     OW12580   5.159   5.597   6.750
 3894SOL    HW112581   5.135   5.656   6.672
 3894SOL    HW212582   5.194   5.654   6.824
 3895SOL     OW12583   1.990   1.932   5.857
 3895SOL    HW112584   2.040   1.863   5.908
 3895SOL    HW212585   1.896   1.901   5.841
 3896SOL     OW12586   6.371   3.229   6.930
 3896SOL    HW112587   6.403   3.282   6.852
 3896SOL    HW212588   6.273   3.243   6.942
 3897SOL     OW12589   3.737   6.401   3.181
 3897SOL    HW112590   3.706   6.311   3.151
 3897SOL    HW212591   3.771   6.395   3.275
 3898SOL     OW12592   3.143   3.297   4.538
 3898SOL    HW112593   3.193   3.288   4.624
 3898SOL    HW212594   3.207   3.282   4.462
 3899SOL     OW12595   4.029   1.819   5.724
 3899SOL    HW112596   4.028   1.885   5.799
 3899SOL    HW212597   4.122   1.789   5.708
 3900SOL     OW12598   0.260   3.004   3.925
 3900SOL    HW112599   0.188   3.069   3.949
 3900SOL    HW212600   0.323   3.046   3.860
 3901SOL     OW12601   2.597   5.301   5.197
 3901SOL    HW112602   2.623   5.206   5.213
 3901SOL    HW212603   2.500   5.313   5.218
 3902SOL     OW12604   4.248   4.692   3.112
 3902SOL    HW112605   4.171   4.739   3.154
 3902SOL    HW212606   4.332   4.713   3.163
 3903SOL     OW12607   4.166   3.804   6.049
 3903SOL    HW112608   4.260   3.836   6.042
 3903SOL    HW212609   4.141   3.793   6.145
 3904SOL     OW12610   2.145   6.700   0.133
 3904SOL    HW112611   2.188   6.614   0.107
 3904SOL    HW212612   2.153   6.713   0.232
 3905SOL     OW12613   5.626   0.339   6.176
 3905SOL    HW112614   5.565   0.319   6.253
 3905SOL    HW212615   5.591   0.417   6.125
 3906SOL     OW12616   0.038   6.224   4.580
 3906SOL    HW112617   6.978   6.275   4.606
 3906SOL    HW212618   0.118   6.266   4.622
 3907SOL     OW12619   0.584   1.779   4.884
 3907SOL    HW112620   0.489   1.807   4.896
 3907SOL    HW212621   0.644   1.857   4.901
 3908SOL     OW12622   2.326   1.339   4.524
 3908SOL    HW112623   2.345   1.431   4.489
 3908SOL    HW212624   2.227   1.323   4.524
 3909SOL     OW12625   5.177   3.297   1.710
 3909SOL    HW112626   5.089   3.344   1.710
 3909SOL    HW212627   5.185   3.241   1.793
 3910SOL     OW12628   2.380   2.813   1.179
 3910SOL    HW112629   2.342   2.781   1.266
 3910SOL    HW212630   2.462   2.867   1.196
 3911SOL     OW12631   0.252   1.028   1.467
 3911SOL    HW112632   0.222   1.070   1.553
 3911SOL    HW212633   0.272   0.931   1.481
 3912SOL     OW12634   4.662   3.625   0.013
 3912SOL    HW112635   4.617   3.619   0.102
 3912SOL    HW212636   4.614   3.568   6.968
 3913SOL     OW12637   4.260   5.459   1.524
 3913SOL    HW112638   4.278   5.556   1.539
 3913SOL    HW212639   4.196   5.448   1.448
 3914SOL     OW12640   6.872   1.630   0.316
 3914SOL    HW112641   6.846   1.579   0.398
 3914SOL    HW212642   6.793   1.678   0.280
 3915SOL     OW12643   5.348   0.545   5.594
 3915SOL    HW112644   5.301   0.609   5.533
 3915SOL    HW212645   5.280   0.493   5.646
 3916SOL     OW12646   1.738   2.291   2.603
 3916SOL    HW112647   1.768   2.320   2.693
 3916SOL    HW212648   1.676   2.360   2.564
 3917SOL     OW12649   4.001   4.799   2.340
 3917SOL    HW112650   3.910   4.841   2.332
 3917SOL    HW212651   4.041   4.824   2.428
 3918SOL     OW12652   5.287   0.178   0.822
 3918SOL    HW112653   5.358   0.230   0.870
 3918SOL    HW212654   5.242   0.117   0.887
 3919SOL     OW12655   4.823   6.012   3.485
 3919SOL    HW112656   4.763   6.051   3.555
 3919SOL    HW212657   4.821   6.070   3.404
 3920SOL     OW12658   3.446   1.687   5.590
 3920SOL    HW112659   3.365   1.740   5.567
 3920SOL    HW212660   3.489   1.725   5.672
 3921SOL     OW12661   1.747   3.703   6.261
 3921SOL    HW112662   1.804   3.686   6.180
 3921SOL    HW212663   1.790   3.774   6.317
 3922SOL     OW12664   5.008   2.632   3.736
 3922SOL    HW112665   5.044   2.642   3.829
 3922SOL    HW212666   5.027   2.539   3.703
 3923SOL     OW12667   5.941   1.555   1.613
 3923SOL    HW112668   6.014   1.615   1.646
 3923SOL    HW212669   5.900   1.594   1.531
 3924SOL     OW12670   4.911   4.624   4.304
 3924SOL    HW112671   5.001   4.585   4.322
 3924SOL    HW212672   4.842   4.551   4.303
 3925SOL     OW12673   3.892   5.727   1.666
 3925SOL    HW112674   3.913   5.660   1.595
 3925SOL    HW212675   3.867   5.814   1.623
 3926SOL     OW12676   0.850   5.926   5.241
 3926SOL    HW112677   0.862   5.858   5.168
 3926SOL    HW212678   0.904   6.007   5.219
 3927SOL     OW12679   5.986   0.834   5.194
 3927SOL    HW112680   6.022   0.861   5.105
 3927SOL    HW212681   5.886   0.840   5.192
 3928SOL     OW12682   4.281   5.575   2.312
 3928SOL    HW112683   4.356   5.584   2.378
 3928SOL    HW212684   4.276   5.657   2.255
 3929SOL     OW12685   1.057   1.574   5.855
 3929SOL    HW112686   1.142   1.558   5.904
 3929SOL    HW212687   0.983   1.589   5.921
 3930SOL     OW12688   1.811   5.374   4.291
 3930SOL    HW112689   1.852   5.465   4.285
 3930SOL    HW212690   1.803   5.347   4.387
 3931SOL     OW12691   0.475   2.365   0.331
 3931SOL    HW112692   0.415   2.441   0.353
 3931SOL    HW212693   0.447   2.283   0.382
 3932SOL     OW12694   2.299   4.235   2.896
 3932SOL    HW112695   2.284   4.251   2.994
 3932SOL    HW212696   2.262   4.146   2.870
 3933SOL     OW12697   2.014   5.945   1.043
 3933SOL    HW112698   1.997   5.850   1.018
 3933SOL    HW212699   2.113   5.961   1.050
 3934SOL     OW12700   2.353   6.509   1.614
 3934SOL    HW112701   2.336   6.527   1.710
 3934SOL    HW212702   2.267   6.490   1.567
 3935SOL     OW12703   0.261   3.000   4.804
 3935SOL    HW112704   0.213   3.081   4.770
 3935SOL    HW212705   0.344   3.028   4.852
 3936SOL     OW12706   0.112   4.734   4.214
 3936SOL    HW112707   0.101   4.701   4.121
 3936SOL    HW212708   0.197   4.699   4.253
 3937SOL     OW12709   0.822   6.401   0.325
 3937SOL    HW112710   0.818   6.484   0.381
 3937SOL    HW212711   0.891   6.339   0.362
 3938SOL     OW12712   0.579   3.276   0.302
 3938SOL    HW112713   0.491   3.254   0.261
 3938SOL    HW212714   0.581   3.374   0.324
 3939SOL     OW12715   1.377   6.517   3.880
 3939SOL    HW112716   1.461   6.548   3.836
 3939SOL    HW212717   1.300   6.532   3.819
 3940SOL     OW12718   2.387   6.007   6.350
 3940SOL    HW112719   2.362   6.081   6.413
 3940SOL    HW212720   2.352   6.027   6.259
 3941SOL     OW12721   5.058   5.542   2.338
 3941SOL    HW112722   4.963   5.543   2.371
 3941SOL    HW212723   5.120   5.559   2.415
 3942SOL     OW12724   6.223   6.168   6.772
 3942SOL    HW112725   6.166   6.240   6.731
 3942SOL    HW212726   6.226   6.181   6.871
 3943SOL     OW12727   1.595   3.748   6.822
 3943SOL    HW112728   1.514   3.763   6.765
 3943SOL    HW212729   1.660   3.822   6.806
 3944SOL     OW12730   4.589   2.975   6.866
 3944SOL    HW112731   4.555   2.902   6.806
 3944SOL    HW212732   4.672   3.015   6.825
 3945SOL     OW12733   5.809   0.600   3.298
 3945SOL    HW112734   5.756   0.565   3.375
 3945SOL    HW212735   5.898   0.554   3.296
 3946SOL     OW12736   0.151   3.111   0.466
 3946SOL    HW112737   0.088   3.048   0.421
 3946SOL    HW212738   0.098   3.178   0.518
 3947SOL     OW12739   5.224   6.480   2.293
 3947SOL    HW112740   5.176   6.557   2.250
 3947SOL    HW212741   5.164   6.401   2.295
 3948SOL     OW12742   1.998   1.514   5.343
 3948SOL    HW112743   2.058   1.595   5.340
 3948SOL    HW212744   2.042   1.439   5.293
 3949SOL     OW12745   6.192   0.128   2.231
 3949SOL    HW112746   6.288   0.149   2.250
 3949SOL    HW212747   6.141   0.214   2.221
 3950SOL     OW12748   3.070   4.550   1.656
 3950SOL    HW112749   3.160   4.567   1.698
 3950SOL    HW212750   2.999   4.559   1.726
 3951SOL     OW12751   0.474   2.950   3.749
 3951SOL    HW112752   0.450   2.914   3.659
 3951SOL    HW212753   0.548   2.895   3.789
 3952SOL     OW12754   5.578   4.241   6.968
 3952SOL    HW112755   5.513   4.203   6.902
 3952SOL    HW212756   5.529   4.274   0.027
 3953SOL     OW12757   3.308   3.652   5.671
 3953SOL    HW112758   3.386   3.715   5.673
 3953SOL    HW212759   3.236   3.690   5.613
 3954SOL     OW12760   0.417   3.336   4.768
 3954SOL    HW112761   0.464   3.262   4.815
 3954SOL    HW212762   0.484   3.402   4.733
 3955SOL     OW12763   6.400   3.597   0.440
 3955SOL    HW112764   6.468   3.670   0.439
 3955SOL    HW212765   6.438   3.515   0.399
 3956SOL     OW12766   6.261   2.860   5.273
 3956SOL    HW112767   6.278   2.804   5.192
 3956SOL    HW212768   6.341   2.916   5.292
 3957SOL     OW12769   0.987   2.056   1.735
 3957SOL    HW112770   1.049   2.109   1.678
 3957SOL    HW212771   0.950   2.115   1.807
 3958SOL     OW12772   5.695   5.996   1.239
 3958SOL    HW112773   5.612   6.049   1.223
 3958SOL    HW212774   5.709   5.933   1.163
 3959SOL     OW12775   2.454   4.945   1.623
 3959SOL    HW112776   2.482   4.873   1.686
 3959SOL    HW212777   2.533   4.973   1.568
 3960SOL     OW12778   5.326   3.178   0.848
 3960SOL    HW112779   5.308   3.238   0.770
 3960SOL    HW212780   5.356   3.089   0.815
 3961SOL     OW12781   6.756   0.546   1.488
 3961SOL    HW112782   6.690   0.612   1.522
 3961SOL    HW212783   6.717   0.454   1.489
 3962SOL     OW12784   6.949   0.275   6.352
 3962SOL    HW112785   6.925   0.317   6.264
 3962SOL    HW212786   0.008   0.217   6.340
 3963SOL     OW12787   5.051   4.274   3.957
 3963SOL    HW112788   5.069   4.354   3.899
 3963SOL    HW212789   4.974   4.222   3.919
 3964SOL     OW12790   5.825   5.152   0.287
 3964SOL    HW112791   5.811   5.199   0.199
 3964SOL    HW212792   5.855   5.219   0.355
 3965SOL     OW12793   3.581   3.919   1.191
 3965SOL    HW112794   3.605   3.895   1.285
 3965SOL    HW212795   3.482   3.925   1.182
 3966SOL     OW12796   6.913   3.878   5.990
 3966SOL    HW112797   7.009   3.902   6.009
 3966SOL    HW212798   6.893   3.894   5.893
 3967SOL     OW12799   2.021   6.146   0.268
 3967SOL    HW112800   2.001   6.196   0.353
 3967SOL    HW212801   2.109   6.177   0.232
 3968SOL     OW12802   4.767   1.770   1.221
 3968SOL    HW112803   4.720   1.761   1.308
 3968SOL    HW212804   4.700   1.774   1.147
 3969SOL     OW12805   6.963   6.500   0.679
 3969SOL    HW112806   7.000   6.406   0.677
 3969SOL    HW212807   0.012   6.563   0.645
 3970SOL     OW12808   5.086   4.498   3.799
 3970SOL    HW112809   5.067   4.441   3.719
 3970SOL    HW212810   5.167   4.554   3.782
 3971SOL     OW12811   0.157   6.267   3.956
 3971SOL    HW112812   0.230   6.285   4.022
 3971SOL    HW212813   0.139   6.350   3.903
 3972SOL     OW12814   1.087   6.795   6.242
 3972SOL    HW112815   0.988   6.786   6.241
 3972SOL    HW212816   1.116   6.860   6.171
 3973SOL     OW12817   3.895   2.975   2.852
 3973SOL    HW112818   3.982   2.974   2.803
 3973SOL    HW212819   3.823   2.936   2.794
 3974SOL     OW12820   5.002   1.069   6.434
 3974SOL    HW112821   4.998   1.017   6.519
 3974SOL    HW212822   5.097   1.085   6.408
 3975SOL     OW12823   0.443   6.535   5.255
 3975SOL    HW112824   0.458   6.436   5.255
 3975SOL    HW212825   0.441   6.568   5.350
 3976SOL     OW12826   0.753   3.358   6.106
 3976SOL    HW112827   0.735   3.391   6.198
 3976SOL    HW212828   0.749   3.434   6.041
 3977SOL     OW12829   3.120   5.274   4.933
 3977SOL    HW112830   3.064   5.321   5.001
 3977SOL    HW212831   3.136   5.335   4.855
 3978SOL     OW12832   6.117   3.492   6.684
 3978SOL    HW112833   6.123   3.443   6.770
 3978SOL    HW212834   6.034   3.549   6.684
 3979SOL     OW12835   0.934   6.021   3.274
 3979SOL    HW112836   0.858   6.086   3.282
 3979SOL    HW212837   0.927   5.952   3.346
 3980SOL     OW12838   5.232   4.045   3.932
 3980SOL    HW112839   5.202   4.140   3.944
 3980SOL    HW212840   5.155   3.988   3.906
 3981SOL     OW12841   6.713   1.422   6.232
 3981SOL    HW112842   6.717   1.520   6.213
 3981SOL    HW212843   6.778   1.374   6.172
 3982SOL     OW12844   2.234   2.895   4.343
 3982SOL    HW112845   2.165   2.854   4.403
 3982SOL    HW212846   2.306   2.829   4.324
 3983SOL     OW12847   3.284   6.744   3.631
 3983SOL    HW112848   3.313   6.767   3.724
 3983SOL    HW212849   3.362   6.704   3.581
 3984SOL     OW12850   2.001   5.676   2.074
 3984SOL    HW112851   2.082   5.630   2.037
 3984SOL    HW212852   1.921   5.649   2.021
 3985SOL     OW12853   1.665   2.482   1.227
 3985SOL    HW112854   1.709   2.487   1.317
 3985SOL    HW212855   1.733   2.457   1.158
 3986SOL     OW12856   0.916   2.088   2.373
 3986SOL    HW112857   0.930   2.182   2.344
 3986SOL    HW212858   0.934   2.080   2.471
 3987SOL     OW12859   1.747   4.229   4.854
 3987SOL    HW112860   1.811   4.271   4.790
 3987SOL    HW212861   1.798   4.181   4.926
 3988SOL     OW12862   4.956   0.235   1.807
 3988SOL    HW112863   4.928   0.206   1.899
 3988SOL    HW212864   4.933   0.164   1.741
 3989SOL     OW12865   3.897   0.448   5.804
 3989SOL    HW112866   3.960   0.373   5.786
 3989SOL    HW212867   3.924   0.495   5.888
 3990SOL     OW12868   6.815   1.665   3.550
 3990SOL    HW112869   6.811   1.566   3.535
 3990SOL    HW212870   6.869   1.707   3.477
 3991SOL     OW12871   0.464   2.028   3.569
 3991SOL    HW112872   0.404   1.976   3.508
 3991SOL    HW212873   0.551   1.979   3.579
 3992SOL     OW12874   5.553   3.563   6.429
 3992SOL    HW112875   5.499   3.494   6.477
 3992SOL    HW212876   5.573   3.533   6.336
 3993SOL     OW12877   1.685   0.926   4.067
 3993SOL    HW112878   1.660   0.990   3.995
 3993SOL    HW212879   1.728   0.975   4.143
 3994SOL     OW12880   3.153   2.190   3.505
 3994SOL    HW112881   3.072   2.189   3.564
 3994SOL    HW212882   3.203   2.104   3.515
 3995SOL     OW12883   1.265   3.481   2.004
 3995SOL    HW112884   1.356   3.471   2.044
 3995SOL    HW212885   1.250   3.410   1.936
 3996SOL     OW12886   5.968   6.586   5.245
 3996SOL    HW112887   5.936   6.642   5.169
 3996SOL    HW212888   5.975   6.643   5.328
 3997SOL     OW12889   5.387   3.711   3.789
 3997SOL    HW112890   5.323   3.706   3.866
 3997SOL    HW212891   5.479   3.692   3.822
 3998SOL     OW12892   4.704   2.061   3.472
 3998SOL    HW112893   4.739   2.126   3.404
 3998SOL    HW212894   4.607   2.045   3.454
 3999SOL     OW12895   4.358   3.204   0.883
 3999SOL    HW112896   4.412   3.196   0.799
 3999SOL    HW212897   4.418   3.233   0.957
 4000SOL     OW12898   2.047   5.049   2.819
 4000SOL    HW112899   2.004   5.139   2.829
 4000SOL    HW212900   2.079   5.018   2.909
 4001SOL     OW12901   6.881   5.745   4.642
 4001SOL    HW112902   6.978   5.764   4.659
 4001SOL    HW212903   6.828   5.829   4.652
 4002SOL     OW12904   4.106   3.689   4.747
 4002SOL    HW112905   4.159   3.774   4.754
 4002SOL    HW212906   4.091   3.668   4.650
 4003SOL     OW12907   2.056   1.335   4.500
 4003SOL    HW112908   1.999   1.405   4.544
 4003SOL    HW212909   2.005   1.249   4.496
 4004SOL     OW12910   1.586   4.609   4.788
 4004SOL    HW112911   1.678   4.625   4.823
 4004SOL    HW212912   1.547   4.695   4.756
 4005SOL     OW12913   4.911   3.263   0.009
 4005SOL    HW112914   4.960   3.209   0.077
 4005SOL    HW212915   4.873   3.203   6.960
 4006SOL     OW12916   6.986   5.516   2.313
 4006SOL    HW112917   0.044   5.570   2.340
 4006SOL    HW212918   6.929   5.569   2.251
 4007SOL     OW12919   0.179   0.507   1.988
 4007SOL    HW112920   0.202   0.490   1.892
 4007SOL    HW212921   0.080   0.494   2.001
 4008SOL     OW12922   2.748   1.215   1.028
 4008SOL    HW112923   2.716   1.121   1.038
 4008SOL    HW212924   2.684   1.278   1.072
 4009SOL     OW12925   4.461   2.376   0.702
 4009SOL    HW112926   4.408   2.459   0.718
 4009SOL    HW212927   4.487   2.371   0.605
 4010SOL     OW12928   1.652   4.288   1.229
 4010SOL    HW112929   1.705   4.266   1.146
 4010SOL    HW212930   1.715   4.312   1.303
 4011SOL     OW12931   6.077   6.242   6.034
 4011SOL    HW112932   6.059   6.322   5.977
 4011SOL    HW212933   6.036   6.255   6.125
 4012SOL     OW12934   5.728   6.229   2.673
 4012SOL    HW112935   5.792   6.305   2.670
 4012SOL    HW212936   5.749   6.164   2.601
 4013SOL     OW12937   6.836   1.594   6.867
 4013SOL    HW112938   6.776   1.673   6.851
 4013SOL    HW212939   6.797   1.538   6.940
 4014SOL     OW12940   3.394   5.422   2.276
 4014SOL    HW112941   3.453   5.479   2.219
 4014SOL    HW212942   3.450   5.371   2.342
 4015SOL     OW12943   3.993   5.248   6.297
 4015SOL    HW112944   4.052   5.315   6.253
 4015SOL    HW212945   4.044   5.162   6.310
 4016SOL     OW12946   5.361   4.843   4.637
 4016SOL    HW112947   5.457   4.823   4.656
 4016SOL    HW212948   5.307   4.758   4.644
 4017SOL     OW12949   1.330   5.314   5.484
 4017SOL    HW112950   1.393   5.376   5.438
 4017SOL    HW212951   1.381   5.246   5.536
 4018SOL     OW12952   3.926   5.907   1.026
 4018SOL    HW112953   3.837   5.861   1.038
 4018SOL    HW212954   3.989   5.846   0.978
 4019SOL     OW12955   6.593   3.713   2.409
 4019SOL    HW112956   6.507   3.702   2.358
 4019SOL    HW212957   6.590   3.799   2.460
 4020SOL     OW12958   6.676   5.618   4.779
 4020SOL    HW112959   6.612   5.695   4.780
 4020SOL    HW212960   6.756   5.641   4.724
 4021SOL     OW12961   4.402   4.910   6.179
 4021SOL    HW112962   4.441   4.997   6.149
 4021SOL    HW212963   4.394   4.848   6.101
 4022SOL     OW12964   2.939   6.163   1.119
 4022SOL    HW112965   2.863   6.121   1.169
 4022SOL    HW212966   2.965   6.248   1.164
 4023SOL     OW12967   0.563   1.853   4.260
 4023SOL    HW112968   0.619   1.936   4.258
 4023SOL    HW212969   0.615   1.777   4.221
 4024SOL     OW12970   0.755   6.599   5.078
 4024SOL    HW112971   0.842   6.639   5.051
 4024SOL    HW212972   0.716   6.651   5.154
 4025SOL     OW12973   6.999   5.403   3.893
 4025SOL    HW112974   6.921   5.397   3.954
 4025SOL    HW212975   6.997   5.489   3.843
 4026SOL     OW12976   0.331   6.732   4.047
 4026SOL    HW112977   0.279   6.781   3.977
 4026SOL    HW212978   0.271   6.669   4.096
 4027SOL     OW12979   3.410   4.961   4.741
 4027SOL    HW112980   3.326   4.929   4.786
 4027SOL    HW212981   3.391   4.981   4.645
 4028SOL     OW12982   5.181   1.186   3.746
 4028SOL    HW112983   5.148   1.092   3.734
 4028SOL    HW212984   5.281   1.187   3.737
 4029SOL     OW12985   1.771   6.607   0.840
 4029SOL    HW112986   1.799   6.643   0.929
 4029SOL    HW212987   1.671   6.598   0.838
 4030SOL     OW12988   0.711   1.989   2.246
 4030SOL    HW112989   0.671   1.937   2.321
 4030SOL    HW212990   0.803   2.018   2.271
 4031SOL     OW12991   6.132   6.326   0.755
 4031SOL    HW112992   6.142   6.394   0.682
 4031SOL    HW212993   6.151   6.370   0.843
 4032SOL     OW12994   4.860   0.943   2.486
 4032SOL    HW112995   4.937   0.911   2.542
 4032SOL    HW212996   4.893   0.969   2.396
 4033SOL     OW12997   2.352   2.262   2.870
 4033SOL    HW112998   2.344   2.336   2.936
 4033SOL    HW212999   2.297   2.184   2.899
 4034SOL     OW13000   1.223   2.896   4.692
 4034SOL    HW113001   1.249   2.974   4.634
 4034SOL    HW213002   1.304   2.861   4.739
 4035SOL     OW13003   4.659   2.397   1.938
 4035SOL    HW113004   4.640   2.363   2.030
 4035SOL    HW213005   4.619   2.488   1.928
 4036SOL     OW13006   2.883   5.967   3.498
 4036SOL    HW113007   2.905   5.871   3.513
 4036SOL    HW213008   2.963   6.015   3.463
 4037SOL     OW13009   2.290   1.505   6.063
 4037SOL    HW113010   2.358   1.560   6.015
 4037SOL    HW213011   2.337   1.433   6.115
 4038SOL     OW13012   3.502   4.444   5.797
 4038SOL    HW113013   3.434   4.490   5.854
 4038SOL    HW213014   3.474   4.350   5.780
 4039SOL     OW13015   5.570   4.897   1.426
 4039SOL    HW113016   5.644   4.938   1.479
 4039SOL    HW213017   5.483   4.917   1.470
 4040SOL     OW13018   3.300   0.106   5.368
 4040SOL    HW113019   3.360   0.042   5.320
 4040SOL    HW213020   3.253   0.164   5.302
 4041SOL     OW13021   1.519   6.062   1.405
 4041SOL    HW113022   1.598   6.120   1.429
 4041SOL    HW213023   1.468   6.041   1.489
 4042SOL     OW13024   0.304   1.504   2.446
 4042SOL    HW113025   0.304   1.504   2.546
 4042SOL    HW213026   0.329   1.594   2.412
 4043SOL     OW13027   5.211   3.219   6.318
 4043SOL    HW113028   5.256   3.308   6.330
 4043SOL    HW213029   5.112   3.230   6.326
 4044SOL     OW13030   4.696   4.248   2.898
 4044SOL    HW113031   4.729   4.235   2.805
 4044SOL    HW213032   4.734   4.177   2.958
 4045SOL     OW13033   4.658   0.618   5.211
 4045SOL    HW113034   4.728   0.609   5.141
 4045SOL    HW213035   4.662   0.709   5.252
 4046SOL     OW13036   5.064   1.718   2.991
 4046SOL    HW113037   5.024   1.809   2.978
 4046SOL    HW213038   5.072   1.699   3.089
 4047SOL     OW13039   2.967   2.556   6.312
 4047SOL    HW113040   2.971   2.532   6.409
 4047SOL    HW213041   2.872   2.558   6.282
 4048SOL     OW13042   5.365   1.751   2.746
 4048SOL    HW113043   5.378   1.653   2.755
 4048SOL    HW213044   5.276   1.777   2.784
 4049SOL     OW13045   4.460   3.586   0.645
 4049SOL    HW113046   4.534   3.652   0.654
 4049SOL    HW213047   4.380   3.631   0.604
 4050SOL     OW13048   0.591   5.198   2.438
 4050SOL    HW113049   0.664   5.221   2.502
 4050SOL    HW213050   0.510   5.253   2.460
 4051SOL     OW13051   5.430   0.892   5.186
 4051SOL    HW113052   5.411   0.939   5.272
 4051SOL    HW213053   5.344   0.862   5.145
 4052SOL     OW13054   5.494   2.127   3.042
 4052SOL    HW113055   5.466   2.168   3.128
 4052SOL    HW213056   5.419   2.072   3.006
 4053SOL     OW13057   0.898   5.136   4.219
 4053SOL    HW113058   0.955   5.112   4.141
 4053SOL    HW213059   0.859   5.226   4.206
 4054SOL     OW13060   4.042   3.883   1.043
 4054SOL    HW113061   4.117   3.891   1.108
 4054SOL    HW213062   3.978   3.812   1.073
 4055SOL     OW13063   0.410   3.871   0.369
 4055SOL    HW113064   0.507   3.848   0.362
 4055SOL    HW213065   0.398   3.944   0.437
 4056SOL     OW13066   4.867   3.554   0.193
 4056SOL    HW113067   4.828   3.471   0.233
 4056SOL    HW213068   4.842   3.558   0.096
 4057SOL     OW13069   7.009   3.584   0.545
 4057SOL    HW113070   6.992   3.592   0.643
 4057SOL    HW213071   0.026   3.669   0.510
 4058SOL     OW13072   2.546   0.645   5.025
 4058SOL    HW113073   2.585   0.737   5.025
 4058SOL    HW213074   2.457   0.647   4.981
 4059SOL     OW13075   0.341   1.304   3.242
 4059SOL    HW113076   0.361   1.219   3.291
 4059SOL    HW213077   0.408   1.374   3.267
 4060SOL     OW13078   0.258   6.348   4.710
 4060SOL    HW113079   0.318   6.392   4.643
 4060SOL    HW213080   0.253   6.404   4.792
 4061SOL     OW13081   0.867   5.002   1.213
 4061SOL    HW113082   0.919   5.009   1.298
 4061SOL    HW213083   0.849   4.906   1.192
 4062SOL     OW13084   2.054   3.429   0.902
 4062SOL    HW113085   2.054   3.350   0.841
 4062SOL    HW213086   1.961   3.466   0.909
 4063SOL     OW13087   4.659   0.492   0.316
 4063SOL    HW113088   4.650   0.532   0.225
 4063SOL    HW213089   4.744   0.523   0.357
 4064SOL     OW13090   1.617   1.019   6.181
 4064SOL    HW113091   1.550   1.001   6.109
 4064SOL    HW213092   1.586   1.096   6.237
 4065SOL     OW13093   2.560   6.933   1.040
 4065SOL    HW113094   2.505   6.938   1.123
 4065SOL    HW213095   2.512   6.978   0.965
 4066SOL     OW13096   1.052   3.834   3.399
 4066SOL    HW113097   1.056   3.834   3.299
 4066SOL    HW213098   1.101   3.754   3.434
 4067SOL     OW13099   5.462   5.053   0.579
 4067SOL    HW113100   5.514   5.043   0.494
 4067SOL    HW213101   5.436   4.962   0.613
 4068SOL     OW13102   2.154   2.819   5.089
 4068SOL    HW113103   2.238   2.872   5.075
 4068SOL    HW213104   2.176   2.721   5.083
 4069SOL     OW13105   4.586   0.275   6.683
 4069SOL    HW113106   4.645   0.353   6.660
 4069SOL    HW213107   4.491   0.305   6.684
 4070SOL     OW13108   1.477   3.650   3.640
 4070SOL    HW113109   1.429   3.576   3.687
 4070SOL    HW213110   1.572   3.653   3.671
 4071SOL     OW13111   1.764   0.782   4.370
 4071SOL    HW113112   1.769   0.765   4.468
 4071SOL    HW213113   1.670   0.801   4.344
 4072SOL     OW13114   2.483   5.799   3.343
 4072SOL    HW113115   2.572   5.835   3.316
 4072SOL    HW213116   2.414   5.871   3.333
 4073SOL     OW13117   4.475   4.765   6.839
 4073SOL    HW113118   4.474   4.665   6.829
 4073SOL    HW213119   4.552   4.803   6.788
 4074SOL     OW13120   1.471   5.797   2.829
 4074SOL    HW113121   1.433   5.870   2.773
 4074SOL    HW213122   1.409   5.777   2.905
 4075SOL     OW13123   6.714   0.729   1.205
 4075SOL    HW113124   6.762   0.643   1.221
 4075SOL    HW213125   6.781   0.801   1.188
 4076SOL     OW13126   2.343   4.638   4.479
 4076SOL    HW113127   2.353   4.735   4.455
 4076SOL    HW213128   2.295   4.590   4.406
 4077SOL     OW13129   3.120   0.989   1.707
 4077SOL    HW113130   3.042   0.993   1.644
 4077SOL    HW213131   3.183   1.064   1.686
 4078SOL     OW13132   3.501   4.982   2.575
 4078SOL    HW113133   3.505   4.943   2.483
 4078SOL    HW213134   3.441   4.925   2.632
 4079SOL     OW13135   0.758   1.819   3.859
 4079SOL    HW113136   0.721   1.908   3.886
 4079SOL    HW213137   0.843   1.801   3.908
 4080SOL     OW13138   6.708   2.524   5.172
 4080SOL    HW113139   6.651   2.598   5.135
 4080SOL    HW213140   6.803   2.538   5.143
 4081SOL     OW13141   2.191   3.839   3.754
 4081SOL    HW113142   2.225   3.745   3.743
 4081SOL    HW213143   2.105   3.837   3.805
 4082SOL     OW13144   0.752   3.255   1.075
 4082SOL    HW113145   0.726   3.187   1.006
 4082SOL    HW213146   0.726   3.346   1.044
 4083SOL     OW13147   6.129   2.970   4.458
 4083SOL    HW113148   6.177   2.905   4.517
 4083SOL    HW213149   6.057   3.015   4.510
 4084SOL     OW13150   0.092   1.621   4.013
 4084SOL    HW113151   0.083   1.556   3.937
 4084SOL    HW213152   0.104   1.713   3.977
 4085SOL     OW13153   2.610   6.394   0.344
 4085SOL    HW113154   2.665   6.311   0.329
 4085SOL    HW213155   2.617   6.421   0.440
 4086SOL     OW13156   1.047   4.641   0.400
 4086SOL    HW113157   0.954   4.631   0.437
 4086SOL    HW213158   1.112   4.644   0.476
 4087SOL     OW13159   1.876   2.002   3.090
 4087SOL    HW113160   1.839   2.073   3.030
 4087SOL    HW213161   1.958   2.036   3.135
 4088SOL     OW13162   6.582   2.020   0.609
 4088SOL    HW113163   6.505   2.047   0.551
 4088SOL    HW213164   6.594   1.921   0.604
 4089SOL     OW13165   1.064   1.793   5.693
 4089SOL    HW113166   1.056   1.719   5.760
 4089SOL    HW213167   1.159   1.806   5.668
 4090SOL     OW13168   1.966   5.025   5.955
 4090SOL    HW113169   1.995   5.002   5.862
 4090SOL    HW213170   1.892   5.092   5.952
 4091SOL     OW13171   4.493   6.304   0.214
 4091SOL    HW113172   4.502   6.208   0.239
 4091SOL    HW213173   4.555   6.359   0.270
 4092SOL     OW13174   0.092   2.513   4.461
 4092SOL    HW113175   7.020   2.485   4.439
 4092SOL    HW213176   0.095   2.611   4.479
 4093SOL     OW13177   5.892   0.642   4.910
 4093SOL    HW113178   5.979   0.651   4.958
 4093SOL    HW213179   5.819   0.685   4.963
 4094SOL     OW13180   2.898   4.345   5.319
 4094SOL    HW113181   2.911   4.434   5.275
 4094SOL    HW213182   2.985   4.295   5.319
 4095SOL     OW13183   1.653   4.114   5.892
 4095SOL    HW113184   1.664   4.096   5.794
 4095SOL    HW213185   1.707   4.049   5.945
 4096SOL     OW13186   4.131   4.718   2.101
 4096SOL    HW113187   4.194   4.644   2.124
 4096SOL    HW213188   4.090   4.754   2.185
 4097SOL     OW13189   3.100   3.450   4.289
 4097SOL    HW113190   3.084   3.418   4.383
 4097SOL    HW213191   3.158   3.531   4.291
 4098SOL     OW13192   0.322   2.314   2.654
 4098SOL    HW113193   0.356   2.236   2.705
 4098SOL    HW213194   0.390   2.344   2.587
 4099SOL     OW13195   3.578   6.291   1.766
 4099SOL    HW113196   3.529   6.375   1.791
 4099SOL    HW213197   3.675   6.312   1.757
 4100SOL     OW13198   3.661   6.146   3.100
 4100SOL    HW113199   3.564   6.125   3.086
 4100SOL    HW213200   3.711   6.132   3.014
 4101SOL     OW13201   4.477   0.970   6.294
 4101SOL    HW113202   4.571   0.935   6.286
 4101SOL    HW213203   4.419   0.902   6.337
 4102SOL     OW13204   5.660   1.451   0.751
 4102SOL    HW113205   5.571   1.492   0.732
 4102SOL    HW213206   5.701   1.421   0.665
 4103SOL     OW13207   0.354   0.267   2.540
 4103SOL    HW113208   0.259   0.254   2.568
 4103SOL    HW213209   0.398   0.178   2.528
 4104SOL     OW13210   1.536   4.644   2.518
 4104SOL    HW113211   1.529   4.548   2.490
 4104SOL    HW213212   1.527   4.703   2.437
 4105SOL     OW13213   5.061   5.487   0.034
 4105SOL    HW113214   5.148   5.534   0.052
 4105SOL    HW213215   5.075   5.419   6.984
 4106SOL     OW13216   6.812   3.892   4.743
 4106SOL    HW113217   6.775   3.954   4.673
 4106SOL    HW213218   6.739   3.835   4.780
 4107SOL     OW13219   0.003   0.977   1.350
 4107SOL    HW113220   0.072   0.905   1.344
 4107SOL    HW213221   0.046   1.062   1.381
 4108SOL     OW13222   6.661   2.948   5.512
 4108SOL    HW113223   6.689   2.881   5.442
 4108SOL    HW213224   6.733   2.957   5.580
 4109SOL     OW13225   3.339   6.537   3.253
 4109SOL    HW113226   3.396   6.614   3.224
 4109SOL    HW213227   3.303   6.490   3.173
 4110SOL     OW13228   4.801   3.280   5.483
 4110SOL    HW113229   4.872   3.216   5.455
 4110SOL    HW213230   4.712   3.234   5.479
 4111SOL     OW13231   4.382   3.094   6.963
 4111SOL    HW113232   4.384   3.128   0.035
 4111SOL    HW213233   4.462   3.036   6.948
 4112SOL     OW13234   3.385   0.751   4.447
 4112SOL    HW113235   3.391   0.849   4.461
 4112SOL    HW213236   3.309   0.714   4.500
 4113SOL     OW13237   3.614   5.102   4.430
 4113SOL    HW113238   3.679   5.105   4.506
 4113SOL    HW213239   3.619   5.187   4.378
 4114SOL     OW13240   2.643   2.113   2.873
 4114SOL    HW113241   2.678   2.047   2.807
 4114SOL    HW213242   2.563   2.159   2.833
 4115SOL     OW13243   5.395   4.805   2.144
 4115SOL    HW113244   5.331   4.815   2.220
 4115SOL    HW213245   5.357   4.742   2.076
 4116SOL     OW13246   3.467   0.991   2.132
 4116SOL    HW113247   3.388   1.043   2.098
 4116SOL    HW213248   3.447   0.958   2.224
 4117SOL     OW13249   1.085   5.623   2.357
 4117SOL    HW113250   0.985   5.621   2.344
 4117SOL    HW213251   1.130   5.594   2.273
 4118SOL     OW13252   2.648   6.798   0.226
 4118SOL    HW113253   2.577   6.793   0.297
 4118SOL    HW213254   2.732   6.834   0.266
 4119SOL     OW13255   4.302   1.072   3.351
 4119SOL    HW113256   4.207   1.042   3.336
 4119SOL    HW213257   4.305   1.135   3.428
 4120SOL     OW13258   3.748   0.930   2.097
 4120SOL    HW113259   3.666   0.968   2.138
 4120SOL    HW213260   3.758   0.835   2.126
 4121SOL     OW13261   6.725   3.031   5.148
 4121SOL    HW113262   6.721   3.121   5.192
 4121SOL    HW213263   6.820   3.006   5.133
 4122SOL     OW13264   1.724   5.519   6.572
 4122SOL    HW113265   1.650   5.548   6.632
 4122SOL    HW213266   1.759   5.430   6.601
 4123SOL     OW13267   5.004   3.749   6.135
 4123SOL    HW113268   5.039   3.660   6.165
 4123SOL    HW213269   4.947   3.737   6.054
 4124SOL     OW13270   4.811   6.692   3.400
 4124SOL    HW113271   4.887   6.738   3.446
 4124SOL    HW213272   4.845   6.612   3.350
 4125SOL     OW13273   5.259   1.392   0.917
 4125SOL    HW113274   5.181   1.373   0.976
 4125SOL    HW213275   5.228   1.420   0.827
 4126SOL     OW13276   2.115   4.852   4.240
 4126SOL    HW113277   2.207   4.837   4.203
 4126SOL    HW213278   2.113   4.940   4.288
 4127SOL     OW13279   6.392   3.942   5.820
 4127SOL    HW113280   6.470   3.882   5.833
 4127SOL    HW213281   6.381   4.000   5.901
 4128SOL     OW13282   1.102   2.093   2.633
 4128SOL    HW113283   1.082   2.000   2.665
 4128SOL    HW213284   1.201   2.104   2.623
 4129SOL     OW13285   5.726   1.750   6.023
 4129SOL    HW113286   5.684   1.753   5.932
 4129SOL    HW213287   5.811   1.802   6.022
 4130SOL     OW13288   5.819   3.555   0.913
 4130SOL    HW113289   5.861   3.555   1.004
 4130SOL    HW213290   5.890   3.546   0.843
 4131SOL     OW13291   6.625   4.359   3.346
 4131SOL    HW113292   6.535   4.323   3.322
 4131SOL    HW213293   6.693   4.286   3.334
 4132SOL     OW13294   5.093   2.089   4.407
 4132SOL    HW113295   4.998   2.116   4.423
 4132SOL    HW213296   5.104   2.055   4.313
 4133SOL     OW13297   2.898   2.169   0.962
 4133SOL    HW113298   2.982   2.174   1.017
 4133SOL    HW213299   2.827   2.224   1.004
 4134SOL     OW13300   1.033   1.821   6.922
 4134SOL    HW113301   0.967   1.883   6.879
 4134SOL    HW213302   1.076   1.868   6.999
 4135SOL     OW13303   1.279   0.464   1.177
 4135SOL    HW113304   1.351   0.504   1.234
 4135SOL    HW213305   1.320   0.405   1.107
 4136SOL     OW13306   1.067   1.762   3.168
 4136SOL    HW113307   1.151   1.713   3.193
 4136SOL    HW213308   1.084   1.817   3.087
 4137SOL     OW13309   3.206   3.873   5.871
 4137SOL    HW113310   3.109   3.852   5.886
 4137SOL    HW213311   3.214   3.966   5.835
 4138SOL     OW13312   4.193   5.468   2.891
 4138SOL    HW113313   4.101   5.495   2.919
 4138SOL    HW213314   4.219   5.521   2.810
 4139SOL     OW13315   1.928   1.138   0.095
 4139SOL    HW113316   1.892   1.111   0.184
 4139SOL    HW213317   1.994   1.212   0.106
 4140SOL     OW13318   4.607   1.563   5.391
 4140SOL    HW113319   4.666   1.493   5.351
 4140SOL    HW213320   4.600   1.641   5.329
 4141SOL     OW13321   5.313   5.760   0.490
 4141SOL    HW113322   5.255   5.830   0.531
 4141SOL    HW213323   5.361   5.799   0.411
 4142SOL     OW13324   6.021   3.459   1.596
 4142SOL    HW113325   6.064   3.410   1.672
 4142SOL    HW213326   5.993   3.393   1.526
 4143SOL     OW13327   0.504   2.470   1.432
 4143SOL    HW113328   0.439   2.543   1.415
 4143SOL    HW213329   0.525   2.422   1.347
 4144SOL     OW13330   4.590   0.888   2.619
 4144SOL    HW113331   4.591   0.793   2.652
 4144SOL    HW213332   4.678   0.908   2.575
 4145SOL     OW13333   3.102   6.857   2.994
 4145SOL    HW113334   3.104   6.834   2.897
 4145SOL    HW213335   3.083   6.775   3.048
 4146SOL     OW13336   4.724   5.610   0.430
 4146SOL    HW113337   4.747   5.527   0.379
 4146SOL    HW213338   4.662   5.587   0.504
 4147SOL     OW13339   3.151   2.479   5.568
 4147SOL    HW113340   3.173   2.394   5.616
 4147SOL    HW213341   3.095   2.536   5.628
 4148SOL     OW13342   5.880   6.998   3.111
 4148SOL    HW113343   5.843   0.062   3.148
 4148SOL    HW213344   5.897   6.934   3.187
 4149SOL     OW13345   5.305   4.262   1.655
 4149SOL    HW113346   5.329   4.268   1.558
 4149SOL    HW213347   5.275   4.352   1.687
 4150SOL     OW13348   4.493   0.374   5.785
 4150SOL    HW113349   4.446   0.363   5.873
 4150SOL    HW213350   4.542   0.461   5.786
 4151SOL     OW13351   6.733   5.199   0.498
 4151SOL    HW113352   6.688   5.288   0.501
 4151SOL    HW213353   6.771   5.177   0.588
 4152SOL     OW13354   4.052   4.410   1.110
 4152SOL    HW113355   3.983   4.338   1.105
 4152SOL    HW213356   4.008   4.499   1.096
 4153SOL     OW13357   6.509   5.401   6.483
 4153SOL    HW113358   6.602   5.421   6.450
 4153SOL    HW213359   6.463   5.341   6.417
 4154SOL     OW13360   4.790   2.959   5.654
 4154SOL    HW113361   4.882   2.964   5.694
 4154SOL    HW213362   4.796   2.968   5.555
 4155SOL     OW13363   1.004   3.170   1.751
 4155SOL    HW113364   1.082   3.215   1.794
 4155SOL    HW213365   1.019   3.071   1.751
 4156SOL     OW13366   6.114   0.257   5.550
 4156SOL    HW113367   6.104   0.191   5.475
 4156SOL    HW213368   6.028   0.262   5.601
 4157SOL     OW13369   3.331   0.614   5.170
 4157SOL    HW113370   3.335   0.674   5.250
 4157SOL    HW213371   3.255   0.642   5.111
 4158SOL     OW13372   1.254   6.879   4.011
 4158SOL    HW113373   1.256   6.835   4.101
 4158SOL    HW213374   1.159   6.887   3.980
 4159SOL     OW13375   0.850   3.226   5.158
 4159SOL    HW113376   0.878   3.232   5.062
 4159SOL    HW213377   0.846   3.130   5.185
 4160SOL     OW13378   1.564   1.351   0.911
 4160SOL    HW113379   1.470   1.385   0.900
 4160SOL    HW213380   1.606   1.342   0.821
 4161SOL     OW13381   6.107   1.874   0.802
 4161SOL    HW113382   6.060   1.956   0.771
 4161SOL    HW213383   6.041   1.810   0.843
 4162SOL     OW13384   6.790   0.326   5.237
 4162SOL    HW113385   6.740   0.239   5.237
 4162SOL    HW213386   6.855   0.327   5.161
 4163SOL     OW13387   6.098   1.165   4.005
 4163SOL    HW113388   6.060   1.139   4.094
 4163SOL    HW213389   6.150   1.250   4.015
 4164SOL     OW13390   2.285   6.918   5.907
 4164SOL    HW113391   2.332   6.926   5.995
 4164SOL    HW213392   2.350   6.934   5.833
 4165SOL     OW13393   3.297   6.103   2.514
 4165SOL    HW113394   3.219   6.164   2.526
 4165SOL    HW213395   3.323   6.100   2.418
 4166SOL     OW13396   6.052   3.100   0.718
 4166SOL    HW113397   6.054   3.003   0.740
 4166SOL    HW213398   5.991   3.148   0.781
 4167SOL     OW13399   2.084   3.113   1.318
 4167SOL    HW113400   2.138   3.060   1.252
 4167SOL    HW213401   1.992   3.127   1.280
 4168SOL     OW13402   1.335   4.322   1.033
 4168SOL    HW113403   1.415   4.378   1.015
 4168SOL    HW213404   1.364   4.237   1.078
 4169SOL     OW13405   6.202   3.636   4.531
 4169SOL    HW113406   6.273   3.578   4.572
 4169SOL    HW213407   6.116   3.623   4.582
 4170SOL     OW13408   4.542   2.554   5.533
 4170SOL    HW113409   4.516   2.642   5.492
 4170SOL    HW213410   4.465   2.490   5.524
 4171SOL     OW13411   5.461   3.657   1.744
 4171SOL    HW113412   5.482   3.560   1.756
 4171SOL    HW213413   5.533   3.700   1.690
 4172SOL     OW13414   2.001   1.805   0.201
 4172SOL    HW113415   2.058   1.740   0.252
 4172SOL    HW213416   1.989   1.888   0.256
 4173SOL     OW13417   5.595   3.722   5.297
 4173SOL    HW113418   5.617   3.812   5.335
 4173SOL    HW213419   5.576   3.731   5.199
 4174SOL     OW13420   5.016   0.617   4.265
 4174SOL    HW113421   5.097   0.560   4.255
 4174SOL    HW213422   5.041   0.704   4.307
 4175SOL     OW13423   3.460   1.559   3.694
 4175SOL    HW113424   3.529   1.486   3.693
 4175SOL    HW213425   3.374   1.524   3.658
 4176SOL     OW13426   5.839   5.757   2.644
 4176SOL    HW113427   5.798   5.769   2.554
 4176SOL    HW213428   5.884   5.668   2.649
 4177SOL     OW13429   6.888   5.210   2.634
 4177SOL    HW113430   6.817   5.178   2.571
 4177SOL    HW213431   6.939   5.131   2.669
 4178SOL     OW13432   4.326   2.415   5.858
 4178SOL    HW113433   4.294   2.394   5.951
 4178SOL    HW213434   4.423   2.438   5.860
 4179SOL     OW13435   6.330   2.986   6.123
 4179SOL    HW113436   6.235   2.961   6.144
 4179SOL    HW213437   6.347   3.080   6.153
 4180SOL     OW13438   4.250   3.908   1.206
 4180SOL    HW113439   4.332   3.870   1.248
 4180SOL    HW213440   4.250   4.007   1.217
 4181SOL     OW13441   0.167   1.099   0.094
 4181SOL    HW113442   0.237   1.128   0.028
 4181SOL    HW213443   0.141   1.177   0.151
 4182SOL     OW13444   5.836   1.431   3.842
 4182SOL    HW113445   5.871   1.514   3.797
 4182SOL    HW213446   5.854   1.352   3.783
 4183SOL     OW13447   1.594   2.040   1.179
 4183SOL    HW113448   1.568   2.130   1.215
 4183SOL    HW213449   1.685   2.044   1.139
 4184SOL     OW13450   4.012   5.030   0.563
 4184SOL    HW113451   3.982   5.105   0.505
 4184SOL    HW213452   3.944   4.958   0.563
 4185SOL     OW13453   0.139   0.006   4.232
 4185SOL    HW113454   0.169   6.944   4.279
 4185SOL    HW213455   0.057   0.042   4.277
 4186SOL     OW13456   3.514   4.330   1.762
 4186SOL    HW113457   3.549   4.422   1.782
 4186SOL    HW213458   3.536   4.269   1.838
 4187SOL     OW13459   4.116   4.453   6.633
 4187SOL    HW113460   4.185   4.464   6.562
 4187SOL    HW213461   4.046   4.524   6.624
 4188SOL     OW13462   4.872   6.653   4.641
 4188SOL    HW113463   4.957   6.686   4.681
 4188SOL    HW213464   4.794   6.686   4.695
 4189SOL     OW13465   1.904   3.107   3.513
 4189SOL    HW113466   1.907   3.053   3.429
 4189SOL    HW213467   1.987   3.161   3.520
 4190SOL     OW13468   3.494   0.144   1.409
 4190SOL    HW113469   3.525   0.057   1.448
 4190SOL    HW213470   3.503   0.142   1.310
 4191SOL     OW13471   6.905   2.520   1.838
 4191SOL    HW113472   6.855   2.492   1.920
 4191SOL    HW213473   6.940   2.613   1.851
 4192SOL     OW13474   6.075   1.059   2.786
 4192SOL    HW113475   6.097   1.099   2.874
 4192SOL    HW213476   6.157   1.020   2.745
 4193SOL     OW13477   2.203   6.722   2.639
 4193SOL    HW113478   2.206   6.717   2.539
 4193SOL    HW213479   2.199   6.818   2.667
 4194SOL     OW13480   0.162   0.896   3.729
 4194SOL    HW113481   0.124   0.804   3.716
 4194SOL    HW213482   0.261   0.892   3.717
 4195SOL     OW13483   5.153   0.619   2.539
 4195SOL    HW113484   5.071   0.648   2.588
 4195SOL    HW213485   5.228   0.606   2.603
 4196SOL     OW13486   4.416   2.428   2.991
 4196SOL    HW113487   4.463   2.372   2.923
 4196SOL    HW213488   4.468   2.429   3.076
 4197SOL     OW13489   4.877   3.951   4.044
 4197SOL    HW113490   4.886   4.007   3.961
 4197SOL    HW213491   4.863   3.855   4.018
 4198SOL     OW13492   5.672   4.065   5.357
 4198SOL    HW113493   5.672   4.116   5.271
 4198SOL    HW213494   5.583   4.020   5.369
 4199SOL     OW13495   3.196   3.916   5.332
 4199SOL    HW113496   3.195   3.984   5.259
 4199SOL    HW213497   3.262   3.844   5.310
 4200SOL     OW13498   2.357   0.418   6.152
 4200SOL    HW113499   2.273   0.438   6.202
 4200SOL    HW213500   2.352   0.326   6.113
 4201SOL     OW13501   6.315   6.542   4.825
 4201SOL    HW113502   6.253   6.482   4.773
 4201SOL    HW213503   6.308   6.635   4.789
 4202SOL     OW13504   5.828   3.882   4.963
 4202SOL    HW113505   5.792   3.793   4.990
 4202SOL    HW213506   5.855   3.880   4.867
 4203SOL     OW13507   4.818   5.390   3.783
 4203SOL    HW113508   4.850   5.393   3.688
 4203SOL    HW213509   4.811   5.484   3.819
 4204SOL     OW13510   2.734   3.874   0.752
 4204SOL    HW113511   2.812   3.935   0.739
 4204SOL    HW213512   2.753   3.810   0.826
 4205SOL     OW13513   2.711   5.582   3.175
 4205SOL    HW113514   2.774   5.506   3.193
 4205SOL    HW213515   2.674   5.615   3.262
 4206SOL     OW13516   5.720   7.013   4.592
 4206SOL    HW113517   5.650   6.949   4.623
 4206SOL    HW213518   5.804   6.997   4.643
 4207SOL     OW13519   0.779   0.648   1.388
 4207SOL    HW113520   0.842   0.650   1.310
 4207SOL    HW213521   0.694   0.693   1.363
 4208SOL     OW13522   0.808   2.716   0.954
 4208SOL    HW113523   0.737   2.715   1.025
 4208SOL    HW213524   0.818   2.625   0.915
 4209SOL     OW13525   2.728   0.389   4.724
 4209SOL    HW113526   2.656   0.321   4.730
 4209SOL    HW213527   2.693   0.478   4.753
 4210SOL     OW13528   5.124   2.334   0.320
 4210SOL    HW113529   5.065   2.265   0.362
 4210SOL    HW213530   5.078   2.422   0.321
 4211SOL     OW13531   4.913   3.512   3.663
 4211SOL    HW113532   4.895   3.419   3.697
 4211SOL    HW213533   4.902   3.577   3.737
 4212SOL     OW13534   6.156   6.761   2.871
 4212SOL    HW113535   6.167   6.703   2.791
 4212SOL    HW213536   6.233   6.746   2.934
 4213SOL     OW13537   0.826   0.571   1.822
 4213SOL    HW113538   0.851   0.528   1.735
 4213SOL    HW213539   0.727   0.570   1.833
 4214SOL     OW13540   1.897   4.448   4.524
 4214SOL    HW113541   1.944   4.508   4.460
 4214SOL    HW213542   1.799   4.469   4.522
 4215SOL     OW13543   0.788   5.298   5.358
 4215SOL    HW113544   0.739   5.362   5.417
 4215SOL    HW213545   0.884   5.293   5.385
 4216SOL     OW13546   2.549   3.481   5.379
 4216SOL    HW113547   2.476   3.413   5.367
 4216SOL    HW213548   2.637   3.438   5.360
 4217SOL     OW13549   7.017   0.690   3.039
 4217SOL    HW113550   6.959   0.768   3.019
 4217SOL    HW213551   0.052   0.709   3.119
 4218SOL     OW13552   3.172   0.131   2.786
 4218SOL    HW113553   3.088   0.134   2.732
 4218SOL    HW213554   3.203   0.036   2.794
 4219SOL     OW13555   4.824   0.046   3.194
 4219SOL    HW113556   4.877   0.076   3.273
 4219SOL    HW213557   4.801   6.970   3.204
 4220SOL     OW13558   0.639   3.951   3.534
 4220SOL    HW113559   0.721   3.894   3.546
 4220SOL    HW213560   0.640   4.025   3.602
 4221SOL     OW13561   5.307   5.911   5.954
 4221SOL    HW113562   5.302   6.009   5.936
 4221SOL    HW213563   5.333   5.863   5.870
 4222SOL     OW13564   3.871   2.217   0.078
 4222SOL    HW113565   3.949   2.201   0.018
 4222SOL    HW213566   3.813   2.288   0.039
 4223SOL     OW13567   2.967   3.645   2.520
 4223SOL    HW113568   2.943   3.550   2.540
 4223SOL    HW213569   2.928   3.705   2.590
 4224SOL     OW13570   3.917   1.886   5.455
 4224SOL    HW113571   3.887   1.981   5.457
 4224SOL    HW213572   3.935   1.855   5.549
 4225SOL     OW13573   5.213   0.737   5.062
 4225SOL    HW113574   5.160   0.658   5.091
 4225SOL    HW213575   5.291   0.707   5.007
 4226SOL     OW13576   1.505   0.934   3.314
 4226SOL    HW113577   1.476   0.840   3.334
 4226SOL    HW213578   1.441   0.976   3.250
 4227SOL     OW13579   6.372   3.866   0.091
 4227SOL    HW113580   6.437   3.852   0.166
 4227SOL    HW213581   6.312   3.943   0.113
 4228SOL     OW13582   5.851   5.524   2.915
 4228SOL    HW113583   5.852   5.454   2.987
 4228SOL    HW213584   5.876   5.612   2.954
 4229SOL     OW13585   4.804   4.946   5.664
 4229SOL    HW113586   4.845   4.864   5.705
 4229SOL    HW213587   4.867   5.023   5.675
 4230SOL     OW13588   2.997   0.459   4.731
 4230SOL    HW113589   3.037   0.379   4.775
 4230SOL    HW213590   2.903   0.439   4.704
 4231SOL     OW13591   4.322   6.101   4.979
 4231SOL    HW113592   4.264   6.049   4.917
 4231SOL    HW213593   4.279   6.189   5.000
 4232SOL     OW13594   1.999   4.131   1.884
 4232SOL    HW113595   1.928   4.176   1.939
 4232SOL    HW213596   2.085   4.131   1.935
 4233SOL     OW13597   5.501   6.623   1.056
 4233SOL    HW113598   5.597   6.645   1.070
 4233SOL    HW213599   5.446   6.665   1.129
 4234SOL     OW13600   3.004   4.029   5.544
 4234SOL    HW113601   2.976   4.040   5.449
 4234SOL    HW213602   3.104   4.024   5.549
 4235SOL     OW13603   0.052   3.767   5.438
 4235SOL    HW113604   0.022   3.811   5.354
 4235SOL    HW213605   0.138   3.808   5.469
 4236SOL     OW13606   1.163   4.053   5.026
 4236SOL    HW113607   1.151   3.954   5.014
 4236SOL    HW213608   1.177   4.074   5.122
 4237SOL     OW13609   5.615   4.398   4.767
 4237SOL    HW113610   5.519   4.423   4.782
 4237SOL    HW213611   5.648   4.344   4.844
 4238SOL     OW13612   4.530   4.589   4.125
 4238SOL    HW113613   4.495   4.683   4.124
 4238SOL    HW213614   4.585   4.573   4.043
 4239SOL     OW13615   5.292   5.312   5.840
 4239SOL    HW113616   5.201   5.308   5.882
 4239SOL    HW213617   5.281   5.329   5.742
 4240SOL     OW13618   2.335   4.874   6.408
 4240SOL    HW113619   2.434   4.880   6.424
 4240SOL    HW213620   2.314   4.791   6.357
 4241SOL     OW13621   4.092   1.252   0.435
 4241SOL    HW113622   4.163   1.223   0.499
 4241SOL    HW213623   4.129   1.322   0.374
 4242SOL     OW13624   1.291   0.115   2.738
 4242SOL    HW113625   1.245   0.027   2.752
 4242SOL    HW213626   1.390   0.101   2.743
 4243SOL     OW13627   1.531   3.202   3.135
 4243SOL    HW113628   1.518   3.141   3.213
 4243SOL    HW213629   1.610   3.260   3.151
 4244SOL     OW13630   3.027   6.753   0.911
 4244SOL    HW113631   3.015   6.708   0.823
 4244SOL    HW213632   2.955   6.821   0.924
 4245SOL     OW13633   6.272   2.645   1.194
 4245SOL    HW113634   6.343   2.641   1.124
 4245SOL    HW213635   6.184   2.620   1.154
 4246SOL     OW13636   4.650   2.438   3.537
 4246SOL    HW113637   4.703   2.382   3.601
 4246SOL    HW213638   4.692   2.528   3.528
 4247SOL     OW13639   2.181   4.391   6.629
 4247SOL    HW113640   2.248   4.444   6.576
 4247SOL    HW213641   2.157   4.442   6.712
 4248SOL     OW13642   1.933   0.413   3.190
 4248SOL    HW113643   1.874   0.374   3.119
 4248SOL    HW213644   2.028   0.408   3.160
 4249SOL     OW13645   6.088   0.264   5.918
 4249SOL    HW113646   6.047   0.239   6.007
 4249SOL    HW213647   6.051   0.204   5.847
 4250SOL     OW13648   6.453   5.787   4.854
 4250SOL    HW113649   6.391   5.775   4.776
 4250SOL    HW213650   6.440   5.711   4.918
 4251SOL     OW13651   5.265   2.712   5.751
 4251SOL    HW113652   5.305   2.628   5.785
 4251SOL    HW213653   5.169   2.716   5.776
 4252SOL     OW13654   6.769   6.961   0.139
 4252SOL    HW113655   6.837   6.996   0.204
 4252SOL    HW213656   6.804   6.971   0.046
 4253SOL     OW13657   4.716   5.897   2.993
 4253SOL    HW113658   4.668   5.981   3.019
 4253SOL    HW213659   4.655   5.818   3.005
 4254SOL     OW13660   1.874   2.359   5.800
 4254SOL    HW113661   1.827   2.442   5.831
 4254SOL    HW213662   1.899   2.303   5.879
 4255SOL     OW13663   0.993   2.680   3.528
 4255SOL    HW113664   0.937   2.676   3.611
 4255SOL    HW213665   0.948   2.738   3.461
 4256SOL     OW13666   0.279   5.781   1.096
 4256SOL    HW113667   0.353   5.730   1.139
 4256SOL    HW213668   0.288   5.879   1.117
 4257SOL     OW13669   6.461   0.819   3.521
 4257SOL    HW113670   6.409   0.738   3.548
 4257SOL    HW213671   6.450   0.835   3.423
 4258SOL     OW13672   3.084   5.366   1.064
 4258SOL    HW113673   3.078   5.464   1.082
 4258SOL    HW213674   3.133   5.321   1.139
 4259SOL     OW13675   1.182   0.153   0.857
 4259SOL    HW113676   1.159   0.070   0.805
 4259SOL    HW213677   1.243   0.210   0.802
 4260SOL     OW13678   6.067   0.499   4.510
 4260SOL    HW113679   6.024   0.422   4.557
 4260SOL    HW213680   6.166   0.495   4.524
 4261SOL     OW13681   2.644   6.280   4.689
 4261SOL    HW113682   2.697   6.362   4.711
 4261SOL    HW213683   2.630   6.276   4.590
 4262SOL     OW13684   2.537   4.759   5.572
 4262SOL    HW113685   2.629   4.758   5.610
 4262SOL    HW213686   2.541   4.779   5.474
 4263SOL     OW13687   2.563   1.762   3.437
 4263SOL    HW113688   2.645   1.716   3.471
 4263SOL    HW213689   2.510   1.797   3.513
 4264SOL     OW13690   4.614   1.889   5.829
 4264SOL    HW113691   4.595   1.816   5.894
 4264SOL    HW213692   4.561   1.970   5.853
 4265SOL     OW13693   2.538   6.633   5.827
 4265SOL    HW113694   2.442   6.614   5.808
 4265SOL    HW213695   2.580   6.675   5.746
 4266SOL     OW13696   1.386   5.312   1.665
 4266SOL    HW113697   1.443   5.378   1.616
 4266SOL    HW213698   1.293   5.315   1.628
 4267SOL     OW13699   0.544   4.184   4.351
 4267SOL    HW113700   0.593   4.098   4.365
 4267SOL    HW213701   0.541   4.205   4.253
 4268SOL     OW13702   1.069   4.514   6.466
 4268SOL    HW113703   0.977   4.476   6.459
 4268SOL    HW213704   1.104   4.500   6.559
 4269SOL     OW13705   2.989   1.751   4.589
 4269SOL    HW113706   3.087   1.752   4.570
 4269SOL    HW213707   2.946   1.832   4.549
 4270SOL     OW13708   3.902   3.438   0.400
 4270SOL    HW113709   3.948   3.481   0.323
 4270SOL    HW213710   3.917   3.492   0.483
 4271SOL     OW13711   0.132   0.230   1.158
 4271SOL    HW113712   0.044   0.236   1.111
 4271SOL    HW213713   0.126   0.162   1.231
 4272SOL     OW13714   6.834   1.144   5.930
 4272SOL    HW113715   6.883   1.060   5.953
 4272SOL    HW213716   6.753   1.121   5.876
 4273SOL     OW13717   2.680   5.985   3.920
 4273SOL    HW113718   2.615   5.952   3.988
 4273SOL    HW213719   2.684   6.085   3.922
 4274SOL     OW13720   0.797   1.336   1.935
 4274SOL    HW113721   0.862   1.260   1.930
 4274SOL    HW213722   0.842   1.421   1.907
 4275SOL     OW13723   0.063   2.357   3.630
 4275SOL    HW113724   7.005   2.336   3.572
 4275SOL    HW213725   0.040   2.338   3.726
 4276SOL     OW13726   2.129   6.304   3.223
 4276SOL    HW113727   2.106   6.305   3.321
 4276SOL    HW213728   2.085   6.226   3.179
 4277SOL     OW13729   6.736   5.491   2.832
 4277SOL    HW113730   6.702   5.493   2.926
 4277SOL    HW213731   6.820   5.546   2.827
 4278SOL     OW13732   1.013   6.389   1.225
 4278SOL    HW113733   0.962   6.456   1.172
 4278SOL    HW213734   1.105   6.424   1.245
 4279SOL     OW13735   0.808   2.472   3.428
 4279SOL    HW113736   0.865   2.553   3.413
 4279SOL    HW213737   0.731   2.496   3.486
 4280SOL     OW13738   2.030   6.289   6.235
 4280SOL    HW113739   2.085   6.341   6.170
 4280SOL    HW213740   1.946   6.257   6.191
 4281SOL     OW13741   6.102   5.967   3.275
 4281SOL    HW113742   6.050   5.882   3.288
 4281SOL    HW213743   6.113   5.984   3.177
 4282SOL     OW13744   5.427   4.985   2.480
 4282SOL    HW113745   5.496   5.012   2.413
 4282SOL    HW213746   5.349   4.944   2.433
 4283SOL     OW13747   5.687   1.164   4.652
 4283SOL    HW113748   5.666   1.137   4.746
 4283SOL    HW213749   5.602   1.169   4.600
 4284SOL     OW13750   4.727   5.803   6.741
 4284SOL    HW113751   4.743   5.829   6.836
 4284SOL    HW213752   4.629   5.807   6.721
 4285SOL     OW13753   3.229   1.349   6.560
 4285SOL    HW113754   3.218   1.364   6.658
 4285SOL    HW213755   3.325   1.359   6.535
 4286SOL     OW13756   5.421   0.497   6.750
 4286SOL    HW113757   5.348   0.448   6.799
 4286SOL    HW213758   5.499   0.436   6.738
 4287SOL     OW13759   3.517   1.039   0.920
 4287SOL    HW113760   3.423   1.065   0.897
 4287SOL    HW213761   3.538   0.949   0.881
 4288SOL     OW13762   6.678   5.939   1.785
 4288SOL    HW113763   6.615   5.884   1.730
 4288SOL    HW213764   6.685   5.900   1.876
 4289SOL     OW13765   0.289   4.386   5.237
 4289SOL    HW113766   0.336   4.402   5.150
 4289SOL    HW213767   0.191   4.399   5.225
 4290SOL     OW13768   0.205   1.605   3.118
 4290SOL    HW113769   0.244   1.533   3.061
 4290SOL    HW213770   0.279   1.655   3.164
 4291SOL     OW13771   3.848   4.631   6.708
 4291SOL    HW113772   3.894   4.596   6.790
 4291SOL    HW213773   3.824   4.727   6.722
 4292SOL     OW13774   6.584   1.202   1.637
 4292SOL    HW113775   6.603   1.115   1.684
 4292SOL    HW213776   6.528   1.260   1.696
 4293SOL     OW13777   4.216   2.517   0.382
 4293SOL    HW113778   4.265   2.461   0.449
 4293SOL    HW213779   4.122   2.532   0.413
 4294SOL     OW13780   2.598   1.755   6.436
 4294SOL    HW113781   2.575   1.850   6.418
 4294SOL    HW213782   2.698   1.745   6.438
 4295SOL     OW13783   4.556   6.250   2.912
 4295SOL    HW113784   4.523   6.184   2.980
 4295SOL    HW213785   4.640   6.292   2.945
 4296SOL     OW13786   2.456   6.495   2.187
 4296SOL    HW113787   2.452   6.412   2.131
 4296SOL    HW213788   2.461   6.575   2.128
 4297SOL     OW13789   4.784   5.388   0.281
 4297SOL    HW113790   4.851   5.360   0.350
 4297SOL    HW213791   4.830   5.404   0.194
 4298SOL     OW13792   1.556   0.485   0.853
 4298SOL    HW113793   1.617   0.459   0.928
 4298SOL    HW213794   1.609   0.492   0.769
 4299SOL     OW13795   0.961   3.161   6.582
 4299SOL    HW113796   1.055   3.193   6.568
 4299SOL    HW213797   0.933   3.178   6.676
 4300SOL     OW13798   3.261   1.177   1.571
 4300SOL    HW113799   3.356   1.152   1.586
 4300SOL    HW213800   3.249   1.275   1.592
 4301SOL     OW13801   2.213   5.999   6.134
 4301SOL    HW113802   2.129   5.953   6.104
 4301SOL    HW213803   2.289   5.972   6.075
 4302SOL     OW13804   3.285   5.038   6.145
 4302SOL    HW113805   3.238   5.121   6.176
 4302SOL    HW213806   3.371   5.028   6.195
 4303SOL     OW13807   4.396   5.252   3.419
 4303SOL    HW113808   4.307   5.225   3.382
 4303SOL    HW213809   4.428   5.334   3.371
 4304SOL     OW13810   3.336   4.040   1.780
 4304SOL    HW113811   3.416   4.067   1.834
 4304SOL    HW213812   3.359   4.045   1.682
 4305SOL     OW13813   0.750   6.172   6.143
 4305SOL    HW113814   0.833   6.143   6.191
 4305SOL    HW213815   0.681   6.200   6.209
 4306SOL     OW13816   5.985   3.631   5.385
 4306SOL    HW113817   5.940   3.720   5.383
 4306SOL    HW213818   6.083   3.643   5.404
 4307SOL     OW13819   0.249   1.129   5.853
 4307SOL    HW113820   0.251   1.222   5.817
 4307SOL    HW213821   0.340   1.088   5.845
 4308SOL     OW13822   4.459   5.862   6.668
 4308SOL    HW113823   4.438   5.846   6.571
 4308SOL    HW213824   4.386   5.824   6.724
 4309SOL     OW13825   1.520   1.151   0.186
 4309SOL    HW113826   1.555   1.118   0.098
 4309SOL    HW213827   1.478   1.241   0.174
 4310SOL     OW13828   6.285   2.003   2.472
 4310SOL    HW113829   6.295   2.054   2.558
 4310SOL    HW213830   6.249   1.911   2.492
 4311SOL     OW13831   0.882   0.214   1.464
 4311SOL    HW113832   0.903   0.227   1.367
 4311SOL    HW213833   0.810   0.146   1.474
 4312SOL     OW13834   6.610   3.840   2.110
 4312SOL    HW113835   6.674   3.891   2.166
 4312SOL    HW213836   6.562   3.772   2.167
 4313SOL     OW13837   1.022   3.543   6.336
 4313SOL    HW113838   1.045   3.580   6.246
 4313SOL    HW213839   0.928   3.569   6.360
 4314SOL     OW13840   1.000   1.248   5.945
 4314SOL    HW113841   0.915   1.276   5.901
 4314SOL    HW213842   1.072   1.240   5.876
 4315SOL     OW13843   2.863   1.560   5.543
 4315SOL    HW113844   2.905   1.642   5.583
 4315SOL    HW213845   2.843   1.494   5.616
 4316SOL     OW13846   4.353   5.802   1.805
 4316SOL    HW113847   4.324   5.897   1.816
 4316SOL    HW213848   4.272   5.744   1.798
 4317SOL     OW13849   5.050   0.869   5.238
 4317SOL    HW113850   5.070   0.957   5.279
 4317SOL    HW213851   5.115   0.851   5.164
 4318SOL     OW13852   1.497   6.492   4.515
 4318SOL    HW113853   1.450   6.571   4.554
 4318SOL    HW213854   1.569   6.523   4.452
 4319SOL     OW13855   0.897   4.029   2.177
 4319SOL    HW113856   0.863   3.993   2.263
 4319SOL    HW213857   0.834   4.005   2.103
 4320SOL     OW13858   3.008   0.134   0.653
 4320SOL    HW113859   3.077   0.126   0.725
 4320SOL    HW213860   2.922   0.164   0.693
 4321SOL     OW13861   6.803   6.336   3.301
 4321SOL    HW113862   6.832   6.423   3.260
 4321SOL    HW213863   6.846   6.325   3.390
 4322SOL     OW13864   2.058   2.103   4.432
 4322SOL    HW113865   1.975   2.049   4.445
 4322SOL    HW213866   2.034   2.199   4.418
 4323SOL     OW13867   4.434   4.861   0.101
 4323SOL    HW113868   4.394   4.782   0.148
 4323SOL    HW213869   4.424   4.849   0.003
 4324SOL     OW13870   0.606   5.106   5.952
 4324SOL    HW113871   0.525   5.051   5.932
 4324SOL    HW213872   0.673   5.094   5.879
 4325SOL     OW13873   2.131   6.338   1.573
 4325SOL    HW113874   2.121   6.372   1.666
 4325SOL    HW213875   2.103   6.409   1.508
 4326SOL     OW13876   4.784   2.374   2.380
 4326SOL    HW113877   4.823   2.286   2.408
 4326SOL    HW213878   4.738   2.363   2.292
 4327SOL     OW13879   2.146   5.485   3.536
 4327SOL    HW113880   2.179   5.519   3.448
 4327SOL    HW213881   2.064   5.430   3.522
 4328SOL     OW13882   6.264   0.483   3.412
 4328SOL    HW113883   6.223   0.574   3.411
 4328SOL    HW213884   6.314   0.468   3.327
 4329SOL     OW13885   6.732   3.284   6.465
 4329SOL    HW113886   6.771   3.294   6.557
 4329SOL    HW213887   6.747   3.369   6.414
 4330SOL     OW13888   2.284   5.345   4.562
 4330SOL    HW113889   2.202   5.402   4.557
 4330SOL    HW213890   2.358   5.388   4.510
 4331SOL     OW13891   5.897   2.032   2.524
 4331SOL    HW113892   5.843   2.056   2.605
 4331SOL    HW213893   5.963   2.105   2.505
 4332SOL     OW13894   0.470   5.346   1.493
 4332SOL    HW113895   0.507   5.409   1.561
 4332SOL    HW213896   0.389   5.386   1.450
 4333SOL     OW13897   3.935   2.601   5.931
 4333SOL    HW113898   3.943   2.520   5.874
 4333SOL    HW213899   3.899   2.576   6.021
 4334SOL     OW13900   0.086   3.299   3.568
 4334SOL    HW113901   7.020   3.348   3.579
 4334SOL    HW213902   0.071   3.201   3.581
 4335SOL     OW13903   2.389   4.028   1.630
 4335SOL    HW113904   2.481   4.058   1.655
 4335SOL    HW213905   2.340   3.999   1.713
 4336SOL     OW13906   2.487   5.676   5.630
 4336SOL    HW113907   2.454   5.632   5.546
 4336SOL    HW213908   2.523   5.606   5.692
 4337SOL     OW13909   0.009   4.752   3.614
 4337SOL    HW113910   0.081   4.683   3.609
 4337SOL    HW213911   7.012   4.774   3.710
 4338SOL     OW13912   3.005   2.585   5.777
 4338SOL    HW113913   3.025   2.618   5.869
 4338SOL    HW213914   2.907   2.564   5.769
 4339SOL     OW13915   3.979   4.900   4.863
 4339SOL    HW113916   3.969   4.840   4.784
 4339SOL    HW213917   3.899   4.960   4.871
 4340SOL     OW13918   6.986   4.387   1.100
 4340SOL    HW113919   7.017   4.389   1.195
 4340SOL    HW213920   0.044   4.392   1.039
 4341SOL     OW13921   5.841   5.997   1.461
 4341SOL    HW113922   5.820   6.058   1.538
 4341SOL    HW213923   5.766   5.998   1.395
 4342SOL     OW13924   5.567   3.228   2.560
 4342SOL    HW113925   5.499   3.204   2.629
 4342SOL    HW213926   5.629   3.150   2.546
 4343SOL     OW13927   3.415   0.312   6.325
 4343SOL    HW113928   3.381   0.218   6.314
 4343SOL    HW213929   3.490   0.328   6.261
 4344SOL     OW13930   0.403   4.031   3.107
 4344SOL    HW113931   0.480   4.037   3.042
 4344SOL    HW213932   0.324   4.079   3.069
 4345SOL     OW13933   3.531   3.510   2.402
 4345SOL    HW113934   3.453   3.491   2.461
 4345SOL    HW213935   3.595   3.570   2.451
 4346SOL     OW13936   0.662   3.142   2.948
 4346SOL    HW113937   0.564   3.141   2.969
 4346SOL    HW213938   0.698   3.234   2.962
 4347SOL     OW13939   6.177   5.500   0.673
 4347SOL    HW113940   6.128   5.568   0.619
 4347SOL    HW213941   6.131   5.487   0.761
 4348SOL     OW13942   6.054   4.974   5.572
 4348SOL    HW113943   6.104   4.919   5.506
 4348SOL    HW213944   6.090   5.068   5.571
 4349SOL     OW13945   0.752   3.545   4.136
 4349SOL    HW113946   0.821   3.588   4.079
 4349SOL    HW213947   0.667   3.535   4.084
 4350SOL     OW13948   3.988   1.033   4.442
 4350SOL    HW113949   4.033   0.945   4.425
 4350SOL    HW213950   4.050   1.092   4.494
 4351SOL     OW13951   0.383   5.596   0.641
 4351SOL    HW113952   0.457   5.531   0.655
 4351SOL    HW213953   0.334   5.610   0.727
 4352SOL     OW13954   3.605   4.978   2.048
 4352SOL    HW113955   3.617   4.895   1.993
 4352SOL    HW213956   3.539   5.039   2.003
 4353SOL     OW13957   2.745   3.092   1.059
 4353SOL    HW113958   2.774   3.009   1.013
 4353SOL    HW213959   2.814   3.163   1.047
 4354SOL     OW13960   5.892   6.135   2.458
 4354SOL    HW113961   5.948   6.053   2.462
 4354SOL    HW213962   5.951   6.216   2.461
 4355SOL     OW13963   1.874   4.776   2.498
 4355SOL    HW113964   1.814   4.750   2.574
 4355SOL    HW213965   1.828   4.843   2.440
 4356SOL     OW13966   5.841   2.774   5.118
 4356SOL    HW113967   5.777   2.835   5.165
 4356SOL    HW213968   5.916   2.828   5.079
 4357SOL     OW13969   6.124   6.958   1.681
 4357SOL    HW113970   6.184   0.017   1.676
 4357SOL    HW213971   6.164   6.884   1.628
 4358SOL     OW13972   2.917   1.262   0.284
 4358SOL    HW113973   2.899   1.337   0.348
 4358SOL    HW213974   2.888   1.289   0.192
 4359SOL     OW13975   2.475   2.156   0.888
 4359SOL    HW113976   2.526   2.115   0.813
 4359SOL    HW213977   2.537   2.205   0.948
 4360SOL     OW13978   1.911   5.289   3.983
 4360SOL    HW113979   1.908   5.190   3.972
 4360SOL    HW213980   1.913   5.312   4.080
 4361SOL     OW13981   0.453   1.888   0.081
 4361SOL    HW113982   0.469   1.973   0.130
 4361SOL    HW213983   0.532   1.869   0.021
 4362SOL     OW13984   1.132   5.228   3.357
 4362SOL    HW113985   1.199   5.301   3.369
 4362SOL    HW213986   1.172   5.154   3.302
 4363SOL     OW13987   3.762   0.969   1.830
 4363SOL    HW113988   3.825   0.898   1.796
 4363SOL    HW213989   3.760   0.966   1.929
 4364SOL     OW13990   3.878   3.985   2.887
 4364SOL    HW113991   3.966   4.033   2.883
 4364SOL    HW213992   3.822   4.025   2.959
 4365SOL     OW13993   2.116   1.082   1.371
 4365SOL    HW113994   2.057   1.160   1.350
 4365SOL    HW213995   2.141   1.085   1.468
 4366SOL     OW13996   5.085   6.739   4.772
 4366SOL    HW113997   5.104   6.722   4.869
 4366SOL    HW213998   5.165   6.715   4.718
 4367SOL     OW13999   2.597   6.577   2.561
 4367SOL    HW114000   2.541   6.496   2.544
 4367SOL    HW214001   2.557   6.631   2.634
 4368SOL     OW14002   5.015   3.916   3.785
 4368SOL    HW114003   4.999   3.822   3.814
 4368SOL    HW214004   5.071   3.916   3.702
 4369SOL     OW14005   5.277   4.275   3.689
 4369SOL    HW114006   5.342   4.220   3.742
 4369SOL    HW214007   5.308   4.370   3.686
 4370SOL     OW14008   3.852   4.597   0.945
 4370SOL    HW114009   3.773   4.576   1.002
 4370SOL    HW214010   3.911   4.663   0.991
 4371SOL     OW14011   3.079   0.837   2.371
 4371SOL    HW114012   3.027   0.759   2.406
 4371SOL    HW214013   3.017   0.911   2.346
 4372SOL     OW14014   1.858   4.182   3.913
 4372SOL    HW114015   1.898   4.157   4.001
 4372SOL    HW214016   1.888   4.274   3.887
 4373SOL     OW14017   4.462   0.760   6.924
 4373SOL    HW114018   4.431   0.762   7.020
 4373SOL    HW214019   4.461   0.853   6.887
 4374SOL     OW14020   3.109   6.542   0.303
 4374SOL    HW114021   3.168   6.592   0.366
 4374SOL    HW214022   3.014   6.569   0.319
 4375SOL     OW14023   4.512   1.443   5.769
 4375SOL    HW114024   4.518   1.540   5.750
 4375SOL    HW214025   4.418   1.420   5.797
 4376SOL     OW14026   2.300   5.882   6.974
 4376SOL    HW114027   2.207   5.871   7.010
 4376SOL    HW214028   2.363   5.900   0.028
 4377SOL     OW14029   5.110   6.139   6.868
 4377SOL    HW114030   5.134   6.085   6.787
 4377SOL    HW214031   5.054   6.083   6.929
 4378SOL     OW14032   2.423   5.010   2.741
 4378SOL    HW114033   2.327   5.023   2.766
 4378SOL    HW214034   2.457   5.092   2.695
 4379SOL     OW14035   0.802   6.769   1.770
 4379SOL    HW114036   0.782   6.830   1.693
 4379SOL    HW214037   0.819   6.825   1.852
 4380SOL     OW14038   1.845   5.557   4.559
 4380SOL    HW114039   1.780   5.496   4.605
 4380SOL    HW214040   1.795   5.621   4.501
 4381SOL     OW14041   5.038   5.462   5.656
 4381SOL    HW114042   5.127   5.429   5.625
 4381SOL    HW214043   5.044   5.561   5.675
 4382SOL     OW14044   5.175   3.449   3.116
 4382SOL    HW114045   5.078   3.437   3.098
 4382SOL    HW214046   5.212   3.520   3.056
 4383SOL     OW14047   0.901   1.813   0.433
 4383SOL    HW114048   0.906   1.720   0.469
 4383SOL    HW214049   0.925   1.811   0.336
 4384SOL     OW14050   4.014   6.664   1.079
 4384SOL    HW114051   3.923   6.687   1.046
 4384SOL    HW214052   4.073   6.745   1.074
 4385SOL     OW14053   6.498   2.160   2.415
 4385SOL    HW114054   6.542   2.145   2.503
 4385SOL    HW214055   6.415   2.105   2.410
 4386SOL     OW14056   1.114   4.117   6.973
 4386SOL    HW114057   1.106   4.107   0.050
 4386SOL    HW214058   1.025   4.100   6.930
 4387SOL     OW14059   6.194   2.425   1.827
 4387SOL    HW114060   6.101   2.454   1.808
 4387SOL    HW214061   6.248   2.428   1.743
 4388SOL     OW14062   3.270   1.842   5.804
 4388SOL    HW114063   3.350   1.790   5.834
 4388SOL    HW214064   3.299   1.921   5.752
 4389SOL     OW14065   6.084   2.236   2.411
 4389SOL    HW114066   6.134   2.267   2.330
 4389SOL    HW214067   6.149   2.220   2.485
 4390SOL     OW14068   4.382   2.440   1.854
 4390SOL    HW114069   4.329   2.508   1.803
 4390SOL    HW214070   4.328   2.408   1.932
 4391SOL     OW14071   0.549   6.416   0.591
 4391SOL    HW114072   0.639   6.447   0.623
 4391SOL    HW214073   0.496   6.382   0.669
 4392SOL     OW14074   5.650   3.998   4.483
 4392SOL    HW114075   5.573   4.051   4.447
 4392SOL    HW214076   5.732   4.055   4.483
 4393SOL     OW14077   5.391   6.266   3.341
 4393SOL    HW114078   5.340   6.181   3.346
 4393SOL    HW214079   5.398   6.307   3.432
 4394SOL     OW14080   4.373   0.887   2.792
 4394SOL    HW114081   4.333   0.817   2.733
 4394SOL    HW214082   4.462   0.914   2.757
 4395SOL     OW14083   5.266   1.915   1.264
 4395SOL    HW114084   5.233   1.989   1.205
 4395SOL    HW214085   5.285   1.834   1.208
 4396SOL     OW14086   1.466   1.315   4.187
 4396SOL    HW114087   1.549   1.363   4.160
 4396SOL    HW214088   1.438   1.253   4.114
 4397SOL     OW14089   5.782   0.117   6.486
 4397SOL    HW114090   5.799   0.216   6.487
 4397SOL    HW214091   5.754   0.087   6.577
 4398SOL     OW14092   0.247   5.469   3.997
 4398SOL    HW114093   0.248   5.481   4.096
 4398SOL    HW214094   0.153   5.454   3.966
 4399SOL     OW14095   2.889   1.480   1.865
 4399SOL    HW114096   2.889   1.512   1.960
 4399SOL    HW214097   2.860   1.555   1.805
 4400SOL     OW14098   3.517   6.117   3.553
 4400SOL    HW114099   3.501   6.108   3.455
 4400SOL    HW214100   3.439   6.080   3.603
 4401SOL     OW14101   6.482   6.120   4.818
 4401SOL    HW114102   6.429   6.151   4.739
 4401SOL    HW214103   6.473   6.021   4.827
 4402SOL     OW14104   6.379   6.661   3.066
 4402SOL    HW114105   6.359   6.642   2.969
 4402SOL    HW214106   6.476   6.685   3.076
 4403SOL     OW14107   0.257   0.196   3.289
 4403SOL    HW114108   0.217   0.152   3.209
 4403SOL    HW214109   0.268   0.128   3.362
 4404SOL     OW14110   1.567   4.786   3.350
 4404SOL    HW114111   1.487   4.810   3.296
 4404SOL    HW214112   1.553   4.817   3.445
 4405SOL     OW14113   3.296   3.882   6.117
 4405SOL    HW114114   3.271   3.966   6.164
 4405SOL    HW214115   3.267   3.887   6.021
 4406SOL     OW14116   5.421   3.868   1.946
 4406SOL    HW114117   5.452   3.951   1.900
 4406SOL    HW214118   5.403   3.797   1.878
 4407SOL     OW14119   6.924   0.368   0.494
 4407SOL    HW114120   6.980   0.340   0.573
 4407SOL    HW214121   6.970   0.341   0.410
 4408SOL     OW14122   4.437   6.320   0.535
 4408SOL    HW114123   4.510   6.376   0.495
 4408SOL    HW214124   4.455   6.223   0.516
 4409SOL     OW14125   2.238   1.735   3.190
 4409SOL    HW114126   2.252   1.741   3.092
 4409SOL    HW214127   2.175   1.660   3.211
 4410SOL     OW14128   2.185   5.963   1.365
 4410SOL    HW114129   2.106   6.023   1.350
 4410SOL    HW214130   2.158   5.886   1.422
 4411SOL     OW14131   3.764   3.132   2.550
 4411SOL    HW114132   3.702   3.060   2.518
 4411SOL    HW214133   3.776   3.199   2.476
 4412SOL     OW14134   3.399   2.165   6.221
 4412SOL    HW114135   3.471   2.104   6.191
 4412SOL    HW214136   3.329   2.172   6.150
 4413SOL     OW14137   4.341   5.247   3.986
 4413SOL    HW114138   4.398   5.311   3.934
 4413SOL    HW214139   4.259   5.293   4.018
 4414SOL     OW14140   3.543   5.757   1.512
 4414SOL    HW114141   3.549   5.661   1.486
 4414SOL    HW214142   3.629   5.803   1.492
 4415SOL     OW14143   4.337   1.701   1.281
 4415SOL    HW114144   4.330   1.633   1.355
 4415SOL    HW214145   4.328   1.793   1.320
 4416SOL     OW14146   2.675   2.398   4.542
 4416SOL    HW114147   2.763   2.380   4.587
 4416SOL    HW214148   2.602   2.355   4.595
 4417SOL     OW14149   6.910   0.644   0.945
 4417SOL    HW114150   6.998   0.597   0.946
 4417SOL    HW214151   6.921   0.736   0.983
 4418SOL     OW14152   4.706   1.115   4.009
 4418SOL    HW114153   4.675   1.054   3.935
 4418SOL    HW214154   4.792   1.081   4.046
 4419SOL     OW14155   6.581   5.518   0.380
 4419SOL    HW114156   6.573   5.590   0.311
 4419SOL    HW214157   6.644   5.549   0.452
 4420SOL     OW14158   4.666   0.752   6.719
 4420SOL    HW114159   4.667   0.847   6.750
 4420SOL    HW214160   4.582   0.707   6.752
 4421SOL     OW14161   1.458   1.865   3.219
 4421SOL    HW114162   1.378   1.906   3.176
 4421SOL    HW214163   1.499   1.930   3.282
 4422SOL     OW14164   1.666   4.396   5.621
 4422SOL    HW114165   1.737   4.407   5.551
 4422SOL    HW214166   1.657   4.300   5.645
 4423SOL     OW14167   6.653   1.849   6.260
 4423SOL    HW114168   6.605   1.837   6.174
 4423SOL    HW214169   6.729   1.785   6.265
 4424SOL     OW14170   0.508   6.495   3.956
 4424SOL    HW114171   0.518   6.434   3.877
 4424SOL    HW214172   0.448   6.571   3.931
 4425SOL     OW14173   5.146   4.204   0.200
 4425SOL    HW114174   5.190   4.130   0.148
 4425SOL    HW214175   5.050   4.181   0.216
 4426SOL     OW14176   0.708   0.405   6.143
 4426SOL    HW114177   0.802   0.438   6.132
 4426SOL    HW214178   0.660   0.412   6.056
 4427SOL     OW14179   0.835   6.063   3.946
 4427SOL    HW114180   0.841   5.982   4.005
 4427SOL    HW214181   0.918   6.070   3.890
 4428SOL     OW14182   1.908   6.511   3.373
 4428SOL    HW114183   1.971   6.539   3.445
 4428SOL    HW214184   1.927   6.562   3.289
 4429SOL     OW14185   3.775   6.819   3.045
 4429SOL    HW114186   3.797   6.773   2.959
 4429SOL    HW214187   3.854   6.814   3.107
 4430SOL     OW14188   1.301   0.353   1.560
 4430SOL    HW114189   1.399   0.368   1.551
 4430SOL    HW214190   1.252   0.407   1.491
 4431SOL     OW14191   2.023   1.980   3.584
 4431SOL    HW114192   2.007   1.906   3.649
 4431SOL    HW214193   1.935   2.023   3.561
 4432SOL     OW14194   3.008   3.165   3.930
 4432SOL    HW114195   3.097   3.137   3.893
 4432SOL    HW214196   2.937   3.144   3.863
 4433SOL     OW14197   6.246   0.194   3.463
 4433SOL    HW114198   6.170   0.178   3.525
 4433SOL    HW214199   6.257   0.293   3.449
 4434SOL     OW14200   4.983   1.927   4.921
 4434SOL    HW114201   4.935   1.916   5.008
 4434SOL    HW214202   5.080   1.904   4.933
 4435SOL     OW14203   4.101   3.186   2.319
 4435SOL    HW114204   4.188   3.156   2.278
 4435SOL    HW214205   4.103   3.285   2.331
 4436SOL     OW14206   5.313   0.520   0.630
 4436SOL    HW114207   5.278   0.582   0.560
 4436SOL    HW214208   5.353   0.439   0.587
 4437SOL     OW14209   3.650   7.008   5.061
 4437SOL    HW114210   3.651   0.034   5.149
 4437SOL    HW214211   3.689   0.045   4.990
 4438SOL     OW14212   3.612   3.728   6.705
 4438SOL    HW114213   3.515   3.751   6.707
 4438SOL    HW214214   3.623   3.628   6.703
 4439SOL     OW14215   2.288   4.687   2.208
 4439SOL    HW114216   2.379   4.686   2.167
 4439SOL    HW214217   2.274   4.773   2.257
 4440SOL     OW14218   6.900   1.056   0.060
 4440SOL    HW114219   6.972   1.099   0.115
 4440SOL    HW214220   6.812   1.099   0.082
 4441SOL     OW14221   6.250   1.843   3.339
 4441SOL    HW114222   6.246   1.746   3.316
 4441SOL    HW214223   6.292   1.855   3.428
 4442SOL     OW14224   1.842   6.146   2.015
 4442SOL    HW114225   1.924   6.101   2.049
 4442SOL    HW214226   1.815   6.218   2.079
 4443SOL     OW14227   2.957   1.473   6.114
 4443SOL    HW114228   2.877   1.495   6.169
 4443SOL    HW214229   3.017   1.412   6.165
 4444SOL     OW14230   5.134   0.852   2.931
 4444SOL    HW114231   5.082   0.899   3.003
 4444SOL    HW214232   5.071   0.806   2.869
 4445SOL     OW14233   1.143   1.290   6.400
 4445SOL    HW114234   1.073   1.343   6.449
 4445SOL    HW214235   1.098   1.217   6.348
 4446SOL     OW14236   5.113   5.087   3.938
 4446SOL    HW114237   5.058   5.139   4.003
 4446SOL    HW214238   5.093   4.989   3.948
 4447SOL     OW14239   5.048   3.122   4.826
 4447SOL    HW114240   5.042   3.027   4.797
 4447SOL    HW214241   5.137   3.139   4.869
 4448SOL     OW14242   2.174   2.661   6.771
 4448SOL    HW114243   2.216   2.745   6.807
 4448SOL    HW214244   2.208   2.644   6.679
 4449SOL     OW14245   0.443   1.692   5.538
 4449SOL    HW114246   0.343   1.696   5.545
 4449SOL    HW214247   0.482   1.777   5.574
 4450SOL     OW14248   3.389   4.124   2.902
 4450SOL    HW114249   3.425   4.045   2.853
 4450SOL    HW214250   3.349   4.188   2.837
 4451SOL     OW14251   0.035   4.286   1.353
 4451SOL    HW114252   0.097   4.274   1.431
 4451SOL    HW214253   7.013   4.198   1.332
 4452SOL     OW14254   6.238   4.140   6.307
 4452SOL    HW114255   6.231   4.238   6.328
 4452SOL    HW214256   6.314   4.101   6.358
 4453SOL     OW14257   5.169   1.580   1.348
 4453SOL    HW114258   5.222   1.496   1.338
 4453SOL    HW214259   5.159   1.624   1.258
 4454SOL     OW14260   5.067   2.810   1.420
 4454SOL    HW114261   5.122   2.889   1.393
 4454SOL    HW214262   4.980   2.841   1.456
 4455SOL     OW14263   4.223   1.833   2.173
 4455SOL    HW114264   4.124   1.845   2.159
 4455SOL    HW214265   4.244   1.846   2.270
 4456SOL     OW14266   0.783   5.663   2.557
 4456SOL    HW114267   0.739   5.605   2.625
 4456SOL    HW214268   0.776   5.621   2.467
 4457SOL     OW14269   4.706   1.665   6.270
 4457SOL    HW114270   4.722   1.669   6.171
 4457SOL    HW214271   4.712   1.757   6.309
 4458SOL     OW14272   3.806   1.431   0.509
 4458SOL    HW114273   3.878   1.436   0.579
 4458SOL    HW214274   3.800   1.337   0.475
 4459SOL     OW14275   5.072   6.404   5.311
 4459SOL    HW114276   5.097   6.468   5.238
 4459SOL    HW214277   5.117   6.432   5.396
 4460SOL     OW14278   1.246   1.583   6.315
 4460SOL    HW114279   1.211   1.492   6.335
 4460SOL    HW214280   1.216   1.647   6.387
 4461SOL     OW14281   1.944   6.968   2.291
 4461SOL    HW114282   1.910   6.980   2.198
 4461SOL    HW214283   1.869   6.939   2.351
 4462SOL     OW14284   6.820   5.146   0.758
 4462SOL    HW114285   6.726   5.152   0.790
 4462SOL    HW214286   6.877   5.104   0.829
 4463SOL     OW14287   1.928   3.640   6.015
 4463SOL    HW114288   1.886   3.723   5.980
 4463SOL    HW214289   2.000   3.609   5.952
 4464SOL     OW14290   5.898   3.287   0.204
 4464SOL    HW114291   5.899   3.291   0.104
 4464SOL    HW214292   5.930   3.374   0.241
 4465SOL     OW14293   0.788   6.205   1.262
 4465SOL    HW114294   0.787   6.138   1.188
 4465SOL    HW214295   0.868   6.264   1.252
 4466SOL     OW14296   0.709   3.045   3.224
 4466SOL    HW114297   0.714   3.059   3.125
 4466SOL    HW214298   0.647   3.111   3.265
 4467SOL     OW14299   1.365   0.149   3.251
 4467SOL    HW114300   1.363   0.123   3.154
 4467SOL    HW214301   1.455   0.187   3.273
 4468SOL     OW14302   2.073   2.056   0.762
 4468SOL    HW114303   2.128   2.062   0.679
 4468SOL    HW214304   2.109   2.120   0.830
 4469SOL     OW14305   4.973   6.790   0.559
 4469SOL    HW114306   4.896   6.831   0.512
 4469SOL    HW214307   5.057   6.808   0.508
 4470SOL     OW14308   4.696   5.216   1.569
 4470SOL    HW114309   4.694   5.314   1.551
 4470SOL    HW214310   4.663   5.198   1.662
 4471SOL     OW14311   6.394   2.752   0.562
 4471SOL    HW114312   6.446   2.729   0.480
 4471SOL    HW214313   6.456   2.782   0.634
 4472SOL     OW14314   2.229   4.464   1.777
 4472SOL    HW114315   2.216   4.460   1.677
 4472SOL    HW214316   2.326   4.453   1.798
 4473SOL     OW14317   0.488   0.422   6.521
 4473SOL    HW114318   0.467   0.520   6.519
 4473SOL    HW214319   0.587   0.408   6.519
 4474SOL     OW14320   6.040   0.358   4.191
 4474SOL    HW114321   5.987   0.371   4.275
 4474SOL    HW214322   5.980   0.373   4.112
 4475SOL     OW14323   1.875   3.462   0.483
 4475SOL    HW114324   1.893   3.380   0.538
 4475SOL    HW214325   1.856   3.435   0.388
 4476SOL     OW14326   5.118   0.285   2.133
 4476SOL    HW114327   5.071   0.228   2.065
 4476SOL    HW214328   5.090   0.380   2.122
 4477SOL     OW14329   1.274   0.856   0.434
 4477SOL    HW114330   1.283   0.941   0.485
 4477SOL    HW214331   1.223   0.790   0.489
 4478SOL     OW14332   1.760   4.953   1.847
 4478SOL    HW114333   1.754   5.009   1.765
 4478SOL    HW214334   1.748   4.857   1.823
 4479SOL     OW14335   0.939   0.584   6.158
 4479SOL    HW114336   0.919   0.610   6.253
 4479SOL    HW214337   1.027   0.623   6.131
 4480SOL     OW14338   0.333   4.672   3.783
 4480SOL    HW114339   0.375   4.730   3.852
 4480SOL    HW214340   0.403   4.638   3.720
 4481SOL     OW14341   1.456   0.485   3.708
 4481SOL    HW114342   1.434   0.533   3.793
 4481SOL    HW214343   1.375   0.434   3.678
 4482SOL     OW14344   0.715   4.351   3.913
 4482SOL    HW114345   0.712   4.277   3.846
 4482SOL    HW214346   0.809   4.365   3.943
 4483SOL     OW14347   5.240   3.045   1.386
 4483SOL    HW114348   5.247   3.142   1.411
 4483SOL    HW214349   5.261   3.035   1.288
 4484SOL     OW14350   3.676   3.456   6.641
 4484SOL    HW114351   3.760   3.457   6.696
 4484SOL    HW214352   3.648   3.362   6.625
 4485SOL     OW14353   4.857   0.370   6.736
 4485SOL    HW114354   4.861   0.383   6.637
 4485SOL    HW214355   4.876   0.456   6.782
 4486SOL     OW14356   6.018   2.285   4.264
 4486SOL    HW114357   5.940   2.272   4.202
 4486SOL    HW214358   6.061   2.196   4.282
 4487SOL     OW14359   2.829   3.382   5.610
 4487SOL    HW114360   2.909   3.432   5.576
 4487SOL    HW214361   2.809   3.410   5.704
 4488SOL     OW14362   0.010   1.729   6.478
 4488SOL    HW114363   0.071   1.668   6.529
 4488SOL    HW214364   0.056   1.760   6.395
 4489SOL     OW14365   6.394   0.672   2.732
 4489SOL    HW114366   6.457   0.655   2.808
 4489SOL    HW214367   6.445   0.683   2.647
 4490SOL     OW14368   0.214   2.260   3.889
 4490SOL    HW114369   0.227   2.222   3.981
 4490SOL    HW214370   0.130   2.314   3.888
 4491SOL     OW14371   1.361   3.553   3.186
 4491SOL    HW114372   1.275   3.525   3.230
 4491SOL    HW214373   1.345   3.568   3.089
 4492SOL     OW14374   4.404   4.158   6.383
 4492SOL    HW114375   4.335   4.193   6.319
 4492SOL    HW214376   4.486   4.132   6.332
 4493SOL     OW14377   5.632   5.026   3.589
 4493SOL    HW114378   5.676   4.959   3.530
 4493SOL    HW214379   5.622   4.989   3.681
 4494SOL     OW14380   6.281   2.541   3.428
 4494SOL    HW114381   6.192   2.571   3.394
 4494SOL    HW214382   6.269   2.492   3.514
 4495SOL     OW14383   4.054   6.431   1.646
 4495SOL    HW114384   4.025   6.501   1.580
 4495SOL    HW214385   4.107   6.361   1.598
 4496SOL     OW14386   5.529   4.550   5.975
 4496SOL    HW114387   5.617   4.563   6.020
 4496SOL    HW214388   5.543   4.512   5.883
 4497SOL     OW14389   5.843   5.513   1.051
 4497SOL    HW114390   5.831   5.418   1.081
 4497SOL    HW214391   5.866   5.570   1.130
 4498SOL     OW14392   0.636   3.900   6.827
 4498SOL    HW114393   0.569   3.953   6.775
 4498SOL    HW214394   0.622   3.803   6.812
 4499SOL     OW14395   5.653   3.228   6.280
 4499SOL    HW114396   5.597   3.196   6.356
 4499SOL    HW214397   5.610   3.308   6.238
 4500SOL     OW14398   3.254   3.894   3.491
 4500SOL    HW114399   3.161   3.890   3.526
 4500SOL    HW214400   3.276   3.809   3.444
 4501SOL     OW14401   2.160   4.987   4.581
 4501SOL    HW114402   2.076   5.012   4.534
 4501SOL    HW214403   2.238   4.997   4.519
 4502SOL     OW14404   6.410   2.935   0.067
 4502SOL    HW114405   6.313   2.944   0.044
 4502SOL    HW214406   6.463   2.921   7.006
 4503SOL     OW14407   1.853   2.999   3.077
 4503SOL    HW114408   1.913   3.017   2.999
 4503SOL    HW214409   1.762   2.973   3.044
 4504SOL     OW14410   4.568   2.601   4.823
 4504SOL    HW114411   4.483   2.550   4.833
 4504SOL    HW214412   4.591   2.609   4.726
 4505SOL     OW14413   1.507   4.960   6.368
 4505SOL    HW114414   1.526   4.946   6.465
 4505SOL    HW214415   1.475   5.053   6.353
 4506SOL     OW14416   4.217   0.001   4.787
 4506SOL    HW114417   4.256   6.934   4.814
 4506SOL    HW214418   4.283   0.074   4.808
 4507SOL     OW14419   6.397   3.843   1.591
 4507SOL    HW114420   6.455   3.811   1.517
 4507SOL    HW214421   6.443   3.831   1.679
 4508SOL     OW14422   1.723   4.151   0.015
 4508SOL    HW114423   1.728   4.176   0.111
 4508SOL    HW214424   1.628   4.131   7.012
 4509SOL     OW14425   0.890   1.824   3.412
 4509SOL    HW114426   0.922   1.778   3.329
 4509SOL    HW214427   0.966   1.874   3.453
 4510SOL     OW14428   3.901   6.256   5.248
 4510SOL    HW114429   3.820   6.313   5.257
 4510SOL    HW214430   3.959   6.266   5.329
 4511SOL     OW14431   6.380   2.852   6.429
 4511SOL    HW114432   6.421   2.787   6.493
 4511SOL    HW214433   6.452   2.895   6.374
 4512SOL     OW14434   2.896   4.919   0.430
 4512SOL    HW114435   2.802   4.952   0.434
 4512SOL    HW214436   2.900   4.835   0.377
 4513SOL     OW14437   5.709   1.151   1.775
 4513SOL    HW114438   5.679   1.182   1.865
 4513SOL    HW214439   5.796   1.195   1.752
 4514SOL     OW14440   3.410   0.741   5.404
 4514SOL    HW114441   3.400   0.674   5.477
 4514SOL    HW214442   3.480   0.808   5.430
 4515SOL     OW14443   6.353   5.117   1.246
 4515SOL    HW114444   6.423   5.178   1.283
 4515SOL    HW214445   6.353   5.031   1.297
 4516SOL     OW14446   0.846   0.442   4.571
 4516SOL    HW114447   0.915   0.392   4.624
 4516SOL    HW214448   0.763   0.387   4.563
 4517SOL     OW14449   3.644   6.726   6.209
 4517SOL    HW114450   3.548   6.746   6.192
 4517SOL    HW214451   3.652   6.673   6.294
 4518SOL     OW14452   1.334   0.810   4.060
 4518SOL    HW114453   1.369   0.725   4.020
 4518SOL    HW214454   1.385   0.830   4.144
 4519SOL     OW14455   6.505   2.943   4.704
 4519SOL    HW114456   6.528   2.971   4.797
 4519SOL    HW214457   6.588   2.939   4.649
 4520SOL     OW14458   0.166   3.971   2.372
 4520SOL    HW114459   0.102   4.047   2.358
 4520SOL    HW214460   0.114   3.890   2.400
 4521SOL     OW14461   5.181   1.793   6.155
 4521SOL    HW114462   5.140   1.849   6.083
 4521SOL    HW214463   5.232   1.717   6.113
 4522SOL     OW14464   5.819   0.525   2.875
 4522SOL    HW114465   5.801   0.587   2.952
 4522SOL    HW214466   5.755   0.448   2.879
 4523SOL     OW14467   4.217   3.105   6.760
 4523SOL    HW114468   4.192   3.192   6.717
 4523SOL    HW214469   4.279   3.123   6.837
 4524SOL     OW14470   6.457   0.677   4.863
 4524SOL    HW114471   6.553   0.651   4.862
 4524SOL    HW214472   6.447   0.770   4.827
 4525SOL     OW14473   6.778   1.850   5.555
 4525SOL    HW114474   6.794   1.909   5.475
 4525SOL    HW214475   6.684   1.861   5.585
 4526SOL     OW14476   3.701   1.087   0.620
 4526SOL    HW114477   3.777   1.068   0.682
 4526SOL    HW214478   3.638   1.010   0.620
 4527SOL     OW14479   3.912   0.486   4.201
 4527SOL    HW114480   3.915   0.575   4.156
 4527SOL    HW214481   3.878   0.417   4.137
 4528SOL     OW14482   5.094   6.934   5.683
 4528SOL    HW114483   5.088   6.875   5.603
 4528SOL    HW214484   5.002   6.947   5.721
 4529SOL     OW14485   3.992   0.546   3.886
 4529SOL    HW114486   4.062   0.581   3.948
 4529SOL    HW214487   3.954   0.621   3.831
 4530SOL     OW14488   0.634   2.978   4.667
 4530SOL    HW114489   0.714   3.010   4.617
 4530SOL    HW214490   0.565   2.945   4.603
 4531SOL     OW14491   0.078   4.096   3.545
 4531SOL    HW114492   0.082   4.099   3.445
 4531SOL    HW214493   0.003   4.153   3.577
 4532SOL     OW14494   6.355   1.807   0.646
 4532SOL    HW114495   6.264   1.847   0.658
 4532SOL    HW214496   6.404   1.807   0.733
 4533SOL     OW14497   3.774   5.612   2.348
 4533SOL    HW114498   3.832   5.679   2.301
 4533SOL    HW214499   3.709   5.660   2.407
 4534SOL     OW14500   6.892   4.369   5.401
 4534SOL    HW114501   6.956   4.400   5.471
 4534SOL    HW214502   6.891   4.269   5.397
 4535SOL     OW14503   5.062   2.171   2.870
 4535SOL    HW114504   5.022   2.242   2.812
 4535SOL    HW214505   5.101   2.213   2.951
 4536SOL     OW14506   0.045   0.642   3.866
 4536SOL    HW114507   0.012   0.736   3.872
 4536SOL    HW214508   0.120   0.629   3.930
 4537SOL     OW14509   3.998   3.048   6.342
 4537SOL    HW114510   4.077   2.990   6.362
 4537SOL    HW214511   3.916   2.991   6.335
 4538SOL     OW14512   3.822   1.321   2.099
 4538SOL    HW114513   3.856   1.364   2.015
 4538SOL    HW214514   3.732   1.281   2.082
 4539SOL     OW14515   2.131   1.969   2.378
 4539SOL    HW114516   2.079   1.897   2.333
 4539SOL    HW214517   2.069   2.041   2.409
 4540SOL     OW14518   3.467   2.853   5.049
 4540SOL    HW114519   3.517   2.792   4.987
 4540SOL    HW214520   3.454   2.807   5.136
 4541SOL     OW14521   6.446   1.434   1.259
 4541SOL    HW114522   6.520   1.421   1.325
 4541SOL    HW214523   6.385   1.355   1.262
 4542SOL     OW14524   4.829   0.382   3.461
 4542SOL    HW114525   4.810   0.446   3.535
 4542SOL    HW214526   4.745   0.362   3.411
 4543SOL     OW14527   5.262   2.025   1.573
 4543SOL    HW114528   5.255   2.034   1.474
 4543SOL    HW214529   5.356   2.041   1.602
 4544SOL     OW14530   3.879   4.883   6.355
 4544SOL    HW114531   3.857   4.801   6.407
 4544SOL    HW214532   3.884   4.861   6.258
 4545SOL     OW14533   4.497   3.544   6.074
 4545SOL    HW114534   4.551   3.492   6.140
 4545SOL    HW214535   4.494   3.495   5.987
 4546SOL     OW14536   0.243   6.550   6.884
 4546SOL    HW114537   0.159   6.601   6.899
 4546SOL    HW214538   0.284   6.578   6.798
 4547SOL     OW14539   4.025   1.458   1.488
 4547SOL    HW114540   4.042   1.554   1.463
 4547SOL    HW214541   3.935   1.452   1.533
 4548SOL     OW14542   1.855   3.395   3.652
 4548SOL    HW114543   1.824   3.335   3.577
 4548SOL    HW214544   1.856   3.343   3.737
 4549SOL     OW14545   4.840   1.498   2.684
 4549SOL    HW114546   4.841   1.409   2.639
 4549SOL    HW214547   4.892   1.564   2.629
 4550SOL     OW14548   1.345   6.622   4.807
 4550SOL    HW114549   1.379   6.673   4.729
 4550SOL    HW214550   1.422   6.595   4.865
 4551SOL     OW14551   0.450   2.729   6.330
 4551SOL    HW114552   0.540   2.770   6.319
 4551SOL    HW214553   0.379   2.799   6.317
 4552SOL     OW14554   6.719   2.946   3.857
 4552SOL    HW114555   6.783   2.992   3.919
 4552SOL    HW214556   6.756   2.857   3.830
 4553SOL     OW14557   4.952   4.609   0.228
 4553SOL    HW114558   4.880   4.650   0.284
 4553SOL    HW214559   4.987   4.527   0.274
 4554SOL     OW14560   5.410   0.140   3.576
 4554SOL    HW114561   5.389   0.238   3.569
 4554SOL    HW214562   5.324   0.088   3.581
 4555SOL     OW14563   4.755   2.095   6.968
 4555SOL    HW114564   4.779   2.024   6.902
 4555SOL    HW214565   4.744   2.054   0.037
 4556SOL     OW14566   5.049   0.881   4.867
 4556SOL    HW114567   5.043   0.852   4.772
 4556SOL    HW214568   5.119   0.828   4.914
 4557SOL     OW14569   4.959   0.188   5.560
 4557SOL    HW114570   5.040   0.167   5.614
 4557SOL    HW214571   4.880   0.199   5.620
 4558SOL     OW14572   5.872   3.863   5.869
 4558SOL    HW114573   5.874   3.778   5.923
 4558SOL    HW214574   5.931   3.853   5.789
 4559SOL     OW14575   0.338   6.361   1.807
 4559SOL    HW114576   0.426   6.393   1.771
 4559SOL    HW214577   0.337   6.262   1.811
 4560SOL     OW14578   5.180   2.751   2.901
 4560SOL    HW114579   5.202   2.709   2.813
 4560SOL    HW214580   5.240   2.712   2.972
 4561SOL     OW14581   3.069   0.577   6.387
 4561SOL    HW114582   2.990   0.574   6.326
 4561SOL    HW214583   3.053   0.519   6.467
 4562SOL     OW14584   2.911   4.937   5.519
 4562SOL    HW114585   2.915   4.881   5.602
 4562SOL    HW214586   2.881   4.881   5.442
 4563SOL     OW14587   5.705   2.529   6.152
 4563SOL    HW114588   5.613   2.553   6.121
 4563SOL    HW214589   5.769   2.601   6.125
 4564SOL     OW14590   1.403   5.689   6.872
 4564SOL    HW114591   1.393   5.759   6.943
 4564SOL    HW214592   1.391   5.730   6.782
 4565SOL     OW14593   3.100   0.483   3.652
 4565SOL    HW114594   3.032   0.553   3.676
 4565SOL    HW214595   3.189   0.511   3.687
 4566SOL     OW14596   0.642   1.497   0.496
 4566SOL    HW114597   0.590   1.500   0.582
 4566SOL    HW214598   0.617   1.576   0.440
 4567SOL     OW14599   6.830   0.982   1.163
 4567SOL    HW114600   6.795   1.075   1.167
 4567SOL    HW214601   6.902   0.970   1.231
 4568SOL     OW14602   3.145   5.005   4.411
 4568SOL    HW114603   3.087   5.008   4.492
 4568SOL    HW214604   3.232   4.960   4.433
 4569SOL     OW14605   0.216   2.398   3.314
 4569SOL    HW114606   0.261   2.333   3.375
 4569SOL    HW214607   0.275   2.477   3.299
 4570SOL     OW14608   6.283   5.143   4.088
 4570SOL    HW114609   6.235   5.098   4.012
 4570SOL    HW214610   6.247   5.110   4.175
 4571SOL     OW14611   3.702   2.962   4.079
 4571SOL    HW114612   3.638   2.929   4.010
 4571SOL    HW214613   3.794   2.961   4.042
 4572SOL     OW14614   2.309   5.667   1.867
 4572SOL    HW114615   2.361   5.587   1.898
 4572SOL    HW214616   2.371   5.746   1.861
 4573SOL     OW14617   5.577   6.946   0.403
 4573SOL    HW114618   5.526   7.014   0.456
 4573SOL    HW214619   5.589   6.979   0.309
 4574SOL     OW14620   0.385   4.718   1.522
 4574SOL    HW114621   0.482   4.734   1.500
 4574SOL    HW214622   0.351   4.795   1.577
 4575SOL     OW14623   6.446   6.531   2.260
 4575SOL    HW114624   6.356   6.500   2.227
 4575SOL    HW214625   6.514   6.460   2.242
 4576SOL     OW14626   3.050   5.975   4.369
 4576SOL    HW114627   2.987   6.021   4.307
 4576SOL    HW214628   3.039   6.013   4.461
 4577SOL     OW14629   1.398   2.353   4.040
 4577SOL    HW114630   1.450   2.436   4.062
 4577SOL    HW214631   1.443   2.305   3.964
 4578SOL     OW14632   6.832   5.026   4.018
 4578SOL    HW114633   6.766   4.952   4.019
 4578SOL    HW214634   6.794   5.106   4.065
 4579SOL     OW14635   5.343   2.108   4.505
 4579SOL    HW114636   5.415   2.095   4.437
 4579SOL    HW214637   5.254   2.113   4.459
 4580SOL     OW14638   6.787   5.478   0.159
 4580SOL    HW114639   6.849   5.478   0.081
 4580SOL    HW214640   6.721   5.552   0.150
 4581SOL     OW14641   3.375   6.338   3.670
 4581SOL    HW114642   3.307   6.367   3.602
 4581SOL    HW214643   3.426   6.260   3.636
 4582SOL     OW14644   4.719   0.071   3.485
 4582SOL    HW114645   4.665   7.010   3.503
 4582SOL    HW214646   4.700   0.139   3.556
 4583SOL     OW14647   4.273   1.690   5.759
 4583SOL    HW114648   4.321   1.701   5.846
 4583SOL    HW214649   4.336   1.707   5.684
 4584SOL     OW14650   1.381   4.817   5.726
 4584SOL    HW114651   1.321   4.846   5.651
 4584SOL    HW214652   1.432   4.735   5.697
 4585SOL     OW14653   3.174   6.545   2.418
 4585SOL    HW114654   3.113   6.488   2.474
 4585SOL    HW214655   3.236   6.487   2.366
 4586SOL     OW14656   2.828   6.834   2.266
 4586SOL    HW114657   2.788   6.742   2.267
 4586SOL    HW214658   2.928   6.826   2.260
 4587SOL     OW14659   2.546   4.811   1.044
 4587SOL    HW114660   2.460   4.767   1.070
 4587SOL    HW214661   2.604   4.746   0.996
 4588SOL     OW14662   4.022   3.907   5.563
 4588SOL    HW114663   4.047   4.001   5.586
 4588SOL    HW214664   4.042   3.890   5.466
 4589SOL     OW14665   1.139   1.878   3.535
 4589SOL    HW114666   1.185   1.939   3.470
 4589SOL    HW214667   1.199   1.801   3.556
 4590SOL     OW14668   4.453   5.751   2.800
 4590SOL    HW114669   4.506   5.709   2.873
 4590SOL    HW214670   4.373   5.695   2.780
 4591SOL     OW14671   6.128   6.410   5.417
 4591SOL    HW114672   6.063   6.440   5.347
 4591SOL    HW214673   6.085   6.340   5.474
 4592SOL     OW14674   3.511   1.674   5.897
 4592SOL    HW114675   3.461   1.669   5.983
 4592SOL    HW214676   3.574   1.596   5.890
 4593SOL     OW14677   3.891   6.744   1.477
 4593SOL    HW114678   3.889   6.755   1.576
 4593SOL    HW214679   3.852   6.826   1.434
 4594SOL     OW14680   3.210   2.076   2.749
 4594SOL    HW114681   3.144   2.146   2.721
 4594SOL    HW214682   3.296   2.091   2.701
 4595SOL     OW14683   4.528   3.204   6.099
 4595SOL    HW114684   4.588   3.270   6.145
 4595SOL    HW214685   4.451   3.183   6.159
 4596SOL     OW14686   6.389   6.687   1.905
 4596SOL    HW114687   6.291   6.680   1.887
 4596SOL    HW214688   6.404   6.691   2.004
 4597SOL     OW14689   6.994   4.755   6.265
 4597SOL    HW114690   6.978   4.659   6.285
 4597SOL    HW214691   6.927   4.811   6.315
 4598SOL     OW14692   3.212   4.720   0.499
 4598SOL    HW114693   3.185   4.631   0.463
 4598SOL    HW214694   3.274   4.707   0.576
 4599SOL     OW14695   2.228   5.240   0.555
 4599SOL    HW114696   2.318   5.216   0.520
 4599SOL    HW214697   2.200   5.173   0.624
 4600SOL     OW14698   3.744   5.084   1.796
 4600SOL    HW114699   3.645   5.096   1.795
 4600SOL    HW214700   3.767   4.998   1.843
 4601SOL     OW14701   1.521   5.851   4.686
 4601SOL    HW114702   1.456   5.911   4.639
 4601SOL    HW214703   1.567   5.793   4.619
 4602SOL     OW14704   1.567   1.329   1.183
 4602SOL    HW114705   1.586   1.326   1.085
 4602SOL    HW214706   1.468   1.324   1.197
 4603SOL     OW14707   3.541   1.315   1.979
 4603SOL    HW114708   3.454   1.272   1.957
 4603SOL    HW214709   3.531   1.372   2.061
 4604SOL     OW14710   1.726   0.853   2.200
 4604SOL    HW114711   1.819   0.887   2.182
 4604SOL    HW214712   1.691   0.807   2.119
 4605SOL     OW14713   4.810   6.666   5.658
 4605SOL    HW114714   4.754   6.745   5.632
 4605SOL    HW214715   4.767   6.619   5.735
 4606SOL     OW14716   0.022   6.343   5.528
 4606SOL    HW114717   0.082   6.325   5.451
 4606SOL    HW214718   0.066   6.406   5.591
 4607SOL     OW14719   2.706   2.570   1.185
 4607SOL    HW114720   2.777   2.594   1.119
 4607SOL    HW214721   2.747   2.554   1.275
 4608SOL     OW14722   1.677   3.688   5.095
 4608SOL    HW114723   1.713   3.723   5.182
 4608SOL    HW214724   1.748   3.635   5.049
 4609SOL     OW14725   3.280   6.625   6.882
 4609SOL    HW114726   3.363   6.678   6.863
 4609SOL    HW214727   3.294   6.530   6.852
 4610SOL     OW14728   6.960   3.305   6.751
 4610SOL    HW114729   6.914   3.379   6.799
 4610SOL    HW214730   6.930   3.217   6.789
 4611SOL     OW14731   0.747   3.285   6.396
 4611SOL    HW114732   0.691   3.201   6.399
 4611SOL    HW214733   0.843   3.261   6.404
 4612SOL     OW14734   2.627   0.483   6.112
 4612SOL    HW114735   2.551   0.443   6.163
 4612SOL    HW214736   2.628   0.443   6.020
 4613SOL     OW14737   3.183   5.627   2.344
 4613SOL    HW114738   3.247   5.550   2.349
 4613SOL    HW214739   3.194   5.683   2.426
 4614SOL     OW14740   2.377   4.966   0.072
 4614SOL    HW114741   2.314   4.894   0.103
 4614SOL    HW214742   2.470   4.945   0.105
 4615SOL     OW14743   6.970   2.970   0.299
 4615SOL    HW114744   7.004   2.953   0.207
 4615SOL    HW214745   6.874   2.941   0.305
 4616SOL     OW14746   6.454   0.563   0.464
 4616SOL    HW114747   6.404   0.613   0.393
 4616SOL    HW214748   6.407   0.476   0.482
 4617SOL     OW14749   6.855   3.626   2.231
 4617SOL    HW114750   6.783   3.580   2.180
 4617SOL    HW214751   6.821   3.714   2.265
 4618SOL     OW14752   1.194   2.107   6.163
 4618SOL    HW114753   1.290   2.110   6.191
 4618SOL    HW214754   1.138   2.077   6.240
 4619SOL     OW14755   3.119   0.027   3.651
 4619SOL    HW114756   3.154   6.964   3.692
 4619SOL    HW214757   3.196   0.087   3.628
 4620SOL     OW14758   2.583   4.917   6.485
 4620SOL    HW114759   2.622   4.976   6.414
 4620SOL    HW214760   2.650   4.904   6.558
 4621SOL     OW14761   7.001   6.650   6.960
 4621SOL    HW114762   7.009   6.706   0.020
 4621SOL    HW214763   6.906   6.620   6.949
 4622SOL     OW14764   2.360   3.205   1.374
 4622SOL    HW114765   2.397   3.272   1.310
 4622SOL    HW214766   2.268   3.178   1.345
 4623SOL     OW14767   6.271   4.418   2.673
 4623SOL    HW114768   6.370   4.413   2.656
 4623SOL    HW214769   6.251   4.383   2.765
 4624SOL     OW14770   5.027   6.722   5.481
 4624SOL    HW114771   4.996   6.720   5.386
 4624SOL    HW214772   4.949   6.707   5.541
 4625SOL     OW14773   1.724   3.476   6.080
 4625SOL    HW114774   1.813   3.516   6.061
 4625SOL    HW214775   1.656   3.548   6.088
 4626SOL     OW14776   5.440   5.487   2.095
 4626SOL    HW114777   5.364   5.432   2.130
 4626SOL    HW214778   5.475   5.546   2.168
 4627SOL     OW14779   2.130   0.416   5.732
 4627SOL    HW114780   2.130   0.513   5.753
 4627SOL    HW214781   2.073   0.367   5.798
 4628SOL     OW14782   6.882   3.260   1.544
 4628SOL    HW114783   6.826   3.181   1.520
 4628SOL    HW214784   6.855   3.294   1.634
 4629SOL     OW14785   3.915   4.846   4.509
 4629SOL    HW114786   3.928   4.876   4.414
 4629SOL    HW214787   3.823   4.872   4.540
 4630SOL     OW14788   2.301   0.042   2.603
 4630SOL    HW114789   2.391   0.007   2.629
 4630SOL    HW214790   2.243   0.048   2.684
 4631SOL     OW14791   2.120   0.991   2.370
 4631SOL    HW114792   2.082   1.056   2.436
 4631SOL    HW214793   2.090   1.018   2.278
 4632SOL     OW14794   5.891   5.325   4.101
 4632SOL    HW114795   5.849   5.392   4.162
 4632SOL    HW214796   5.982   5.356   4.074
 4633SOL     OW14797   5.653   2.867   5.607
 4633SOL    HW114798   5.695   2.922   5.679
 4633SOL    HW214799   5.683   2.901   5.518
 4634SOL     OW14800   3.480   4.765   1.126
 4634SOL    HW114801   3.514   4.832   1.061
 4634SOL    HW214802   3.545   4.688   1.132
 4635SOL     OW14803   5.140   3.965   1.089
 4635SOL    HW114804   5.169   4.012   1.173
 4635SOL    HW214805   5.095   3.879   1.114
 4636SOL     OW14806   1.474   5.262   0.879
 4636SOL    HW114807   1.428   5.174   0.881
 4636SOL    HW214808   1.460   5.306   0.790
 4637SOL     OW14809   2.019   0.509   4.590
 4637SOL    HW114810   2.006   0.462   4.677
 4637SOL    HW214811   1.968   0.460   4.519
 4638SOL     OW14812   4.531   3.833   6.390
 4638SOL    HW114813   4.624   3.870   6.395
 4638SOL    HW214814   4.499   3.837   6.295
 4639SOL     OW14815   0.139   2.816   5.141
 4639SOL    HW114816   0.193   2.878   5.199
 4639SOL    HW214817   0.201   2.753   5.095
 4640SOL     OW14818   6.154   4.329   2.905
 4640SOL    HW114819   6.194   4.328   2.996
 4640SOL    HW214820   6.147   4.235   2.871
 4641SOL     OW14821   2.826   4.372   5.798
 4641SOL    HW114822   2.843   4.284   5.754
 4641SOL    HW214823   2.913   4.412   5.827
 4642SOL     OW14824   6.064   5.896   4.143
 4642SOL    HW114825   6.159   5.907   4.114
 4642SOL    HW214826   6.007   5.874   4.063
 4643SOL     OW14827   4.077   2.455   0.812
 4643SOL    HW114828   4.034   2.482   0.898
 4643SOL    HW214829   4.175   2.471   0.817
 4644SOL     OW14830   2.462   5.042   4.878
 4644SOL    HW114831   2.562   5.051   4.873
 4644SOL    HW214832   2.435   4.951   4.845
 4645SOL     OW14833   2.000   6.208   4.380
 4645SOL    HW114834   1.955   6.157   4.453
 4645SOL    HW214835   2.057   6.146   4.326
 4646SOL     OW14836   4.068   0.543   1.541
 4646SOL    HW114837   4.156   0.588   1.550
 4646SOL    HW214838   4.038   0.547   1.445
 4647SOL     OW14839   0.138   0.680   4.361
 4647SOL    HW114840   0.185   0.767   4.368
 4647SOL    HW214841   0.172   0.618   4.432
 4648SOL     OW14842   1.518   4.831   2.286
 4648SOL    HW114843   1.605   4.880   2.296
 4648SOL    HW214844   1.485   4.842   2.192
 4649SOL     OW14845   5.964   6.256   6.276
 4649SOL    HW114846   5.922   6.168   6.297
 4649SOL    HW214847   5.896   6.317   6.234
 4650SOL     OW14848   0.141   5.114   1.808
 4650SOL    HW114849   0.122   5.025   1.766
 4650SOL    HW214850   0.060   5.144   1.859
 4651SOL     OW14851   6.719   1.719   2.082
 4651SOL    HW114852   6.619   1.713   2.086
 4651SOL    HW214853   6.745   1.790   2.016
 4652SOL     OW14854   0.339   6.007   5.634
 4652SOL    HW114855   0.338   5.945   5.712
 4652SOL    HW214856   0.253   6.057   5.630
 4653SOL     OW14857   0.930   5.763   6.995
 4653SOL    HW114858   0.867   5.687   7.009
 4653SOL    HW214859   0.976   5.753   6.907
 4654SOL     OW14860   0.674   1.443   6.326
 4654SOL    HW114861   0.728   1.385   6.387
 4654SOL    HW214862   0.735   1.496   6.268
 4655SOL     OW14863   0.397   5.369   3.289
 4655SOL    HW114864   0.400   5.269   3.282
 4655SOL    HW214865   0.308   5.402   3.260
 4656SOL     OW14866   2.171   0.327   3.424
 4656SOL    HW114867   2.230   0.407   3.435
 4656SOL    HW214868   2.076   0.357   3.414
 4657SOL     OW14869   5.666   0.045   6.733
 4657SOL    HW114870   5.749   0.011   6.778
 4657SOL    HW214871   5.587   7.015   6.767
 4658SOL     OW14872   5.087   0.669   3.306
 4658SOL    HW114873   5.057   0.764   3.291
 4658SOL    HW214874   5.059   0.613   3.228
 4659SOL     OW14875   2.498   2.616   4.567
 4659SOL    HW114876   2.491   2.638   4.665
 4659SOL    HW214877   2.584   2.567   4.550
 4660SOL     OW14878   6.831   1.415   5.975
 4660SOL    HW114879   6.823   1.316   5.963
 4660SOL    HW214880   6.751   1.460   5.934
 4661SOL     OW14881   4.133   3.552   3.639
 4661SOL    HW114882   4.071   3.475   3.655
 4661SOL    HW214883   4.137   3.570   3.541
 4662SOL     OW14884   5.849   0.485   4.040
 4662SOL    HW114885   5.878   0.564   4.093
 4662SOL    HW214886   5.833   0.513   3.945
 4663SOL     OW14887   0.767   1.501   2.297
 4663SOL    HW114888   0.810   1.423   2.342
 4663SOL    HW214889   0.837   1.558   2.254
 4664SOL     OW14890   3.279   3.482   0.708
 4664SOL    HW114891   3.349   3.413   0.723
 4664SOL    HW214892   3.267   3.496   0.609
 4665SOL     OW14893   5.334   1.137   6.689
 4665SOL    HW114894   5.359   1.153   6.785
 4665SOL    HW214895   5.329   1.224   6.640
 4666SOL     OW14896   2.743   1.459   0.446
 4666SOL    HW114897   2.802   1.491   0.520
 4666SOL    HW214898   2.667   1.407   0.485
 4667SOL     OW14899   0.489   5.846   5.236
 4667SOL    HW114900   0.392   5.862   5.223
 4667SOL    HW214901   0.541   5.929   5.216
 4668SOL     OW14902   5.661   1.398   5.117
 4668SOL    HW114903   5.710   1.483   5.136
 4668SOL    HW214904   5.705   1.351   5.040
 4669SOL     OW14905   2.473   0.634   1.361
 4669SOL    HW114906   2.572   0.643   1.364
 4669SOL    HW214907   2.437   0.692   1.288
 4670SOL     OW14908   1.643   1.280   4.642
 4670SOL    HW114909   1.737   1.300   4.614
 4670SOL    HW214910   1.642   1.254   4.739
 4671SOL     OW14911   5.718   2.869   0.956
 4671SOL    HW114912   5.805   2.821   0.966
 4671SOL    HW214913   5.678   2.883   1.046
 4672SOL     OW14914   2.988   3.067   5.383
 4672SOL    HW114915   3.084   3.076   5.407
 4672SOL    HW214916   2.973   2.981   5.334
 4673SOL     OW14917   4.026   0.383   2.570
 4673SOL    HW114918   3.951   0.343   2.623
 4673SOL    HW214919   4.113   0.368   2.618
 4674SOL     OW14920   4.196   6.873   5.911
 4674SOL    HW114921   4.207   6.781   5.873
 4674SOL    HW214922   4.115   6.916   5.873
 4675SOL     OW14923   1.255   4.129   6.109
 4675SOL    HW114924   1.289   4.189   6.181
 4675SOL    HW214925   1.160   4.104   6.128
 4676SOL     OW14926   0.398   5.297   3.613
 4676SOL    HW114927   0.461   5.220   3.602
 4676SOL    HW214928   0.313   5.278   3.566
 4677SOL     OW14929   1.418   3.420   0.540
 4677SOL    HW114930   1.380   3.387   0.454
 4677SOL    HW214931   1.510   3.456   0.526
 4678SOL     OW14932   1.503   4.300   2.167
 4678SOL    HW114933   1.591   4.335   2.134
 4678SOL    HW214934   1.502   4.300   2.267
 4679SOL     OW14935   4.349   0.272   1.844
 4679SOL    HW114936   4.414   0.347   1.832
 4679SOL    HW214937   4.381   0.213   1.918
 4680SOL     OW14938   1.749   0.826   0.022
 4680SOL    HW114939   1.724   0.824   0.119
 4680SOL    HW214940   1.849   0.828   0.013
 4681SOL     OW14941   5.121   5.133   2.371
 4681SOL    HW114942   5.034   5.147   2.324
 4681SOL    HW214943   5.108   5.140   2.470
 4682SOL     OW14944   3.011   4.109   6.489
 4682SOL    HW114945   2.975   4.173   6.421
 4682SOL    HW214946   2.939   4.047   6.519
 4683SOL     OW14947   5.972   4.241   3.876
 4683SOL    HW114948   6.063   4.281   3.864
 4683SOL    HW214949   5.908   4.312   3.905
 4684SOL     OW14950   5.580   6.364   0.141
 4684SOL    HW114951   5.614   6.356   0.047
 4684SOL    HW214952   5.657   6.382   0.203
 4685SOL     OW14953   3.472   4.163   4.242
 4685SOL    HW114954   3.554   4.167   4.186
 4685SOL    HW214955   3.498   4.162   4.339
 4686SOL     OW14956   2.333   6.234   0.395
 4686SOL    HW114957   2.376   6.185   0.471
 4686SOL    HW214958   2.369   6.327   0.391
 4687SOL     OW14959   2.398   0.299   2.772
 4687SOL    HW114960   2.309   0.254   2.782
 4687SOL    HW214961   2.436   0.319   2.863
 4688SOL     OW14962   5.700   2.965   6.190
 4688SOL    HW114963   5.778   2.931   6.243
 4688SOL    HW214964   5.686   3.062   6.210
 4689SOL     OW14965   6.527   0.693   2.517
 4689SOL    HW114966   6.625   0.711   2.523
 4689SOL    HW214967   6.487   0.751   2.447
 4690SOL     OW14968   2.592   2.030   0.656
 4690SOL    HW114969   2.559   1.939   0.630
 4690SOL    HW214970   2.554   2.098   0.594
 4691SOL     OW14971   6.776   3.998   2.247
 4691SOL    HW114972   6.836   4.039   2.178
 4691SOL    HW214973   6.700   4.060   2.265
 4692SOL     OW14974   5.108   3.076   2.625
 4692SOL    HW114975   5.080   2.980   2.633
 4692SOL    HW214976   5.054   3.121   2.555
 4693SOL     OW14977   1.382   0.697   3.017
 4693SOL    HW114978   1.473   0.700   3.060
 4693SOL    HW214979   1.352   0.602   3.010
 4694SOL     OW14980   1.852   0.594   6.408
 4694SOL    HW114981   1.946   0.619   6.430
 4694SOL    HW214982   1.837   0.604   6.309
 4695SOL     OW14983   1.880   5.217   2.093
 4695SOL    HW114984   1.964   5.173   2.060
 4695SOL    HW214985   1.880   5.217   2.193
 4696SOL     OW14986   1.823   5.989   6.132
 4696SOL    HW114987   1.749   5.978   6.198
 4696SOL    HW214988   1.784   5.997   6.040
 4697SOL     OW14989   4.171   5.213   1.596
 4697SOL    HW114990   4.091   5.217   1.656
 4697SOL    HW214991   4.200   5.306   1.575
 4698SOL     OW14992   5.062   0.885   4.572
 4698SOL    HW114993   4.989   0.949   4.549
 4698SOL    HW214994   5.038   0.794   4.538
 4699SOL     OW14995   1.493   0.060   2.351
 4699SOL    HW114996   1.500   0.130   2.279
 4699SOL    HW214997   1.396   0.041   2.370
 4700SOL     OW14998   6.097   1.956   2.283
 4700SOL    HW114999   6.181   1.961   2.337
 4700SOL    HW215000   6.022   1.998   2.335
 4701SOL     OW15001   3.204   2.543   1.700
 4701SOL    HW115002   3.273   2.473   1.720
 4701SOL    HW215003   3.128   2.534   1.764
 4702SOL     OW15004   5.460   5.031   6.697
 4702SOL    HW115005   5.486   4.967   6.769
 4702SOL    HW215006   5.535   5.094   6.679
 4703SOL     OW15007   0.894   5.514   3.379
 4703SOL    HW115008   0.798   5.524   3.405
 4703SOL    HW215009   0.945   5.475   3.456
 4704SOL     OW15010   1.340   4.837   4.263
 4704SOL    HW115011   1.295   4.809   4.348
 4704SOL    HW215012   1.337   4.762   4.198
 4705SOL     OW15013   3.836   1.865   1.618
 4705SOL    HW115014   3.833   1.956   1.578
 4705SOL    HW215015   3.743   1.835   1.640
 4706SOL     OW15016   2.173   0.214   1.333
 4706SOL    HW115017   2.088   0.195   1.381
 4706SOL    HW215018   2.221   0.288   1.380
 4707SOL     OW15019   1.706   5.552   1.908
 4707SOL    HW115020   1.663   5.584   1.992
 4707SOL    HW215021   1.715   5.452   1.911
 4708SOL     OW15022   1.890   2.807   5.092
 4708SOL    HW115023   1.861   2.902   5.096
 4708SOL    HW215024   1.990   2.802   5.095
 4709SOL     OW15025   4.815   4.182   5.716
 4709SOL    HW115026   4.890   4.248   5.714
 4709SOL    HW215027   4.823   4.119   5.639
 4710SOL     OW15028   5.855   5.797   5.242
 4710SOL    HW115029   5.818   5.769   5.331
 4710SOL    HW215030   5.787   5.780   5.171
 4711SOL     OW15031   5.460   3.940   2.681
 4711SOL    HW115032   5.361   3.936   2.694
 4711SOL    HW215033   5.480   3.985   2.593
 4712SOL     OW15034   4.657   4.349   5.859
 4712SOL    HW115035   4.710   4.279   5.811
 4712SOL    HW215036   4.566   4.356   5.819
 4713SOL     OW15037   5.746   4.060   0.573
 4713SOL    HW115038   5.678   4.027   0.639
 4713SOL    HW215039   5.816   4.114   0.621
 4714SOL     OW15040   4.140   1.673   6.797
 4714SOL    HW115041   4.219   1.694   6.740
 4714SOL    HW215042   4.170   1.645   6.888
 4715SOL     OW15043   6.748   1.503   1.861
 4715SOL    HW115044   6.735   1.570   1.788
 4715SOL    HW215045   6.660   1.473   1.895
 4716SOL     OW15046   4.184   4.963   5.546
 4716SOL    HW115047   4.173   5.016   5.462
 4716SOL    HW215048   4.217   5.023   5.619
 4717SOL     OW15049   2.631   5.043   5.257
 4717SOL    HW115050   2.668   5.067   5.347
 4717SOL    HW215051   2.697   4.987   5.208
 4718SOL     OW15052   4.664   4.661   0.233
 4718SOL    HW115053   4.692   4.751   0.266
 4718SOL    HW215054   4.714   4.638   0.150
 4719SOL     OW15055   0.135   4.309   3.865
 4719SOL    HW115056   0.200   4.309   3.790
 4719SOL    HW215057   0.177   4.350   3.946
 4720SOL     OW15058   2.246   3.120   6.698
 4720SOL    HW115059   2.267   3.138   6.795
 4720SOL    HW215060   2.331   3.102   6.649
 4721SOL     OW15061   0.226   2.687   2.916
 4721SOL    HW115062   0.250   2.783   2.908
 4721SOL    HW215063   0.310   2.632   2.923
 4722SOL     OW15064   1.253   6.126   6.997
 4722SOL    HW115065   1.300   6.073   6.927
 4722SOL    HW215066   1.161   6.149   6.966
 4723SOL     OW15067   3.660   4.438   6.866
 4723SOL    HW115068   3.684   4.357   6.812
 4723SOL    HW215069   3.731   4.454   6.935
 4724SOL     OW15070   0.693   0.278   4.981
 4724SOL    HW115071   0.616   0.217   4.964
 4724SOL    HW215072   0.659   0.372   4.994
 4725SOL     OW15073   5.212   5.843   1.480
 4725SOL    HW115074   5.229   5.817   1.384
 4725SOL    HW215075   5.200   5.760   1.534
 4726SOL     OW15076   2.074   3.218   5.478
 4726SOL    HW115077   2.070   3.308   5.436
 4726SOL    HW215078   1.982   3.178   5.479
 4727SOL     OW15079   6.837   4.609   1.378
 4727SOL    HW115080   6.824   4.578   1.472
 4727SOL    HW215081   6.808   4.537   1.315
 4728SOL     OW15082   5.996   1.542   4.704
 4728SOL    HW115083   6.087   1.504   4.722
 4728SOL    HW215084   5.988   1.563   4.606
 4729SOL     OW15085   6.417   1.551   1.859
 4729SOL    HW115086   6.441   1.585   1.768
 4729SOL    HW215087   6.409   1.451   1.857
 4730SOL     OW15088   3.280   0.044   4.388
 4730SOL    HW115089   3.185   0.073   4.399
 4730SOL    HW215090   3.337   0.123   4.368
 4731SOL     OW15091   3.248   6.480   0.790
 4731SOL    HW115092   3.225   6.463   0.886
 4731SOL    HW215093   3.231   6.397   0.736
 4732SOL     OW15094   0.462   5.470   4.824
 4732SOL    HW115095   0.483   5.559   4.785
 4732SOL    HW215096   0.400   5.420   4.764
 4733SOL     OW15097   2.079   4.224   2.573
 4733SOL    HW115098   2.099   4.131   2.542
 4733SOL    HW215099   2.113   4.290   2.505
 4734SOL     OW15100   4.820   3.722   6.653
 4734SOL    HW115101   4.730   3.736   6.695
 4734SOL    HW215102   4.869   3.650   6.703
 4735SOL     OW15103   0.549   0.740   5.044
 4735SOL    HW115104   0.533   0.821   4.989
 4735SOL    HW215105   0.634   0.696   5.015
 4736SOL     OW15106   6.682   2.128   3.326
 4736SOL    HW115107   6.583   2.136   3.312
 4736SOL    HW215108   6.724   2.086   3.245
 4737SOL     OW15109   2.291   4.813   6.868
 4737SOL    HW115110   2.334   4.891   6.912
 4737SOL    HW215111   2.193   4.830   6.857
 4738SOL     OW15112   1.114   5.896   3.607
 4738SOL    HW115113   1.110   5.841   3.690
 4738SOL    HW215114   1.037   5.872   3.547
 4739SOL     OW15115   5.736   3.451   2.595
 4739SOL    HW115116   5.701   3.359   2.579
 4739SOL    HW215117   5.756   3.494   2.507
 4740SOL     OW15118   0.976   0.601   1.186
 4740SOL    HW115119   1.013   0.690   1.157
 4740SOL    HW215120   1.032   0.528   1.146
 4741SOL     OW15121   5.039   4.635   1.302
 4741SOL    HW115122   4.962   4.699   1.298
 4741SOL    HW215123   5.125   4.686   1.295
 4742SOL     OW15124   2.341   5.391   2.183
 4742SOL    HW115125   2.308   5.299   2.202
 4742SOL    HW215126   2.405   5.388   2.106
 4743SOL     OW15127   2.479   3.443   0.376
 4743SOL    HW115128   2.489   3.458   0.278
 4743SOL    HW215129   2.453   3.528   0.421
 4744SOL     OW15130   2.084   2.094   5.049
 4744SOL    HW115131   2.152   2.025   5.022
 4744SOL    HW215132   2.010   2.095   4.982
 4745SOL     OW15133   3.404   5.270   5.134
 4745SOL    HW115134   3.346   5.194   5.164
 4745SOL    HW215135   3.420   5.264   5.036
 4746SOL     OW15136   5.791   1.048   1.363
 4746SOL    HW115137   5.848   1.101   1.426
 4746SOL    HW215138   5.761   0.963   1.407
 4747SOL     OW15139   6.678   2.416   1.752
 4747SOL    HW115140   6.681   2.355   1.673
 4747SOL    HW215141   6.771   2.444   1.775
 4748SOL     OW15142   1.901   0.695   1.173
 4748SOL    HW115143   1.891   0.784   1.217
 4748SOL    HW215144   1.959   0.637   1.230
 4749SOL     OW15145   2.600   0.273   5.931
 4749SOL    HW115146   2.577   0.222   6.014
 4749SOL    HW215147   2.532   0.254   5.860
 4750SOL     OW15148   0.729   2.160   4.464
 4750SOL    HW115149   0.702   2.144   4.369
 4750SOL    HW215150   0.827   2.143   4.475
 4751SOL     OW15151   1.140   3.627   5.667
 4751SOL    HW115152   1.186   3.552   5.715
 4751SOL    HW215153   1.147   3.711   5.721
 4752SOL     OW15154   2.041   5.864   1.778
 4752SOL    HW115155   1.993   5.914   1.706
 4752SOL    HW215156   2.013   5.768   1.776
 4753SOL     OW15157   0.162   6.957   5.642
 4753SOL    HW115158   0.072   6.913   5.639
 4753SOL    HW215159   0.167   0.006   5.571
 4754SOL     OW15160   0.395   0.264   6.758
 4754SOL    HW115161   0.373   0.213   6.841
 4754SOL    HW215162   0.343   0.349   6.756
 4755SOL     OW15163   2.484   0.822   0.906
 4755SOL    HW115164   2.441   0.840   0.817
 4755SOL    HW215165   2.574   0.781   0.892
 4756SOL     OW15166   4.806   2.936   1.514
 4756SOL    HW115167   4.754   2.949   1.430
 4756SOL    HW215168   4.759   2.867   1.571
 4757SOL     OW15169   2.031   1.276   1.726
 4757SOL    HW115170   1.935   1.293   1.703
 4757SOL    HW215171   2.054   1.181   1.704
 4758SOL     OW15172   5.424   3.959   5.382
 4758SOL    HW115173   5.388   3.910   5.303
 4758SOL    HW215174   5.377   3.929   5.465
 4759SOL     OW15175   6.049   4.817   6.203
 4759SOL    HW115176   6.111   4.865   6.141
 4759SOL    HW215177   6.022   4.878   6.277
 4760SOL     OW15178   2.014   2.789   0.780
 4760SOL    HW115179   1.973   2.823   0.865
 4760SOL    HW215180   1.951   2.806   0.704
 4761SOL     OW15181   1.588   5.268   5.774
 4761SOL    HW115182   1.556   5.195   5.713
 4761SOL    HW215183   1.561   5.357   5.738
 4762SOL     OW15184   3.929   6.863   2.246
 4762SOL    HW115185   3.849   6.805   2.230
 4762SOL    HW215186   3.974   6.835   2.330
 4763SOL     OW15187   5.806   5.583   4.855
 4763SOL    HW115188   5.727   5.524   4.845
 4763SOL    HW215189   5.889   5.533   4.829
 4764SOL     OW15190   3.912   3.886   4.951
 4764SOL    HW115191   3.837   3.822   4.965
 4764SOL    HW215192   3.999   3.840   4.968
 4765SOL     OW15193   6.791   4.577   5.283
 4765SOL    HW115194   6.810   4.492   5.331
 4765SOL    HW215195   6.876   4.628   5.270
 4766SOL     OW15196   3.419   0.463   3.336
 4766SOL    HW115197   3.458   0.424   3.252
 4766SOL    HW215198   3.323   0.437   3.343
 4767SOL     OW15199   3.992   6.488   6.794
 4767SOL    HW115200   4.063   6.531   6.851
 4767SOL    HW215201   4.012   6.391   6.786
 4768SOL     OW15202   0.432   0.975   4.905
 4768SOL    HW115203   0.514   1.027   4.929
 4768SOL    HW215204   0.437   0.949   4.808
 4769SOL     OW15205   3.779   0.790   1.420
 4769SOL    HW115206   3.810   0.769   1.513
 4769SOL    HW215207   3.685   0.757   1.409
 4770SOL     OW15208   2.734   0.613   3.483
 4770SOL    HW115209   2.743   0.535   3.546
 4770SOL    HW215210   2.799   0.684   3.507
 4771SOL     OW15211   3.825   4.353   5.446
 4771SOL    HW115212   3.884   4.299   5.507
 4771SOL    HW215213   3.873   4.437   5.420
 4772SOL     OW15214   2.253   2.689   0.407
 4772SOL    HW115215   2.342   2.649   0.430
 4772SOL    HW215216   2.223   2.747   0.483
 4773SOL     OW15217   6.957   5.641   3.761
 4773SOL    HW115218   0.002   5.696   3.812
 4773SOL    HW215219   6.879   5.698   3.737
 4774SOL     OW15220   0.728   4.395   0.598
 4774SOL    HW115221   0.728   4.385   0.498
 4774SOL    HW215222   0.645   4.355   0.635
 4775SOL     OW15223   2.546   1.473   2.416
 4775SOL    HW115224   2.474   1.531   2.454
 4775SOL    HW215225   2.579   1.513   2.331
 4776SOL     OW15226   4.020   5.038   2.087
 4776SOL    HW115227   3.930   5.058   2.125
 4776SOL    HW215228   4.011   4.973   2.012
 4777SOL     OW15229   2.865   4.287   1.712
 4777SOL    HW115230   2.945   4.230   1.729
 4777SOL    HW215231   2.874   4.373   1.764
 4778SOL     OW15232   5.236   3.701   2.676
 4778SOL    HW115233   5.314   3.656   2.632
 4778SOL    HW215234   5.173   3.735   2.605
 4779SOL     OW15235   4.966   0.896   3.141
 4779SOL    HW115236   4.925   0.827   3.081
 4779SOL    HW215237   4.901   0.919   3.214
 4780SOL     OW15238   1.983   0.394   5.451
 4780SOL    HW115239   2.004   0.489   5.425
 4780SOL    HW215240   1.916   0.394   5.525
 4781SOL     OW15241   2.120   5.604   2.981
 4781SOL    HW115242   2.088   5.578   2.890
 4781SOL    HW215243   2.218   5.623   2.977
 4782SOL     OW15244   5.687   5.734   0.512
 4782SOL    HW115245   5.616   5.686   0.563
 4782SOL    HW215246   5.746   5.783   0.576
 4783SOL     OW15247   6.344   3.704   2.311
 4783SOL    HW115248   6.269   3.645   2.340
 4783SOL    HW215249   6.308   3.784   2.264
 4784SOL     OW15250   6.095   4.305   5.385
 4784SOL    HW115251   6.075   4.294   5.482
 4784SOL    HW215252   6.172   4.246   5.360
 4785SOL     OW15253   6.632   6.810   1.004
 4785SOL    HW115254   6.573   6.731   0.989
 4785SOL    HW215255   6.602   6.885   0.946
 4786SOL     OW15256   1.571   2.879   2.692
 4786SOL    HW115257   1.615   2.813   2.631
 4786SOL    HW215258   1.504   2.933   2.641
 4787SOL     OW15259   4.306   2.354   2.502
 4787SOL    HW115260   4.381   2.374   2.565
 4787SOL    HW215261   4.219   2.351   2.553
 4788SOL     OW15262   1.207   6.269   5.509
 4788SOL    HW115263   1.160   6.305   5.428
 4788SOL    HW215264   1.164   6.182   5.536
 4789SOL     OW15265   6.467   6.967   0.800
 4789SOL    HW115266   6.493   6.977   0.704
 4789SOL    HW215267   6.413   6.884   0.811
 4790SOL     OW15268   5.503   1.060   6.931
 4790SOL    HW115269   5.462   1.106   7.010
 4790SOL    HW215270   5.569   1.121   6.887
 4791SOL     OW15271   4.809   1.030   3.564
 4791SOL    HW115272   4.775   0.975   3.488
 4791SOL    HW215273   4.760   1.117   3.567
 4792SOL     OW15274   2.837   2.305   1.689
 4792SOL    HW115275   2.912   2.254   1.646
 4792SOL    HW215276   2.871   2.354   1.769
 4793SOL     OW15277   0.607   0.197   6.286
 4793SOL    HW115278   0.551   0.230   6.362
 4793SOL    HW215279   0.643   0.274   6.235
 4794SOL     OW15280   3.902   0.721   1.826
 4794SOL    HW115281   4.001   0.720   1.816
 4794SOL    HW215282   3.870   0.629   1.848
 4795SOL     OW15283   5.748   2.560   4.335
 4795SOL    HW115284   5.846   2.568   4.320
 4795SOL    HW215285   5.727   2.468   4.369
 4796SOL     OW15286   6.095   3.878   0.966
 4796SOL    HW115287   6.129   3.969   0.943
 4796SOL    HW215288   6.168   3.811   0.955
 4797SOL     OW15289   0.278   4.700   4.850
 4797SOL    HW115290   0.194   4.651   4.874
 4797SOL    HW215291   0.349   4.680   4.917
 4798SOL     OW15292   6.529   4.338   5.517
 4798SOL    HW115293   6.613   4.335   5.571
 4798SOL    HW215294   6.511   4.431   5.488
 4799SOL     OW15295   3.739   1.172   5.087
 4799SOL    HW115296   3.759   1.251   5.028
 4799SOL    HW215297   3.771   1.088   5.043
 4800SOL     OW15298   2.102   1.957   4.106
 4800SOL    HW115299   2.160   1.972   4.186
 4800SOL    HW215300   2.082   2.045   4.062
 4801SOL     OW15301   1.447   2.732   0.475
 4801SOL    HW115302   1.436   2.666   0.548
 4801SOL    HW215303   1.401   2.698   0.392
 4802SOL     OW15304   2.042   0.451   2.263
 4802SOL    HW115305   2.017   0.548   2.257
 4802SOL    HW215306   1.964   0.399   2.299
 4803SOL     OW15307   0.929   6.849   1.320
 4803SOL    HW115308   0.898   6.765   1.364
 4803SOL    HW215309   0.933   6.835   1.221
 4804SOL     OW15310   3.954   5.533   0.470
 4804SOL    HW115311   3.867   5.576   0.446
 4804SOL    HW215312   3.946   5.433   0.461
 4805SOL     OW15313   0.549   1.235   0.836
 4805SOL    HW115314   0.524   1.297   0.761
 4805SOL    HW215315   0.635   1.265   0.877
 4806SOL     OW15316   0.931   2.815   3.309
 4806SOL    HW115317   0.893   2.782   3.223
 4806SOL    HW215318   0.877   2.892   3.342
 4807SOL     OW15319   0.901   6.473   2.458
 4807SOL    HW115320   0.933   6.396   2.512
 4807SOL    HW215321   0.886   6.443   2.363
 4808SOL     OW15322   5.651   3.091   1.321
 4808SOL    HW115323   5.664   3.047   1.410
 4808SOL    HW215324   5.703   3.177   1.319
 4809SOL     OW15325   4.631   6.471   6.117
 4809SOL    HW115326   4.591   6.405   6.181
 4809SOL    HW215327   4.712   6.432   6.075
 4810SOL     OW15328   1.248   0.158   1.266
 4810SOL    HW115329   1.281   0.244   1.303
 4810SOL    HW215330   1.282   0.082   1.322
 4811SOL     OW15331   5.420   5.765   2.888
 4811SOL    HW115332   5.380   5.790   2.800
 4811SOL    HW215333   5.519   5.777   2.884
 4812SOL     OW15334   6.726   4.887   4.377
 4812SOL    HW115335   6.654   4.922   4.316
 4812SOL    HW215336   6.814   4.923   4.349
 4813SOL     OW15337   5.673   2.967   2.522
 4813SOL    HW115338   5.666   2.885   2.578
 4813SOL    HW215339   5.674   2.941   2.425
 4814SOL     OW15340   6.607   3.528   2.025
 4814SOL    HW115341   6.515   3.489   2.030
 4814SOL    HW215342   6.634   3.534   1.929
 4815SOL     OW15343   4.041   6.258   2.586
 4815SOL    HW115344   4.051   6.299   2.676
 4815SOL    HW215345   4.068   6.162   2.589
 4816SOL     OW15346   5.375   5.374   3.323
 4816SOL    HW115347   5.405   5.296   3.377
 4816SOL    HW215348   5.283   5.401   3.350
 4817SOL     OW15349   6.709   1.838   6.794
 4817SOL    HW115350   6.757   1.899   6.858
 4817SOL    HW215351   6.721   1.871   6.701
 4818SOL     OW15352   6.883   5.989   3.579
 4818SOL    HW115353   6.939   6.044   3.640
 4818SOL    HW215354   6.938   5.958   3.502
 4819SOL     OW15355   1.841   3.144   1.220
 4819SOL    HW115356   1.814   3.094   1.137
 4819SOL    HW215357   1.768   3.136   1.289
 4820SOL     OW15358   0.429   3.216   2.427
 4820SOL    HW115359   0.511   3.272   2.442
 4820SOL    HW215360   0.446   3.151   2.353
 4821SOL     OW15361   0.060   5.808   3.919
 4821SOL    HW115362   0.063   5.904   3.892
 4821SOL    HW215363   0.154   5.776   3.936
 4822SOL     OW15364   2.019   4.591   4.345
 4822SOL    HW115365   2.088   4.554   4.282
 4822SOL    HW215366   2.029   4.690   4.350
 4823SOL     OW15367   1.732   2.830   1.561
 4823SOL    HW115368   1.693   2.868   1.476
 4823SOL    HW215369   1.759   2.905   1.621
 4824SOL     OW15370   6.241   1.691   6.522
 4824SOL    HW115371   6.339   1.708   6.512
 4824SOL    HW215372   6.200   1.762   6.580
 4825SOL     OW15373   0.743   6.934   4.092
 4825SOL    HW115374   0.685   7.015   4.091
 4825SOL    HW215375   0.688   6.853   4.106
 4826SOL     OW15376   3.841   0.406   0.991
 4826SOL    HW115377   3.874   0.394   0.897
 4826SOL    HW215378   3.742   0.402   0.992
 4827SOL     OW15379   6.781   1.764   0.776
 4827SOL    HW115380   6.697   1.734   0.731
 4827SOL    HW215381   6.860   1.733   0.724
 4828SOL     OW15382   5.640   1.206   5.283
 4828SOL    HW115383   5.666   1.293   5.241
 4828SOL    HW215384   5.545   1.210   5.313
 4829SOL     OW15385   4.283   6.494   4.955
 4829SOL    HW115386   4.255   6.413   5.006
 4829SOL    HW215387   4.204   6.553   4.939
 4830SOL     OW15388   1.673   6.355   3.650
 4830SOL    HW115389   1.638   6.271   3.693
 4830SOL    HW215390   1.764   6.337   3.613
 4831SOL     OW15391   3.183   4.614   5.284
 4831SOL    HW115392   3.098   4.601   5.234
 4831SOL    HW215393   3.217   4.526   5.316
 4832SOL     OW15394   4.008   3.587   4.524
 4832SOL    HW115395   3.936   3.535   4.569
 4832SOL    HW215396   3.980   3.610   4.431
 4833SOL     OW15397   6.233   3.274   5.039
 4833SOL    HW115398   6.294   3.285   4.960
 4833SOL    HW215399   6.140   3.304   5.014
 4834SOL     OW15400   1.033   5.083   1.419
 4834SOL    HW115401   1.080   5.134   1.492
 4834SOL    HW215402   1.002   5.146   1.348
 4835SOL     OW15403   6.874   2.955   5.674
 4835SOL    HW115404   6.870   2.985   5.769
 4835SOL    HW215405   6.947   3.004   5.626
 4836SOL     OW15406   4.510   2.155   5.629
 4836SOL    HW115407   4.440   2.216   5.591
 4836SOL    HW215408   4.484   2.126   5.721
 4837SOL     OW15409   0.462   3.797   3.887
 4837SOL    HW115410   0.468   3.705   3.850
 4837SOL    HW215411   0.432   3.793   3.983
 4838SOL     OW15412   2.061   3.923   6.140
 4838SOL    HW115413   2.144   3.969   6.108
 4838SOL    HW215414   2.084   3.829   6.167
 4839SOL     OW15415   2.617   1.035   0.724
 4839SOL    HW115416   2.610   0.995   0.816
 4839SOL    HW215417   2.552   0.990   0.663
 4840SOL     OW15418   5.627   2.943   5.179
 4840SOL    HW115419   5.608   2.849   5.151
 4840SOL    HW215420   5.548   2.978   5.230
 4841SOL     OW15421   2.951   6.466   3.451
 4841SOL    HW115422   2.915   6.558   3.436
 4841SOL    HW215423   2.892   6.419   3.517
 4842SOL     OW15424   3.800   5.905   3.088
 4842SOL    HW115425   3.731   5.977   3.095
 4842SOL    HW215426   3.889   5.940   3.116
 4843SOL     OW15427   0.077   1.557   6.995
 4843SOL    HW115428   7.018   1.599   6.952
 4843SOL    HW215429   0.158   1.612   6.974
 4844SOL     OW15430   1.247   5.648   5.894
 4844SOL    HW115431   1.293   5.737   5.897
 4844SOL    HW215432   1.175   5.646   5.963
 4845SOL     OW15433   4.860   3.860   4.908
 4845SOL    HW115434   4.854   3.764   4.935
 4845SOL    HW215435   4.821   3.917   4.981
 4846SOL     OW15436   6.201   3.295   4.610
 4846SOL    HW115437   6.255   3.371   4.645
 4846SOL    HW215438   6.261   3.225   4.571
 4847SOL     OW15439   2.667   6.537   6.516
 4847SOL    HW115440   2.688   6.615   6.457
 4847SOL    HW215441   2.692   6.559   6.611
 4848SOL     OW15442   4.433   1.288   3.971
 4848SOL    HW115443   4.368   1.310   3.899
 4848SOL    HW215444   4.456   1.191   3.967
 4849SOL     OW15445   2.556   6.408   1.062
 4849SOL    HW115446   2.487   6.349   1.018
 4849SOL    HW215447   2.573   6.375   1.155
 4850SOL     OW15448   3.692   6.743   1.214
 4850SOL    HW115449   3.727   6.707   1.128
 4850SOL    HW215450   3.664   6.667   1.273
 4851SOL     OW15451   3.720   4.827   7.016
 4851SOL    HW115452   3.800   4.867   6.973
 4851SOL    HW215453   3.656   4.796   6.946
 4852SOL     OW15454   5.520   5.132   5.876
 4852SOL    HW115455   5.450   5.191   5.835
 4852SOL    HW215456   5.587   5.188   5.923
 4853SOL     OW15457   4.680   0.284   2.631
 4853SOL    HW115458   4.768   0.330   2.635
 4853SOL    HW215459   4.687   0.201   2.576
 4854SOL     OW15460   4.322   6.699   2.206
 4854SOL    HW115461   4.243   6.736   2.157
 4854SOL    HW215462   4.406   6.738   2.169
 4855SOL     OW15463   5.049   5.249   5.408
 4855SOL    HW115464   4.950   5.236   5.409
 4855SOL    HW215465   5.075   5.298   5.325
 4856SOL     OW15466   0.314   3.309   2.675
 4856SOL    HW115467   0.240   3.375   2.667
 4856SOL    HW215468   0.351   3.290   2.585
 4857SOL     OW15469   2.481   2.611   4.888
 4857SOL    HW115470   2.453   2.578   4.977
 4857SOL    HW215471   2.499   2.710   4.893
 4858SOL     OW15472   1.730   6.656   4.689
 4858SOL    HW115473   1.689   6.592   4.755
 4858SOL    HW215474   1.688   6.746   4.700
 4859SOL     OW15475   6.899   5.690   2.678
 4859SOL    HW115476   6.857   5.619   2.622
 4859SOL    HW215477   6.963   5.744   2.621
 4860SOL     OW15478   4.269   5.110   2.110
 4860SOL    HW115479   4.169   5.105   2.118
 4860SOL    HW215480   4.297   5.205   2.099
 4861SOL     OW15481   7.018   4.452   5.626
 4861SOL    HW115482   0.091   4.422   5.618
 4861SOL    HW215483   7.015   4.551   5.640
 4862SOL     OW15484   2.189   6.401   4.451
 4862SOL    HW115485   2.189   6.427   4.548
 4862SOL    HW215486   2.116   6.335   4.434
 4863SOL     OW15487   5.550   1.943   2.222
 4863SOL    HW115488   5.633   1.993   2.249
 4863SOL    HW215489   5.574   1.848   2.200
 4864SOL     OW15490   2.017   1.584   1.114
 4864SOL    HW115491   2.030   1.492   1.078
 4864SOL    HW215492   2.101   1.615   1.158
 4865SOL     OW15493   4.130   6.004   4.800
 4865SOL    HW115494   4.062   5.938   4.831
 4865SOL    HW215495   4.099   6.047   4.715
 4866SOL     OW15496   0.547   5.419   1.745
 4866SOL    HW115497   0.456   5.408   1.784
 4866SOL    HW215498   0.600   5.336   1.761
 4867SOL     OW15499   5.178   4.492   4.252
 4867SOL    HW115500   5.197   4.394   4.244
 4867SOL    HW215501   5.192   4.536   4.164
 4868SOL     OW15502   2.116   5.722   1.490
 4868SOL    HW115503   2.031   5.707   1.540
 4868SOL    HW215504   2.192   5.728   1.555
 4869SOL     OW15505   6.158   1.949   1.151
 4869SOL    HW115506   6.060   1.938   1.163
 4869SOL    HW215507   6.193   1.876   1.091
 4870SOL     OW15508   6.900   0.497   1.243
 4870SOL    HW115509   6.907   0.419   1.181
 4870SOL    HW215510   6.842   0.473   1.321
 4871SOL     OW15511   1.906   3.892   4.561
 4871SOL    HW115512   1.959   3.906   4.645
 4871SOL    HW215513   1.952   3.936   4.484
 4872SOL     OW15514   1.059   0.805   4.088
 4872SOL    HW115515   1.153   0.818   4.057
 4872SOL    HW215516   1.057   0.730   4.154
 4873SOL     OW15517   1.125   6.633   5.261
 4873SOL    HW115518   1.082   6.553   5.304
 4873SOL    HW215519   1.061   6.675   5.197
 4874SOL     OW15520   6.086   3.322   3.304
 4874SOL    HW115521   6.024   3.248   3.277
 4874SOL    HW215522   6.164   3.284   3.353
 4875SOL     OW15523   6.949   2.607   6.137
 4875SOL    HW115524   0.019   2.636   6.165
 4875SOL    HW215525   6.937   2.510   6.161
 4876SOL     OW15526   0.494   1.394   0.072
 4876SOL    HW115527   0.527   1.485   0.096
 4876SOL    HW215528   0.412   1.372   0.124
 4877SOL     OW15529   5.832   1.163   2.163
 4877SOL    HW115530   5.750   1.162   2.221
 4877SOL    HW215531   5.855   1.070   2.135
 4878SOL     OW15532   0.176   2.774   1.704
 4878SOL    HW115533   0.223   2.690   1.732
 4878SOL    HW215534   0.085   2.776   1.745
 4879SOL     OW15535   4.978   5.876   2.875
 4879SOL    HW115536   4.890   5.899   2.918
 4879SOL    HW215537   4.967   5.874   2.776
 4880SOL     OW15538   6.007   1.706   5.367
 4880SOL    HW115539   5.924   1.650   5.364
 4880SOL    HW215540   6.050   1.698   5.457
 4881SOL     OW15541   2.696   5.664   6.476
 4881SOL    HW115542   2.616   5.700   6.428
 4881SOL    HW215543   2.779   5.708   6.442
 4882SOL     OW15544   4.891   6.679   6.981
 4882SOL    HW115545   4.937   6.598   6.945
 4882SOL    HW215546   4.839   6.723   6.908
 4883SOL     OW15547   6.118   5.584   0.178
 4883SOL    HW115548   6.035   5.555   0.226
 4883SOL    HW215549   6.199   5.549   0.226
 4884SOL     OW15550   4.186   6.185   1.569
 4884SOL    HW115551   4.252   6.122   1.528
 4884SOL    HW215552   4.098   6.178   1.523
 4885SOL     OW15553   2.140   0.211   2.914
 4885SOL    HW115554   2.143   0.115   2.940
 4885SOL    HW215555   2.148   0.268   2.996
 4886SOL     OW15556   6.112   0.537   5.811
 4886SOL    HW115557   6.097   0.440   5.830
 4886SOL    HW215558   6.059   0.592   5.876
 4887SOL     OW15559   0.330   2.312   5.674
 4887SOL    HW115560   0.239   2.293   5.710
 4887SOL    HW215561   0.398   2.304   5.747
 4888SOL     OW15562   3.483   6.159   1.973
 4888SOL    HW115563   3.554   6.104   2.017
 4888SOL    HW215564   3.520   6.201   1.890
 4889SOL     OW15565   1.321   3.094   6.345
 4889SOL    HW115566   1.401   3.055   6.392
 4889SOL    HW215567   1.352   3.162   6.279
 4890SOL     OW15568   0.422   0.320   4.298
 4890SOL    HW115569   0.336   0.354   4.262
 4890SOL    HW215570   0.475   0.396   4.335
 4891SOL     OW15571   1.052   4.064   0.492
 4891SOL    HW115572   1.023   4.141   0.549
 4891SOL    HW215573   1.103   3.999   0.547
 4892SOL     OW15574   1.870   5.215   2.349
 4892SOL    HW115575   1.814   5.297   2.358
 4892SOL    HW215576   1.958   5.230   2.394
 4893SOL     OW15577   0.737   3.495   0.023
 4893SOL    HW115578   0.757   3.584   0.065
 4893SOL    HW215579   0.808   3.429   0.048
 4894SOL     OW15580   1.730   0.734   3.357
 4894SOL    HW115581   1.827   0.710   3.361
 4894SOL    HW215582   1.719   0.833   3.358
 4895SOL     OW15583   6.190   4.070   0.114
 4895SOL    HW115584   6.113   4.064   0.178
 4895SOL    HW215585   6.188   4.159   0.069
 4896SOL     OW15586   4.013   6.281   3.609
 4896SOL    HW115587   4.078   6.207   3.589
 4896SOL    HW215588   3.921   6.243   3.618
 4897SOL     OW15589   2.842   6.048   6.528
 4897SOL    HW115590   2.905   5.975   6.505
 4897SOL    HW215591   2.894   6.127   6.562
 4898SOL     OW15592   6.307   2.152   4.652
 4898SOL    HW115593   6.301   2.091   4.731
 4898SOL    HW215594   6.331   2.099   4.570
 4899SOL     OW15595   5.084   4.877   4.782
 4899SOL    HW115596   5.044   4.892   4.692
 4899SOL    HW215597   5.119   4.963   4.818
 4900SOL     OW15598   0.572   6.570   5.540
 4900SOL    HW115599   0.528   6.657   5.563
 4900SOL    HW215600   0.506   6.496   5.552
 4901SOL     OW15601   6.879   6.593   3.237
 4901SOL    HW115602   6.919   6.683   3.252
 4901SOL    HW215603   6.917   6.553   3.154
 4902SOL     OW15604   3.461   4.899   1.775
 4902SOL    HW115605   3.386   4.871   1.716
 4902SOL    HW215606   3.514   4.819   1.803
 4903SOL     OW15607   5.444   5.542   6.326
 4903SOL    HW115608   5.506   5.520   6.250
 4903SOL    HW215609   5.371   5.601   6.292
 4904SOL     OW15610   3.138   6.571   3.831
 4904SOL    HW115611   3.188   6.614   3.755
 4904SOL    HW215612   3.145   6.471   3.822
 4905SOL     OW15613   6.077   3.757   3.674
 4905SOL    HW115614   6.172   3.778   3.651
 4905SOL    HW215615   6.073   3.666   3.717
 4906SOL     OW15616   5.177   0.740   1.044
 4906SOL    HW115617   5.234   0.674   0.995
 4906SOL    HW215618   5.177   0.718   1.142
 4907SOL     OW15619   2.402   1.926   2.012
 4907SOL    HW115620   2.303   1.937   2.018
 4907SOL    HW215621   2.445   1.965   2.093
 4908SOL     OW15622   3.999   4.692   0.266
 4908SOL    HW115623   3.955   4.623   0.209
 4908SOL    HW215624   4.001   4.780   0.218
 4909SOL     OW15625   5.998   0.295   5.216
 4909SOL    HW115626   6.008   0.384   5.171
 4909SOL    HW215627   5.946   0.233   5.157
 4910SOL     OW15628   5.768   6.756   6.247
 4910SOL    HW115629   5.737   6.755   6.342
 4910SOL    HW215630   5.692   6.780   6.187
 4911SOL     OW15631   1.299   3.536   6.058
 4911SOL    HW115632   1.226   3.601   6.079
 4911SOL    HW215633   1.387   3.582   6.066
 4912SOL     OW15634   2.489   2.595   1.821
 4912SOL    HW115635   2.449   2.683   1.796
 4912SOL    HW215636   2.568   2.576   1.764
 4913SOL     OW15637   2.949   3.061   1.950
 4913SOL    HW115638   2.943   3.160   1.962
 4913SOL    HW215639   3.040   3.029   1.977
 4914SOL     OW15640   2.010   6.509   2.637
 4914SOL    HW115641   1.927   6.552   2.603
 4914SOL    HW215642   2.087   6.572   2.624
 4915SOL     OW15643   2.584   6.164   3.369
 4915SOL    HW115644   2.598   6.105   3.449
 4915SOL    HW215645   2.515   6.233   3.390
 4916SOL     OW15646   2.057   2.219   2.757
 4916SOL    HW115647   2.062   2.240   2.855
 4916SOL    HW215648   2.078   2.301   2.704
 4917SOL     OW15649   2.047   4.713   5.936
 4917SOL    HW115650   1.973   4.674   5.881
 4917SOL    HW215651   2.021   4.804   5.968
 4918SOL     OW15652   2.061   0.694   3.712
 4918SOL    HW115653   2.115   0.760   3.763
 4918SOL    HW215654   1.994   0.651   3.772
 4919SOL     OW15655   2.512   3.139   1.600
 4919SOL    HW115656   2.439   3.157   1.534
 4919SOL    HW215657   2.513   3.212   1.668
 4920SOL     OW15658   4.240   0.374   0.230
 4920SOL    HW115659   4.226   0.446   0.161
 4920SOL    HW215660   4.301   0.408   0.302
 4921SOL     OW15661   0.814   4.639   1.957
 4921SOL    HW115662   0.897   4.684   1.923
 4921SOL    HW215663   0.802   4.552   1.909
 4922SOL     OW15664   0.824   3.037   5.763
 4922SOL    HW115665   0.807   2.966   5.695
 4922SOL    HW215666   0.797   3.004   5.854
 4923SOL     OW15667   2.899   1.980   0.203
 4923SOL    HW115668   2.935   1.909   0.264
 4923SOL    HW215669   2.801   1.990   0.218
 4924SOL     OW15670   0.235   3.545   4.045
 4924SOL    HW115671   0.272   3.456   4.073
 4924SOL    HW215672   0.308   3.613   4.045
 4925SOL     OW15673   4.813   6.284   6.654
 4925SOL    HW115674   4.730   6.235   6.681
 4925SOL    HW215675   4.790   6.354   6.587
 4926SOL     OW15676   4.406   2.623   0.572
 4926SOL    HW115677   4.377   2.698   0.515
 4926SOL    HW215678   4.506   2.627   0.584
 4927SOL     OW15679   3.391   3.786   2.347
 4927SOL    HW115680   3.346   3.708   2.391
 4927SOL    HW215681   3.487   3.789   2.375
 4928SOL     OW15682   0.827   6.431   0.646
 4928SOL    HW115683   0.888   6.368   0.597
 4928SOL    HW215684   0.799   6.505   0.584
 4929SOL     OW15685   0.847   4.913   4.708
 4929SOL    HW115686   0.857   4.948   4.615
 4929SOL    HW215687   0.936   4.916   4.754
 4930SOL     OW15688   0.399   2.766   0.911
 4930SOL    HW115689   0.472   2.805   0.855
 4930SOL    HW215690   0.346   2.840   0.952
 4931SOL     OW15691   6.737   6.461   0.819
 4931SOL    HW115692   6.753   6.445   0.916
 4931SOL    HW215693   6.821   6.497   0.777
 4932SOL     OW15694   3.428   1.806   1.134
 4932SOL    HW115695   3.407   1.900   1.107
 4932SOL    HW215696   3.467   1.805   1.226
 4933SOL     OW15697   2.570   0.351   4.991
 4933SOL    HW115698   2.656   0.398   4.969
 4933SOL    HW215699   2.537   0.384   5.079
 4934SOL     OW15700   1.688   5.979   5.486
 4934SOL    HW115701   1.687   5.937   5.395
 4934SOL    HW215702   1.609   6.041   5.494
 4935SOL     OW15703   1.879   1.491   0.789
 4935SOL    HW115704   1.978   1.498   0.782
 4935SOL    HW215705   1.847   1.541   0.869
 4936SOL     OW15706   5.010   6.266   1.599
 4936SOL    HW115707   5.011   6.262   1.698
 4936SOL    HW215708   5.093   6.224   1.562
 4937SOL     OW15709   0.964   3.237   4.901
 4937SOL    HW115710   1.049   3.244   4.954
 4937SOL    HW215711   0.947   3.141   4.879
 4938SOL     OW15712   3.463   4.910   2.279
 4938SOL    HW115713   3.503   4.907   2.187
 4938SOL    HW215714   3.363   4.908   2.272
 4939SOL     OW15715   1.080   1.472   1.007
 4939SOL    HW115716   1.070   1.381   1.048
 4939SOL    HW215717   1.069   1.541   1.078
 4940SOL     OW15718   1.240   2.111   5.766
 4940SOL    HW115719   1.278   2.062   5.688
 4940SOL    HW215720   1.307   2.179   5.798
 4941SOL     OW15721   4.272   2.677   5.373
 4941SOL    HW115722   4.216   2.622   5.311
 4941SOL    HW215723   4.342   2.726   5.322
 4942SOL     OW15724   0.403   1.802   3.128
 4942SOL    HW115725   0.341   1.880   3.117
 4942SOL    HW215726   0.420   1.787   3.225
 4943SOL     OW15727   5.375   2.813   6.853
 4943SOL    HW115728   5.385   2.912   6.864
 4943SOL    HW215729   5.463   2.773   6.826
 4944SOL     OW15730   0.898   5.100   0.147
 4944SOL    HW115731   0.845   5.096   0.062
 4944SOL    HW215732   0.973   5.034   0.143
 4945SOL     OW15733   2.819   0.285   5.757
 4945SOL    HW115734   2.850   0.379   5.764
 4945SOL    HW215735   2.747   0.268   5.824
 4946SOL     OW15736   2.763   5.459   6.871
 4946SOL    HW115737   2.763   5.381   6.933
 4946SOL    HW215738   2.819   5.439   6.791
 4947SOL     OW15739   0.952   0.323   0.878
 4947SOL    HW115740   0.889   0.322   0.955
 4947SOL    HW215741   1.019   0.250   0.889
 4948SOL     OW15742   1.949   2.174   2.454
 4948SOL    HW115743   1.970   2.264   2.415
 4948SOL    HW215744   1.913   2.184   2.546
 4949SOL     OW15745   6.955   3.856   6.265
 4949SOL    HW115746   6.861   3.866   6.232
 4949SOL    HW215747   7.018   3.875   6.190
 4950SOL     OW15748   3.757   4.632   6.028
 4950SOL    HW115749   3.778   4.724   6.062
 4950SOL    HW215750   3.812   4.614   5.946
 4951SOL     OW15751   5.187   5.811   3.040
 4951SOL    HW115752   5.092   5.832   3.019
 4951SOL    HW215753   5.238   5.799   2.956
 4952SOL     OW15754   0.631   0.192   0.142
 4952SOL    HW115755   0.600   0.264   0.080
 4952SOL    HW215756   0.725   0.166   0.119
 4953SOL     OW15757   1.388   2.286   4.959
 4953SOL    HW115758   1.328   2.352   5.006
 4953SOL    HW215759   1.448   2.243   5.026
 4954SOL     OW15760   2.880   3.678   4.503
 4954SOL    HW115761   2.881   3.688   4.403
 4954SOL    HW215762   2.939   3.747   4.544
 4955SOL     OW15763   3.751   5.825   6.091
 4955SOL    HW115764   3.683   5.845   6.020
 4955SOL    HW215765   3.730   5.737   6.133
 4956SOL     OW15766   2.864   0.028   4.813
 4956SOL    HW115767   2.785   0.085   4.789
 4956SOL    HW215768   2.856   6.961   4.767
 4957SOL     OW15769   5.895   4.281   0.088
 4957SOL    HW115770   5.817   4.257   0.030
 4957SOL    HW215771   5.970   4.314   0.030
 4958SOL     OW15772   3.765   5.390   0.882
 4958SOL    HW115773   3.716   5.304   0.869
 4958SOL    HW215774   3.861   5.371   0.902
 4959SOL     OW15775   7.003   2.494   2.855
 4959SOL    HW115776   0.010   2.456   2.943
 4959SOL    HW215777   0.033   2.578   2.836
 4960SOL     OW15778   5.160   4.851   3.618
 4960SOL    HW115779   5.189   4.784   3.549
 4960SOL    HW215780   5.076   4.819   3.662
 4961SOL     OW15781   3.404   2.380   1.735
 4961SOL    HW115782   3.352   2.296   1.753
 4961SOL    HW215783   3.484   2.383   1.794
 4962SOL     OW15784   1.224   3.042   0.034
 4962SOL    HW115785   1.233   3.141   0.030
 4962SOL    HW215786   1.251   3.009   0.124
 4963SOL     OW15787   0.847   3.875   5.847
 4963SOL    HW115788   0.916   3.940   5.814
 4963SOL    HW215789   0.854   3.790   5.796
 4964SOL     OW15790   2.150   6.172   4.765
 4964SOL    HW115791   2.237   6.141   4.728
 4964SOL    HW215792   2.154   6.171   4.865
 4965SOL     OW15793   1.534   6.599   3.030
 4965SOL    HW115794   1.519   6.512   3.077
 4965SOL    HW215795   1.628   6.630   3.045
 4966SOL     OW15796   3.087   6.287   4.339
 4966SOL    HW115797   3.019   6.236   4.286
 4966SOL    HW215798   3.052   6.379   4.357
 4967SOL     OW15799   4.541   4.640   4.777
 4967SOL    HW115800   4.476   4.601   4.841
 4967SOL    HW215801   4.587   4.567   4.727
 4968SOL     OW15802   0.334   2.638   3.249
 4968SOL    HW115803   0.250   2.683   3.219
 4968SOL    HW215804   0.413   2.692   3.221
 4969SOL     OW15805   7.008   5.646   4.159
 4969SOL    HW115806   6.949   5.706   4.213
 4969SOL    HW215807   0.007   5.689   4.071
 4970SOL     OW15808   2.007   1.848   1.421
 4970SOL    HW115809   1.996   1.749   1.421
 4970SOL    HW215810   2.019   1.880   1.327
 4971SOL     OW15811   0.019   6.211   2.449
 4971SOL    HW115812   0.094   6.146   2.435
 4971SOL    HW215813   6.992   6.224   2.363
 4972SOL     OW15814   0.457   4.364   0.626
 4972SOL    HW115815   0.376   4.313   0.655
 4972SOL    HW215816   0.450   4.459   0.655
 4973SOL     OW15817   6.237   1.269   0.400
 4973SOL    HW115818   6.329   1.254   0.437
 4973SOL    HW215819   6.243   1.323   0.316
 4974SOL     OW15820   3.106   6.882   4.302
 4974SOL    HW115821   3.171   6.950   4.337
 4974SOL    HW215822   3.026   6.880   4.361
 4975SOL     OW15823   5.236   4.983   1.001
 4975SOL    HW115824   5.201   5.016   1.088
 4975SOL    HW215825   5.276   4.892   1.014
 4976SOL     OW15826   1.201   6.778   3.293
 4976SOL    HW115827   1.241   6.841   3.360
 4976SOL    HW215828   1.224   6.811   3.201
 4977SOL     OW15829   1.447   3.927   6.004
 4977SOL    HW115830   1.475   3.976   5.921
 4977SOL    HW215831   1.385   3.984   6.057
 4978SOL     OW15832   6.232   4.166   4.806
 4978SOL    HW115833   6.222   4.258   4.845
 4978SOL    HW215834   6.145   4.139   4.763
 4979SOL     OW15835   2.442   6.772   6.374
 4979SOL    HW115836   2.458   6.798   6.279
 4979SOL    HW215837   2.461   6.850   6.434
 4980SOL     OW15838   5.560   2.963   4.127
 4980SOL    HW115839   5.470   3.005   4.134
 4980SOL    HW215840   5.568   2.888   4.193
 4981SOL     OW15841   3.275   4.905   2.730
 4981SOL    HW115842   3.184   4.942   2.711
 4981SOL    HW215843   3.316   4.953   2.807
 4982SOL     OW15844   4.000   2.571   5.491
 4982SOL    HW115845   4.041   2.554   5.402
 4982SOL    HW215846   4.062   2.539   5.563
 4983SOL     OW15847   5.661   4.554   2.960
 4983SOL    HW115848   5.743   4.552   2.902
 4983SOL    HW215849   5.597   4.485   2.928
 4984SOL     OW15850   4.920   3.686   3.940
 4984SOL    HW115851   4.874   3.658   4.024
 4984SOL    HW215852   5.010   3.643   3.935
 4985SOL     OW15853   5.409   0.612   2.641
 4985SOL    HW115854   5.452   0.555   2.711
 4985SOL    HW215855   5.480   0.656   2.586
 4986SOL     OW15856   0.806   5.247   1.068
 4986SOL    HW115857   0.715   5.257   1.028
 4986SOL    HW215858   0.813   5.159   1.116
 4987SOL     OW15859   1.666   1.119   2.289
 4987SOL    HW115860   1.662   1.021   2.274
 4987SOL    HW215861   1.673   1.138   2.387
 4988SOL     OW15862   6.121   5.651   3.821
 4988SOL    HW115863   6.144   5.663   3.724
 4988SOL    HW215864   6.135   5.738   3.869
 4989SOL     OW15865   5.125   0.246   3.719
 4989SOL    HW115866   5.145   0.224   3.815
 4989SOL    HW215867   5.056   0.183   3.684
 4990SOL     OW15868   4.427   2.091   5.870
 4990SOL    HW115869   4.347   2.036   5.896
 4990SOL    HW215870   4.473   2.124   5.952
 4991SOL     OW15871   1.832   5.268   5.909
 4991SOL    HW115872   1.840   5.349   5.966
 4991SOL    HW215873   1.743   5.268   5.863
 4992SOL     OW15874   0.987   3.371   3.940
 4992SOL    HW115875   1.065   3.333   3.990
 4992SOL    HW215876   0.939   3.436   3.999
 4993SOL     OW15877   2.167   6.403   3.938
 4993SOL    HW115878   2.079   6.450   3.940
 4993SOL    HW215879   2.237   6.463   3.900
 4994SOL     OW15880   3.828   5.026   5.108
 4994SOL    HW115881   3.795   4.932   5.119
 4994SOL    HW215882   3.844   5.067   5.198
 4995SOL     OW15883   0.159   0.552   5.834
 4995SOL    HW115884   0.184   0.585   5.743
 4995SOL    HW215885   0.068   0.511   5.830
 4996SOL     OW15886   0.320   1.231   3.704
 4996SOL    HW115887   0.226   1.198   3.715
 4996SOL    HW215888   0.365   1.235   3.793
 4997SOL     OW15889   3.890   1.595   0.846
 4997SOL    HW115890   3.860   1.682   0.806
 4997SOL    HW215891   3.907   1.607   0.944
 4998SOL     OW15892   0.811   3.879   3.099
 4998SOL    HW115893   0.751   3.951   3.063
 4998SOL    HW215894   0.773   3.789   3.078
 4999SOL     OW15895   0.845   2.637   3.734
 4999SOL    HW115896   0.752   2.650   3.700
 4999SOL    HW215897   0.855   2.684   3.822
 5000SOL     OW15898   2.594   6.191   2.570
 5000SOL    HW115899   2.529   6.266   2.562
 5000SOL    HW215900   2.569   6.133   2.648
 5001SOL     OW15901   0.567   6.054   3.055
 5001SOL    HW115902   0.552   6.152   3.068
 5001SOL    HW215903   0.511   6.022   2.978
 5002SOL     OW15904   1.621   4.558   3.983
 5002SOL    HW115905   1.546   4.528   3.924
 5002SOL    HW215906   1.693   4.489   3.982
 5003SOL     OW15907   3.969   0.449   3.125
 5003SOL    HW115908   3.922   0.434   3.212
 5003SOL    HW215909   4.000   0.544   3.119
 5004SOL     OW15910   3.845   5.606   6.957
 5004SOL    HW115911   3.835   5.548   6.877
 5004SOL    HW215912   3.773   5.676   6.957
 5005SOL     OW15913   2.792   2.790   0.117
 5005SOL    HW115914   2.822   2.853   0.046
 5005SOL    HW215915   2.787   2.838   0.205
 5006SOL     OW15916   4.889   1.312   2.296
 5006SOL    HW115917   4.983   1.317   2.261
 5006SOL    HW215918   4.841   1.396   2.272
 5007SOL     OW15919   5.727   5.993   1.946
 5007SOL    HW115920   5.746   6.055   2.022
 5007SOL    HW215921   5.775   6.024   1.864
 5008SOL     OW15922   5.557   0.491   3.198
 5008SOL    HW115923   5.583   0.558   3.127
 5008SOL    HW215924   5.637   0.466   3.251
 5009SOL     OW15925   6.675   2.409   0.709
 5009SOL    HW115926   6.757   2.377   0.661
 5009SOL    HW215927   6.655   2.348   0.785
 5010SOL     OW15928   3.582   3.672   1.049
 5010SOL    HW115929   3.536   3.614   1.116
 5010SOL    HW215930   3.593   3.764   1.086
 5011SOL     OW15931   1.647   3.532   6.664
 5011SOL    HW115932   1.634   3.609   6.727
 5011SOL    HW215933   1.615   3.448   6.708
 5012SOL     OW15934   6.330   1.696   6.124
 5012SOL    HW115935   6.372   1.786   6.108
 5012SOL    HW215936   6.349   1.636   6.047
 5013SOL     OW15937   5.916   0.181   6.118
 5013SOL    HW115938   5.911   0.113   6.191
 5013SOL    HW215939   5.828   0.227   6.110
 5014SOL     OW15940   5.716   3.370   1.822
 5014SOL    HW115941   5.708   3.409   1.730
 5014SOL    HW215942   5.733   3.272   1.816
 5015SOL     OW15943   5.833   6.217   4.036
 5015SOL    HW115944   5.879   6.240   3.950
 5015SOL    HW215945   5.752   6.274   4.047
 5016SOL     OW15946   1.893   3.653   5.609
 5016SOL    HW115947   1.892   3.554   5.618
 5016SOL    HW215948   1.966   3.691   5.666
 5017SOL     OW15949   0.468   3.021   1.949
 5017SOL    HW115950   0.382   3.029   1.899
 5017SOL    HW215951   0.539   2.986   1.887
 5018SOL     OW15952   1.023   0.135   6.881
 5018SOL    HW115953   1.089   0.067   6.847
 5018SOL    HW215954   0.956   0.155   6.810
 5019SOL     OW15955   1.239   4.701   4.538
 5019SOL    HW115956   1.283   4.756   4.609
 5019SOL    HW215957   1.265   4.605   4.549
 5020SOL     OW15958   2.300   0.295   4.852
 5020SOL    HW115959   2.361   0.369   4.880
 5020SOL    HW215960   2.300   0.224   4.922
 5021SOL     OW15961   1.912   1.003   0.738
 5021SOL    HW115962   1.884   1.038   0.827
 5021SOL    HW215963   2.007   1.027   0.720
 5022SOL     OW15964   6.823   2.697   1.140
 5022SOL    HW115965   6.834   2.659   1.048
 5022SOL    HW215966   6.830   2.624   1.208
 5023SOL     OW15967   0.422   4.423   2.354
 5023SOL    HW115968   0.479   4.345   2.330
 5023SOL    HW215969   0.477   4.492   2.400
 5024SOL     OW15970   4.477   3.930   0.944
 5024SOL    HW115971   4.503   3.982   1.024
 5024SOL    HW215972   4.470   3.833   0.968
 5025SOL     OW15973   4.614   1.533   4.882
 5025SOL    HW115974   4.662   1.544   4.968
 5025SOL    HW215975   4.526   1.488   4.898
 5026SOL     OW15976   4.675   0.074   4.689
 5026SOL    HW115977   4.684   0.050   4.593
 5026SOL    HW215978   4.738   0.019   4.744
 5027SOL     OW15979   4.856   6.104   1.009
 5027SOL    HW115980   4.831   6.152   1.093
 5027SOL    HW215981   4.811   6.147   0.931
 5028SOL     OW15982   6.268   1.673   2.098
 5028SOL    HW115983   6.290   1.615   2.019
 5028SOL    HW215984   6.329   1.650   2.174
 5029SOL     OW15985   5.723   1.708   2.147
 5029SOL    HW115986   5.764   1.751   2.228
 5029SOL    HW215987   5.795   1.689   2.081
 5030SOL     OW15988   0.214   4.316   6.907
 5030SOL    HW115989   0.300   4.365   6.919
 5030SOL    HW215990   0.232   4.217   6.904
 5031SOL     OW15991   6.367   0.063   6.169
 5031SOL    HW115992   6.463   0.060   6.143
 5031SOL    HW215993   6.312   0.013   6.101
 5032SOL     OW15994   3.163   3.412   5.692
 5032SOL    HW115995   3.114   3.420   5.605
 5032SOL    HW215996   3.222   3.492   5.704
 5033SOL     OW15997   2.135   0.397   6.329
 5033SOL    HW115998   2.061   0.398   6.262
 5033SOL    HW215999   2.140   0.486   6.375
 5034SOL     OW16000   4.662   6.728   4.804
 5034SOL    HW116001   4.684   6.814   4.850
 5034SOL    HW216002   4.613   6.667   4.867
 5035SOL     OW16003   1.964   3.532   3.998
 5035SOL    HW116004   1.898   3.607   3.989
 5035SOL    HW216005   1.971   3.505   4.094
 5036SOL     OW16006   0.573   2.396   4.825
 5036SOL    HW116007   0.645   2.333   4.854
 5036SOL    HW216008   0.554   2.383   4.728
 5037SOL     OW16009   3.929   4.171   1.083
 5037SOL    HW116010   3.870   4.205   1.010
 5037SOL    HW216011   3.974   4.087   1.053
 5038SOL     OW16012   3.894   3.707   3.638
 5038SOL    HW116013   3.923   3.801   3.656
 5038SOL    HW216014   3.972   3.653   3.608
 5039SOL     OW16015   1.100   3.742   6.113
 5039SOL    HW116016   1.121   3.795   6.195
 5039SOL    HW216017   1.015   3.774   6.073
 5040SOL     OW16018   0.322   1.067   5.445
 5040SOL    HW116019   0.267   1.001   5.496
 5040SOL    HW216020   0.350   1.141   5.506
 5041SOL     OW16021   6.949   2.366   1.509
 5041SOL    HW116022   7.014   2.438   1.534
 5041SOL    HW216023   6.975   2.281   1.555
 5042SOL     OW16024   0.957   2.659   6.530
 5042SOL    HW116025   1.031   2.645   6.464
 5042SOL    HW216026   0.912   2.747   6.512
 5043SOL     OW16027   3.700   6.672   1.907
 5043SOL    HW116028   3.644   6.741   1.953
 5043SOL    HW216029   3.768   6.717   1.850
 5044SOL     OW16030   6.564   4.634   0.377
 5044SOL    HW116031   6.590   4.726   0.408
 5044SOL    HW216032   6.486   4.640   0.315
 5045SOL     OW16033   6.054   3.100   6.756
 5045SOL    HW116034   6.106   3.071   6.675
 5045SOL    HW216035   5.957   3.098   6.735
 5046SOL     OW16036   3.542   3.295   2.777
 5046SOL    HW116037   3.458   3.240   2.773
 5046SOL    HW216038   3.586   3.295   2.687
 5047SOL     OW16039   1.740   3.635   3.695
 5047SOL    HW116040   1.774   3.644   3.788
 5047SOL    HW216041   1.770   3.548   3.656
 5048SOL     OW16042   2.135   1.060   6.125
 5048SOL    HW116043   2.201   1.129   6.097
 5048SOL    HW216044   2.042   1.096   6.114
 5049SOL     OW16045   4.694   1.378   6.840
 5049SOL    HW116046   4.774   1.435   6.822
 5049SOL    HW216047   4.688   1.359   6.938
 5050SOL     OW16048   1.614   7.015   1.009
 5050SOL    HW116049   1.595   0.059   1.083
 5050SOL    HW216050   1.710   7.019   0.985
 5051SOL     OW16051   4.493   5.020   1.092
 5051SOL    HW116052   4.555   5.082   1.140
 5051SOL    HW216053   4.476   4.939   1.150
 5052SOL     OW16054   2.426   1.479   5.097
 5052SOL    HW116055   2.497   1.541   5.065
 5052SOL    HW216056   2.409   1.408   5.028
 5053SOL     OW16057   0.388   0.706   1.992
 5053SOL    HW116058   0.380   0.733   1.896
 5053SOL    HW216059   0.313   0.644   2.016
 5054SOL     OW16060   3.876   5.227   4.011
 5054SOL    HW116061   3.954   5.240   4.072
 5054SOL    HW216062   3.906   5.182   3.927
 5055SOL     OW16063   0.340   3.866   6.251
 5055SOL    HW116064   0.320   3.775   6.287
 5055SOL    HW216065   0.437   3.870   6.225
 5056SOL     OW16066   5.495   4.519   4.466
 5056SOL    HW116067   5.545   4.435   4.490
 5056SOL    HW216068   5.531   4.554   4.379
 5057SOL     OW16069   1.044   5.999   2.251
 5057SOL    HW116070   0.999   5.977   2.338
 5057SOL    HW216071   1.029   5.923   2.187
 5058SOL     OW16072   2.938   5.473   5.626
 5058SOL    HW116073   2.992   5.447   5.546
 5058SOL    HW216074   2.912   5.391   5.676
 5059SOL     OW16075   6.695   0.310   2.319
 5059SOL    HW116076   6.624   0.346   2.380
 5059SOL    HW216077   6.773   0.373   2.317
 5060SOL     OW16078   6.291   1.931   5.785
 5060SOL    HW116079   6.229   1.999   5.824
 5060SOL    HW216080   6.347   1.890   5.858
 5061SOL     OW16081   5.246   4.982   0.330
 5061SOL    HW116082   5.153   5.017   0.319
 5061SOL    HW216083   5.249   4.919   0.408
 5062SOL     OW16084   0.394   0.526   0.782
 5062SOL    HW116085   0.471   0.476   0.822
 5062SOL    HW216086   0.423   0.619   0.759
 5063SOL     OW16087   1.727   5.884   1.633
 5063SOL    HW116088   1.725   5.983   1.619
 5063SOL    HW216089   1.660   5.859   1.704
 5064SOL     OW16090   5.297   3.477   0.039
 5064SOL    HW116091   5.234   3.486   0.116
 5064SOL    HW216092   5.366   3.549   0.042
 5065SOL     OW16093   2.501   6.422   5.578
 5065SOL    HW116094   2.466   6.402   5.670
 5065SOL    HW216095   2.555   6.506   5.580
 5066SOL     OW16096   4.778   4.792   1.063
 5066SOL    HW116097   4.797   4.808   1.160
 5066SOL    HW216098   4.764   4.694   1.048
 5067SOL     OW16099   5.402   1.305   6.461
 5067SOL    HW116100   5.496   1.323   6.432
 5067SOL    HW216101   5.341   1.311   6.382
 5068SOL     OW16102   3.289   5.269   2.074
 5068SOL    HW116103   3.359   5.236   2.011
 5068SOL    HW216104   3.330   5.336   2.137
 5069SOL     OW16105   0.313   5.020   2.960
 5069SOL    HW116106   0.254   5.097   2.986
 5069SOL    HW216107   0.351   5.037   2.869
 5070SOL     OW16108   5.026   3.115   4.160
 5070SOL    HW116109   5.026   3.162   4.071
 5070SOL    HW216110   4.943   3.060   4.168
 5071SOL     OW16111   3.863   0.724   6.986
 5071SOL    HW116112   3.875   0.685   6.895
 5071SOL    HW216113   3.942   0.781   7.009
 5072SOL     OW16114   1.102   4.417   1.136
 5072SOL    HW116115   1.084   4.445   1.230
 5072SOL    HW216116   1.200   4.400   1.124
 5073SOL     OW16117   4.443   1.823   4.501
 5073SOL    HW116118   4.375   1.888   4.464
 5073SOL    HW216119   4.443   1.740   4.445
 5074SOL     OW16120   3.370   4.713   5.648
 5074SOL    HW116121   3.295   4.649   5.633
 5074SOL    HW216122   3.349   4.771   5.727
 5075SOL     OW16123   6.797   6.211   4.000
 5075SOL    HW116124   6.701   6.199   4.026
 5075SOL    HW216125   6.855   6.197   4.080
 5076SOL     OW16126   3.811   0.665   0.816
 5076SOL    HW116127   3.786   0.733   0.886
 5076SOL    HW216128   3.738   0.598   0.808
 5077SOL     OW16129   0.270   2.042   2.253
 5077SOL    HW116130   0.173   2.062   2.240
 5077SOL    HW216131   0.280   1.985   2.335
 5078SOL     OW16132   0.595   1.323   3.925
 5078SOL    HW116133   0.513   1.335   3.982
 5078SOL    HW216134   0.629   1.412   3.895
 5079SOL     OW16135   4.116   5.021   4.609
 5079SOL    HW116136   4.176   4.947   4.637
 5079SOL    HW216137   4.026   4.985   4.586
 5080SOL     OW16138   5.887   6.757   5.890
 5080SOL    HW116139   5.928   6.714   5.970
 5080SOL    HW216140   5.956   6.764   5.817
 5081SOL     OW16141   3.345   3.352   3.008
 5081SOL    HW116142   3.432   3.343   2.959
 5081SOL    HW216143   3.298   3.434   2.976
 5082SOL     OW16144   6.543   6.855   5.813
 5082SOL    HW116145   6.504   6.773   5.857
 5082SOL    HW216146   6.488   6.935   5.838
 5083SOL     OW16147   1.539   5.675   1.743
 5083SOL    HW116148   1.604   5.630   1.804
 5083SOL    HW216149   1.505   5.609   1.676
 5084SOL     OW16150   2.119   6.210   2.842
 5084SOL    HW116151   2.038   6.154   2.823
 5084SOL    HW216152   2.194   6.150   2.872
 5085SOL     OW16153   6.366   3.254   6.149
 5085SOL    HW116154   6.464   3.247   6.170
 5085SOL    HW216155   6.354   3.303   6.063
 5086SOL     OW16156   0.112   5.264   3.466
 5086SOL    HW116157   0.061   5.198   3.521
 5086SOL    HW216158   0.069   5.354   3.473
 5087SOL     OW16159   0.210   5.883   5.213
 5087SOL    HW116160   0.147   5.839   5.277
 5087SOL    HW216161   0.206   5.835   5.125
 5088SOL     OW16162   5.814   0.538   6.688
 5088SOL    HW116163   5.831   0.525   6.590
 5088SOL    HW216164   5.877   0.607   6.724
 5089SOL     OW16165   5.521   2.776   3.920
 5089SOL    HW116166   5.531   2.845   3.992
 5089SOL    HW216167   5.488   2.690   3.960
 5090SOL     OW16168   1.335   4.403   0.639
 5090SOL    HW116169   1.341   4.386   0.540
 5090SOL    HW216170   1.249   4.367   0.673
 5091SOL     OW16171   1.417   6.565   3.307
 5091SOL    HW116172   1.365   6.624   3.246
 5091SOL    HW216173   1.507   6.547   3.267
 5092SOL     OW16174   3.709   2.757   1.507
 5092SOL    HW116175   3.616   2.791   1.492
 5092SOL    HW216176   3.706   2.679   1.570
 5093SOL     OW16177   0.900   1.859   0.826
 5093SOL    HW116178   0.880   1.942   0.774
 5093SOL    HW216179   0.997   1.836   0.818
 5094SOL     OW16180   6.599   0.181   6.670
 5094SOL    HW116181   6.590   0.112   6.743
 5094SOL    HW216182   6.695   0.205   6.659
 5095SOL     OW16183   3.027   6.977   5.357
 5095SOL    HW116184   3.006   6.997   5.261
 5095SOL    HW216185   3.105   0.011   5.386
 5096SOL     OW16186   4.194   5.332   2.567
 5096SOL    HW116187   4.273   5.276   2.592
 5096SOL    HW216188   4.151   5.294   2.485
 5097SOL     OW16189   0.680   0.802   6.624
 5097SOL    HW116190   0.662   0.789   6.526
 5097SOL    HW216191   0.749   0.736   6.653
 5098SOL     OW16192   6.792   2.645   2.461
 5098SOL    HW116193   6.695   2.618   2.469
 5098SOL    HW216194   6.845   2.569   2.425
 5099SOL     OW16195   0.945   0.259   4.789
 5099SOL    HW116196   0.945   0.170   4.744
 5099SOL    HW216197   0.864   0.267   4.847
 5100SOL     OW16198   4.976   6.074   6.405
 5100SOL    HW116199   4.963   6.045   6.500
 5100SOL    HW216200   5.029   6.004   6.356
 5101SOL     OW16201   4.078   5.953   0.622
 5101SOL    HW116202   4.070   6.021   0.695
 5101SOL    HW216203   3.993   5.900   0.617
 5102SOL     OW16204   4.211   5.891   4.523
 5102SOL    HW116205   4.126   5.935   4.550
 5102SOL    HW216206   4.276   5.894   4.600
 5103SOL     OW16207   1.120   1.017   4.390
 5103SOL    HW116208   1.130   0.918   4.389
 5103SOL    HW216209   1.081   1.048   4.304
 5104SOL     OW16210   1.250   6.780   1.348
 5104SOL    HW116211   1.218   6.797   1.255
 5104SOL    HW216212   1.321   6.846   1.371
 5105SOL     OW16213   2.741   2.984   6.333
 5105SOL    HW116214   2.752   2.900   6.387
 5105SOL    HW216215   2.734   3.063   6.394
 5106SOL     OW16216   3.031   0.238   2.206
 5106SOL    HW116217   3.022   0.335   2.180
 5106SOL    HW216218   3.073   0.188   2.130
 5107SOL     OW16219   1.189   6.941   6.038
 5107SOL    HW116220   1.277   6.895   6.021
 5107SOL    HW216221   1.205   0.010   6.078
 5108SOL     OW16222   2.934   3.703   3.723
 5108SOL    HW116223   2.923   3.614   3.767
 5108SOL    HW216224   2.894   3.702   3.632
 5109SOL     OW16225   0.484   1.434   1.634
 5109SOL    HW116226   0.388   1.408   1.646
 5109SOL    HW216227   0.540   1.351   1.627
 5110SOL     OW16228   1.891   6.283   5.350
 5110SOL    HW116229   1.906   6.270   5.252
 5110SOL    HW216230   1.843   6.204   5.388
 5111SOL     OW16231   1.589   1.230   6.760
 5111SOL    HW116232   1.500   1.228   6.715
 5111SOL    HW216233   1.612   1.138   6.791
 5112SOL     OW16234   0.240   6.986   3.434
 5112SOL    HW116235   0.186   6.977   3.518
 5112SOL    HW216236   0.181   6.970   3.355
 5113SOL     OW16237   0.972   6.857   6.684
 5113SOL    HW116238   0.931   6.893   6.767
 5113SOL    HW216239   1.065   6.893   6.675
 5114SOL     OW16240   4.177   5.464   6.629
 5114SOL    HW116241   4.167   5.513   6.542
 5114SOL    HW216242   4.271   5.475   6.662
 5115SOL     OW16243   2.084   4.114   5.150
 5115SOL    HW116244   2.088   4.179   5.225
 5115SOL    HW216245   2.174   4.105   5.109
 5116SOL     OW16246   6.711   3.072   1.410
 5116SOL    HW116247   6.655   3.152   1.386
 5116SOL    HW216248   6.754   3.035   1.328
 5117SOL     OW16249   2.733   4.830   3.572
 5117SOL    HW116250   2.648   4.884   3.578
 5117SOL    HW216251   2.717   4.750   3.514
 5118SOL     OW16252   4.705   6.705   1.618
 5118SOL    HW116253   4.633   6.644   1.652
 5118SOL    HW216254   4.734   6.676   1.527
 5119SOL     OW16255   6.431   6.817   2.706
 5119SOL    HW116256   6.334   6.825   2.681
 5119SOL    HW216257   6.462   6.903   2.746
 5120SOL     OW16258   4.144   1.603   2.843
 5120SOL    HW116259   4.056   1.648   2.835
 5120SOL    HW216260   4.164   1.584   2.939
 5121SOL     OW16261   1.398   3.353   4.789
 5121SOL    HW116262   1.440   3.340   4.699
 5121SOL    HW216263   1.441   3.429   4.836
 5122SOL     OW16264   2.601   5.985   3.592
 5122SOL    HW116265   2.565   5.901   3.634
 5122SOL    HW216266   2.700   5.975   3.581
 5123SOL     OW16267   6.078   4.091   1.741
 5123SOL    HW116268   6.090   4.016   1.677
 5123SOL    HW216269   6.013   4.157   1.705
 5124SOL     OW16270   3.111   6.040   0.781
 5124SOL    HW116271   3.025   6.087   0.801
 5124SOL    HW216272   3.094   5.965   0.717
 5125SOL     OW16273   6.804   2.146   5.810
 5125SOL    HW116274   6.788   2.048   5.820
 5125SOL    HW216275   6.822   2.168   5.714
 5126SOL     OW16276   4.687   2.588   6.520
 5126SOL    HW116277   4.782   2.588   6.552
 5126SOL    HW216278   4.628   2.629   6.589
 5127SOL     OW16279   5.386   3.380   6.535
 5127SOL    HW116280   5.302   3.383   6.591
 5127SOL    HW216281   5.430   3.291   6.545
 5128SOL     OW16282   0.362   0.059   6.978
 5128SOL    HW116283   0.300   7.016   6.934
 5128SOL    HW216284   0.454   0.018   6.982
 5129SOL     OW16285   4.514   2.213   2.841
 5129SOL    HW116286   4.513   2.272   2.760
 5129SOL    HW216287   4.468   2.127   2.819
 5130SOL     OW16288   1.053   6.996   5.178
 5130SOL    HW116289   1.015   0.006   5.265
 5130SOL    HW216290   1.114   0.044   5.140
 5131SOL     OW16291   3.644   5.021   3.708
 5131SOL    HW116292   3.704   4.947   3.679
 5131SOL    HW216293   3.661   5.102   3.652
 5132SOL     OW16294   3.530   1.585   6.613
 5132SOL    HW116295   3.585   1.662   6.580
 5132SOL    HW216296   3.458   1.618   6.674
 5133SOL     OW16297   4.938   4.528   6.814
 5133SOL    HW116298   5.023   4.581   6.808
 5133SOL    HW216299   4.901   4.515   6.722
 5134SOL     OW16300   5.479   5.642   0.656
 5134SOL    HW116301   5.453   5.580   0.730
 5134SOL    HW216302   5.401   5.655   0.595
 5135SOL     OW16303   6.909   2.452   2.291
 5135SOL    HW116304   6.861   2.437   2.204
 5135SOL    HW216305   6.905   2.368   2.345
 5136SOL     OW16306   0.822   1.592   5.671
 5136SOL    HW116307   0.774   1.599   5.584
 5136SOL    HW216308   0.917   1.621   5.660
 5137SOL     OW16309   5.686   0.443   3.466
 5137SOL    HW116310   5.605   0.387   3.449
 5137SOL    HW216311   5.755   0.388   3.514
 5138SOL     OW16312   3.162   3.214   2.303
 5138SOL    HW116313   3.133   3.128   2.261
 5138SOL    HW216314   3.091   3.283   2.290
 5139SOL     OW16315   2.826   0.617   5.791
 5139SOL    HW116316   2.889   0.598   5.716
 5139SOL    HW216317   2.868   0.682   5.854
 5140SOL     OW16318   3.355   3.586   6.534
 5140SOL    HW116319   3.416   3.645   6.480
 5140SOL    HW216320   3.307   3.524   6.473
 5141SOL     OW16321   0.334   2.767   1.417
 5141SOL    HW116322   0.304   2.737   1.326
 5141SOL    HW216323   0.266   2.828   1.456
 5142SOL     OW16324   0.831   6.879   2.519
 5142SOL    HW116325   0.905   6.839   2.464
 5142SOL    HW216326   0.751   6.820   2.515
 5143SOL     OW16327   0.243   6.389   3.167
 5143SOL    HW116328   0.246   6.480   3.209
 5143SOL    HW216329   0.165   6.339   3.204
 5144SOL     OW16330   2.296   2.888   5.310
 5144SOL    HW116331   2.228   2.857   5.243
 5144SOL    HW216332   2.365   2.944   5.265
 5145SOL     OW16333   2.220   5.419   5.989
 5145SOL    HW116334   2.257   5.485   6.055
 5145SOL    HW216335   2.225   5.327   6.028
 5146SOL     OW16336   5.660   6.082   6.785
 5146SOL    HW116337   5.745   6.048   6.747
 5146SOL    HW216338   5.667   6.087   6.885
 5147SOL     OW16339   5.240   2.072   3.645
 5147SOL    HW116340   5.142   2.078   3.628
 5147SOL    HW216341   5.256   2.035   3.736
 5148SOL     OW16342   0.290   0.607   6.789
 5148SOL    HW116343   0.231   0.688   6.790
 5148SOL    HW216344   0.244   0.531   6.835
 5149SOL     OW16345   3.890   5.936   4.267
 5149SOL    HW116346   3.875   6.029   4.235
 5149SOL    HW216347   3.984   5.909   4.249
 5150SOL     OW16348   6.190   6.872   3.741
 5150SOL    HW116349   6.125   6.798   3.726
 5150SOL    HW216350   6.210   6.880   3.839
 5151SOL     OW16351   5.613   5.937   2.292
 5151SOL    HW116352   5.545   5.917   2.221
 5151SOL    HW216353   5.686   5.993   2.253
 5152SOL     OW16354   2.367   1.355   0.356
 5152SOL    HW116355   2.391   1.357   0.259
 5152SOL    HW216356   2.271   1.380   0.367
 5153SOL     OW16357   1.234   1.760   0.400
 5153SOL    HW116358   1.301   1.687   0.411
 5153SOL    HW216359   1.142   1.721   0.405
 5154SOL     OW16360   0.500   2.520   0.841
 5154SOL    HW116361   0.598   2.538   0.830
 5154SOL    HW216362   0.457   2.598   0.888
 5155SOL     OW16363   1.403   1.797   0.174
 5155SOL    HW116364   1.347   1.816   0.255
 5155SOL    HW216365   1.389   1.703   0.145
 5156SOL     OW16366   6.129   5.631   5.305
 5156SOL    HW116367   6.186   5.651   5.225
 5156SOL    HW216368   6.035   5.613   5.275
 5157SOL     OW16369   3.525   0.725   1.394
 5157SOL    HW116370   3.454   0.749   1.328
 5157SOL    HW216371   3.500   0.640   1.440
 5158SOL     OW16372   1.239   2.244   2.153
 5158SOL    HW116373   1.150   2.290   2.144
 5158SOL    HW216374   1.264   2.204   2.065
 5159SOL     OW16375   6.115   3.475   5.819
 5159SOL    HW116376   6.033   3.471   5.763
 5159SOL    HW216377   6.156   3.567   5.812
 5160SOL     OW16378   6.529   6.600   3.620
 5160SOL    HW116379   6.541   6.698   3.609
 5160SOL    HW216380   6.608   6.562   3.669
 5161SOL     OW16381   1.003   2.199   6.995
 5161SOL    HW116382   1.065   2.138   6.945
 5161SOL    HW216383   0.939   2.242   6.932
 5162SOL     OW16384   6.975   6.905   5.325
 5162SOL    HW116385   0.046   6.896   5.290
 5162SOL    HW216386   6.967   6.991   5.375
 5163SOL     OW16387   3.228   0.147   1.764
 5163SOL    HW116388   3.137   0.107   1.761
 5163SOL    HW216389   3.223   0.241   1.798
 5164SOL     OW16390   2.490   4.019   0.494
 5164SOL    HW116391   2.458   4.047   0.404
 5164SOL    HW216392   2.420   3.964   0.539
 5165SOL     OW16393   1.321   4.544   5.894
 5165SOL    HW116394   1.273   4.549   5.806
 5165SOL    HW216395   1.361   4.453   5.905
 5166SOL     OW16396   0.410   4.793   0.279
 5166SOL    HW116397   0.343   4.855   0.320
 5166SOL    HW216398   0.378   4.699   0.289
 5167SOL     OW16399   5.425   3.099   5.352
 5167SOL    HW116400   5.381   3.113   5.441
 5167SOL    HW216401   5.355   3.096   5.281
 5168SOL     OW16402   4.235   1.995   3.271
 5168SOL    HW116403   4.178   2.075   3.289
 5168SOL    HW216404   4.176   1.916   3.250
 5169SOL     OW16405   5.233   5.571   4.406
 5169SOL    HW116406   5.143   5.545   4.439
 5169SOL    HW216407   5.255   5.520   4.323
 5170SOL     OW16408   2.486   3.995   6.307
 5170SOL    HW116409   2.445   4.077   6.346
 5170SOL    HW216410   2.467   3.991   6.209
 5171SOL     OW16411   2.129   6.689   5.885
 5171SOL    HW116412   2.201   6.746   5.924
 5171SOL    HW216413   2.064   6.747   5.835
 5172SOL     OW16414   5.971   5.691   5.833
 5172SOL    HW116415   5.952   5.612   5.775
 5172SOL    HW216416   6.062   5.683   5.873
 5173SOL     OW16417   4.839   5.639   5.104
 5173SOL    HW116418   4.762   5.603   5.157
 5173SOL    HW216419   4.869   5.570   5.038
 5174SOL     OW16420   2.155   6.971   2.974
 5174SOL    HW116421   2.161   7.012   3.065
 5174SOL    HW216422   2.191   6.878   2.977
 5175SOL     OW16423   2.492   3.007   6.210
 5175SOL    HW116424   2.584   2.967   6.217
 5175SOL    HW216425   2.424   2.934   6.214
 5176SOL     OW16426   6.271   5.730   6.830
 5176SOL    HW116427   6.274   5.756   6.733
 5176SOL    HW216428   6.193   5.669   6.845
 5177SOL     OW16429   6.316   6.751   0.705
 5177SOL    HW116430   6.362   6.672   0.746
 5177SOL    HW216431   6.339   6.756   0.608
 5178SOL     OW16432   0.813   4.213   1.377
 5178SOL    HW116433   0.871   4.137   1.407
 5178SOL    HW216434   0.821   4.224   1.278
 5179SOL     OW16435   5.215   6.072   3.302
 5179SOL    HW116436   5.253   6.057   3.211
 5179SOL    HW216437   5.117   6.052   3.301
 5180SOL     OW16438   1.250   4.286   2.389
 5180SOL    HW116439   1.240   4.199   2.437
 5180SOL    HW216440   1.161   4.318   2.357
 5181SOL     OW16441   6.296   1.124   5.612
 5181SOL    HW116442   6.273   1.094   5.520
 5181SOL    HW216443   6.231   1.085   5.677
 5182SOL     OW16444   2.459   6.650   2.768
 5182SOL    HW116445   2.421   6.620   2.855
 5182SOL    HW216446   2.385   6.668   2.703
 5183SOL     OW16447   4.349   2.307   3.712
 5183SOL    HW116448   4.428   2.246   3.703
 5183SOL    HW216449   4.362   2.387   3.654
 5184SOL     OW16450   1.488   1.320   3.230
 5184SOL    HW116451   1.455   1.228   3.207
 5184SOL    HW216452   1.465   1.341   3.326
 5185SOL     OW16453   7.000   0.375   2.820
 5185SOL    HW116454   0.024   0.463   2.806
 5185SOL    HW216455   6.936   0.383   2.896
 5186SOL     OW16456   6.541   3.216   6.636
 5186SOL    HW116457   6.456   3.268   6.624
 5186SOL    HW216458   6.599   3.228   6.555
 5187SOL     OW16459   1.389   4.874   4.985
 5187SOL    HW116460   1.484   4.871   5.015
 5187SOL    HW216461   1.333   4.817   5.044
 5188SOL     OW16462   6.417   0.196   2.637
 5188SOL    HW116463   6.444   0.116   2.691
 5188SOL    HW216464   6.366   0.259   2.694
 5189SOL     OW16465   4.614   6.372   6.954
 5189SOL    HW116466   4.563   6.369   6.868
 5189SOL    HW216467   4.591   6.292   7.009
 5190SOL     OW16468   2.082   4.504   0.297
 5190SOL    HW116469   2.181   4.514   0.299
 5190SOL    HW216470   2.044   4.564   0.227
 5191SOL     OW16471   2.498   4.480   1.870
 5191SOL    HW116472   2.568   4.500   1.801
 5191SOL    HW216473   2.536   4.496   1.961
 5192SOL     OW16474   0.959   5.039   2.332
 5192SOL    HW116475   1.022   4.978   2.283
 5192SOL    HW216476   0.882   5.062   2.273
 5193SOL     OW16477   5.061   0.772   5.666
 5193SOL    HW116478   4.991   0.713   5.705
 5193SOL    HW216479   5.140   0.777   5.727
 5194SOL     OW16480   4.775   1.360   5.321
 5194SOL    HW116481   4.733   1.283   5.273
 5194SOL    HW216482   4.783   1.338   5.418
 5195SOL     OW16483   0.511   0.341   5.381
 5195SOL    HW116484   0.513   0.289   5.466
 5195SOL    HW216485   0.441   0.412   5.387
 5196SOL     OW16486   5.215   6.558   3.501
 5196SOL    HW116487   5.288   6.559   3.569
 5196SOL    HW216488   5.256   6.564   3.409
 5197SOL     OW16489   0.994   2.749   4.788
 5197SOL    HW116490   1.076   2.779   4.739
 5197SOL    HW216491   0.957   2.825   4.841
 5198SOL     OW16492   5.833   5.341   3.113
 5198SOL    HW116493   5.768   5.266   3.119
 5198SOL    HW216494   5.835   5.391   3.200
 5199SOL     OW16495   0.139   4.793   0.890
 5199SOL    HW116496   0.146   4.783   0.790
 5199SOL    HW216497   0.058   4.848   0.912
 5200SOL     OW16498   6.656   3.594   5.407
 5200SOL    HW116499   6.707   3.671   5.447
 5200SOL    HW216500   6.662   3.516   5.469
 5201SOL     OW16501   0.263   5.906   4.531
 5201SOL    HW116502   0.215   5.899   4.618
 5201SOL    HW216503   0.350   5.954   4.546
 5202SOL     OW16504   0.963   4.674   1.587
 5202SOL    HW116505   1.021   4.727   1.525
 5202SOL    HW216506   0.953   4.581   1.552
 5203SOL     OW16507   6.455   2.836   6.830
 5203SOL    HW116508   6.492   2.825   6.738
 5203SOL    HW216509   6.357   2.818   6.829
 5204SOL     OW16510   4.898   4.577   6.533
 5204SOL    HW116511   4.974   4.642   6.543
 5204SOL    HW216512   4.812   4.627   6.524
 5205SOL     OW16513   1.406   0.170   0.047
 5205SOL    HW116514   1.421   0.106   6.993
 5205SOL    HW216515   1.474   0.153   0.119
 5206SOL     OW16516   0.536   3.784   5.384
 5206SOL    HW116517   0.529   3.801   5.286
 5206SOL    HW216518   0.632   3.773   5.409
 5207SOL     OW16519   2.013   4.577   3.629
 5207SOL    HW116520   1.937   4.593   3.692
 5207SOL    HW216521   2.023   4.478   3.615
 5208SOL     OW16522   4.906   0.627   6.835
 5208SOL    HW116523   4.979   0.695   6.840
 5208SOL    HW216524   4.825   0.667   6.791
 5209SOL     OW16525   6.389   5.790   3.357
 5209SOL    HW116526   6.387   5.866   3.421
 5209SOL    HW216527   6.377   5.824   3.264
 5210SOL     OW16528   4.941   4.051   2.982
 5210SOL    HW116529   4.980   3.969   2.941
 5210SOL    HW216530   5.013   4.102   3.030
 5211SOL     OW16531   3.650   3.948   2.411
 5211SOL    HW116532   3.635   4.040   2.375
 5211SOL    HW216533   3.702   3.953   2.496
 5212SOL     OW16534   1.221   0.552   0.467
 5212SOL    HW116535   1.300   0.600   0.506
 5212SOL    HW216536   1.155   0.530   0.539
 5213SOL     OW16537   4.138   2.439   6.309
 5213SOL    HW116538   4.194   2.404   6.384
 5213SOL    HW216539   4.043   2.448   6.340
 5214SOL     OW16540   5.300   1.687   6.855
 5214SOL    HW116541   5.227   1.713   6.791
 5214SOL    HW216542   5.384   1.737   6.832
 5215SOL     OW16543   5.695   5.197   2.847
 5215SOL    HW116544   5.622   5.134   2.874
 5215SOL    HW216545   5.674   5.289   2.881
 5216SOL     OW16546   4.684   5.709   1.378
 5216SOL    HW116547   4.755   5.690   1.310
 5216SOL    HW216548   4.603   5.746   1.332
 5217SOL     OW16549   2.891   5.050   3.857
 5217SOL    HW116550   2.914   5.059   3.760
 5217SOL    HW216551   2.944   4.975   3.897
 5218SOL     OW16552   1.913   0.346   4.367
 5218SOL    HW116553   1.879   0.279   4.433
 5218SOL    HW216554   1.978   0.303   4.305
 5219SOL     OW16555   2.620   6.102   0.831
 5219SOL    HW116556   2.635   6.013   0.874
 5219SOL    HW216557   2.522   6.120   0.824
 5220SOL     OW16558   1.276   0.071   1.877
 5220SOL    HW116559   1.332   0.119   1.945
 5220SOL    HW216560   1.193   0.124   1.860
 5221SOL     OW16561   4.530   1.695   5.615
 5221SOL    HW116562   4.579   1.778   5.644
 5221SOL    HW216563   4.584   1.647   5.546
 5222SOL     OW16564   0.818   0.261   2.969
 5222SOL    HW116565   0.885   0.187   2.973
 5222SOL    HW216566   0.732   0.226   2.931
 5223SOL     OW16567   4.935   6.902   0.860
 5223SOL    HW116568   5.017   6.959   0.862
 5223SOL    HW216569   4.936   6.843   0.780
 5224SOL     OW16570   5.411   1.385   2.996
 5224SOL    HW116571   5.344   1.341   3.055
 5224SOL    HW216572   5.503   1.367   3.031
 5225SOL     OW16573   6.243   6.621   5.572
 5225SOL    HW116574   6.322   6.583   5.620
 5225SOL    HW216575   6.204   6.551   5.512
 5226SOL     OW16576   2.213   6.792   3.848
 5226SOL    HW116577   2.116   6.802   3.826
 5226SOL    HW216578   2.242   6.698   3.829
 5227SOL     OW16579   5.147   3.198   3.528
 5227SOL    HW116580   5.064   3.250   3.550
 5227SOL    HW216581   5.177   3.220   3.435
 5228SOL     OW16582   5.337   0.565   0.904
 5228SOL    HW116583   5.335   0.565   0.804
 5228SOL    HW216584   5.350   0.472   0.937
 5229SOL     OW16585   0.974   4.459   4.072
 5229SOL    HW116586   0.954   4.406   4.155
 5229SOL    HW216587   0.933   4.550   4.080
 5230SOL     OW16588   1.152   6.176   6.279
 5230SOL    HW116589   1.091   6.254   6.261
 5230SOL    HW216590   1.234   6.207   6.325
 5231SOL     OW16591   3.699   3.160   3.443
 5231SOL    HW116592   3.786   3.118   3.471
 5231SOL    HW216593   3.687   3.151   3.345
 5232SOL     OW16594   4.919   3.106   5.180
 5232SOL    HW116595   4.938   3.038   5.109
 5232SOL    HW216596   4.910   3.196   5.137
 5233SOL     OW16597   0.518   0.533   2.972
 5233SOL    HW116598   0.503   0.480   2.889
 5233SOL    HW216599   0.615   0.533   2.995
 5234SOL     OW16600   4.267   5.744   1.547
 5234SOL    HW116601   4.296   5.801   1.624
 5234SOL    HW216602   4.282   5.794   1.462
 5235SOL     OW16603   1.042   3.524   1.019
 5235SOL    HW116604   1.121   3.475   0.983
 5235SOL    HW216605   1.001   3.471   1.094
 5236SOL     OW16606   5.580   3.180   1.020
 5236SOL    HW116607   5.515   3.233   1.075
 5236SOL    HW216608   5.533   3.143   0.940
 5237SOL     OW16609   2.277   2.009   4.299
 5237SOL    HW116610   2.214   2.080   4.332
 5237SOL    HW216611   2.315   1.960   4.376
 5238SOL     OW16612   2.135   3.863   1.076
 5238SOL    HW116613   2.044   3.823   1.085
 5238SOL    HW216614   2.198   3.819   1.140
 5239SOL     OW16615   3.160   3.367   5.282
 5239SOL    HW116616   3.228   3.307   5.324
 5239SOL    HW216617   3.157   3.350   5.183
 5240SOL     OW16618   2.504   1.812   5.002
 5240SOL    HW116619   2.596   1.847   4.986
 5240SOL    HW216620   2.437   1.880   4.973
 5241SOL     OW16621   2.922   5.880   5.907
 5241SOL    HW116622   2.984   5.904   5.832
 5241SOL    HW216623   2.928   5.781   5.924
 5242SOL     OW16624   4.354   0.699   5.724
 5242SOL    HW116625   4.350   0.625   5.658
 5242SOL    HW216626   4.336   0.663   5.816
 5243SOL     OW16627   0.683   3.864   0.456
 5243SOL    HW116628   0.719   3.926   0.387
 5243SOL    HW216629   0.682   3.909   0.546
 5244SOL     OW16630   5.830   3.651   6.733
 5244SOL    HW116631   5.765   3.709   6.685
 5244SOL    HW216632   5.807   3.555   6.718
 5245SOL     OW16633   4.464   4.255   6.640
 5245SOL    HW116634   4.541   4.196   6.666
 5245SOL    HW216635   4.452   4.251   6.541
 5246SOL     OW16636   0.808   3.540   2.796
 5246SOL    HW116637   0.762   3.607   2.738
 5246SOL    HW216638   0.873   3.588   2.856
 5247SOL     OW16639   0.146   5.258   0.576
 5247SOL    HW116640   0.165   5.199   0.654
 5247SOL    HW216641   0.068   5.317   0.597
 5248SOL     OW16642   4.740   0.266   6.992
 5248SOL    HW116643   4.835   0.273   7.020
 5248SOL    HW216644   4.728   0.305   6.901
 5249SOL     OW16645   1.513   5.510   5.684
 5249SOL    HW116646   1.458   5.560   5.617
 5249SOL    HW216647   1.582   5.571   5.723
 5250SOL     OW16648   0.646   1.639   5.868
 5250SOL    HW116649   0.592   1.555   5.877
 5250SOL    HW216650   0.708   1.631   5.789
 5251SOL     OW16651   0.605   2.836   1.494
 5251SOL    HW116652   0.510   2.819   1.464
 5251SOL    HW216653   0.604   2.889   1.578
 5252SOL     OW16654   4.351   6.701   0.895
 5252SOL    HW116655   4.263   6.748   0.906
 5252SOL    HW216656   4.342   6.627   0.829
 5253SOL     OW16657   6.036   2.631   3.232
 5253SOL    HW116658   6.054   2.562   3.162
 5253SOL    HW216659   5.950   2.677   3.212
 5254SOL     OW16660   4.392   1.059   4.313
 5254SOL    HW116661   4.315   1.081   4.373
 5254SOL    HW216662   4.451   1.139   4.303
 5255SOL     OW16663   3.619   6.660   4.711
 5255SOL    HW116664   3.559   6.739   4.700
 5255SOL    HW216665   3.590   6.587   4.649
 5256SOL     OW16666   5.516   6.872   2.016
 5256SOL    HW116667   5.517   6.964   2.056
 5256SOL    HW216668   5.588   6.817   2.059
 5257SOL     OW16669   3.546   0.851   2.811
 5257SOL    HW116670   3.544   0.797   2.895
 5257SOL    HW216671   3.519   0.946   2.832
 5258SOL     OW16672   5.952   2.159   1.784
 5258SOL    HW116673   5.944   2.105   1.868
 5258SOL    HW216674   5.947   2.256   1.805
 5259SOL     OW16675   5.470   4.376   1.909
 5259SOL    HW116676   5.557   4.367   1.957
 5259SOL    HW216677   5.410   4.300   1.934
 5260SOL     OW16678   5.278   3.234   2.060
 5260SOL    HW116679   5.365   3.271   2.029
 5260SOL    HW216680   5.206   3.303   2.048
 5261SOL     OW16681   2.515   2.366   4.768
 5261SOL    HW116682   2.497   2.443   4.830
 5261SOL    HW216683   2.587   2.309   4.807
 5262SOL     OW16684   2.288   0.321   2.339
 5262SOL    HW116685   2.224   0.382   2.292
 5262SOL    HW216686   2.255   0.227   2.334
 5263SOL     OW16687   0.712   6.112   0.728
 5263SOL    HW116688   0.790   6.113   0.790
 5263SOL    HW216689   0.744   6.104   0.634
 5264SOL     OW16690   0.649   2.111   0.865
 5264SOL    HW116691   0.745   2.141   0.872
 5264SOL    HW216692   0.645   2.011   0.866
 5265SOL     OW16693   5.979   5.166   2.839
 5265SOL    HW116694   5.880   5.162   2.832
 5265SOL    HW216695   6.010   5.100   2.907
 5266SOL     OW16696   1.265   6.500   1.261
 5266SOL    HW116697   1.345   6.445   1.287
 5266SOL    HW216698   1.255   6.576   1.325
 5267SOL     OW16699   5.128   4.017   4.981
 5267SOL    HW116700   5.112   4.115   4.987
 5267SOL    HW216701   5.044   3.972   4.949
 5268SOL     OW16702   5.879   5.218   5.566
 5268SOL    HW116703   5.878   5.135   5.622
 5268SOL    HW216704   5.973   5.246   5.550
 5269SOL     OW16705   1.223   4.564   5.647
 5269SOL    HW116706   1.201   4.478   5.601
 5269SOL    HW216707   1.305   4.604   5.605
 5270SOL     OW16708   6.767   3.244   2.946
 5270SOL    HW116709   6.710   3.324   2.927
 5270SOL    HW216710   6.712   3.161   2.941
 5271SOL     OW16711   4.965   4.280   5.032
 5271SOL    HW116712   4.896   4.279   5.104
 5271SOL    HW216713   4.923   4.300   4.944
 5272SOL     OW16714   1.791   1.403   4.253
 5272SOL    HW116715   1.776   1.439   4.162
 5272SOL    HW216716   1.729   1.446   4.318
 5273SOL     OW16717   0.880   0.621   5.087
 5273SOL    HW116718   0.851   0.617   5.182
 5273SOL    HW216719   0.977   0.597   5.080
 5274SOL     OW16720   6.898   5.506   4.529
 5274SOL    HW116721   6.942   5.455   4.602
 5274SOL    HW216722   6.902   5.604   4.550
 5275SOL     OW16723   2.081   6.393   6.662
 5275SOL    HW116724   2.022   6.316   6.642
 5275SOL    HW216725   2.104   6.441   6.577
 5276SOL     OW16726   0.340   0.179   0.981
 5276SOL    HW116727   0.374   0.271   0.962
 5276SOL    HW216728   0.273   0.182   1.055
 5277SOL     OW16729   1.355   1.660   2.599
 5277SOL    HW116730   1.454   1.668   2.600
 5277SOL    HW216731   1.314   1.745   2.633
 5278SOL     OW16732   0.476   3.991   6.596
 5278SOL    HW116733   0.545   3.918   6.603
 5278SOL    HW216734   0.386   3.954   6.619
 5279SOL     OW16735   2.228   6.658   6.233
 5279SOL    HW116736   2.181   6.728   6.179
 5279SOL    HW216737   2.283   6.702   6.304
 5280SOL     OW16738   4.910   6.695   5.244
 5280SOL    HW116739   4.918   6.647   5.157
 5280SOL    HW216740   4.857   6.640   5.309
 5281SOL     OW16741   2.496   7.012   5.413
 5281SOL    HW116742   2.539   6.948   5.349
 5281SOL    HW216743   2.564   0.056   5.446
 5282SOL     OW16744   0.868   6.607   1.407
 5282SOL    HW116745   0.777   6.567   1.394
 5282SOL    HW216746   0.929   6.575   1.334
 5283SOL     OW16747   1.033   0.865   3.781
 5283SOL    HW116748   1.041   0.848   3.879
 5283SOL    HW216749   1.020   0.778   3.733
 5284SOL     OW16750   4.615   2.824   1.703
 5284SOL    HW116751   4.602   2.904   1.762
 5284SOL    HW216752   4.639   2.745   1.759
 5285SOL     OW16753   1.330   1.964   4.144
 5285SOL    HW116754   1.270   2.001   4.073
 5285SOL    HW216755   1.425   1.984   4.121
 5286SOL     OW16756   5.801   3.342   1.317
 5286SOL    HW116757   5.855   3.411   1.268
 5286SOL    HW216758   5.860   3.291   1.379
 5287SOL     OW16759   2.080   4.703   0.756
 5287SOL    HW116760   2.090   4.612   0.795
 5287SOL    HW216761   1.985   4.719   0.731
 5288SOL     OW16762   4.268   0.796   1.251
 5288SOL    HW116763   4.201   0.869   1.268
 5288SOL    HW216764   4.232   0.710   1.287
 5289SOL     OW16765   2.529   4.761   6.102
 5289SOL    HW116766   2.453   4.732   6.044
 5289SOL    HW216767   2.609   4.704   6.083
 5290SOL     OW16768   1.926   3.469   4.556
 5290SOL    HW116769   1.900   3.378   4.587
 5290SOL    HW216770   1.881   3.538   4.613
 5291SOL     OW16771   2.810   4.746   4.415
 5291SOL    HW116772   2.777   4.836   4.443
 5291SOL    HW216773   2.777   4.677   4.480
 5292SOL     OW16774   0.411   3.524   5.390
 5292SOL    HW116775   0.410   3.620   5.421
 5292SOL    HW216776   0.386   3.520   5.294
 5293SOL     OW16777   2.199   0.462   4.231
 5293SOL    HW116778   2.243   0.415   4.308
 5293SOL    HW216779   2.111   0.497   4.260
 5294SOL     OW16780   4.104   0.225   5.026
 5294SOL    HW116781   4.133   0.289   4.955
 5294SOL    HW216782   4.092   0.135   4.986
 5295SOL     OW16783   3.003   1.624   2.365
 5295SOL    HW116784   3.096   1.650   2.394
 5295SOL    HW216785   2.938   1.651   2.436
 5296SOL     OW16786   4.833   4.799   1.339
 5296SOL    HW116787   4.769   4.751   1.399
 5296SOL    HW216788   4.803   4.893   1.327
 5297SOL     OW16789   2.800   5.442   6.589
 5297SOL    HW116790   2.766   5.530   6.557
 5297SOL    HW216791   2.802   5.378   6.512
 5298SOL     OW16792   2.187   0.459   0.432
 5298SOL    HW116793   2.163   0.480   0.527
 5298SOL    HW216794   2.114   0.405   0.390
 5299SOL     OW16795   2.451   1.365   1.471
 5299SOL    HW116796   2.402   1.347   1.556
 5299SOL    HW216797   2.533   1.418   1.490
 5300SOL     OW16798   2.884   4.860   6.666
 5300SOL    HW116799   2.904   4.866   6.568
 5300SOL    HW216800   2.919   4.942   6.712
 5301SOL     OW16801   5.830   7.021   5.730
 5301SOL    HW116802   5.787   0.027   5.644
 5301SOL    HW216803   5.928   7.005   5.715
 5302SOL     OW16804   5.581   6.313   3.167
 5302SOL    HW116805   5.508   6.294   3.232
 5302SOL    HW216806   5.659   6.253   3.185
 5303SOL     OW16807   1.070   5.335   6.011
 5303SOL    HW116808   1.115   5.260   6.058
 5303SOL    HW216809   1.069   5.416   6.070
 5304SOL     OW16810   0.061   0.648   2.765
 5304SOL    HW116811   0.033   0.665   2.860
 5304SOL    HW216812   0.097   0.733   2.726
 5305SOL     OW16813   0.407   4.738   3.387
 5305SOL    HW116814   0.463   4.697   3.459
 5305SOL    HW216815   0.391   4.835   3.408
 5306SOL     OW16816   7.015   3.330   5.936
 5306SOL    HW116817   0.067   3.362   5.996
 5306SOL    HW216818   0.031   3.311   5.845
 5307SOL     OW16819   6.649   1.364   1.415
 5307SOL    HW116820   6.635   1.298   1.488
 5307SOL    HW216821   6.699   1.320   1.340
 5308SOL     OW16822   1.452   4.166   3.104
 5308SOL    HW116823   1.517   4.199   3.172
 5308SOL    HW216824   1.439   4.067   3.115
 5309SOL     OW16825   6.239   5.612   2.832
 5309SOL    HW116826   6.221   5.521   2.795
 5309SOL    HW216827   6.330   5.642   2.804
 5310SOL     OW16828   5.198   2.674   2.644
 5310SOL    HW116829   5.180   2.760   2.597
 5310SOL    HW216830   5.178   2.597   2.584
 5311SOL     OW16831   5.739   0.227   0.811
 5311SOL    HW116832   5.724   0.162   0.886
 5311SOL    HW216833   5.771   0.178   0.730
 5312SOL     OW16834   7.012   6.691   0.206
 5312SOL    HW116835   0.069   6.738   0.247
 5312SOL    HW216836   6.928   6.720   0.252
 5313SOL     OW16837   0.970   6.084   5.936
 5313SOL    HW116838   0.925   6.145   6.001
 5313SOL    HW216839   0.927   6.095   5.846
 5314SOL     OW16840   6.086   0.949   1.891
 5314SOL    HW116841   6.145   0.899   1.954
 5314SOL    HW216842   6.113   0.928   1.797
 5315SOL     OW16843   4.737   1.575   4.374
 5315SOL    HW116844   4.690   1.569   4.286
 5315SOL    HW216845   4.832   1.544   4.364
 5316SOL     OW16846   0.726   2.071   4.205
 5316SOL    HW116847   0.681   2.078   4.116
 5316SOL    HW216848   0.820   2.042   4.192
 5317SOL     OW16849   6.159   2.790   6.756
 5317SOL    HW116850   6.108   2.831   6.831
 5317SOL    HW216851   6.126   2.827   6.669
 5318SOL     OW16852   6.760   3.932   6.656
 5318SOL    HW116853   6.703   3.925   6.574
 5318SOL    HW216854   6.856   3.932   6.630
 5319SOL     OW16855   4.220   6.856   1.755
 5319SOL    HW116856   4.207   6.797   1.675
 5319SOL    HW216857   4.264   6.941   1.726
 5320SOL     OW16858   3.718   5.663   0.943
 5320SOL    HW116859   3.751   5.571   0.922
 5320SOL    HW216860   3.618   5.663   0.943
 5321SOL     OW16861   1.488   4.429   4.961
 5321SOL    HW116862   1.418   4.369   4.923
 5321SOL    HW216863   1.519   4.494   4.891
 5322SOL     OW16864   5.317   6.688   2.010
 5322SOL    HW116865   5.367   6.771   2.031
 5322SOL    HW216866   5.249   6.707   1.939
 5323SOL     OW16867   3.871   0.859   6.063
 5323SOL    HW116868   3.783   0.903   6.078
 5323SOL    HW216869   3.935   0.925   6.024
 5324SOL     OW16870   1.987   1.307   1.026
 5324SOL    HW116871   1.908   1.289   0.967
 5324SOL    HW216872   2.038   1.222   1.041
 5325SOL     OW16873   2.065   1.709   4.996
 5325SOL    HW116874   1.987   1.700   5.058
 5325SOL    HW216875   2.135   1.766   5.038
 5326SOL     OW16876   6.342   5.962   2.074
 5326SOL    HW116877   6.393   6.017   2.140
 5326SOL    HW216878   6.333   6.014   1.988
 5327SOL     OW16879   6.263   2.550   5.227
 5327SOL    HW116880   6.328   2.484   5.262
 5327SOL    HW216881   6.176   2.540   5.275
 5328SOL     OW16882   4.349   4.996   6.582
 5328SOL    HW116883   4.321   5.040   6.666
 5328SOL    HW216884   4.429   5.043   6.545
 5329SOL     OW16885   1.338   6.568   6.513
 5329SOL    HW116886   1.396   6.587   6.592
 5329SOL    HW216887   1.299   6.653   6.478
 5330SOL     OW16888   2.524   4.244   0.698
 5330SOL    HW116889   2.531   4.163   0.640
 5330SOL    HW216890   2.460   4.225   0.773
 5331SOL     OW16891   6.206   0.898   6.560
 5331SOL    HW116892   6.269   0.973   6.579
 5331SOL    HW216893   6.243   0.812   6.596
 5332SOL     OW16894   1.110   5.027   2.048
 5332SOL    HW116895   1.010   5.029   2.057
 5332SOL    HW216896   1.145   4.942   2.087
 5333SOL     OW16897   0.811   6.232   4.207
 5333SOL    HW116898   0.854   6.323   4.212
 5333SOL    HW216899   0.732   6.235   4.146
 5334SOL     OW16900   2.727   0.485   4.417
 5334SOL    HW116901   2.728   0.417   4.343
 5334SOL    HW216902   2.764   0.444   4.500
 5335SOL     OW16903   6.614   5.712   0.191
 5335SOL    HW116904   6.579   5.742   0.102
 5335SOL    HW216905   6.697   5.763   0.213
 5336SOL     OW16906   1.182   3.834   1.512
 5336SOL    HW116907   1.154   3.791   1.426
 5336SOL    HW216908   1.101   3.867   1.561
 5337SOL     OW16909   5.148   4.383   1.265
 5337SOL    HW116910   5.093   4.466   1.259
 5337SOL    HW216911   5.231   4.401   1.317
 5338SOL     OW16912   6.380   2.051   6.637
 5338SOL    HW116913   6.335   2.122   6.582
 5338SOL    HW216914   6.403   1.973   6.578
 5339SOL     OW16915   6.284   0.946   3.023
 5339SOL    HW116916   6.250   1.039   3.016
 5339SOL    HW216917   6.359   0.933   2.958
 5340SOL     OW16918   5.417   2.097   6.060
 5340SOL    HW116919   5.449   2.103   5.965
 5340SOL    HW216920   5.495   2.086   6.121
 5341SOL     OW16921   4.488   0.208   0.476
 5341SOL    HW116922   4.532   0.177   0.392
 5341SOL    HW216923   4.467   0.306   0.469
 5342SOL     OW16924   2.875   1.013   5.659
 5342SOL    HW116925   2.898   0.961   5.741
 5342SOL    HW216926   2.858   1.108   5.684
 5343SOL     OW16927   3.648   3.836   2.163
 5343SOL    HW116928   3.660   3.863   2.259
 5343SOL    HW216929   3.553   3.813   2.147
 5344SOL     OW16930   2.613   2.154   3.166
 5344SOL    HW116931   2.556   2.085   3.210
 5344SOL    HW216932   2.612   2.140   3.067
 5345SOL     OW16933   4.506   6.692   1.856
 5345SOL    HW116934   4.480   6.680   1.760
 5345SOL    HW216935   4.488   6.606   1.905
 5346SOL     OW16936   2.580   6.563   3.148
 5346SOL    HW116937   2.619   6.605   3.230
 5346SOL    HW216938   2.507   6.500   3.173
 5347SOL     OW16939   6.995   1.651   2.049
 5347SOL    HW116940   7.021   1.554   2.042
 5347SOL    HW216941   6.900   1.657   2.078
 5348SOL     OW16942   0.219   1.076   0.398
 5348SOL    HW116943   0.287   1.003   0.388
 5348SOL    HW216944   0.128   1.038   0.387
 5349SOL     OW16945   6.287   0.863   1.683
 5349SOL    HW116946   6.361   0.856   1.751
 5349SOL    HW216947   6.292   0.953   1.640
 5350SOL     OW16948   2.496   1.223   6.717
 5350SOL    HW116949   2.487   1.316   6.683
 5350SOL    HW216950   2.420   1.167   6.685
 5351SOL     OW16951   4.731   0.819   2.164
 5351SOL    HW116952   4.660   0.804   2.233
 5351SOL    HW216953   4.781   0.903   2.185
 5352SOL     OW16954   3.325   5.957   3.655
 5352SOL    HW116955   3.316   5.943   3.753
 5352SOL    HW216956   3.370   5.877   3.614
 5353SOL     OW16957   5.917   6.714   5.498
 5353SOL    HW116958   5.848   6.762   5.551
 5353SOL    HW216959   5.918   6.618   5.525
 5354SOL     OW16960   0.817   3.844   0.877
 5354SOL    HW116961   0.758   3.924   0.882
 5354SOL    HW216962   0.767   3.767   0.837
 5355SOL     OW16963   4.183   2.001   5.236
 5355SOL    HW116964   4.246   2.014   5.312
 5355SOL    HW216965   4.093   1.976   5.271
 5356SOL     OW16966   6.202   3.719   1.257
 5356SOL    HW116967   6.237   3.701   1.165
 5356SOL    HW216968   6.223   3.641   1.316
 5357SOL     OW16969   3.634   6.425   0.645
 5357SOL    HW116970   3.586   6.510   0.622
 5357SOL    HW216971   3.661   6.379   0.561
 5358SOL     OW16972   4.677   2.672   0.891
 5358SOL    HW116973   4.678   2.596   0.957
 5358SOL    HW216974   4.595   2.727   0.906
 5359SOL     OW16975   2.127   0.680   6.431
 5359SOL    HW116976   2.123   0.770   6.388
 5359SOL    HW216977   2.186   0.684   6.512
 5360SOL     OW16978   3.616   0.143   6.723
 5360SOL    HW116979   3.642   0.191   6.807
 5360SOL    HW216980   3.550   0.197   6.672
 5361SOL     OW16981   1.787   0.551   5.593
 5361SOL    HW116982   1.842   0.633   5.581
 5361SOL    HW216983   1.736   0.557   5.679
 5362SOL     OW16984   4.320   5.837   3.154
 5362SOL    HW116985   4.395   5.816   3.217
 5362SOL    HW216986   4.235   5.847   3.205
 5363SOL     OW16987   0.431   5.267   6.087
 5363SOL    HW116988   0.508   5.207   6.062
 5363SOL    HW216989   0.401   5.246   6.180
 5364SOL     OW16990   0.555   6.221   0.388
 5364SOL    HW116991   0.628   6.245   0.324
 5364SOL    HW216992   0.542   6.296   0.453
 5365SOL     OW16993   4.093   2.094   6.457
 5365SOL    HW116994   4.108   2.168   6.523
 5365SOL    HW216995   4.173   2.085   6.399
 5366SOL     OW16996   3.968   3.600   0.158
 5366SOL    HW116997   4.025   3.610   0.077
 5366SOL    HW216998   3.947   3.690   0.196
 5367SOL     OW16999   0.206   4.459   0.979
 5367SOL    HW117000   0.194   4.545   1.030
 5367SOL    HW217001   0.197   4.477   0.881
 5368SOL     OW17002   6.300   1.746   4.022
 5368SOL    HW117003   6.332   1.706   4.107
 5368SOL    HW217004   6.364   1.818   3.992
 5369SOL     OW17005   1.843   4.039   2.345
 5369SOL    HW117006   1.929   4.077   2.378
 5369SOL    HW217007   1.776   4.112   2.332
 5370SOL     OW17008   3.996   2.807   1.499
 5370SOL    HW117009   4.034   2.833   1.588
 5370SOL    HW217010   3.896   2.797   1.507
 5371SOL     OW17011   1.122   3.896   5.469
 5371SOL    HW117012   1.061   3.826   5.433
 5371SOL    HW217013   1.214   3.858   5.479
 5372SOL     OW17014   2.346   5.188   3.040
 5372SOL    HW117015   2.284   5.187   3.118
 5372SOL    HW217016   2.416   5.117   3.052
 5373SOL     OW17017   2.746   5.140   3.285
 5373SOL    HW117018   2.691   5.059   3.304
 5373SOL    HW217019   2.780   5.137   3.191
 5374SOL     OW17020   3.148   2.001   0.604
 5374SOL    HW117021   3.067   1.957   0.642
 5374SOL    HW217022   3.179   2.073   0.666
 5375SOL     OW17023   1.964   4.911   3.709
 5375SOL    HW117024   1.952   4.963   3.625
 5375SOL    HW217025   1.879   4.863   3.732
 5376SOL     OW17026   2.255   3.966   0.844
 5376SOL    HW117027   2.196   3.928   0.915
 5376SOL    HW217028   2.351   3.952   0.870
 5377SOL     OW17029   0.708   1.619   1.474
 5377SOL    HW117030   0.618   1.586   1.445
 5377SOL    HW217031   0.700   1.663   1.563
 5378SOL     OW17032   5.257   0.331   0.372
 5378SOL    HW117033   5.195   0.278   0.314
 5378SOL    HW217034   5.258   0.426   0.342
 5379SOL     OW17035   0.091   6.481   1.679
 5379SOL    HW117036   0.024   6.489   1.753
 5379SOL    HW217037   0.174   6.438   1.714
 5380SOL     OW17038   2.888   0.134   4.175
 5380SOL    HW117039   2.825   0.204   4.144
 5380SOL    HW217040   2.922   0.082   4.095
 5381SOL     OW17041   5.675   4.132   1.541
 5381SOL    HW117042   5.753   4.075   1.565
 5381SOL    HW217043   5.691   4.176   1.453
 5382SOL     OW17044   1.642   0.069   1.602
 5382SOL    HW117045   1.674   0.145   1.659
 5382SOL    HW217046   1.690   7.007   1.628
 5383SOL     OW17047   2.387   2.207   5.202
 5383SOL    HW117048   2.335   2.130   5.163
 5383SOL    HW217049   2.413   2.186   5.296
 5384SOL     OW17050   5.926   6.730   4.366
 5384SOL    HW117051   5.847   6.713   4.425
 5384SOL    HW217052   5.942   6.650   4.308
 5385SOL     OW17053   3.576   4.174   2.272
 5385SOL    HW117054   3.478   4.154   2.278
 5385SOL    HW217055   3.591   4.272   2.277
 5386SOL     OW17056   5.215   6.526   5.553
 5386SOL    HW117057   5.298   6.556   5.507
 5386SOL    HW217058   5.137   6.579   5.518
 5387SOL     OW17059   2.721   5.559   1.879
 5387SOL    HW117060   2.697   5.598   1.968
 5387SOL    HW217061   2.818   5.573   1.861
 5388SOL     OW17062   5.688   0.163   2.645
 5388SOL    HW117063   5.738   0.085   2.683
 5388SOL    HW217064   5.742   0.203   2.570
 5389SOL     OW17065   5.037   2.095   1.380
 5389SOL    HW117066   5.037   2.049   1.469
 5389SOL    HW217067   4.972   2.049   1.319
 5390SOL     OW17068   6.032   4.873   5.837
 5390SOL    HW117069   6.039   4.912   5.745
 5390SOL    HW217070   5.949   4.818   5.843
 5391SOL     OW17071   2.535   2.942   6.839
 5391SOL    HW117072   2.542   3.018   6.775
 5391SOL    HW217073   2.587   2.962   6.922
 5392SOL     OW17074   6.422   2.943   2.416
 5392SOL    HW117075   6.411   3.032   2.372
 5392SOL    HW217076   6.481   2.885   2.360
 5393SOL     OW17077   6.030   0.027   6.753
 5393SOL    HW117078   6.072   6.960   6.733
 5393SOL    HW217079   6.062   0.096   6.687
 5394SOL     OW17080   0.992   4.100   6.142
 5394SOL    HW117081   0.952   4.187   6.114
 5394SOL    HW217082   0.931   4.025   6.116
 5395SOL     OW17083   4.670   1.352   0.484
 5395SOL    HW117084   4.596   1.317   0.426
 5395SOL    HW217085   4.685   1.449   0.464
 5396SOL     OW17086   5.347   3.170   2.723
 5396SOL    HW117087   5.333   3.267   2.737
 5396SOL    HW217088   5.269   3.131   2.675
 5397SOL     OW17089   0.012   2.771   1.392
 5397SOL    HW117090   6.944   2.726   1.382
 5397SOL    HW217091   0.006   2.843   1.460
 5398SOL     OW17092   3.710   2.921   1.797
 5398SOL    HW117093   3.716   2.890   1.702
 5398SOL    HW217094   3.803   2.933   1.833
 5399SOL     OW17095   1.089   5.621   0.561
 5399SOL    HW117096   1.122   5.627   0.655
 5399SOL    HW217097   1.133   5.544   0.515
 5400SOL     OW17098   2.866   4.769   0.135
 5400SOL    HW117099   2.771   4.799   0.123
 5400SOL    HW217100   2.881   4.686   0.081
 5401SOL     OW17101   6.062   2.902   1.250
 5401SOL    HW117102   6.036   2.998   1.255
 5401SOL    HW217103   6.142   2.887   1.308
 5402SOL     OW17104   1.721   6.328   2.530
 5402SOL    HW117105   1.775   6.394   2.478
 5402SOL    HW217106   1.675   6.374   2.605
 5403SOL     OW17107   6.925   2.879   6.658
 5403SOL    HW117108   6.841   2.923   6.688
 5403SOL    HW217109   6.932   2.788   6.700
 5404SOL     OW17110   1.632   3.240   2.839
 5404SOL    HW117111   1.648   3.321   2.895
 5404SOL    HW217112   1.630   3.159   2.898
 5405SOL     OW17113   6.740   4.402   6.071
 5405SOL    HW117114   6.666   4.358   6.122
 5405SOL    HW217115   6.706   4.487   6.031
 5406SOL     OW17116   1.986   0.139   5.374
 5406SOL    HW117117   1.997   0.235   5.399
 5406SOL    HW217118   2.055   0.114   5.306
 5407SOL     OW17119   3.780   3.754   6.954
 5407SOL    HW117120   3.705   3.764   6.889
 5407SOL    HW217121   3.781   3.660   6.989
 5408SOL     OW17122   2.896   0.988   0.044
 5408SOL    HW117123   2.902   1.078   0.000
 5408SOL    HW217124   2.981   0.938   0.028
 5409SOL     OW17125   3.709   1.110   2.641
 5409SOL    HW117126   3.741   1.020   2.669
 5409SOL    HW217127   3.694   1.112   2.542
 5410SOL     OW17128   2.161   2.274   2.205
 5410SOL    HW117129   2.099   2.330   2.260
 5410SOL    HW217130   2.243   2.253   2.258
 5411SOL     OW17131   0.690   5.302   4.877
 5411SOL    HW117132   0.680   5.214   4.831
 5411SOL    HW217133   0.616   5.363   4.848
 5412SOL     OW17134   5.922   2.697   0.980
 5412SOL    HW117135   5.986   2.724   0.908
 5412SOL    HW217136   5.957   2.617   1.028
 5413SOL     OW17137   2.336   0.248   1.880
 5413SOL    HW117138   2.393   0.191   1.939
 5413SOL    HW217139   2.389   0.277   1.800
 5414SOL     OW17140   3.779   0.655   5.671
 5414SOL    HW117141   3.824   0.744   5.680
 5414SOL    HW217142   3.837   0.585   5.713
 5415SOL     OW17143   5.892   4.950   2.077
 5415SOL    HW117144   5.970   4.953   2.139
 5415SOL    HW217145   5.807   4.947   2.131
 5416SOL     OW17146   4.463   5.658   4.455
 5416SOL    HW117147   4.400   5.683   4.381
 5416SOL    HW217148   4.439   5.567   4.489
 5417SOL     OW17149   3.131   6.730   5.293
 5417SOL    HW117150   3.103   6.821   5.324
 5417SOL    HW217151   3.173   6.737   5.202
 5418SOL     OW17152   3.838   0.106   2.853
 5418SOL    HW117153   3.933   0.077   2.869
 5418SOL    HW217154   3.780   0.070   2.926
 5419SOL     OW17155   3.295   4.083   6.613
 5419SOL    HW117156   3.208   4.128   6.590
 5419SOL    HW217157   3.331   4.037   6.532
 5420SOL     OW17158   1.270   1.554   2.892
 5420SOL    HW117159   1.253   1.627   2.826
 5420SOL    HW217160   1.188   1.497   2.901
 5421SOL     OW17161   1.186   3.536   1.548
 5421SOL    HW117162   1.187   3.636   1.552
 5421SOL    HW217163   1.279   3.502   1.530
 5422SOL     OW17164   2.140   3.683   0.789
 5422SOL    HW117165   2.082   3.610   0.825
 5422SOL    HW217166   2.232   3.675   0.826
 5423SOL     OW17167   6.327   3.769   6.827
 5423SOL    HW117168   6.268   3.693   6.798
 5423SOL    HW217169   6.327   3.774   6.927
 5424SOL     OW17170   5.378   4.235   5.231
 5424SOL    HW117171   5.460   4.201   5.184
 5424SOL    HW217172   5.351   4.171   5.302
 5425SOL     OW17173   4.952   0.435   4.493
 5425SOL    HW117174   4.887   0.511   4.491
 5425SOL    HW217175   5.013   0.443   4.414
 5426SOL     OW17176   6.398   0.339   5.619
 5426SOL    HW117177   6.449   0.258   5.589
 5426SOL    HW217178   6.310   0.342   5.571
 5427SOL     OW17179   4.149   5.988   6.958
 5427SOL    HW117180   4.131   6.087   6.950
 5427SOL    HW217181   4.177   5.966   0.030
 5428SOL     OW17182   1.174   0.640   6.863
 5428SOL    HW117183   1.162   0.541   6.874
 5428SOL    HW217184   1.262   0.657   6.819
 5429SOL     OW17185   1.663   2.637   6.766
 5429SOL    HW117186   1.603   2.584   6.706
 5429SOL    HW217187   1.660   2.599   6.858
 5430SOL     OW17188   2.429   2.496   5.572
 5430SOL    HW117189   2.517   2.514   5.616
 5430SOL    HW217190   2.414   2.562   5.499
 5431SOL     OW17191   3.674   6.011   4.790
 5431SOL    HW117192   3.728   6.014   4.875
 5431SOL    HW217193   3.726   6.055   4.717
 5432SOL     OW17194   5.441   6.355   1.140
 5432SOL    HW117195   5.459   6.446   1.101
 5432SOL    HW217196   5.388   6.365   1.224
 5433SOL     OW17197   0.305   1.760   4.256
 5433SOL    HW117198   0.280   1.714   4.341
 5433SOL    HW217199   0.390   1.811   4.270
 5434SOL     OW17200   2.856   6.897   5.605
 5434SOL    HW117201   2.909   6.887   5.689
 5434SOL    HW217202   2.917   6.921   5.529
 5435SOL     OW17203   4.496   1.087   1.942
 5435SOL    HW117204   4.439   1.169   1.943
 5435SOL    HW217205   4.532   1.073   1.850
 5436SOL     OW17206   5.393   4.050   2.423
 5436SOL    HW117207   5.306   4.099   2.430
 5436SOL    HW217208   5.464   4.102   2.470
 5437SOL     OW17209   3.045   3.331   6.656
 5437SOL    HW117210   3.138   3.363   6.674
 5437SOL    HW217211   3.048   3.249   6.598
 5438SOL     OW17212   6.544   1.888   1.351
 5438SOL    HW117213   6.499   1.955   1.291
 5438SOL    HW217214   6.625   1.852   1.305
 5439SOL     OW17215   1.352   2.349   1.497
 5439SOL    HW117216   1.297   2.409   1.439
 5439SOL    HW217217   1.425   2.402   1.540
 5440SOL     OW17218   1.552   2.231   0.925
 5440SOL    HW117219   1.575   2.134   0.924
 5440SOL    HW217220   1.484   2.249   0.997
 5441SOL     OW17221   3.676   1.678   3.895
 5441SOL    HW117222   3.683   1.670   3.796
 5441SOL    HW217223   3.581   1.695   3.921
 5442SOL     OW17224   4.007   0.680   2.786
 5442SOL    HW117225   4.068   0.630   2.725
 5442SOL    HW217226   3.968   0.759   2.738
 5443SOL     OW17227   3.290   6.658   5.067
 5443SOL    HW117228   3.254   6.587   5.007
 5443SOL    HW217229   3.390   6.661   5.060
 5444SOL     OW17230   6.907   6.982   3.407
 5444SOL    HW117231   6.863   6.921   3.473
 5444SOL    HW217232   6.956   6.926   3.339
 5445SOL     OW17233   5.394   3.767   2.368
 5445SOL    HW117234   5.405   3.862   2.399
 5445SOL    HW217235   5.407   3.705   2.446
 5446SOL     OW17236   6.408   5.281   5.714
 5446SOL    HW117237   6.315   5.317   5.726
 5446SOL    HW217238   6.473   5.339   5.762
 5447SOL     OW17239   3.494   1.841   0.745
 5447SOL    HW117240   3.467   1.767   0.806
 5447SOL    HW217241   3.428   1.848   0.669
 5448SOL     OW17242   5.497   2.425   5.677
 5448SOL    HW117243   5.504   2.398   5.581
 5448SOL    HW217244   5.585   2.460   5.709
 5449SOL     OW17245   0.764   3.460   6.646
 5449SOL    HW117246   0.853   3.489   6.682
 5449SOL    HW217247   0.765   3.361   6.631
 5450SOL     OW17248   1.873   0.024   0.830
 5450SOL    HW117249   1.948   0.085   0.805
 5450SOL    HW217250   1.887   7.012   0.923
 5451SOL     OW17251   1.463   0.346   2.486
 5451SOL    HW117252   1.532   0.279   2.513
 5451SOL    HW217253   1.418   0.383   2.567
 5452SOL     OW17254   2.903   3.842   5.817
 5452SOL    HW117255   2.935   3.766   5.873
 5452SOL    HW217256   2.806   3.830   5.797
 5453SOL     OW17257   6.273   4.964   6.748
 5453SOL    HW117258   6.261   4.927   6.656
 5453SOL    HW217259   6.216   4.913   6.812
 5454SOL     OW17260   0.048   4.592   6.745
 5454SOL    HW117261   0.014   4.636   6.828
 5454SOL    HW217262   0.054   4.494   6.759
 5455SOL     OW17263   6.233   3.159   1.383
 5455SOL    HW117264   6.279   3.197   1.463
 5455SOL    HW217265   6.281   3.076   1.354
 5456SOL     OW17266   3.556   6.726   0.658
 5456SOL    HW117267   3.636   6.735   0.598
 5456SOL    HW217268   3.510   6.815   0.664
 5457SOL     OW17269   6.365   3.826   0.622
 5457SOL    HW117270   6.379   3.727   0.627
 5457SOL    HW217271   6.403   3.861   0.537
 5458SOL     OW17272   2.419   4.137   6.970
 5458SOL    HW117273   2.454   4.062   6.913
 5458SOL    HW217274   2.395   4.101   0.039
 5459SOL     OW17275   2.182   5.085   5.739
 5459SOL    HW117276   2.256   5.147   5.765
 5459SOL    HW217277   2.207   4.991   5.762
 5460SOL     OW17278   3.282   0.501   1.183
 5460SOL    HW117279   3.366   0.541   1.147
 5460SOL    HW217280   3.297   0.470   1.277
 5461SOL     OW17281   4.379   6.728   5.163
 5461SOL    HW117282   4.326   6.800   5.207
 5461SOL    HW217283   4.358   6.726   5.066
 5462SOL     OW17284   0.965   0.159   1.220
 5462SOL    HW117285   1.065   0.165   1.220
 5462SOL    HW217286   0.937   0.071   1.182
 5463SOL     OW17287   0.153   2.722   0.632
 5463SOL    HW117288   0.143   2.721   0.532
 5463SOL    HW217289   0.251   2.722   0.655
 5464SOL     OW17290   2.096   0.174   4.210
 5464SOL    HW117291   2.149   0.222   4.140
 5464SOL    HW217292   2.150   0.167   4.294
 5465SOL     OW17293   2.667   6.651   5.540
 5465SOL    HW117294   2.701   6.745   5.543
 5465SOL    HW217295   2.743   6.588   5.553
 5466SOL     OW17296   4.762   4.374   4.416
 5466SOL    HW117297   4.682   4.433   4.406
 5466SOL    HW217298   4.761   4.303   4.346
 5467SOL     OW17299   5.918   1.661   1.962
 5467SOL    HW117300   5.871   1.587   1.914
 5467SOL    HW217301   6.002   1.686   1.914
 5468SOL     OW17302   4.339   1.452   5.503
 5468SOL    HW117303   4.406   1.520   5.531
 5468SOL    HW217304   4.275   1.494   5.438
 5469SOL     OW17305   4.316   4.513   6.427
 5469SOL    HW117306   4.347   4.477   6.340
 5469SOL    HW217307   4.360   4.601   6.445
 5470SOL     OW17308   1.317   5.428   3.387
 5470SOL    HW117309   1.342   5.501   3.451
 5470SOL    HW217310   1.324   5.462   3.294
 5471SOL     OW17311   5.952   5.365   2.201
 5471SOL    HW117312   5.937   5.292   2.134
 5471SOL    HW217313   6.011   5.332   2.274
 5472SOL     OW17314   3.843   5.009   5.423
 5472SOL    HW117315   3.851   5.066   5.505
 5472SOL    HW217316   3.895   4.924   5.436
 5473SOL     OW17317   1.118   3.145   3.632
 5473SOL    HW117318   1.202   3.158   3.683
 5473SOL    HW217319   1.138   3.100   3.545
 5474SOL     OW17320   2.264   5.967   3.285
 5474SOL    HW117321   2.188   5.942   3.346
 5474SOL    HW217322   2.241   5.942   3.191
 5475SOL     OW17323   3.206   2.523   1.414
 5475SOL    HW117324   3.213   2.500   1.510
 5475SOL    HW217325   3.297   2.545   1.378
 5476SOL     OW17326   1.253   3.412   5.805
 5476SOL    HW117327   1.283   3.446   5.894
 5476SOL    HW217328   1.178   3.346   5.818
 5477SOL     OW17329   2.008   3.210   2.439
 5477SOL    HW117330   1.928   3.228   2.497
 5477SOL    HW217331   2.053   3.126   2.469
 5478SOL     OW17332   6.538   5.999   6.102
 5478SOL    HW117333   6.589   5.919   6.134
 5478SOL    HW217334   6.581   6.035   6.020
 5479SOL     OW17335   4.820   0.580   4.837
 5479SOL    HW117336   4.802   0.487   4.804
 5479SOL    HW217337   4.858   0.575   4.929
 5480SOL     OW17338   0.068   3.688   4.489
 5480SOL    HW117339   0.100   3.782   4.482
 5480SOL    HW217340   0.147   3.626   4.489
 5481SOL     OW17341   4.956   6.632   4.311
 5481SOL    HW117342   4.918   6.567   4.376
 5481SOL    HW217343   4.893   6.643   4.234
 5482SOL     OW17344   1.603   4.558   1.541
 5482SOL    HW117345   1.545   4.513   1.609
 5482SOL    HW217346   1.577   4.528   1.450
 5483SOL     OW17347   0.450   2.892   5.993
 5483SOL    HW117348   0.359   2.931   6.008
 5483SOL    HW217349   0.443   2.811   5.935
 5484SOL     OW17350   4.599   0.109   5.116
 5484SOL    HW117351   4.647   0.185   5.159
 5484SOL    HW217352   4.660   0.030   5.111
 5485SOL     OW17353   3.069   0.216   4.797
 5485SOL    HW117354   2.996   0.161   4.837
 5485SOL    HW217355   3.084   0.188   4.702
 5486SOL     OW17356   2.575   5.706   5.119
 5486SOL    HW117357   2.603   5.626   5.066
 5486SOL    HW217358   2.633   5.716   5.199
 5487SOL     OW17359   3.160   5.326   5.465
 5487SOL    HW117360   3.243   5.280   5.433
 5487SOL    HW217361   3.162   5.333   5.565
 5488SOL     OW17362   5.358   2.498   0.937
 5488SOL    HW117363   5.436   2.546   0.977
 5488SOL    HW217364   5.363   2.504   0.837
 5489SOL     OW17365   6.537   3.863   3.201
 5489SOL    HW117366   6.440   3.845   3.212
 5489SOL    HW217367   6.585   3.838   3.285
 5490SOL     OW17368   1.476   6.241   2.902
 5490SOL    HW117369   1.513   6.156   2.940
 5490SOL    HW217370   1.382   6.253   2.933
 5491SOL     OW17371   6.527   4.433   0.754
 5491SOL    HW117372   6.622   4.455   0.729
 5491SOL    HW217373   6.466   4.468   0.683
 5492SOL     OW17374   6.807   1.882   5.945
 5492SOL    HW117375   6.848   1.791   5.940
 5492SOL    HW217376   6.851   1.933   6.019
 5493SOL     OW17377   3.666   3.952   0.896
 5493SOL    HW117378   3.664   3.855   0.873
 5493SOL    HW217379   3.682   3.962   0.995
 5494SOL     OW17380   6.229   3.719   5.793
 5494SOL    HW117381   6.169   3.752   5.721
 5494SOL    HW217382   6.299   3.788   5.812
 5495SOL     OW17383   5.855   6.898   0.362
 5495SOL    HW117384   5.864   6.997   0.360
 5495SOL    HW217385   5.769   6.873   0.407
 5496SOL     OW17386   4.072   0.060   4.059
 5496SOL    HW117387   4.132   0.066   3.979
 5496SOL    HW217388   3.980   0.034   4.029
 5497SOL     OW17389   0.923   0.649   5.530
 5497SOL    HW117390   0.859   0.590   5.482
 5497SOL    HW217391   0.873   0.704   5.598
 5498SOL     OW17392   0.727   5.532   0.989
 5498SOL    HW117393   0.679   5.609   0.946
 5498SOL    HW217394   0.816   5.519   0.946
 5499SOL     OW17395   1.792   0.161   4.510
 5499SOL    HW117396   1.854   0.115   4.574
 5499SOL    HW217397   1.728   0.093   4.472
 5500SOL     OW17398   2.562   0.393   0.935
 5500SOL    HW117399   2.626   0.394   1.011
 5500SOL    HW217400   2.474   0.356   0.966
 5501SOL     OW17401   3.385   3.849   6.941
 5501SOL    HW117402   3.372   3.833   6.844
 5501SOL    HW217403   3.447   3.928   6.953
 5502SOL     OW17404   4.423   3.107   0.224
 5502SOL    HW117405   4.433   3.008   0.213
 5502SOL    HW217406   4.491   3.140   0.290
 5503SOL     OW17407   6.294   3.701   0.997
 5503SOL    HW117408   6.383   3.700   1.043
 5503SOL    HW217409   6.298   3.646   0.914
 5504SOL     OW17410   3.826   1.825   0.046
 5504SOL    HW117411   3.777   1.738   0.031
 5504SOL    HW217412   3.785   1.896   7.011
 5505SOL     OW17413   3.165   4.912   3.473
 5505SOL    HW117414   3.084   4.944   3.520
 5505SOL    HW217415   3.244   4.916   3.535
 5506SOL     OW17416   0.116   3.274   5.646
 5506SOL    HW117417   0.205   3.230   5.633
 5506SOL    HW217418   0.125   3.373   5.633
 5507SOL     OW17419   3.226   0.147   6.652
 5507SOL    HW117420   3.171   0.108   6.579
 5507SOL    HW217421   3.313   0.099   6.658
 5508SOL     OW17422   6.756   0.831   6.345
 5508SOL    HW117423   6.828   0.775   6.303
 5508SOL    HW217424   6.674   0.828   6.288
 5509SOL     OW17425   6.435   4.895   0.549
 5509SOL    HW117426   6.393   4.985   0.553
 5509SOL    HW217427   6.373   4.830   0.506
 5510SOL     OW17428   4.902   5.100   6.897
 5510SOL    HW117429   4.804   5.121   6.905
 5510SOL    HW217430   4.930   5.044   6.975
 5511SOL     OW17431   0.432   2.663   5.835
 5511SOL    HW117432   0.359   2.622   5.889
 5511SOL    HW217433   0.412   2.653   5.737
 5512SOL     OW17434   2.557   0.566   2.428
 5512SOL    HW117435   2.558   0.467   2.442
 5512SOL    HW217436   2.651   0.600   2.433
 5513SOL     OW17437   3.718   4.012   0.459
 5513SOL    HW117438   3.803   4.050   0.496
 5513SOL    HW217439   3.722   4.012   0.359
 5514SOL     OW17440   3.188   1.187   0.292
 5514SOL    HW117441   3.209   1.092   0.316
 5514SOL    HW217442   3.090   1.196   0.276
 5515SOL     OW17443   2.683   5.527   2.609
 5515SOL    HW117444   2.727   5.554   2.694
 5515SOL    HW217445   2.735   5.452   2.567
 5516SOL     OW17446   1.970   2.036   5.311
 5516SOL    HW117447   1.992   2.041   5.214
 5516SOL    HW217448   2.053   2.049   5.365
 5517SOL     OW17449   1.276   2.143   3.135
 5517SOL    HW117450   1.284   2.233   3.178
 5517SOL    HW217451   1.334   2.140   3.054
 5518SOL     OW17452   4.827   5.081   6.577
 5518SOL    HW117453   4.900   5.082   6.509
 5518SOL    HW217454   4.863   5.110   6.665
 5519SOL     OW17455   5.164   2.667   4.222
 5519SOL    HW117456   5.166   2.733   4.298
 5519SOL    HW217457   5.234   2.597   4.237
 5520SOL     OW17458   5.173   0.542   1.313
 5520SOL    HW117459   5.164   0.585   1.402
 5520SOL    HW217460   5.084   0.539   1.268
 5521SOL     OW17461   4.729   6.725   2.494
 5521SOL    HW117462   4.758   6.652   2.431
 5521SOL    HW217463   4.807   6.786   2.512
 5522SOL     OW17464   6.126   5.808   1.207
 5522SOL    HW117465   6.206   5.853   1.247
 5522SOL    HW217466   6.148   5.774   1.116
 5523SOL     OW17467   5.290   1.801   0.492
 5523SOL    HW117468   5.389   1.784   0.483
 5523SOL    HW217469   5.272   1.843   0.581
 5524SOL     OW17470   2.680   1.405   3.648
 5524SOL    HW117471   2.732   1.416   3.732
 5524SOL    HW217472   2.722   1.460   3.576
 5525SOL     OW17473   6.286   1.105   1.580
 5525SOL    HW117474   6.357   1.114   1.509
 5525SOL    HW217475   6.240   1.193   1.591
 5526SOL     OW17476   5.337   5.278   3.887
 5526SOL    HW117477   5.412   5.263   3.951
 5526SOL    HW217478   5.259   5.221   3.912
 5527SOL     OW17479   5.758   0.518   3.745
 5527SOL    HW117480   5.804   0.461   3.676
 5527SOL    HW217481   5.660   0.521   3.727
 5528SOL     OW17482   1.035   1.557   6.867
 5528SOL    HW117483   1.044   1.657   6.871
 5528SOL    HW217484   0.946   1.530   6.903
 5529SOL     OW17485   3.739   0.681   2.294
 5529SOL    HW117486   3.717   0.672   2.391
 5529SOL    HW217487   3.813   0.618   2.271
 5530SOL     OW17488   0.018   1.904   1.245
 5530SOL    HW117489   6.947   1.868   1.235
 5530SOL    HW217490   0.064   1.904   1.157
 5531SOL     OW17491   1.993   4.230   1.574
 5531SOL    HW117492   2.001   4.168   1.651
 5531SOL    HW217493   2.077   4.227   1.519
 5532SOL     OW17494   0.869   2.611   6.928
 5532SOL    HW117495   0.851   2.676   7.002
 5532SOL    HW217496   0.806   2.629   6.852
 5533SOL     OW17497   3.216   1.756   2.471
 5533SOL    HW117498   3.148   1.827   2.451
 5533SOL    HW217499   3.279   1.789   2.541
 5534SOL     OW17500   1.580   0.379   4.456
 5534SOL    HW117501   1.493   0.332   4.440
 5534SOL    HW217502   1.655   0.321   4.425
 5535SOL     OW17503   6.844   1.624   2.682
 5535SOL    HW117504   6.831   1.679   2.764
 5535SOL    HW217505   6.760   1.573   2.661
 5536SOL     OW17506   4.337   6.201   4.359
 5536SOL    HW117507   4.296   6.284   4.396
 5536SOL    HW217508   4.393   6.157   4.430
 5537SOL     OW17509   2.933   2.129   3.957
 5537SOL    HW117510   2.939   2.054   4.022
 5537SOL    HW217511   2.850   2.182   3.975
 5538SOL     OW17512   4.777   4.843   4.187
 5538SOL    HW117513   4.678   4.834   4.187
 5538SOL    HW217514   4.818   4.761   4.229
 5539SOL     OW17515   2.606   4.856   0.151
 5539SOL    HW117516   2.594   4.886   0.246
 5539SOL    HW217517   2.552   4.773   0.136
 5540SOL     OW17518   4.720   5.282   2.429
 5540SOL    HW117519   4.697   5.322   2.518
 5540SOL    HW217520   4.650   5.215   2.404
 5541SOL     OW17521   4.645   1.502   6.008
 5541SOL    HW117522   4.617   1.493   5.912
 5541SOL    HW217523   4.603   1.428   6.061
 5542SOL     OW17524   5.352   4.461   6.905
 5542SOL    HW117525   5.270   4.457   6.847
 5542SOL    HW217526   5.382   4.555   6.915
 5543SOL     OW17527   0.185   2.002   5.619
 5543SOL    HW117528   0.217   2.034   5.530
 5543SOL    HW217529   0.130   2.074   5.662
 5544SOL     OW17530   6.014   0.727   6.754
 5544SOL    HW117531   6.077   0.681   6.817
 5544SOL    HW217532   6.037   0.823   6.748
 5545SOL     OW17533   2.761   2.606   1.744
 5545SOL    HW117534   2.849   2.567   1.769
 5545SOL    HW217535   2.760   2.704   1.766
 5546SOL     OW17536   3.897   4.736   5.732
 5546SOL    HW117537   3.830   4.665   5.709
 5546SOL    HW217538   3.987   4.709   5.698
 5547SOL     OW17539   3.490   5.607   4.194
 5547SOL    HW117540   3.486   5.685   4.256
 5547SOL    HW217541   3.531   5.636   4.107
 5548SOL     OW17542   0.356   2.531   4.453
 5548SOL    HW117543   0.367   2.550   4.355
 5548SOL    HW217544   0.261   2.505   4.471
 5549SOL     OW17545   3.771   4.568   0.136
 5549SOL    HW117546   3.760   4.652   0.082
 5549SOL    HW217547   3.716   4.575   0.220
 5550SOL     OW17548   2.950   6.399   2.268
 5550SOL    HW117549   2.882   6.451   2.321
 5550SOL    HW217550   3.041   6.413   2.307
 5551SOL     OW17551   0.609   1.086   2.854
 5551SOL    HW117552   0.578   0.997   2.886
 5551SOL    HW217553   0.705   1.099   2.879
 5552SOL     OW17554   0.916   2.325   2.289
 5552SOL    HW117555   0.863   2.346   2.371
 5552SOL    HW217556   0.924   2.406   2.231
 5553SOL     OW17557   4.735   6.490   6.492
 5553SOL    HW117558   4.674   6.538   6.555
 5553SOL    HW217559   4.759   6.550   6.416
 5554SOL     OW17560   3.510   1.022   4.258
 5554SOL    HW117561   3.562   0.969   4.191
 5554SOL    HW217562   3.480   1.108   4.217
 5555SOL     OW17563   0.799   5.737   1.804
 5555SOL    HW117564   0.878   5.758   1.862
 5555SOL    HW217565   0.760   5.822   1.768
 5556SOL     OW17566   0.798   0.928   4.481
 5556SOL    HW117567   0.769   0.959   4.390
 5556SOL    HW217568   0.877   0.981   4.511
 5557SOL     OW17569   2.541   0.285   3.022
 5557SOL    HW117570   2.502   0.374   3.049
 5557SOL    HW217571   2.486   0.212   3.061
 5558SOL     OW17572   5.017   2.792   5.405
 5558SOL    HW117573   4.950   2.864   5.419
 5558SOL    HW217574   5.107   2.824   5.436
 5559SOL     OW17575   2.106   0.477   1.672
 5559SOL    HW117576   2.111   0.536   1.753
 5559SOL    HW217577   2.116   0.382   1.700
 5560SOL     OW17578   6.799   1.155   4.377
 5560SOL    HW117579   6.835   1.063   4.391
 5560SOL    HW217580   6.855   1.221   4.427
 5561SOL     OW17581   1.663   3.647   2.312
 5561SOL    HW117582   1.672   3.589   2.393
 5561SOL    HW217583   1.572   3.687   2.309
 5562SOL     OW17584   2.887   1.821   6.779
 5562SOL    HW117585   2.900   1.857   6.686
 5562SOL    HW217586   2.946   1.742   6.793
 5563SOL     OW17587   4.134   4.145   1.491
 5563SOL    HW117588   4.148   4.171   1.396
 5563SOL    HW217589   4.038   4.124   1.507
 5564SOL     OW17590   5.523   2.346   1.456
 5564SOL    HW117591   5.501   2.372   1.362
 5564SOL    HW217592   5.607   2.392   1.484
 5565SOL     OW17593   2.788   2.676   5.395
 5565SOL    HW117594   2.750   2.754   5.345
 5565SOL    HW217595   2.885   2.693   5.415
 5566SOL     OW17596   2.299   4.574   0.585
 5566SOL    HW117597   2.345   4.617   0.663
 5566SOL    HW217598   2.204   4.555   0.608
 5567SOL     OW17599   1.738   5.747   3.022
 5567SOL    HW117600   1.765   5.798   3.104
 5567SOL    HW217601   1.767   5.652   3.030
 5568SOL     OW17602   3.685   2.534   0.527
 5568SOL    HW117603   3.654   2.469   0.597
 5568SOL    HW217604   3.617   2.541   0.455
 5569SOL     OW17605   5.072   2.008   6.324
 5569SOL    HW117606   5.014   1.963   6.392
 5569SOL    HW217607   5.121   1.939   6.271
 5570SOL     OW17608   1.182   3.390   5.065
 5570SOL    HW117609   1.281   3.391   5.077
 5570SOL    HW217610   1.138   3.355   5.148
 5571SOL     OW17611   6.538   4.466   0.095
 5571SOL    HW117612   6.583   4.380   0.119
 5571SOL    HW217613   6.602   4.541   0.109
 5572SOL     OW17614   6.871   3.102   4.854
 5572SOL    HW117615   6.923   3.081   4.936
 5572SOL    HW217616   6.819   3.186   4.867
 5573SOL     OW17617   6.972   4.131   6.845
 5573SOL    HW117618   6.953   4.163   6.753
 5573SOL    HW217619   0.015   4.193   6.890
 5574SOL     OW17620   0.925   6.808   4.294
 5574SOL    HW117621   0.854   6.801   4.363
 5574SOL    HW217622   0.887   6.788   4.204
 5575SOL     OW17623   0.954   1.086   1.872
 5575SOL    HW117624   0.981   1.070   1.967
 5575SOL    HW217625   0.947   0.999   1.824
 5576SOL     OW17626   5.483   6.214   5.938
 5576SOL    HW117627   5.419   6.226   6.015
 5576SOL    HW217628   5.502   6.303   5.897
 5577SOL     OW17629   2.340   4.363   4.519
 5577SOL    HW117630   2.246   4.346   4.549
 5577SOL    HW217631   2.366   4.457   4.541
 5578SOL     OW17632   3.494   1.868   6.502
 5578SOL    HW117633   3.573   1.826   6.457
 5578SOL    HW217634   3.525   1.918   6.583
 5579SOL     OW17635   5.025   5.107   1.753
 5579SOL    HW117636   4.992   5.201   1.764
 5579SOL    HW217637   4.967   5.044   1.804
 5580SOL     OW17638   5.320   1.356   1.286
 5580SOL    HW117639   5.413   1.386   1.305
 5580SOL    HW217640   5.278   1.322   1.370
 5581SOL     OW17641   2.658   2.410   0.730
 5581SOL    HW117642   2.602   2.408   0.647
 5581SOL    HW217643   2.750   2.378   0.709
 5582SOL     OW17644   3.261   2.908   3.520
 5582SOL    HW117645   3.230   2.977   3.584
 5582SOL    HW217646   3.269   2.820   3.567
 5583SOL     OW17647   4.491   0.491   0.089
 5583SOL    HW117648   4.449   0.545   0.015
 5583SOL    HW217649   4.511   0.399   0.056
 5584SOL     OW17650   4.901   3.419   3.171
 5584SOL    HW117651   4.893   3.479   3.250
 5584SOL    HW217652   4.900   3.324   3.200
 5585SOL     OW17653   0.484   0.100   4.942
 5585SOL    HW117654   0.441   0.080   4.854
 5585SOL    HW217655   0.531   0.018   4.975
 5586SOL     OW17656   3.040   0.926   6.583
 5586SOL    HW117657   3.036   0.864   6.661
 5586SOL    HW217658   3.130   0.918   6.539
 5587SOL     OW17659   3.680   6.566   4.213
 5587SOL    HW117660   3.588   6.530   4.201
 5587SOL    HW217661   3.724   6.522   4.292
 5588SOL     OW17662   4.808   6.789   5.925
 5588SOL    HW117663   4.807   6.768   6.023
 5588SOL    HW217664   4.795   6.887   5.912
 5589SOL     OW17665   2.676   3.694   0.242
 5589SOL    HW117666   2.676   3.727   0.337
 5589SOL    HW217667   2.664   3.772   0.180
 5590SOL     OW17668   6.666   0.305   3.573
 5590SOL    HW117669   6.609   0.236   3.528
 5590SOL    HW217670   6.608   0.367   3.626
 5591SOL     OW17671   5.525   0.327   0.598
 5591SOL    HW117672   5.572   0.285   0.521
 5591SOL    HW217673   5.489   0.256   0.658
 5592SOL     OW17674   1.175   2.506   2.574
 5592SOL    HW117675   1.199   2.597   2.541
 5592SOL    HW217676   1.181   2.441   2.498
 5593SOL     OW17677   2.108   4.476   4.688
 5593SOL    HW117678   2.090   4.428   4.774
 5593SOL    HW217679   2.024   4.481   4.634
 5594SOL     OW17680   2.927   1.450   6.470
 5594SOL    HW117681   2.960   1.528   6.523
 5594SOL    HW217682   2.978   1.368   6.496
 5595SOL     OW17683   0.691   2.825   6.267
 5595SOL    HW117684   0.711   2.848   6.172
 5595SOL    HW217685   0.759   2.868   6.327
 5596SOL     OW17686   4.743   2.881   4.641
 5596SOL    HW117687   4.823   2.870   4.700
 5596SOL    HW217688   4.687   2.798   4.646
 5597SOL     OW17689   6.804   1.871   6.515
 5597SOL    HW117690   6.891   1.824   6.503
 5597SOL    HW217691   6.788   1.932   6.438
 5598SOL     OW17692   6.410   1.895   3.572
 5598SOL    HW117693   6.493   1.879   3.518
 5598SOL    HW217694   6.433   1.939   3.658
 5599SOL     OW17695   5.409   2.534   3.206
 5599SOL    HW117696   5.355   2.617   3.191
 5599SOL    HW217697   5.501   2.558   3.237
 5600SOL     OW17698   1.972   3.082   2.195
 5600SOL    HW117699   1.977   3.152   2.267
 5600SOL    HW217700   1.892   3.025   2.209
 5601SOL     OW17701   5.639   3.289   5.756
 5601SOL    HW117702   5.557   3.253   5.800
 5601SOL    HW217703   5.679   3.361   5.813
 5602SOL     OW17704   6.458   2.304   2.754
 5602SOL    HW117705   6.383   2.359   2.718
 5602SOL    HW217706   6.536   2.364   2.774
 5603SOL     OW17707   3.623   2.331   6.244
 5603SOL    HW117708   3.697   2.275   6.282
 5603SOL    HW217709   3.551   2.272   6.209
 5604SOL     OW17710   1.033   6.116   3.760
 5604SOL    HW117711   1.075   6.052   3.695
 5604SOL    HW217712   1.085   6.202   3.761
 5605SOL     OW17713   4.307   0.472   3.976
 5605SOL    HW117714   4.302   0.561   4.021
 5605SOL    HW217715   4.238   0.410   4.015
 5606SOL     OW17716   4.865   3.072   0.968
 5606SOL    HW117717   4.956   3.104   0.992
 5606SOL    HW217718   4.865   2.972   0.965
 5607SOL     OW17719   0.039   2.598   3.421
 5607SOL    HW117720   0.078   2.510   3.394
 5607SOL    HW217721   6.977   2.582   3.474
 5608SOL     OW17722   5.207   0.537   3.969
 5608SOL    HW117723   5.158   0.552   4.056
 5608SOL    HW217724   5.302   0.567   3.979
 5609SOL     OW17725   6.485   0.883   0.098
 5609SOL    HW117726   6.577   0.921   0.107
 5609SOL    HW217727   6.417   0.951   0.126
 5610SOL     OW17728   5.457   5.817   6.136
 5610SOL    HW117729   5.400   5.861   6.066
 5610SOL    HW217730   5.542   5.784   6.095
 5611SOL     OW17731   6.190   3.901   2.187
 5611SOL    HW117732   6.120   3.833   2.164
 5611SOL    HW217733   6.216   3.951   2.104
 5612SOL     OW17734   4.222   2.005   0.835
 5612SOL    HW117735   4.161   2.048   0.769
 5612SOL    HW217736   4.317   2.027   0.812
 5613SOL     OW17737   6.316   5.361   6.094
 5613SOL    HW117738   6.255   5.341   6.017
 5613SOL    HW217739   6.268   5.418   6.161
 5614SOL     OW17740   4.868   1.821   5.136
 5614SOL    HW117741   4.853   1.885   5.211
 5614SOL    HW217742   4.941   1.757   5.161
 5615SOL     OW17743   0.765   3.138   3.519
 5615SOL    HW117744   0.744   3.144   3.616
 5615SOL    HW217745   0.704   3.198   3.468
 5616SOL     OW17746   1.655   3.432   2.491
 5616SOL    HW117747   1.661   3.369   2.413
 5616SOL    HW217748   1.571   3.413   2.542
 5617SOL     OW17749   1.045   4.925   6.205
 5617SOL    HW117750   1.097   4.847   6.239
 5617SOL    HW217751   1.105   4.984   6.152
 5618SOL     OW17752   4.391   6.962   2.675
 5618SOL    HW117753   4.411   6.891   2.608
 5618SOL    HW217754   4.385   6.921   2.766
 5619SOL     OW17755   2.976   3.204   3.342
 5619SOL    HW117756   3.072   3.182   3.324
 5619SOL    HW217757   2.925   3.204   3.257
 5620SOL     OW17758   4.967   4.374   4.696
 5620SOL    HW117759   4.882   4.424   4.677
 5620SOL    HW217760   4.946   4.277   4.707
 5621SOL     OW17761   1.032   2.517   6.741
 5621SOL    HW117762   1.000   2.574   6.666
 5621SOL    HW217763   0.963   2.516   6.814
 5622SOL     OW17764   4.836   5.664   4.113
 5622SOL    HW117765   4.760   5.620   4.160
 5622SOL    HW217766   4.846   5.758   4.147
 5623SOL     OW17767   4.669   4.789   3.778
 5623SOL    HW117768   4.602   4.851   3.820
 5623SOL    HW217769   4.650   4.695   3.805
 5624SOL     OW17770   4.921   3.971   3.450
 5624SOL    HW117771   4.983   3.939   3.521
 5624SOL    HW217772   4.922   3.906   3.374
 5625SOL     OW17773   2.928   6.666   6.192
 5625SOL    HW117774   2.960   6.727   6.119
 5625SOL    HW217775   2.861   6.602   6.155
 5626SOL     OW17776   1.034   4.962   6.536
 5626SOL    HW117777   1.009   5.047   6.583
 5626SOL    HW217778   1.002   4.966   6.441
 5627SOL     OW17779   1.391   5.407   0.659
 5627SOL    HW117780   1.447   5.465   0.600
 5627SOL    HW217781   1.349   5.334   0.605
 5628SOL     OW17782   1.576   3.456   0.210
 5628SOL    HW117783   1.655   3.398   0.192
 5628SOL    HW217784   1.595   3.514   0.289
 5629SOL     OW17785   6.546   3.356   3.623
 5629SOL    HW117786   6.616   3.290   3.594
 5629SOL    HW217787   6.588   3.424   3.683
 5630SOL     OW17788   1.031   3.717   0.384
 5630SOL    HW117789   1.065   3.779   0.454
 5630SOL    HW217790   1.097   3.712   0.309
 5631SOL     OW17791   3.803   0.673   1.122
 5631SOL    HW117792   3.803   0.575   1.103
 5631SOL    HW217793   3.865   0.692   1.198
 5632SOL     OW17794   4.237   6.097   6.621
 5632SOL    HW117795   4.318   6.085   6.678
 5632SOL    HW217796   4.258   6.159   6.546
 5633SOL     OW17797   1.220   5.759   5.629
 5633SOL    HW117798   1.190   5.726   5.540
 5633SOL    HW217799   1.223   5.683   5.694
 5634SOL     OW17800   2.531   0.951   1.414
 5634SOL    HW117801   2.593   0.873   1.403
 5634SOL    HW217802   2.449   0.921   1.463
 5635SOL     OW17803   3.503   0.853   1.924
 5635SOL    HW117804   3.479   0.904   2.006
 5635SOL    HW217805   3.598   0.872   1.899
 5636SOL     OW17806   5.566   0.375   5.616
 5636SOL    HW117807   5.600   0.359   5.523
 5636SOL    HW217808   5.493   0.443   5.613
 5637SOL     OW17809   5.333   0.042   4.849
 5637SOL    HW117810   5.351   0.017   4.754
 5637SOL    HW217811   5.248   0.095   4.855
 5638SOL     OW17812   6.288   5.232   0.722
 5638SOL    HW117813   6.257   5.325   0.700
 5638SOL    HW217814   6.221   5.189   0.783
 5639SOL     OW17815   3.318   0.722   1.736
 5639SOL    HW117816   3.366   0.776   1.805
 5639SOL    HW217817   3.219   0.728   1.752
 5640SOL     OW17818   2.890   6.891   3.513
 5640SOL    HW117819   2.955   6.961   3.542
 5640SOL    HW217820   2.826   6.930   3.447
 5641SOL     OW17821   6.934   4.290   3.710
 5641SOL    HW117822   6.862   4.237   3.755
 5641SOL    HW217823   7.007   4.308   3.776
 5642SOL     OW17824   2.191   3.119   6.424
 5642SOL    HW117825   2.198   3.159   6.516
 5642SOL    HW217826   2.209   3.190   6.356
 5643SOL     OW17827   6.025   2.489   4.439
 5643SOL    HW117828   6.057   2.456   4.528
 5643SOL    HW217829   6.016   2.411   4.377
 5644SOL     OW17830   3.867   0.410   5.436
 5644SOL    HW117831   3.841   0.314   5.421
 5644SOL    HW217832   3.787   0.462   5.465
 5645SOL     OW17833   5.825   6.537   3.582
 5645SOL    HW117834   5.760   6.591   3.528
 5645SOL    HW217835   5.857   6.593   3.659
 5646SOL     OW17836   6.575   6.482   4.066
 5646SOL    HW117837   6.646   6.539   4.107
 5646SOL    HW217838   6.575   6.392   4.109
 5647SOL     OW17839   7.006   4.299   6.620
 5647SOL    HW117840   0.062   4.291   6.557
 5647SOL    HW217841   6.927   4.338   6.572
 5648SOL     OW17842   2.920   1.301   4.487
 5648SOL    HW117843   2.990   1.288   4.557
 5648SOL    HW217844   2.881   1.393   4.496
 5649SOL     OW17845   1.119   0.383   6.004
 5649SOL    HW117846   1.071   0.327   5.936
 5649SOL    HW217847   1.092   0.354   6.096
 5650SOL     OW17848   0.213   4.609   5.781
 5650SOL    HW117849   0.295   4.557   5.802
 5650SOL    HW217850   0.139   4.582   5.843
 5651SOL     OW17851   5.431   1.635   2.073
 5651SOL    HW117852   5.520   1.657   2.112
 5651SOL    HW217853   5.359   1.684   2.122
 5652SOL     OW17854   5.807   4.376   0.358
 5652SOL    HW117855   5.708   4.389   0.372
 5652SOL    HW217856   5.825   4.367   0.260
 5653SOL     OW17857   2.359   6.023   6.734
 5653SOL    HW117858   2.348   5.936   6.783
 5653SOL    HW217859   2.293   6.026   6.659
 5654SOL     OW17860   1.897   5.954   6.917
 5654SOL    HW117861   1.891   6.051   6.938
 5654SOL    HW217862   1.806   5.921   6.890
 5655SOL     OW17863   6.651   5.225   2.873
 5655SOL    HW117864   6.693   5.138   2.895
 5655SOL    HW217865   6.720   5.287   2.834
 5656SOL     OW17866   3.318   5.701   6.483
 5656SOL    HW117867   3.309   5.801   6.481
 5656SOL    HW217868   3.415   5.677   6.486
 5657SOL     OW17869   4.558   5.636   1.696
 5657SOL    HW117870   4.513   5.594   1.618
 5657SOL    HW217871   4.489   5.679   1.755
 5658SOL     OW17872   5.595   6.523   5.817
 5658SOL    HW117873   5.495   6.530   5.819
 5658SOL    HW217874   5.634   6.604   5.774
 5659SOL     OW17875   2.992   3.405   2.995
 5659SOL    HW117876   2.977   3.474   3.066
 5659SOL    HW217877   3.046   3.330   3.033
 5660SOL     OW17878   6.383   6.159   1.423
 5660SOL    HW117879   6.381   6.113   1.512
 5660SOL    HW217880   6.361   6.256   1.435
 5661SOL     OW17881   6.320   5.850   4.195
 5661SOL    HW117882   6.403   5.875   4.144
 5661SOL    HW217883   6.325   5.753   4.221
 5662SOL     OW17884   2.320   4.823   5.087
 5662SOL    HW117885   2.363   4.733   5.090
 5662SOL    HW217886   2.389   4.892   5.064
 5663SOL     OW17887   2.659   4.339   1.065
 5663SOL    HW117888   2.564   4.309   1.053
 5663SOL    HW217889   2.664   4.406   1.139
 5664SOL     OW17890   6.895   6.240   2.193
 5664SOL    HW117891   6.912   6.155   2.143
 5664SOL    HW217892   6.922   6.318   2.136
 5665SOL     OW17893   1.239   1.333   6.060
 5665SOL    HW117894   1.276   1.418   6.023
 5665SOL    HW217895   1.144   1.322   6.030
 5666SOL     OW17896   5.849   5.536   0.293
 5666SOL    HW117897   5.771   5.594   0.318
 5666SOL    HW217898   5.893   5.501   0.375
 5667SOL     OW17899   6.443   5.187   3.077
 5667SOL    HW117900   6.353   5.230   3.078
 5667SOL    HW217901   6.490   5.209   2.991
 5668SOL     OW17902   6.052   3.196   5.888
 5668SOL    HW117903   6.104   3.281   5.886
 5668SOL    HW217904   5.987   3.198   5.964
 5669SOL     OW17905   0.077   3.160   4.671
 5669SOL    HW117906   0.054   3.238   4.613
 5669SOL    HW217907   7.021   3.140   4.731
 5670SOL     OW17908   1.376   3.716   2.313
 5670SOL    HW117909   1.395   3.773   2.393
 5670SOL    HW217910   1.366   3.774   2.233
 5671SOL     OW17911   1.117   0.861   5.695
 5671SOL    HW117912   1.031   0.871   5.645
 5671SOL    HW217913   1.187   0.821   5.635
 5672SOL     OW17914   5.178   3.958   6.028
 5672SOL    HW117915   5.170   3.933   5.932
 5672SOL    HW217916   5.119   3.899   6.083
 5673SOL     OW17917   1.553   0.093   0.669
 5673SOL    HW117918   1.507   0.135   0.592
 5673SOL    HW217919   1.498   0.018   0.705
 5674SOL     OW17920   6.401   3.438   1.083
 5674SOL    HW117921   6.316   3.477   1.116
 5674SOL    HW217922   6.382   3.364   1.018
 5675SOL     OW17923   3.367   0.910   6.705
 5675SOL    HW117924   3.464   0.925   6.727
 5675SOL    HW217925   3.346   0.812   6.713
 5676SOL     OW17926   3.217   6.919   1.394
 5676SOL    HW117927   3.158   6.869   1.458
 5676SOL    HW217928   3.261   6.854   1.332
 5677SOL     OW17929   6.626   0.933   3.733
 5677SOL    HW117930   6.573   0.888   3.662
 5677SOL    HW217931   6.722   0.906   3.727
 5678SOL     OW17932   1.859   5.480   3.653
 5678SOL    HW117933   1.879   5.558   3.713
 5678SOL    HW217934   1.771   5.440   3.679
 5679SOL     OW17935   3.299   5.508   5.089
 5679SOL    HW117936   3.317   5.505   4.991
 5679SOL    HW217937   3.347   5.432   5.134
 5680SOL     OW17938   1.871   0.080   6.596
 5680SOL    HW117939   1.797   0.065   6.661
 5680SOL    HW217940   1.956   0.044   6.634
 5681SOL     OW17941   2.682   3.917   0.070
 5681SOL    HW117942   2.768   3.885   0.030
 5681SOL    HW217943   2.692   4.012   0.099
 5682SOL     OW17944   1.162   4.037   4.283
 5682SOL    HW117945   1.230   4.103   4.248
 5682SOL    HW217946   1.073   4.058   4.244
 5683SOL     OW17947   4.135   3.470   4.944
 5683SOL    HW117948   4.142   3.521   4.859
 5683SOL    HW217949   4.225   3.466   4.988
 5684SOL     OW17950   2.996   3.545   3.235
 5684SOL    HW117951   3.085   3.546   3.280
 5684SOL    HW217952   2.948   3.631   3.254
 5685SOL     OW17953   0.483   5.742   1.864
 5685SOL    HW117954   0.517   5.664   1.812
 5685SOL    HW217955   0.383   5.736   1.872
 5686SOL     OW17956   3.461   4.673   0.121
 5686SOL    HW117957   3.500   4.726   0.046
 5686SOL    HW217958   3.473   4.722   0.207
 5687SOL     OW17959   3.878   5.460   6.185
 5687SOL    HW117960   3.921   5.475   6.096
 5687SOL    HW217961   3.894   5.366   6.214
 5688SOL     OW17962   5.483   2.008   1.911
 5688SOL    HW117963   5.388   2.024   1.938
 5688SOL    HW217964   5.523   1.936   1.968
 5689SOL     OW17965   4.263   3.232   6.265
 5689SOL    HW117966   4.185   3.173   6.245
 5689SOL    HW217967   4.231   3.325   6.279
 5690SOL     OW17968   4.377   6.462   2.478
 5690SOL    HW117969   4.391   6.553   2.438
 5690SOL    HW217970   4.452   6.440   2.540
 5691SOL     OW17971   2.601   0.198   3.748
 5691SOL    HW117972   2.670   0.134   3.714
 5691SOL    HW217973   2.628   0.292   3.726
 5692SOL     OW17974   5.689   3.088   6.747
 5692SOL    HW117975   5.608   3.072   6.802
 5692SOL    HW217976   5.732   3.175   6.775
 5693SOL     OW17977   4.881   2.143   2.587
 5693SOL    HW117978   4.936   2.094   2.520
 5693SOL    HW217979   4.870   2.087   2.669
 5694SOL     OW17980   1.255   1.524   4.049
 5694SOL    HW117981   1.239   1.441   3.996
 5694SOL    HW217982   1.201   1.521   4.134
 5695SOL     OW17983   1.955   4.056   3.652
 5695SOL    HW117984   1.929   3.973   3.602
 5695SOL    HW217985   1.887   4.075   3.723
 5696SOL     OW17986   3.107   0.474   6.019
 5696SOL    HW117987   3.146   0.478   6.110
 5696SOL    HW217988   3.121   0.561   5.972
 5697SOL     OW17989   6.547   3.438   0.254
 5697SOL    HW117990   6.614   3.406   0.187
 5697SOL    HW217991   6.460   3.455   0.208
 5698SOL     OW17992   0.831   4.147   3.222
 5698SOL    HW117993   0.834   4.049   3.202
 5698SOL    HW217994   0.739   4.173   3.249
 5699SOL     OW17995   6.464   2.466   4.927
 5699SOL    HW117996   6.482   2.369   4.909
 5699SOL    HW217997   6.547   2.518   4.907
 5700SOL     OW17998   1.182   5.636   3.282
 5700SOL    HW117999   1.203   5.731   3.306
 5700SOL    HW218000   1.167   5.583   3.365
 5701SOL     OW18001   5.631   4.457   2.377
 5701SOL    HW118002   5.726   4.428   2.366
 5701SOL    HW218003   5.593   4.479   2.287
 5702SOL     OW18004   2.164   0.371   6.856
 5702SOL    HW118005   2.209   0.428   6.925
 5702SOL    HW218006   2.088   0.423   6.815
 5703SOL     OW18007   4.863   4.309   1.789
 5703SOL    HW118008   4.791   4.249   1.755
 5703SOL    HW218009   4.827   4.365   1.864
 5704SOL     OW18010   4.556   4.396   3.056
 5704SOL    HW118011   4.564   4.357   3.147
 5704SOL    HW218012   4.602   4.338   2.990
 5705SOL     OW18013   6.051   2.011   3.391
 5705SOL    HW118014   6.085   2.066   3.467
 5705SOL    HW218015   6.123   1.950   3.359
 5706SOL     OW18016   1.729   1.333   6.954
 5706SOL    HW118017   1.776   1.263   7.008
 5706SOL    HW218018   1.673   1.288   6.884
 5707SOL     OW18019   3.055   1.609   6.690
 5707SOL    HW118020   3.133   1.666   6.663
 5707SOL    HW218021   3.086   1.537   6.752
 5708SOL     OW18022   6.831   6.885   1.665
 5708SOL    HW118023   6.922   6.884   1.625
 5708SOL    HW218024   6.762   6.884   1.592
 5709SOL     OW18025   1.098   1.793   1.848
 5709SOL    HW118026   1.103   1.871   1.786
 5709SOL    HW218027   1.006   1.754   1.846
 5710SOL     OW18028   3.197   4.408   6.378
 5710SOL    HW118029   3.119   4.423   6.317
 5710SOL    HW218030   3.179   4.452   6.466
 5711SOL     OW18031   4.819   1.055   4.539
 5711SOL    HW118032   4.725   1.026   4.558
 5711SOL    HW218033   4.837   1.142   4.584
 5712SOL     OW18034   6.644   6.250   6.824
 5712SOL    HW118035   6.670   6.300   6.906
 5712SOL    HW218036   6.717   6.259   6.755
 5713SOL     OW18037   0.269   2.586   2.669
 5713SOL    HW118038   0.257   2.628   2.759
 5713SOL    HW218039   0.286   2.488   2.680
 5714SOL     OW18040   2.148   0.801   6.070
 5714SOL    HW118041   2.149   0.901   6.072
 5714SOL    HW218042   2.232   0.765   6.109
 5715SOL     OW18043   1.023   6.561   3.673
 5715SOL    HW118044   0.932   6.528   3.697
 5715SOL    HW218045   1.030   6.573   3.574
 5716SOL     OW18046   1.985   2.361   5.082
 5716SOL    HW118047   1.929   2.404   5.152
 5716SOL    HW218048   1.994   2.263   5.101
 5717SOL     OW18049   0.557   3.308   6.965
 5717SOL    HW118050   0.623   3.374   7.001
 5717SOL    HW218051   0.521   3.342   6.878
 5718SOL     OW18052   2.307   5.368   5.228
 5718SOL    HW118053   2.262   5.323   5.305
 5718SOL    HW218054   2.258   5.345   5.143
 5719SOL     OW18055   2.575   0.490   0.051
 5719SOL    HW118056   2.528   0.456   0.133
 5719SOL    HW218057   2.593   0.414   7.011
 5720SOL     OW18058   1.817   6.109   3.820
 5720SOL    HW118059   1.758   6.155   3.886
 5720SOL    HW218060   1.782   6.017   3.803
 5721SOL     OW18061   6.800   4.391   0.686
 5721SOL    HW118062   6.851   4.453   0.745
 5721SOL    HW218063   6.863   4.324   0.646
 5722SOL     OW18064   5.571   1.413   3.910
 5722SOL    HW118065   5.574   1.397   4.008
 5722SOL    HW218066   5.665   1.411   3.873
 5723SOL     OW18067   1.233   3.960   0.894
 5723SOL    HW118068   1.329   3.942   0.915
 5723SOL    HW218069   1.176   3.924   0.968
 5724SOL     OW18070   5.024   2.424   6.062
 5724SOL    HW118071   4.944   2.428   6.122
 5724SOL    HW218072   5.072   2.338   6.077
 5725SOL     OW18073   5.186   5.781   5.636
 5725SOL    HW118074   5.276   5.750   5.666
 5725SOL    HW218075   5.196   5.858   5.572
 5726SOL     OW18076   4.425   4.007   5.357
 5726SOL    HW118077   4.446   3.910   5.355
 5726SOL    HW218078   4.501   4.059   5.317
 5727SOL     OW18079   6.043   1.932   3.824
 5727SOL    HW118080   6.050   1.835   3.802
 5727SOL    HW218081   5.953   1.951   3.864
 5728SOL     OW18082   4.630   0.603   5.848
 5728SOL    HW118083   4.641   0.572   5.942
 5728SOL    HW218084   4.601   0.698   5.848
 5729SOL     OW18085   1.243   3.013   4.961
 5729SOL    HW118086   1.161   2.964   4.989
 5729SOL    HW218087   1.245   3.021   4.862
 5730SOL     OW18088   4.255   5.380   0.460
 5730SOL    HW118089   4.233   5.300   0.403
 5730SOL    HW218090   4.176   5.443   0.460
 5731SOL     OW18091   4.371   1.562   5.186
 5731SOL    HW118092   4.333   1.601   5.270
 5731SOL    HW218093   4.450   1.615   5.158
 5732SOL     OW18094   5.420   4.218   4.090
 5732SOL    HW118095   5.472   4.137   4.062
 5732SOL    HW218096   5.325   4.193   4.105
 5733SOL     OW18097   2.545   6.904   1.459
 5733SOL    HW118098   2.645   6.913   1.463
 5733SOL    HW218099   2.510   6.890   1.551
 5734SOL     OW18100   1.353   6.292   6.467
 5734SOL    HW118101   1.431   6.249   6.513
 5734SOL    HW218102   1.365   6.391   6.467
 5735SOL     OW18103   5.140   1.102   2.193
 5735SOL    HW118104   5.125   1.116   2.291
 5735SOL    HW218105   5.163   1.189   2.150
 5736SOL     OW18106   6.162   4.213   6.646
 5736SOL    HW118107   6.219   4.140   6.683
 5736SOL    HW218108   6.072   4.210   6.690
 5737SOL     OW18109   4.786   5.592   2.155
 5737SOL    HW118110   4.814   5.574   2.249
 5737SOL    HW218111   4.704   5.540   2.134
 5738SOL     OW18112   2.269   0.391   0.725
 5738SOL    HW118113   2.337   0.325   0.692
 5738SOL    HW218114   2.315   0.467   0.771
 5739SOL     OW18115   2.218   1.271   5.918
 5739SOL    HW118116   2.232   1.370   5.912
 5739SOL    HW218117   2.307   1.226   5.926
 5740SOL     OW18118   4.910   3.523   2.713
 5740SOL    HW118119   4.937   3.437   2.755
 5740SOL    HW218120   4.949   3.599   2.766
 5741SOL     OW18121   1.258   3.841   4.078
 5741SOL    HW118122   1.199   3.862   4.000
 5741SOL    HW218123   1.242   3.908   4.151
 5742SOL     OW18124   5.941   6.812   3.300
 5742SOL    HW118125   6.026   6.837   3.253
 5742SOL    HW218126   5.945   6.716   3.328
 5743SOL     OW18127   3.343   5.516   7.005
 5743SOL    HW118128   3.361   5.459   6.926
 5743SOL    HW218129   3.263   5.482   0.032
 5744SOL     OW18130   5.262   6.708   3.224
 5744SOL    HW118131   5.187   6.769   3.198
 5744SOL    HW218132   5.319   6.689   3.143
 5745SOL     OW18133   0.812   2.928   1.996
 5745SOL    HW118134   0.787   3.010   2.047
 5745SOL    HW218135   0.912   2.926   1.983
 5746SOL     OW18136   5.066   6.881   2.957
 5746SOL    HW118137   5.048   6.914   3.050
 5746SOL    HW218138   4.984   6.835   2.922
 5747SOL     OW18139   1.625   6.526   1.252
 5747SOL    HW118140   1.620   6.482   1.163
 5747SOL    HW218141   1.568   6.476   1.317
 5748SOL     OW18142   6.985   6.221   0.650
 5748SOL    HW118143   6.910   6.196   0.589
 5748SOL    HW218144   6.996   6.151   0.720
 5749SOL     OW18145   1.908   5.777   6.480
 5749SOL    HW118146   1.823   5.725   6.474
 5749SOL    HW218147   1.985   5.714   6.489
 5750SOL     OW18148   7.010   3.098   4.240
 5750SOL    HW118149   6.954   3.119   4.160
 5750SOL    HW218150   0.084   3.123   4.222
 5751SOL     OW18151   1.030   4.083   4.752
 5751SOL    HW118152   1.106   4.126   4.703
 5751SOL    HW218153   1.062   4.048   4.840
 5752SOL     OW18154   5.280   0.923   0.347
 5752SOL    HW118155   5.369   0.962   0.323
 5752SOL    HW218156   5.279   0.902   0.445
 5753SOL     OW18157   3.504   4.115   4.541
 5753SOL    HW118158   3.574   4.105   4.612
 5753SOL    HW218159   3.421   4.155   4.580
 5754SOL     OW18160   0.480   5.769   1.453
 5754SOL    HW118161   0.383   5.790   1.465
 5754SOL    HW218162   0.498   5.750   1.356
 5755SOL     OW18163   0.782   3.088   6.169
 5755SOL    HW118164   0.749   3.180   6.147
 5755SOL    HW218165   0.882   3.086   6.167
 5756SOL     OW18166   6.025   5.745   1.750
 5756SOL    HW118167   6.122   5.722   1.755
 5756SOL    HW218168   5.992   5.733   1.656
 5757SOL     OW18169   0.060   1.148   3.762
 5757SOL    HW118170   0.002   1.162   3.843
 5757SOL    HW218171   0.090   1.053   3.759
 5758SOL     OW18172   6.096   6.569   2.659
 5758SOL    HW118173   6.149   6.512   2.596
 5758SOL    HW218174   6.004   6.533   2.669
 5759SOL     OW18175   3.309   0.329   1.401
 5759SOL    HW118176   3.372   0.251   1.394
 5759SOL    HW218177   3.228   0.302   1.453
 5760SOL     OW18178   1.783   2.729   0.172
 5760SOL    HW118179   1.734   2.655   0.125
 5760SOL    HW218180   1.766   2.815   0.123
 5761SOL     OW18181   6.758   7.001   4.628
 5761SOL    HW118182   6.743   0.076   4.610
 5761SOL    HW218183   6.695   6.946   4.574
 5762SOL     OW18184   0.799   5.573   6.177
 5762SOL    HW118185   0.794   5.477   6.152
 5762SOL    HW218186   0.712   5.618   6.155
 5763SOL     OW18187   5.790   0.323   0.417
 5763SOL    HW118188   5.846   0.255   0.371
 5763SOL    HW218189   5.838   0.358   0.497
 5764SOL     OW18190   4.699   6.189   3.975
 5764SOL    HW118191   4.652   6.189   4.063
 5764SOL    HW218192   4.782   6.246   3.982
 5765SOL     OW18193   6.472   4.920   2.553
 5765SOL    HW118194   6.463   4.850   2.482
 5765SOL    HW218195   6.408   4.900   2.627
 5766SOL     OW18196   0.371   1.221   4.272
 5766SOL    HW118197   0.336   1.273   4.194
 5766SOL    HW218198   0.384   1.126   4.244
 5767SOL     OW18199   4.296   6.655   6.841
 5767SOL    HW118200   4.280   6.754   6.840
 5767SOL    HW218201   4.275   6.619   6.932
 5768SOL     OW18202   0.704   1.078   5.367
 5768SOL    HW118203   0.728   1.001   5.308
 5768SOL    HW218204   0.605   1.092   5.365
 5769SOL     OW18205   1.709   3.689   5.810
 5769SOL    HW118206   1.772   3.702   5.733
 5769SOL    HW218207   1.631   3.751   5.799
 5770SOL     OW18208   2.278   3.948   1.887
 5770SOL    HW118209   2.264   4.047   1.899
 5770SOL    HW218210   2.234   3.899   1.962
 5771SOL     OW18211   3.500   4.997   4.182
 5771SOL    HW118212   3.527   5.052   4.103
 5771SOL    HW218213   3.532   5.041   4.266
 5772SOL     OW18214   3.393   0.010   2.292
 5772SOL    HW118215   3.474   0.052   2.251
 5772SOL    HW218216   3.388   0.035   2.388
 5773SOL     OW18217   5.504   1.289   2.500
 5773SOL    HW118218   5.555   1.215   2.545
 5773SOL    HW218219   5.484   1.361   2.567
 5774SOL     OW18220   0.857   6.283   2.765
 5774SOL    HW118221   0.915   6.249   2.692
 5774SOL    HW218222   0.866   6.382   2.772
 5775SOL     OW18223   6.279   5.262   1.555
 5775SOL    HW118224   6.320   5.345   1.518
 5775SOL    HW218225   6.194   5.242   1.507
 5776SOL     OW18226   2.442   1.067   3.857
 5776SOL    HW118227   2.430   1.137   3.928
 5776SOL    HW218228   2.498   0.992   3.893
 5777SOL     OW18229   2.006   6.710   2.270
 5777SOL    HW118230   1.986   6.808   2.270
 5777SOL    HW218231   2.100   6.695   2.304
 5778SOL     OW18232   0.523   1.034   0.649
 5778SOL    HW118233   0.588   1.038   0.573
 5778SOL    HW218234   0.548   1.104   0.717
 5779SOL     OW18235   5.948   0.802   6.056
 5779SOL    HW118236   5.933   0.747   6.138
 5779SOL    HW218237   5.914   0.753   5.976
 5780SOL     OW18238   5.369   5.250   4.202
 5780SOL    HW118239   5.278   5.252   4.243
 5780SOL    HW218240   5.425   5.180   4.247
 5781SOL     OW18241   1.182   5.136   5.725
 5781SOL    HW118242   1.138   5.160   5.638
 5781SOL    HW218243   1.270   5.183   5.731
 5782SOL     OW18244   0.557   0.581   0.166
 5782SOL    HW118245   0.532   0.632   0.084
 5782SOL    HW218246   0.475   0.565   0.221
 5783SOL     OW18247   2.275   2.295   0.618
 5783SOL    HW118248   2.326   2.283   0.704
 5783SOL    HW218249   2.209   2.370   0.629
 5784SOL     OW18250   6.557   6.012   6.713
 5784SOL    HW118251   6.581   6.090   6.771
 5784SOL    HW218252   6.495   6.042   6.641
 5785SOL     OW18253   0.962   1.202   0.731
 5785SOL    HW118254   0.907   1.258   0.793
 5785SOL    HW218255   1.026   1.260   0.682
 5786SOL     OW18256   5.540   4.975   1.800
 5786SOL    HW118257   5.603   5.051   1.809
 5786SOL    HW218258   5.487   4.965   1.884
 5787SOL     OW18259   2.316   2.680   6.502
 5787SOL    HW118260   2.340   2.612   6.433
 5787SOL    HW218261   2.391   2.690   6.567
 5788SOL     OW18262   3.058   0.601   3.158
 5788SOL    HW118263   3.082   0.697   3.174
 5788SOL    HW218264   3.002   0.594   3.075
 5789SOL     OW18265   3.505   4.738   6.125
 5789SOL    HW118266   3.556   4.822   6.142
 5789SOL    HW218267   3.567   4.667   6.091
 5790SOL     OW18268   1.565   3.589   3.370
 5790SOL    HW118269   1.484   3.557   3.321
 5790SOL    HW218270   1.538   3.626   3.459
 5791SOL     OW18271   1.767   0.882   2.974
 5791SOL    HW118272   1.756   0.971   2.931
 5791SOL    HW218273   1.797   0.815   2.906
 5792SOL     OW18274   6.645   2.138   2.639
 5792SOL    HW118275   6.599   2.209   2.692
 5792SOL    HW218276   6.740   2.164   2.624
 5793SOL     OW18277   0.279   0.826   4.022
 5793SOL    HW118278   0.244   0.733   4.029
 5793SOL    HW218279   0.218   0.882   3.965
 5794SOL     OW18280   5.124   4.447   6.373
 5794SOL    HW118281   5.099   4.361   6.328
 5794SOL    HW218282   5.042   4.491   6.410
 5795SOL     OW18283   5.728   4.437   6.791
 5795SOL    HW118284   5.692   4.466   6.702
 5795SOL    HW218285   5.659   4.383   6.839
 5796SOL     OW18286   3.613   2.293   0.650
 5796SOL    HW118287   3.653   2.211   0.609
 5796SOL    HW218288   3.535   2.323   0.595
 5797SOL     OW18289   3.389   2.579   6.163
 5797SOL    HW118290   3.428   2.545   6.249
 5797SOL    HW218291   3.309   2.525   6.139
 5798SOL     OW18292   6.513   5.495   4.121
 5798SOL    HW118293   6.580   5.568   4.138
 5798SOL    HW218294   6.482   5.499   4.026
 5799SOL     OW18295   5.517   0.755   3.630
 5799SOL    HW118296   5.477   0.665   3.647
 5799SOL    HW218297   5.468   0.824   3.685
 5800SOL     OW18298   5.543   5.271   0.716
 5800SOL    HW118299   5.602   5.224   0.783
 5800SOL    HW218300   5.521   5.208   0.641
 5801SOL     OW18301   2.769   1.033   2.849
 5801SOL    HW118302   2.802   1.090   2.774
 5801SOL    HW218303   2.721   0.953   2.811
 5802SOL     OW18304   0.387   2.802   4.618
 5802SOL    HW118305   0.335   2.858   4.683
 5802SOL    HW218306   0.326   2.772   4.545
 5803SOL     OW18307   2.022   4.466   0.564
 5803SOL    HW118308   1.927   4.492   0.585
 5803SOL    HW218309   2.040   4.480   0.467
 5804SOL     OW18310   6.442   3.305   5.233
 5804SOL    HW118311   6.368   3.292   5.166
 5804SOL    HW218312   6.403   3.313   5.324
 5805SOL     OW18313   5.711   3.096   0.176
 5805SOL    HW118314   5.620   3.111   0.213
 5805SOL    HW218315   5.771   3.171   0.203
 5806SOL     OW18316   0.418   6.673   0.167
 5806SOL    HW118317   0.453   6.639   0.079
 5806SOL    HW218318   0.417   6.599   0.234
 5807SOL     OW18319   2.119   3.676   1.764
 5807SOL    HW118320   2.152   3.771   1.768
 5807SOL    HW218321   2.169   3.621   1.830
 5808SOL     OW18322   6.254   3.030   3.629
 5808SOL    HW118323   6.322   2.991   3.567
 5808SOL    HW218324   6.251   2.977   3.714
 5809SOL     OW18325   6.505   3.447   3.984
 5809SOL    HW118326   6.541   3.379   4.048
 5809SOL    HW218327   6.413   3.473   4.012
 5810SOL     OW18328   2.671   2.231   2.553
 5810SOL    HW118329   2.603   2.158   2.553
 5810SOL    HW218330   2.711   2.240   2.461
 5811SOL     OW18331   2.757   1.172   3.074
 5811SOL    HW118332   2.768   1.134   2.982
 5811SOL    HW218333   2.679   1.234   3.075
 5812SOL     OW18334   3.929   0.528   4.910
 5812SOL    HW118335   3.887   0.538   5.000
 5812SOL    HW218336   3.861   0.548   4.840
 5813SOL     OW18337   1.550   0.990   5.530
 5813SOL    HW118338   1.641   0.950   5.533
 5813SOL    HW218339   1.502   0.958   5.447
 5814SOL     OW18340   0.565   4.990   1.039
 5814SOL    HW118341   0.583   4.898   1.074
 5814SOL    HW218342   0.611   5.003   0.952
 5815SOL     OW18343   3.379   1.600   3.154
 5815SOL    HW118344   3.316   1.678   3.152
 5815SOL    HW218345   3.366   1.545   3.071
 5816SOL     OW18346   4.931   6.718   1.123
 5816SOL    HW118347   4.853   6.776   1.146
 5816SOL    HW218348   4.970   6.748   1.036
 5817SOL     OW18349   5.062   1.635   5.195
 5817SOL    HW118350   5.086   1.552   5.246
 5817SOL    HW218351   5.051   1.612   5.098
 5818SOL     OW18352   5.843   6.082   5.853
 5818SOL    HW118353   5.938   6.060   5.872
 5818SOL    HW218354   5.827   6.180   5.869
 5819SOL     OW18355   6.144   0.245   0.911
 5819SOL    HW118356   6.211   0.311   0.878
 5819SOL    HW218357   6.089   0.287   0.984
 5820SOL     OW18358   5.863   6.220   3.159
 5820SOL    HW118359   5.926   6.178   3.223
 5820SOL    HW218360   5.877   6.319   3.158
 5821SOL     OW18361   3.463   0.491   1.556
 5821SOL    HW118362   3.394   0.433   1.513
 5821SOL    HW218363   3.421   0.542   1.631
 5822SOL     OW18364   0.753   1.151   2.202
 5822SOL    HW118365   0.710   1.191   2.282
 5822SOL    HW218366   0.813   1.219   2.158
 5823SOL     OW18367   2.505   2.541   4.069
 5823SOL    HW118368   2.513   2.548   3.969
 5823SOL    HW218369   2.458   2.455   4.092
 5824SOL     OW18370   4.668   0.559   3.604
 5824SOL    HW118371   4.572   0.529   3.605
 5824SOL    HW218372   4.687   0.611   3.687
 5825SOL     OW18373   2.735   0.738   0.864
 5825SOL    HW118374   2.689   0.682   0.795
 5825SOL    HW218375   2.793   0.806   0.818
 5826SOL     OW18376   6.437   0.925   4.790
 5826SOL    HW118377   6.454   0.977   4.706
 5826SOL    HW218378   6.446   0.986   4.869
 5827SOL     OW18379   1.134   5.219   5.105
 5827SOL    HW118380   1.065   5.178   5.165
 5827SOL    HW218381   1.103   5.213   5.010
 5828SOL     OW18382   6.834   2.916   1.604
 5828SOL    HW118383   6.785   2.834   1.635
 5828SOL    HW218384   6.779   2.964   1.536
 5829SOL     OW18385   1.671   1.027   1.778
 5829SOL    HW118386   1.759   1.003   1.819
 5829SOL    HW218387   1.613   1.072   1.846
 5830SOL     OW18388   1.715   1.385   5.723
 5830SOL    HW118389   1.806   1.427   5.730
 5830SOL    HW218390   1.671   1.386   5.812
 5831SOL     OW18391   5.632   6.654   2.874
 5831SOL    HW118392   5.726   6.651   2.910
 5831SOL    HW218393   5.571   6.604   2.936
 5832SOL     OW18394   3.655   3.633   5.289
 5832SOL    HW118395   3.700   3.620   5.201
 5832SOL    HW218396   3.581   3.700   5.279
 5833SOL     OW18397   3.807   3.432   4.881
 5833SOL    HW118398   3.752   3.348   4.873
 5833SOL    HW218399   3.900   3.408   4.911
 5834SOL     OW18400   5.900   0.971   0.422
 5834SOL    HW118401   5.823   1.002   0.479
 5834SOL    HW218402   5.986   1.002   0.463
 5835SOL     OW18403   5.225   2.252   4.065
 5835SOL    HW118404   5.285   2.270   3.987
 5835SOL    HW218405   5.226   2.154   4.085
 5836SOL     OW18406   3.550   5.999   2.354
 5836SOL    HW118407   3.493   5.991   2.272
 5836SOL    HW218408   3.553   5.911   2.402
 5837SOL     OW18409   4.828   4.525   6.197
 5837SOL    HW118410   4.769   4.451   6.166
 5837SOL    HW218411   4.805   4.548   6.292
 5838SOL     OW18412   0.602   2.012   5.422
 5838SOL    HW118413   0.699   2.028   5.402
 5838SOL    HW218414   0.582   2.042   5.515
 5839SOL     OW18415   0.155   3.094   2.744
 5839SOL    HW118416   0.193   3.184   2.726
 5839SOL    HW218417   0.130   3.086   2.840
 5840SOL     OW18418   1.775   5.236   6.578
 5840SOL    HW118419   1.739   5.146   6.603
 5840SOL    HW218420   1.871   5.241   6.605
 5841SOL     OW18421   6.719   2.598   3.028
 5841SOL    HW118422   6.778   2.534   3.077
 5841SOL    HW218423   6.639   2.619   3.084
 5842SOL     OW18424   4.047   2.908   0.671
 5842SOL    HW118425   4.015   2.814   0.659
 5842SOL    HW218426   3.995   2.952   0.743
 5843SOL     OW18427   1.257   3.297   1.802
 5843SOL    HW118428   1.316   3.219   1.826
 5843SOL    HW218429   1.309   3.362   1.746
 5844SOL     OW18430   1.259   6.203   0.503
 5844SOL    HW118431   1.354   6.230   0.520
 5844SOL    HW218432   1.234   6.225   0.409
 5845SOL     OW18433   1.037   2.399   4.470
 5845SOL    HW118434   1.087   2.312   4.461
 5845SOL    HW218435   0.970   2.391   4.543
 5846SOL     OW18436   6.918   3.040   5.959
 5846SOL    HW118437   6.959   2.994   6.039
 5846SOL    HW218438   6.926   3.139   5.970
 5847SOL     OW18439   1.923   2.889   3.320
 5847SOL    HW118440   2.010   2.842   3.332
 5847SOL    HW218441   1.922   2.936   3.232
 5848SOL     OW18442   1.589   4.969   3.966
 5848SOL    HW118443   1.643   4.895   4.004
 5848SOL    HW218444   1.638   5.011   3.890
 5849SOL     OW18445   3.045   6.826   5.875
 5849SOL    HW118446   3.139   6.858   5.886
 5849SOL    HW218447   3.046   6.732   5.841
 5850SOL     OW18448   0.902   4.313   2.986
 5850SOL    HW118449   0.900   4.253   3.066
 5850SOL    HW218450   0.833   4.385   2.996
 5851SOL     OW18451   6.117   3.272   1.809
 5851SOL    HW118452   6.121   3.290   1.907
 5851SOL    HW218453   6.028   3.231   1.786
 5852SOL     OW18454   4.064   5.872   2.937
 5852SOL    HW118455   4.113   5.939   2.881
 5852SOL    HW218456   4.008   5.920   3.004
 5853SOL     OW18457   3.846   4.151   5.951
 5853SOL    HW118458   3.768   4.202   5.914
 5853SOL    HW218459   3.898   4.211   6.012
 5854SOL     OW18460   6.963   0.980   6.540
 5854SOL    HW118461   0.010   0.952   6.473
 5854SOL    HW218462   7.008   1.026   6.616
 5855SOL     OW18463   1.637   1.149   4.874
 5855SOL    HW118464   1.727   1.105   4.869
 5855SOL    HW218465   1.569   1.090   4.832
 5856SOL     OW18466   2.415   5.051   3.982
 5856SOL    HW118467   2.497   5.011   3.942
 5856SOL    HW218468   2.344   5.058   3.911
 5857SOL     OW18469   6.866   2.682   5.782
 5857SOL    HW118470   6.814   2.704   5.865
 5857SOL    HW218471   6.891   2.767   5.736
 5858SOL     OW18472   3.789   0.477   2.646
 5858SOL    HW118473   3.879   0.471   2.688
 5858SOL    HW218474   3.737   0.394   2.666
 5859SOL     OW18475   6.485   5.738   1.444
 5859SOL    HW118476   6.475   5.797   1.524
 5859SOL    HW218477   6.515   5.647   1.474
 5860SOL     OW18478   1.757   3.835   1.268
 5860SOL    HW118479   1.804   3.884   1.341
 5860SOL    HW218480   1.662   3.817   1.294
 5861SOL     OW18481   6.210   2.121   3.960
 5861SOL    HW118482   6.152   2.039   3.949
 5861SOL    HW218483   6.279   2.103   4.031
 5862SOL     OW18484   4.946   4.444   3.151
 5862SOL    HW118485   4.985   4.475   3.064
 5862SOL    HW218486   5.016   4.443   3.221
 5863SOL     OW18487   2.200   1.096   0.426
 5863SOL    HW118488   2.144   1.021   0.391
 5863SOL    HW218489   2.278   1.110   0.365
 5864SOL     OW18490   4.803   4.997   0.880
 5864SOL    HW118491   4.735   5.070   0.890
 5864SOL    HW218492   4.791   4.930   0.953
 5865SOL     OW18493   4.045   0.997   3.338
 5865SOL    HW118494   4.040   1.056   3.418
 5865SOL    HW218495   3.956   0.995   3.292
 5866SOL     OW18496   4.096   0.298   6.613
 5866SOL    HW118497   4.026   0.362   6.583
 5866SOL    HW218498   4.142   0.259   6.533
 5867SOL     OW18499   0.013   2.472   0.777
 5867SOL    HW118500   0.080   2.450   0.849
 5867SOL    HW218501   0.055   2.459   0.687
 5868SOL     OW18502   1.467   0.243   4.933
 5868SOL    HW118503   1.490   0.183   4.856
 5868SOL    HW218504   1.525   0.324   4.931
 5869SOL     OW18505   2.938   5.032   3.551
 5869SOL    HW118506   2.934   5.095   3.473
 5869SOL    HW218507   2.864   4.965   3.544
 5870SOL     OW18508   5.629   4.978   4.638
 5870SOL    HW118509   5.676   4.963   4.724
 5870SOL    HW218510   5.552   5.040   4.653
 5871SOL     OW18511   2.735   2.769   6.476
 5871SOL    HW118512   2.654   2.743   6.529
 5871SOL    HW218513   2.733   2.724   6.387
 5872SOL     OW18514   3.651   5.780   4.653
 5872SOL    HW118515   3.604   5.706   4.701
 5872SOL    HW218516   3.649   5.862   4.710
 5873SOL     OW18517   2.576   3.476   0.121
 5873SOL    HW118518   2.583   3.493   0.022
 5873SOL    HW218519   2.612   3.554   0.171
 5874SOL     OW18520   1.472   4.138   0.723
 5874SOL    HW118521   1.401   4.208   0.726
 5874SOL    HW218522   1.498   4.120   0.628
 5875SOL     OW18523   4.277   1.913   0.388
 5875SOL    HW118524   4.182   1.885   0.405
 5875SOL    HW218525   4.286   2.011   0.406
 5876SOL     OW18526   3.667   4.364   6.061
 5876SOL    HW118527   3.726   4.445   6.055
 5876SOL    HW218528   3.584   4.380   6.008
 5877SOL     OW18529   6.614   6.835   2.516
 5877SOL    HW118530   6.563   6.820   2.601
 5877SOL    HW218531   6.554   6.874   2.447
 5878SOL     OW18532   5.217   4.813   2.337
 5878SOL    HW118533   5.148   4.884   2.333
 5878SOL    HW218534   5.178   4.730   2.376
 5879SOL     OW18535   3.799   3.323   5.719
 5879SOL    HW118536   3.752   3.316   5.631
 5879SOL    HW218537   3.891   3.283   5.711
 5880SOL     OW18538   5.879   2.706   6.031
 5880SOL    HW118539   5.956   2.687   5.971
 5880SOL    HW218540   5.863   2.805   6.035
 5881SOL     OW18541   1.517   6.141   2.478
 5881SOL    HW118542   1.447   6.132   2.549
 5881SOL    HW218543   1.571   6.224   2.494
 5882SOL     OW18544   1.713   4.975   5.432
 5882SOL    HW118545   1.735   4.983   5.530
 5882SOL    HW218546   1.797   4.977   5.379
 5883SOL     OW18547   6.497   4.844   0.052
 5883SOL    HW118548   6.508   4.836   6.974
 5883SOL    HW218549   6.485   4.941   0.076
 5884SOL     OW18550   6.261   2.084   2.734
 5884SOL    HW118551   6.174   2.041   2.759
 5884SOL    HW218552   6.264   2.177   2.769
 5885SOL     OW18553   6.645   5.412   0.670
 5885SOL    HW118554   6.560   5.464   0.657
 5885SOL    HW218555   6.625   5.327   0.719
 5886SOL     OW18556   2.056   4.288   3.559
 5886SOL    HW118557   2.152   4.264   3.572
 5886SOL    HW218558   1.998   4.209   3.582
 5887SOL     OW18559   2.445   2.656   0.961
 5887SOL    HW118560   2.408   2.564   0.962
 5887SOL    HW218561   2.411   2.706   1.041
 5888SOL     OW18562   3.012   6.443   1.482
 5888SOL    HW118563   2.956   6.458   1.401
 5888SOL    HW218564   3.056   6.353   1.476
 5889SOL     OW18565   5.806   1.440   1.858
 5889SOL    HW118566   5.852   1.354   1.878
 5889SOL    HW218567   5.797   1.451   1.759
 5890SOL     OW18568   1.699   5.264   2.948
 5890SOL    HW118569   1.679   5.196   2.878
 5890SOL    HW218570   1.618   5.278   3.005
 5891SOL     OW18571   2.604   3.538   6.883
 5891SOL    HW118572   2.581   3.450   6.842
 5891SOL    HW218573   2.545   3.609   6.846
 5892SOL     OW18574   0.937   3.002   0.106
 5892SOL    HW118575   0.870   2.949   0.054
 5892SOL    HW218576   1.029   2.975   0.079
 5893SOL     OW18577   1.015   6.494   0.839
 5893SOL    HW118578   0.991   6.522   0.933
 5893SOL    HW218579   0.942   6.523   0.777
 5894SOL     OW18580   2.167   5.448   6.774
 5894SOL    HW118581   2.234   5.374   6.786
 5894SOL    HW218582   2.207   5.519   6.715
 5895SOL     OW18583   5.196   3.845   3.601
 5895SOL    HW118584   5.265   3.911   3.570
 5895SOL    HW218585   5.241   3.773   3.655
 5896SOL     OW18586   5.865   3.089   2.240
 5896SOL    HW118587   5.940   3.032   2.205
 5896SOL    HW218588   5.812   3.038   2.307
 5897SOL     OW18589   3.687   2.030   0.573
 5897SOL    HW118590   3.652   1.978   0.495
 5897SOL    HW218591   3.783   2.052   0.557
 5898SOL     OW18592   1.992   1.360   6.490
 5898SOL    HW118593   2.007   1.415   6.408
 5898SOL    HW218594   2.054   1.389   6.563
 5899SOL     OW18595   0.418   6.337   6.623
 5899SOL    HW118596   0.356   6.285   6.564
 5899SOL    HW218597   0.428   6.291   6.711
 5900SOL     OW18598   5.887   6.679   2.928
 5900SOL    HW118599   5.881   6.609   3.000
 5900SOL    HW218600   5.983   6.698   2.908
 5901SOL     OW18601   2.321   0.673   4.861
 5901SOL    HW118602   2.338   0.725   4.777
 5901SOL    HW218603   2.223   0.656   4.870
 5902SOL     OW18604   4.566   3.944   5.876
 5902SOL    HW118605   4.541   3.936   5.780
 5902SOL    HW218606   4.654   3.991   5.884
 5903SOL     OW18607   6.282   1.677   5.233
 5903SOL    HW118608   6.186   1.695   5.214
 5903SOL    HW218609   6.295   1.579   5.247
 5904SOL     OW18610   0.778   4.923   1.642
 5904SOL    HW118611   0.718   4.959   1.570
 5904SOL    HW218612   0.807   4.831   1.617
 5905SOL     OW18613   5.939   1.611   4.447
 5905SOL    HW118614   5.960   1.674   4.372
 5905SOL    HW218615   5.843   1.583   4.441
 5906SOL     OW18616   4.599   1.054   5.549
 5906SOL    HW118617   4.504   1.088   5.547
 5906SOL    HW218618   4.661   1.131   5.564
 5907SOL     OW18619   1.395   3.806   5.439
 5907SOL    HW118620   1.449   3.722   5.448
 5907SOL    HW218621   1.418   3.852   5.354
 5908SOL     OW18622   4.849   3.512   6.484
 5908SOL    HW118623   4.842   3.602   6.528
 5908SOL    HW218624   4.821   3.442   6.549
 5909SOL     OW18625   6.486   4.731   3.780
 5909SOL    HW118626   6.445   4.814   3.742
 5909SOL    HW218627   6.506   4.668   3.705
 5910SOL     OW18628   3.231   4.809   0.956
 5910SOL    HW118629   3.307   4.760   1.000
 5910SOL    HW218630   3.182   4.747   0.894
 5911SOL     OW18631   5.779   6.405   0.312
 5911SOL    HW118632   5.855   6.453   0.268
 5911SOL    HW218633   5.780   6.424   0.410
 5912SOL     OW18634   0.587   3.230   5.194
 5912SOL    HW118635   0.684   3.223   5.172
 5912SOL    HW218636   0.577   3.264   5.288
 5913SOL     OW18637   1.403   2.071   5.153
 5913SOL    HW118638   1.314   2.068   5.107
 5913SOL    HW218639   1.403   2.145   5.219
 5914SOL     OW18640   2.000   5.673   0.992
 5914SOL    HW118641   2.085   5.623   0.980
 5914SOL    HW218642   1.927   5.628   0.940
 5915SOL     OW18643   5.340   3.171   3.797
 5915SOL    HW118644   5.377   3.168   3.704
 5915SOL    HW218645   5.413   3.151   3.862
 5916SOL     OW18646   3.022   6.999   6.209
 5916SOL    HW118647   2.998   0.045   6.140
 5916SOL    HW218648   2.940   6.948   6.235
 5917SOL     OW18649   4.058   3.762   2.851
 5917SOL    HW118650   3.977   3.812   2.881
 5917SOL    HW218651   4.096   3.710   2.928
 5918SOL     OW18652   2.341   2.784   3.537
 5918SOL    HW118653   2.397   2.703   3.525
 5918SOL    HW218654   2.245   2.757   3.550
 5919SOL     OW18655   1.392   2.558   0.049
 5919SOL    HW118656   1.342   2.571   6.985
 5919SOL    HW218657   1.328   2.548   0.125
 5920SOL     OW18658   2.874   5.482   0.165
 5920SOL    HW118659   2.825   5.406   0.207
 5920SOL    HW218660   2.810   5.557   0.147
 5921SOL     OW18661   3.628   5.356   5.593
 5921SOL    HW118662   3.655   5.378   5.687
 5921SOL    HW218663   3.709   5.331   5.540
 5922SOL     OW18664   5.988   4.364   1.471
 5922SOL    HW118665   6.086   4.347   1.469
 5922SOL    HW218666   5.951   4.333   1.559
 5923SOL     OW18667   6.841   0.422   3.796
 5923SOL    HW118668   6.871   0.518   3.798
 5923SOL    HW218669   6.815   0.397   3.702
 5924SOL     OW18670   5.636   1.862   4.824
 5924SOL    HW118671   5.648   1.960   4.812
 5924SOL    HW218672   5.726   1.819   4.836
 5925SOL     OW18673   6.224   5.691   0.990
 5925SOL    HW118674   6.297   5.743   0.945
 5925SOL    HW218675   6.209   5.605   0.941
 5926SOL     OW18676   3.749   4.935   2.373
 5926SOL    HW118677   3.775   5.019   2.324
 5926SOL    HW218678   3.668   4.896   2.329
 5927SOL     OW18679   2.297   5.106   2.216
 5927SOL    HW118680   2.282   5.033   2.282
 5927SOL    HW218681   2.230   5.097   2.142
 5928SOL     OW18682   1.016   6.536   1.661
 5928SOL    HW118683   1.064   6.617   1.694
 5928SOL    HW218684   0.946   6.563   1.595
 5929SOL     OW18685   1.314   0.037   5.559
 5929SOL    HW118686   1.407   0.052   5.524
 5929SOL    HW218687   1.302   0.089   5.644
 5930SOL     OW18688   6.956   1.203   5.047
 5930SOL    HW118689   6.998   1.294   5.048
 5930SOL    HW218690   6.992   1.149   5.123
 5931SOL     OW18691   5.792   5.046   1.567
 5931SOL    HW118692   5.798   5.075   1.662
 5931SOL    HW218693   5.885   5.029   1.532
 5932SOL     OW18694   2.263   6.961   0.054
 5932SOL    HW118695   2.234   6.874   0.094
 5932SOL    HW218696   2.192   6.994   7.013
 5933SOL     OW18697   5.989   3.537   2.629
 5933SOL    HW118698   5.898   3.496   2.629
 5933SOL    HW218699   6.033   3.521   2.717
 5934SOL     OW18700   3.217   4.028   2.515
 5934SOL    HW118701   3.122   4.001   2.498
 5934SOL    HW218702   3.258   4.062   2.431
 5935SOL     OW18703   4.109   3.355   3.065
 5935SOL    HW118704   4.095   3.336   2.968
 5935SOL    HW218705   4.037   3.309   3.118
 5936SOL     OW18706   5.643   6.058   6.075
 5936SOL    HW118707   5.584   6.124   6.028
 5936SOL    HW218708   5.729   6.048   6.023
 5937SOL     OW18709   0.798   4.081   0.342
 5937SOL    HW118710   0.793   4.115   0.248
 5937SOL    HW218711   0.886   4.106   0.381
 5938SOL     OW18712   1.826   4.353   1.417
 5938SOL    HW118713   1.876   4.440   1.408
 5938SOL    HW218714   1.880   4.289   1.471
 5939SOL     OW18715   2.408   1.066   2.736
 5939SOL    HW118716   2.379   1.143   2.792
 5939SOL    HW218717   2.331   1.032   2.682
 5940SOL     OW18718   3.985   5.248   3.501
 5940SOL    HW118719   4.053   5.272   3.431
 5940SOL    HW218720   4.030   5.244   3.590
 5941SOL     OW18721   6.455   4.166   2.602
 5941SOL    HW118722   6.534   4.110   2.575
 5941SOL    HW218723   6.463   4.257   2.561
 5942SOL     OW18724   6.041   1.840   5.103
 5942SOL    HW118725   5.972   1.850   5.176
 5942SOL    HW218726   6.024   1.910   5.033
 5943SOL     OW18727   0.847   5.277   0.338
 5943SOL    HW118728   0.830   5.363   0.290
 5943SOL    HW218729   0.861   5.204   0.271
 5944SOL     OW18730   4.678   2.050   2.995
 5944SOL    HW118731   4.641   2.126   2.942
 5944SOL    HW218732   4.602   1.997   3.034
 5945SOL     OW18733   0.199   5.021   5.736
 5945SOL    HW118734   0.279   5.005   5.794
 5945SOL    HW218735   0.195   5.117   5.711
 5946SOL     OW18736   3.923   2.785   5.303
 5946SOL    HW118737   3.888   2.849   5.236
 5946SOL    HW218738   3.970   2.710   5.256
 5947SOL     OW18739   4.179   3.778   1.583
 5947SOL    HW118740   4.159   3.728   1.668
 5947SOL    HW218741   4.211   3.870   1.605
 5948SOL     OW18742   3.611   5.485   3.279
 5948SOL    HW118743   3.628   5.391   3.308
 5948SOL    HW218744   3.520   5.514   3.310
 5949SOL     OW18745   4.583   4.715   2.218
 5949SOL    HW118746   4.573   4.658   2.300
 5949SOL    HW218747   4.662   4.684   2.166
 5950SOL     OW18748   6.672   2.152   3.635
 5950SOL    HW118749   6.616   2.179   3.556
 5950SOL    HW218750   6.640   2.201   3.716
 5951SOL     OW18751   1.999   6.547   3.633
 5951SOL    HW118752   1.972   6.493   3.712
 5951SOL    HW218753   1.938   6.625   3.623
 5952SOL     OW18754   6.902   6.508   5.046
 5952SOL    HW118755   6.916   6.528   4.949
 5952SOL    HW218756   6.804   6.494   5.062
 5953SOL     OW18757   0.239   3.381   6.032
 5953SOL    HW118758   0.254   3.337   6.120
 5953SOL    HW218759   0.327   3.395   5.986
 5954SOL     OW18760   1.325   4.850   6.726
 5954SOL    HW118761   1.233   4.812   6.715
 5954SOL    HW218762   1.322   4.949   6.714
 5955SOL     OW18763   5.092   5.550   3.008
 5955SOL    HW118764   5.133   5.506   2.929
 5955SOL    HW218765   5.162   5.600   3.059
 5956SOL     OW18766   5.907   2.340   6.844
 5956SOL    HW118767   5.867   2.369   6.931
 5956SOL    HW218768   6.001   2.307   6.860
 5957SOL     OW18769   4.609   6.839   5.610
 5957SOL    HW118770   4.570   6.777   5.542
 5957SOL    HW218771   4.554   6.837   5.693
 5958SOL     OW18772   1.281   5.702   2.574
 5958SOL    HW118773   1.232   5.659   2.498
 5958SOL    HW218774   1.342   5.635   2.616
 5959SOL     OW18775   1.700   1.366   6.524
 5959SOL    HW118776   1.792   1.395   6.550
 5959SOL    HW218777   1.659   1.315   6.599
 5960SOL     OW18778   3.386   0.046   4.856
 5960SOL    HW118779   3.339   0.132   4.876
 5960SOL    HW218780   3.485   0.059   4.867
 5961SOL     OW18781   2.597   1.280   6.220
 5961SOL    HW118782   2.511   1.294   6.270
 5961SOL    HW218783   2.645   1.368   6.211
 5962SOL     OW18784   5.223   5.425   2.804
 5962SOL    HW118785   5.273   5.415   2.890
 5962SOL    HW218786   5.263   5.366   2.735
 5963SOL     OW18787   3.966   3.915   2.080
 5963SOL    HW118788   3.911   3.846   2.126
 5963SOL    HW218789   3.997   3.984   2.146
 5964SOL     OW18790   1.008   4.385   5.807
 5964SOL    HW118791   0.958   4.357   5.889
 5964SOL    HW218792   1.039   4.479   5.817
 5965SOL     OW18793   2.348   1.739   4.143
 5965SOL    HW118794   2.249   1.736   4.127
 5965SOL    HW218795   2.374   1.831   4.174
 5966SOL     OW18796   1.743   6.602   3.961
 5966SOL    HW118797   1.692   6.586   3.876
 5966SOL    HW218798   1.710   6.687   4.003
 5967SOL     OW18799   4.485   6.958   1.965
 5967SOL    HW118800   4.482   6.860   1.945
 5967SOL    HW218801   4.542   7.004   1.897
 5968SOL     OW18802   0.540   2.327   4.083
 5968SOL    HW118803   0.468   2.396   4.095
 5968SOL    HW218804   0.630   2.369   4.097
 5969SOL     OW18805   5.803   3.027   2.825
 5969SOL    HW118806   5.801   2.929   2.840
 5969SOL    HW218807   5.738   3.052   2.753
 5970SOL     OW18808   2.060   2.881   3.872
 5970SOL    HW118809   1.987   2.928   3.921
 5970SOL    HW218810   2.147   2.895   3.918
 5971SOL     OW18811   2.696   6.906   2.931
 5971SOL    HW118812   2.767   6.953   2.982
 5971SOL    HW218813   2.723   6.899   2.835
 5972SOL     OW18814   4.721   6.595   1.377
 5972SOL    HW118815   4.783   6.547   1.314
 5972SOL    HW218816   4.706   6.688   1.344
 5973SOL     OW18817   0.934   4.861   3.780
 5973SOL    HW118818   0.902   4.778   3.736
 5973SOL    HW218819   1.030   4.851   3.805
 5974SOL     OW18820   1.215   3.871   6.325
 5974SOL    HW118821   1.204   3.969   6.342
 5974SOL    HW218822   1.311   3.850   6.310
 5975SOL     OW18823   1.673   3.228   6.689
 5975SOL    HW118824   1.746   3.272   6.637
 5975SOL    HW218825   1.645   3.145   6.642
 5976SOL     OW18826   3.447   3.694   4.879
 5976SOL    HW118827   3.458   3.636   4.798
 5976SOL    HW218828   3.368   3.665   4.932
 5977SOL     OW18829   1.114   3.394   3.179
 5977SOL    HW118830   1.066   3.324   3.232
 5977SOL    HW218831   1.186   3.351   3.125
 5978SOL     OW18832   5.644   5.517   3.299
 5978SOL    HW118833   5.567   5.478   3.350
 5978SOL    HW218834   5.610   5.587   3.237
 5979SOL     OW18835   0.641   0.683   2.663
 5979SOL    HW118836   0.672   0.647   2.575
 5979SOL    HW218837   0.574   0.755   2.648
 5980SOL     OW18838   6.087   3.937   6.181
 5980SOL    HW118839   6.042   3.861   6.227
 5980SOL    HW218840   6.134   3.994   6.248
 5981SOL     OW18841   3.765   2.085   1.349
 5981SOL    HW118842   3.823   2.116   1.424
 5981SOL    HW218843   3.746   2.163   1.288
 5982SOL     OW18844   5.869   2.525   6.643
 5982SOL    HW118845   5.785   2.504   6.593
 5982SOL    HW218846   5.874   2.468   6.725
 5983SOL     OW18847   1.204   1.260   4.743
 5983SOL    HW118848   1.198   1.267   4.643
 5983SOL    HW218849   1.293   1.294   4.773
 5984SOL     OW18850   0.548   0.229   5.623
 5984SOL    HW118851   0.575   0.133   5.630
 5984SOL    HW218852   0.449   0.236   5.640
 5985SOL     OW18853   4.855   3.012   4.422
 5985SOL    HW118854   4.830   3.108   4.437
 5985SOL    HW218855   4.822   2.957   4.499
 5986SOL     OW18856   3.858   3.072   2.221
 5986SOL    HW118857   3.954   3.097   2.239
 5986SOL    HW218858   3.799   3.149   2.242
 5987SOL     OW18859   4.275   6.752   5.468
 5987SOL    HW118860   4.198   6.718   5.415
 5987SOL    HW218861   4.361   6.719   5.429
 5988SOL     OW18862   3.935   0.758   4.139
 5988SOL    HW118863   4.016   0.783   4.086
 5988SOL    HW218864   3.961   0.747   4.235
 5989SOL     OW18865   2.755   0.667   6.481
 5989SOL    HW118866   2.795   0.646   6.391
 5989SOL    HW218867   2.759   0.766   6.497
 5990SOL     OW18868   3.102   5.078   2.183
 5990SOL    HW118869   3.150   5.041   2.262
 5990SOL    HW218870   3.164   5.140   2.133
 5991SOL     OW18871   3.129   5.287   3.767
 5991SOL    HW118872   3.044   5.319   3.727
 5991SOL    HW218873   3.197   5.272   3.696
 5992SOL     OW18874   4.537   1.284   4.261
 5992SOL    HW118875   4.635   1.277   4.240
 5992SOL    HW218876   4.487   1.314   4.180
 5993SOL     OW18877   3.590   5.291   4.236
 5993SOL    HW118878   3.675   5.285   4.184
 5993SOL    HW218879   3.526   5.350   4.188
 5994SOL     OW18880   6.758   2.366   2.026
 5994SOL    HW118881   6.668   2.387   1.989
 5994SOL    HW218882   6.758   2.275   2.066
 5995SOL     OW18883   0.534   4.711   1.188
 5995SOL    HW118884   0.440   4.743   1.177
 5995SOL    HW218885   0.535   4.634   1.251
 5996SOL     OW18886   0.751   4.965   6.175
 5996SOL    HW118887   0.738   4.977   6.076
 5996SOL    HW218888   0.848   4.949   6.194
 5997SOL     OW18889   0.777   0.228   1.953
 5997SOL    HW118890   0.803   0.147   1.900
 5997SOL    HW218891   0.693   0.267   1.916
 5998SOL     OW18892   4.138   1.913   3.576
 5998SOL    HW118893   4.111   1.884   3.484
 5998SOL    HW218894   4.092   1.856   3.644
 5999SOL     OW18895   2.172   2.011   2.906
 5999SOL    HW118896   2.156   1.996   2.808
 5999SOL    HW218897   2.107   1.956   2.959
 6000SOL     OW18898   4.459   6.580   2.793
 6000SOL    HW118899   4.449   6.541   2.884
 6000SOL    HW218900   4.554   6.574   2.764
 6001SOL     OW18901   6.246   1.932   0.053
 6001SOL    HW118902   6.159   1.930   0.004
 6001SOL    HW218903   6.314   1.980   7.019
 6002SOL     OW18904   1.776   6.943   2.034
 6002SOL    HW118905   1.742   0.014   2.051
 6002SOL    HW218906   1.701   6.884   2.006
 6003SOL     OW18907   4.827   4.145   3.807
 6003SOL    HW118908   4.743   4.192   3.781
 6003SOL    HW218909   4.852   4.079   3.737
 6004SOL     OW18910   0.156   3.591   1.391
 6004SOL    HW118911   0.159   3.569   1.293
 6004SOL    HW218912   0.148   3.690   1.402
 6005SOL     OW18913   2.828   5.815   2.313
 6005SOL    HW118914   2.792   5.870   2.238
 6005SOL    HW218915   2.890   5.870   2.369
 6006SOL     OW18916   2.420   5.668   6.839
 6006SOL    HW118917   2.378   5.730   6.905
 6006SOL    HW218918   2.519   5.684   6.837
 6007SOL     OW18919   5.582   2.029   4.010
 6007SOL    HW118920   5.663   1.973   3.992
 6007SOL    HW218921   5.508   2.002   3.948
 6008SOL     OW18922   4.063   4.990   6.867
 6008SOL    HW118923   4.116   4.907   6.851
 6008SOL    HW218924   4.082   5.056   6.794
 6009SOL     OW18925   3.238   1.469   4.188
 6009SOL    HW118926   3.293   1.547   4.219
 6009SOL    HW218927   3.146   1.500   4.167
 6010SOL     OW18928   1.540   3.004   3.699
 6010SOL    HW118929   1.629   3.015   3.743
 6010SOL    HW218930   1.552   3.003   3.599
 6011SOL     OW18931   0.130   2.614   2.402
 6011SOL    HW118932   0.043   2.575   2.371
 6011SOL    HW218933   0.141   2.596   2.500
 6012SOL     OW18934   6.999   3.230   0.877
 6012SOL    HW118935   7.008   3.220   0.976
 6012SOL    HW218936   6.946   3.153   0.841
 6013SOL     OW18937   5.658   0.663   2.524
 6013SOL    HW118938   5.746   0.649   2.570
 6013SOL    HW218939   5.672   0.663   2.425
 6014SOL     OW18940   5.498   0.323   1.217
 6014SOL    HW118941   5.425   0.311   1.284
 6014SOL    HW218942   5.549   0.407   1.237
 6015SOL     OW18943   4.886   1.402   4.721
 6015SOL    HW118944   4.794   1.384   4.686
 6015SOL    HW218945   4.889   1.495   4.759
 6016SOL     OW18946   1.742   0.035   5.326
 6016SOL    HW118947   1.679   0.057   5.401
 6016SOL    HW218948   1.833   0.071   5.347
 6017SOL     OW18949   6.637   3.943   2.553
 6017SOL    HW118950   6.688   3.935   2.639
 6017SOL    HW218951   6.700   3.963   2.478
 6018SOL     OW18952   2.643   5.306   0.885
 6018SOL    HW118953   2.658   5.222   0.833
 6018SOL    HW218954   2.685   5.299   0.975
 6019SOL     OW18955   5.150   6.930   3.829
 6019SOL    HW118956   5.187   6.857   3.772
 6019SOL    HW218957   5.062   6.961   3.792
 6020SOL     OW18958   3.351   0.457   2.282
 6020SOL    HW118959   3.374   0.535   2.223
 6020SOL    HW218960   3.277   0.482   2.344
 6021SOL     OW18961   4.203   0.951   3.094
 6021SOL    HW118962   4.153   0.970   3.178
 6021SOL    HW218963   4.169   0.866   3.053
 6022SOL     OW18964   4.162   1.447   5.838
 6022SOL    HW118965   4.203   1.524   5.788
 6022SOL    HW218966   4.102   1.396   5.776
 6023SOL     OW18967   0.034   1.758   2.583
 6023SOL    HW118968   6.972   1.712   2.612
 6023SOL    HW218969   0.053   1.736   2.487
 6024SOL     OW18970   0.664   5.287   2.194
 6024SOL    HW118971   0.633   5.241   2.277
 6024SOL    HW218972   0.722   5.226   2.141
 6025SOL     OW18973   3.978   2.187   2.371
 6025SOL    HW118974   4.039   2.220   2.299
 6025SOL    HW218975   4.006   2.227   2.459
 6026SOL     OW18976   0.791   4.824   5.614
 6026SOL    HW118977   0.795   4.856   5.519
 6026SOL    HW218978   0.878   4.782   5.638
 6027SOL     OW18979   3.215   3.446   1.152
 6027SOL    HW118980   3.305   3.489   1.155
 6027SOL    HW218981   3.147   3.511   1.119
 6028SOL     OW18982   1.408   4.274   6.959
 6028SOL    HW118983   1.460   4.341   6.908
 6028SOL    HW218984   1.424   4.183   6.921
 6029SOL     OW18985   1.522   5.513   1.502
 6029SOL    HW118986   1.615   5.489   1.476
 6029SOL    HW218987   1.466   5.526   1.419
 6030SOL     OW18988   2.116   6.581   1.449
 6030SOL    HW118989   2.139   6.677   1.461
 6030SOL    HW218990   2.166   6.543   1.371
 6031SOL     OW18991   5.289   0.408   4.934
 6031SOL    HW118992   5.241   0.349   4.869
 6031SOL    HW218993   5.263   0.383   5.027
 6032SOL     OW18994   0.337   3.678   2.787
 6032SOL    HW118995   0.250   3.636   2.814
 6032SOL    HW218996   0.405   3.661   2.859
 6033SOL     OW18997   0.624   0.544   4.258
 6033SOL    HW118998   0.692   0.578   4.324
 6033SOL    HW218999   0.668   0.482   4.194
 6034SOL     OW19000   2.302   4.154   4.739
 6034SOL    HW119001   2.343   4.112   4.820
 6034SOL    HW219002   2.347   4.242   4.722
 6035SOL     OW19003   5.628   0.736   4.222
 6035SOL    HW119004   5.595   0.678   4.297
 6035SOL    HW219005   5.724   0.717   4.205
 6036SOL     OW19006   0.644   1.057   3.854
 6036SOL    HW119007   0.707   1.022   3.923
 6036SOL    HW219008   0.621   1.152   3.875
 6037SOL     OW19009   6.801   5.420   4.920
 6037SOL    HW119010   6.718   5.369   4.896
 6037SOL    HW219011   6.786   5.518   4.903
 6038SOL     OW19012   5.002   4.232   6.085
 6038SOL    HW119013   4.910   4.271   6.082
 6038SOL    HW219014   5.004   4.155   6.149
 6039SOL     OW19015   3.504   3.198   3.617
 6039SOL    HW119016   3.522   3.193   3.715
 6039SOL    HW219017   3.590   3.220   3.569
 6040SOL     OW19018   1.051   1.527   0.239
 6040SOL    HW119019   1.004   1.519   0.327
 6040SOL    HW219020   1.010   1.603   0.187
 6041SOL     OW19021   0.551   2.824   0.284
 6041SOL    HW119022   0.609   2.749   0.314
 6041SOL    HW219023   0.543   2.892   0.357
 6042SOL     OW19024   5.897   5.151   4.580
 6042SOL    HW119025   5.979   5.191   4.539
 6042SOL    HW219026   5.921   5.070   4.633
 6043SOL     OW19027   0.559   5.068   3.945
 6043SOL    HW119028   0.592   5.162   3.935
 6043SOL    HW219029   0.609   5.023   4.019
 6044SOL     OW19030   1.141   0.583   1.426
 6044SOL    HW119031   1.071   0.582   1.355
 6044SOL    HW219032   1.224   0.625   1.390
 6045SOL     OW19033   0.297   3.486   0.819
 6045SOL    HW119034   0.356   3.517   0.894
 6045SOL    HW219035   0.354   3.457   0.742
 6046SOL     OW19036   2.725   2.934   0.355
 6046SOL    HW119037   2.721   3.025   0.315
 6046SOL    HW219038   2.654   2.925   0.424
 6047SOL     OW19039   0.563   6.272   4.845
 6047SOL    HW119040   0.562   6.272   4.745
 6047SOL    HW219041   0.483   6.321   4.879
 6048SOL     OW19042   5.063   6.011   5.022
 6048SOL    HW119043   5.064   5.911   5.019
 6048SOL    HW219044   5.148   6.046   4.983
 6049SOL     OW19045   6.052   5.262   1.368
 6049SOL    HW119046   5.990   5.323   1.418
 6049SOL    HW219047   6.084   5.309   1.285
 6050SOL     OW19048   4.925   4.449   5.458
 6050SOL    HW119049   4.937   4.464   5.557
 6050SOL    HW219050   5.010   4.414   5.420
 6051SOL     OW19051   2.265   2.099   3.549
 6051SOL    HW119052   2.256   2.199   3.541
 6051SOL    HW219053   2.183   2.063   3.595
 6052SOL     OW19054   6.696   1.148   0.487
 6052SOL    HW119055   6.780   1.183   0.445
 6052SOL    HW219056   6.716   1.118   0.580
 6053SOL     OW19057   1.949   0.270   5.910
 6053SOL    HW119058   1.968   0.173   5.901
 6053SOL    HW219059   1.879   0.285   5.980
 6054SOL     OW19060   2.625   4.725   6.817
 6054SOL    HW119061   2.691   4.780   6.766
 6054SOL    HW219062   2.672   4.677   6.891
 6055SOL     OW19063   4.753   0.714   3.823
 6055SOL    HW119064   4.714   0.646   3.885
 6055SOL    HW219065   4.718   0.805   3.847
 6056SOL     OW19066   4.929   2.848   6.546
 6056SOL    HW119067   4.912   2.769   6.605
 6056SOL    HW219068   4.961   2.925   6.601
 6057SOL     OW19069   3.290   0.526   6.214
 6057SOL    HW119070   3.314   0.438   6.255
 6057SOL    HW219071   3.215   0.568   6.267
 6058SOL     OW19072   5.743   1.675   4.142
 6058SOL    HW119073   5.643   1.667   4.132
 6058SOL    HW219074   5.775   1.604   4.204
 6059SOL     OW19075   6.827   6.118   6.421
 6059SOL    HW119076   6.728   6.125   6.419
 6059SOL    HW219077   6.855   6.031   6.463
 6060SOL     OW19078   3.448   6.435   6.264
 6060SOL    HW119079   3.434   6.503   6.336
 6060SOL    HW219080   3.494   6.478   6.186
 6061SOL     OW19081   1.895   1.634   6.581
 6061SOL    HW119082   1.849   1.689   6.512
 6061SOL    HW219083   1.858   1.657   6.672
 6062SOL     OW19084   2.135   0.930   4.434
 6062SOL    HW119085   2.173   0.851   4.481
 6062SOL    HW219086   2.169   0.932   4.339
 6063SOL     OW19087   4.752   7.019   0.519
 6063SOL    HW119088   4.672   6.998   0.463
 6063SOL    HW219089   4.785   0.089   0.498
 6064SOL     OW19090   0.641   5.820   3.489
 6064SOL    HW119091   0.621   5.852   3.581
 6064SOL    HW219092   0.596   5.731   3.474
 6065SOL     OW19093   6.432   0.111   1.025
 6065SOL    HW119094   6.433   0.072   0.933
 6065SOL    HW219095   6.452   0.209   1.020
 6066SOL     OW19096   4.470   2.150   6.674
 6066SOL    HW119097   4.443   2.128   6.768
 6066SOL    HW219098   4.559   2.196   6.675
 6067SOL     OW19099   5.747   1.909   6.733
 6067SOL    HW119100   5.767   1.994   6.686
 6067SOL    HW219101   5.661   1.919   6.785
 6068SOL     OW19102   4.800   2.004   5.331
 6068SOL    HW119103   4.730   2.021   5.400
 6068SOL    HW219104   4.866   2.079   5.331
 6069SOL     OW19105   5.964   3.961   4.214
 6069SOL    HW119106   5.984   4.056   4.194
 6069SOL    HW219107   5.942   3.913   4.129
 6070SOL     OW19108   3.329   2.481   6.865
 6070SOL    HW119109   3.335   2.575   6.898
 6070SOL    HW219110   3.282   2.479   6.777
 6071SOL     OW19111   4.717   6.362   5.118
 6071SOL    HW119112   4.643   6.304   5.084
 6071SOL    HW219113   4.795   6.305   5.142
 6072SOL     OW19114   6.839   1.528   1.088
 6072SOL    HW119115   6.929   1.522   1.131
 6072SOL    HW219116   6.844   1.498   0.993
 6073SOL     OW19117   6.707   2.198   1.547
 6073SOL    HW119118   6.780   2.264   1.530
 6073SOL    HW219119   6.636   2.208   1.478
 6074SOL     OW19120   0.762   0.644   4.835
 6074SOL    HW119121   0.793   0.602   4.750
 6074SOL    HW219122   0.822   0.616   4.910
 6075SOL     OW19123   4.710   4.099   6.730
 6075SOL    HW119124   4.687   4.024   6.792
 6075SOL    HW219125   4.771   4.164   6.776
 6076SOL     OW19126   2.326   6.975   3.586
 6076SOL    HW119127   2.400   0.021   3.580
 6076SOL    HW219128   2.334   6.925   3.673
 6077SOL     OW19129   5.415   5.751   2.421
 6077SOL    HW119130   5.462   5.827   2.375
 6077SOL    HW219131   5.469   5.668   2.411
 6078SOL     OW19132   2.538   4.937   3.283
 6078SOL    HW119133   2.451   4.920   3.330
 6078SOL    HW219134   2.520   4.976   3.192
 6079SOL     OW19135   1.834   1.350   0.406
 6079SOL    HW119136   1.795   1.428   0.358
 6079SOL    HW219137   1.926   1.372   0.438
 6080SOL     OW19138   5.787   2.097   2.780
 6080SOL    HW119139   5.831   2.060   2.862
 6080SOL    HW219140   5.691   2.072   2.779
 6081SOL     OW19141   0.330   3.899   2.650
 6081SOL    HW119142   0.341   3.830   2.721
 6081SOL    HW219143   0.353   3.859   2.561
 6082SOL     OW19144   3.840   1.891   4.756
 6082SOL    HW119145   3.871   1.804   4.795
 6082SOL    HW219146   3.890   1.907   4.671
 6083SOL     OW19147   2.197   6.812   0.390
 6083SOL    HW119148   2.163   6.791   0.481
 6083SOL    HW219149   2.190   6.911   0.373
 6084SOL     OW19150   0.260   5.011   6.260
 6084SOL    HW119151   0.252   4.916   6.231
 6084SOL    HW219152   0.357   5.034   6.273
 6085SOL     OW19153   5.036   4.323   1.568
 6085SOL    HW119154   4.977   4.331   1.648
 6085SOL    HW219155   5.000   4.253   1.506
 6086SOL     OW19156   2.925   1.715   3.209
 6086SOL    HW119157   2.944   1.740   3.305
 6086SOL    HW219158   2.828   1.726   3.191
 6087SOL     OW19159   4.378   6.971   0.592
 6087SOL    HW119160   4.318   0.030   0.586
 6087SOL    HW219161   4.455   6.982   0.529
 6088SOL     OW19162   6.949   0.119   5.547
 6088SOL    HW119163   6.959   0.039   5.607
 6088SOL    HW219164   6.852   0.144   5.541
 6089SOL     OW19165   0.027   3.332   0.280
 6089SOL    HW119166   0.049   3.395   0.355
 6089SOL    HW219167   7.017   3.245   0.318
 6090SOL     OW19168   0.287   5.861   3.709
 6090SOL    HW119169   0.297   5.774   3.757
 6090SOL    HW219170   0.289   5.936   3.775
 6091SOL     OW19171   5.857   1.896   1.583
 6091SOL    HW119172   5.796   1.863   1.655
 6091SOL    HW219173   5.913   1.971   1.618
 6092SOL     OW19174   1.605   2.790   0.753
 6092SOL    HW119175   1.628   2.757   0.845
 6092SOL    HW219176   1.518   2.749   0.725
 6093SOL     OW19177   1.328   3.556   0.777
 6093SOL    HW119178   1.378   3.517   0.700
 6093SOL    HW219179   1.268   3.486   0.816
 6094SOL     OW19180   0.675   0.632   1.064
 6094SOL    HW119181   0.716   0.637   0.973
 6094SOL    HW219182   0.741   0.594   1.129
 6095SOL     OW19183   6.625   4.017   5.384
 6095SOL    HW119184   6.528   4.013   5.409
 6095SOL    HW219185   6.636   3.987   5.289
 6096SOL     OW19186   3.650   1.690   3.131
 6096SOL    HW119187   3.557   1.657   3.147
 6096SOL    HW219188   3.649   1.789   3.116
 6097SOL     OW19189   3.107   1.983   1.639
 6097SOL    HW119190   3.131   1.940   1.552
 6097SOL    HW219191   3.023   1.942   1.675
 6098SOL     OW19192   1.570   1.366   5.983
 6098SOL    HW119193   1.550   1.426   6.060
 6098SOL    HW219194   1.520   1.280   5.994
 6099SOL     OW19195   6.032   5.024   4.808
 6099SOL    HW119196   6.093   5.104   4.814
 6099SOL    HW219197   6.080   4.950   4.761
 6100SOL     OW19198   6.519   2.410   0.430
 6100SOL    HW119199   6.573   2.340   0.385
 6100SOL    HW219200   6.546   2.417   0.526
 6101SOL     OW19201   5.620   1.342   4.196
 6101SOL    HW119202   5.542   1.280   4.193
 6101SOL    HW219203   5.700   1.299   4.154
 6102SOL     OW19204   3.088   0.683   5.057
 6102SOL    HW119205   3.011   0.633   5.096
 6102SOL    HW219206   3.069   0.781   5.059
 6103SOL     OW19207   6.285   0.770   5.388
 6103SOL    HW119208   6.372   0.770   5.436
 6103SOL    HW219209   6.231   0.690   5.415
 6104SOL     OW19210   1.731   3.019   0.827
 6104SOL    HW119211   1.784   3.062   0.754
 6104SOL    HW219212   1.694   2.932   0.795
 6105SOL     OW19213   3.161   5.354   4.451
 6105SOL    HW119214   3.196   5.312   4.367
 6105SOL    HW219215   3.062   5.341   4.456
 6106SOL     OW19216   3.436   5.327   4.587
 6106SOL    HW119217   3.490   5.361   4.510
 6106SOL    HW219218   3.339   5.339   4.568
 6107SOL     OW19219   2.212   5.300   5.495
 6107SOL    HW119220   2.119   5.333   5.513
 6107SOL    HW219221   2.223   5.209   5.536
 6108SOL     OW19222   6.855   1.949   4.056
 6108SOL    HW119223   6.877   1.856   4.086
 6108SOL    HW219224   6.935   1.989   4.010
 6109SOL     OW19225   6.622   4.161   1.859
 6109SOL    HW119226   6.536   4.181   1.811
 6109SOL    HW219227   6.698   4.204   1.810
 6110SOL     OW19228   3.510   2.147   3.941
 6110SOL    HW119229   3.595   2.158   3.890
 6110SOL    HW219230   3.433   2.138   3.877
 6111SOL     OW19231   0.401   4.767   2.891
 6111SOL    HW119232   0.464   4.808   2.825
 6111SOL    HW219233   0.332   4.834   2.919
 6112SOL     OW19234   1.093   1.968   2.054
 6112SOL    HW119235   1.116   1.894   1.991
 6112SOL    HW219236   1.086   1.933   2.147
 6113SOL     OW19237   2.118   5.954   5.223
 6113SOL    HW119238   2.151   5.974   5.315
 6113SOL    HW219239   2.071   5.865   5.224
 6114SOL     OW19240   5.247   5.360   1.106
 6114SOL    HW119241   5.170   5.301   1.081
 6114SOL    HW219242   5.284   5.404   1.024
 6115SOL     OW19243   6.268   4.807   2.688
 6115SOL    HW119244   6.282   4.732   2.624
 6115SOL    HW219245   6.294   4.778   2.780
 6116SOL     OW19246   3.261   2.435   0.872
 6116SOL    HW119247   3.248   2.337   0.863
 6116SOL    HW219248   3.176   2.477   0.905
 6117SOL     OW19249   5.389   6.630   3.902
 6117SOL    HW119250   5.449   6.710   3.904
 6117SOL    HW219251   5.360   6.607   3.995
 6118SOL     OW19252   6.008   0.202   2.729
 6118SOL    HW119253   5.941   0.263   2.770
 6118SOL    HW219254   6.020   0.121   2.787
 6119SOL     OW19255   6.444   5.388   3.614
 6119SOL    HW119256   6.377   5.373   3.541
 6119SOL    HW219257   6.533   5.411   3.574
 6120SOL     OW19258   2.429   0.734   3.286
 6120SOL    HW119259   2.451   0.713   3.382
 6120SOL    HW219260   2.511   0.770   3.240
 6121SOL     OW19261   6.710   2.068   4.267
 6121SOL    HW119262   6.771   2.015   4.207
 6121SOL    HW219263   6.657   2.132   4.212
 6122SOL     OW19264   4.391   6.014   3.684
 6122SOL    HW119265   4.438   5.927   3.699
 6122SOL    HW219266   4.413   6.077   3.758
 6123SOL     OW19267   6.891   1.263   1.954
 6123SOL    HW119268   6.891   1.362   1.948
 6123SOL    HW219269   6.891   1.223   1.863
 6124SOL     OW19270   2.852   0.613   5.304
 6124SOL    HW119271   2.866   0.542   5.374
 6124SOL    HW219272   2.787   0.681   5.340
 6125SOL     OW19273   1.735   4.974   2.316
 6125SOL    HW119274   1.799   5.046   2.342
 6125SOL    HW219275   1.761   4.935   2.228
 6126SOL     OW19276   4.796   5.316   1.999
 6126SOL    HW119277   4.821   5.271   2.085
 6126SOL    HW219278   4.752   5.249   1.938
 6127SOL     OW19279   2.253   4.124   2.306
 6127SOL    HW119280   2.186   4.176   2.252
 6127SOL    HW219281   2.318   4.081   2.244
 6128SOL     OW19282   5.192   2.184   1.174
 6128SOL    HW119283   5.148   2.147   1.255
 6128SOL    HW219284   5.223   2.278   1.192
 6129SOL     OW19285   5.858   4.240   3.614
 6129SOL    HW119286   5.846   4.141   3.613
 6129SOL    HW219287   5.868   4.272   3.709
 6130SOL     OW19288   5.532   4.359   2.854
 6130SOL    HW119289   5.436   4.334   2.869
 6130SOL    HW219290   5.580   4.281   2.814
 6131SOL     OW19291   6.755   1.007   5.083
 6131SOL    HW119292   6.661   1.027   5.109
 6131SOL    HW219293   6.806   1.093   5.076
 6132SOL     OW19294   6.339   2.152   0.499
 6132SOL    HW119295   6.310   2.198   0.582
 6132SOL    HW219296   6.375   2.219   0.434
 6133SOL     OW19297   1.642   4.635   0.374
 6133SOL    HW119298   1.604   4.569   0.309
 6133SOL    HW219299   1.692   4.586   0.445
 6134SOL     OW19300   4.615   3.148   0.452
 6134SOL    HW119301   4.691   3.122   0.512
 6134SOL    HW219302   4.541   3.186   0.508
 6135SOL     OW19303   5.474   0.382   2.073
 6135SOL    HW119304   5.414   0.418   2.145
 6135SOL    HW219305   5.466   0.440   1.992
 6136SOL     OW19306   0.168   1.463   1.984
 6136SOL    HW119307   0.207   1.460   2.076
 6136SOL    HW219308   0.197   1.382   1.932
 6137SOL     OW19309   2.876   6.492   5.599
 6137SOL    HW119310   2.928   6.517   5.681
 6137SOL    HW219311   2.938   6.491   5.520
 6138SOL     OW19312   4.081   7.011   2.922
 6138SOL    HW119313   4.083   6.953   2.841
 6138SOL    HW219314   4.077   6.953   3.004
 6139SOL     OW19315   2.113   5.558   4.433
 6139SOL    HW119316   2.021   5.581   4.464
 6139SOL    HW219317   2.111   5.538   4.335
 6140SOL     OW19318   2.292   6.460   1.243
 6140SOL    HW119319   2.311   6.367   1.210
 6140SOL    HW219320   2.378   6.505   1.265
 6141SOL     OW19321   6.770   6.418   5.532
 6141SOL    HW119322   6.868   6.398   5.525
 6141SOL    HW219323   6.750   6.503   5.483
 6142SOL     OW19324   0.314   4.297   2.655
 6142SOL    HW119325   0.397   4.270   2.606
 6142SOL    HW219326   0.272   4.216   2.696
 6143SOL     OW19327   6.567   4.413   6.666
 6143SOL    HW119328   6.615   4.460   6.740
 6143SOL    HW219329   6.535   4.324   6.699
 6144SOL     OW19330   0.258   5.145   4.222
 6144SOL    HW119331   0.233   5.104   4.135
 6144SOL    HW219332   0.204   5.228   4.238
 6145SOL     OW19333   4.903   5.856   3.693
 6145SOL    HW119334   4.998   5.828   3.682
 6145SOL    HW219335   4.869   5.896   3.608
 6146SOL     OW19336   5.603   1.173   3.569
 6146SOL    HW119337   5.598   1.239   3.494
 6146SOL    HW219338   5.665   1.098   3.543
 6147SOL     OW19339   1.073   3.894   3.112
 6147SOL    HW119340   1.106   3.987   3.098
 6147SOL    HW219341   0.974   3.891   3.100
 6148SOL     OW19342   5.867   5.954   3.973
 6148SOL    HW119343   5.869   6.053   3.986
 6148SOL    HW219344   5.793   5.930   3.910
 6149SOL     OW19345   2.134   0.243   4.657
 6149SOL    HW119346   2.195   0.272   4.731
 6149SOL    HW219347   2.155   0.295   4.574
 6150SOL     OW19348   4.128   5.611   5.653
 6150SOL    HW119349   4.036   5.650   5.646
 6150SOL    HW219350   4.196   5.683   5.642
 6151SOL     OW19351   4.377   1.126   5.860
 6151SOL    HW119352   4.469   1.160   5.879
 6151SOL    HW219353   4.377   1.076   5.773
 6152SOL     OW19354   6.992   4.926   5.869
 6152SOL    HW119355   0.014   4.947   5.782
 6152SOL    HW219356   0.039   4.927   5.942
 6153SOL     OW19357   4.884   4.098   0.200
 6153SOL    HW119358   4.833   4.184   0.192
 6153SOL    HW219359   4.889   4.070   0.296
 6154SOL     OW19360   4.876   3.094   2.961
 6154SOL    HW119361   4.832   3.137   3.040
 6154SOL    HW219362   4.962   3.051   2.991
 6155SOL     OW19363   1.457   3.472   4.089
 6155SOL    HW119364   1.454   3.531   4.169
 6155SOL    HW219365   1.541   3.418   4.090
 6156SOL     OW19366   6.287   0.510   4.151
 6156SOL    HW119367   6.208   0.450   4.163
 6156SOL    HW219368   6.349   0.500   4.228
 6157SOL     OW19369   1.465   1.441   3.479
 6157SOL    HW119370   1.387   1.437   3.541
 6157SOL    HW219371   1.547   1.465   3.529
 6158SOL     OW19372   4.446   0.728   0.577
 6158SOL    HW119373   4.544   0.746   0.567
 6158SOL    HW219374   4.395   0.801   0.532
 6159SOL     OW19375   5.455   3.077   6.918
 6159SOL    HW119376   5.506   3.053   7.001
 6159SOL    HW219377   5.387   3.148   6.939
 6160SOL     OW19378   6.682   4.890   1.637
 6160SOL    HW119379   6.654   4.797   1.611
 6160SOL    HW219380   6.630   4.920   1.717
 6161SOL     OW19381   5.815   0.389   6.413
 6161SOL    HW119382   5.748   0.365   6.342
 6161SOL    HW219383   5.899   0.421   6.369
 6162SOL     OW19384   6.160   5.024   3.883
 6162SOL    HW119385   6.142   4.930   3.851
 6162SOL    HW219386   6.186   5.081   3.805
 6163SOL     OW19387   6.874   3.836   1.894
 6163SOL    HW119388   6.785   3.852   1.938
 6163SOL    HW219389   6.885   3.738   1.877
 6164SOL     OW19390   5.074   2.524   0.647
 6164SOL    HW119391   5.042   2.470   0.725
 6164SOL    HW219392   5.010   2.515   0.571
 6165SOL     OW19393   4.633   6.458   0.391
 6165SOL    HW119394   4.676   6.490   0.307
 6165SOL    HW219395   4.701   6.453   0.464
 6166SOL     OW19396   3.748   1.556   6.917
 6166SOL    HW119397   3.833   1.540   6.968
 6166SOL    HW219398   3.681   1.487   6.945
 6167SOL     OW19399   0.008   4.810   2.932
 6167SOL    HW119400   0.014   4.715   2.903
 6167SOL    HW219401   0.058   4.822   3.018
 6168SOL     OW19402   0.324   2.520   1.744
 6168SOL    HW119403   0.401   2.568   1.787
 6168SOL    HW219404   0.346   2.500   1.649
 6169SOL     OW19405   1.800   4.243   2.079
 6169SOL    HW119406   1.816   4.257   2.177
 6169SOL    HW219407   1.745   4.161   2.066
 6170SOL     OW19408   6.896   1.978   3.599
 6170SOL    HW119409   6.840   2.059   3.581
 6170SOL    HW219410   6.955   1.996   3.679
 6171SOL     OW19411   6.685   0.456   6.580
 6171SOL    HW119412   6.617   0.529   6.592
 6171SOL    HW219413   6.673   0.415   6.490
 6172SOL     OW19414   1.111   4.335   4.358
 6172SOL    HW119415   1.163   4.382   4.429
 6172SOL    HW219416   1.171   4.317   4.279
 6173SOL     OW19417   6.022   6.190   3.418
 6173SOL    HW119418   6.064   6.110   3.377
 6173SOL    HW219419   6.077   6.271   3.397
 6174SOL     OW19420   5.855   2.718   1.990
 6174SOL    HW119421   5.824   2.641   2.046
 6174SOL    HW219422   5.934   2.761   2.033
 6175SOL     OW19423   3.867   2.203   6.310
 6175SOL    HW119424   3.956   2.166   6.335
 6175SOL    HW219425   3.843   2.172   6.218
 6176SOL     OW19426   3.628   4.221   6.293
 6176SOL    HW119427   3.647   4.276   6.212
 6176SOL    HW219428   3.561   4.268   6.351
 6177SOL     OW19429   5.796   6.707   1.119
 6177SOL    HW119430   5.837   6.778   1.176
 6177SOL    HW219431   5.865   6.674   1.054
 6178SOL     OW19432   4.237   4.712   1.373
 6178SOL    HW119433   4.170   4.772   1.328
 6178SOL    HW219434   4.196   4.622   1.387
 6179SOL     OW19435   5.754   4.903   4.890
 6179SOL    HW119436   5.804   4.817   4.907
 6179SOL    HW219437   5.812   4.980   4.917
 6180SOL     OW19438   2.967   4.665   6.848
 6180SOL    HW119439   3.035   4.705   6.910
 6180SOL    HW219440   2.940   4.733   6.780
 6181SOL     OW19441   6.060   6.549   0.256
 6181SOL    HW119442   6.055   6.621   0.326
 6181SOL    HW219443   6.149   6.504   0.261
 6182SOL     OW19444   3.099   2.559   0.262
 6182SOL    HW119445   3.133   2.489   0.198
 6182SOL    HW219446   2.999   2.550   0.270
 6183SOL     OW19447   0.214   6.599   0.658
 6183SOL    HW119448   0.199   6.687   0.614
 6183SOL    HW219449   0.247   6.533   0.591
 6184SOL     OW19450   3.299   6.480   5.380
 6184SOL    HW119451   3.235   6.404   5.371
 6184SOL    HW219452   3.257   6.563   5.343
 6185SOL     OW19453   4.032   3.756   5.249
 6185SOL    HW119454   4.069   3.849   5.255
 6185SOL    HW219455   4.095   3.698   5.199
 6186SOL     OW19456   0.950   1.626   2.120
 6186SOL    HW119457   1.013   1.669   2.184
 6186SOL    HW219458   0.989   1.628   2.028
 6187SOL     OW19459   3.358   1.503   6.352
 6187SOL    HW119460   3.262   1.475   6.362
 6187SOL    HW219461   3.412   1.427   6.317
 6188SOL     OW19462   1.749   1.470   4.964
 6188SOL    HW119463   1.760   1.542   5.032
 6188SOL    HW219464   1.686   1.400   4.999
 6189SOL     OW19465   6.590   5.266   1.055
 6189SOL    HW119466   6.576   5.360   1.025
 6189SOL    HW219467   6.569   5.259   1.153
 6190SOL     OW19468   0.634   3.177   4.254
 6190SOL    HW119469   0.548   3.149   4.297
 6190SOL    HW219470   0.663   3.265   4.293
 6191SOL     OW19471   3.257   3.608   0.438
 6191SOL    HW119472   3.334   3.660   0.477
 6191SOL    HW219473   3.211   3.664   0.369
 6192SOL     OW19474   2.949   1.648   0.902
 6192SOL    HW119475   3.026   1.670   0.961
 6192SOL    HW219476   2.903   1.566   0.936
 6193SOL     OW19477   4.226   5.793   6.794
 6193SOL    HW119478   4.188   5.864   6.852
 6193SOL    HW219479   4.227   5.706   6.843
 6194SOL     OW19480   5.482   6.841   6.798
 6194SOL    HW119481   5.488   6.832   6.698
 6194SOL    HW219482   5.474   6.750   6.839
 6195SOL     OW19483   5.781   6.274   6.546
 6195SOL    HW119484   5.718   6.342   6.582
 6195SOL    HW219485   5.736   6.222   6.473
 6196SOL     OW19486   5.939   3.758   2.978
 6196SOL    HW119487   5.992   3.682   2.941
 6196SOL    HW219488   5.922   3.825   2.906
 6197SOL     OW19489   0.917   5.489   0.799
 6197SOL    HW119490   0.986   5.547   0.842
 6197SOL    HW219491   0.962   5.421   0.741
 6198SOL     OW19492   5.675   1.396   6.520
 6198SOL    HW119493   5.733   1.460   6.469
 6198SOL    HW219494   5.724   1.366   6.602
 6199SOL     OW19495   2.033   7.012   5.949
 6199SOL    HW119496   2.133   7.010   5.944
 6199SOL    HW219497   1.994   6.975   5.865
 6200SOL     OW19498   1.798   0.469   1.052
 6200SOL    HW119499   1.822   0.386   1.103
 6200SOL    HW219500   1.839   0.548   1.096
 6201SOL     OW19501   0.476   4.486   2.800
 6201SOL    HW119502   0.400   4.441   2.753
 6201SOL    HW219503   0.458   4.584   2.805
 6202SOL     OW19504   5.726   1.106   2.557
 6202SOL    HW119505   5.787   1.032   2.587
 6202SOL    HW219506   5.758   1.193   2.593
 6203SOL     OW19507   6.215   0.167   1.929
 6203SOL    HW119508   6.125   0.139   1.963
 6203SOL    HW219509   6.279   0.091   1.940
 6204SOL     OW19510   1.206   6.329   5.017
 6204SOL    HW119511   1.147   6.295   4.943
 6204SOL    HW219512   1.267   6.400   4.981
 6205SOL     OW19513   5.338   4.588   3.695
 6205SOL    HW119514   5.383   4.539   3.620
 6205SOL    HW219515   5.396   4.663   3.725
 6206SOL     OW19516   5.427   1.885   3.553
 6206SOL    HW119517   5.404   1.861   3.459
 6206SOL    HW219518   5.354   1.941   3.593
 6207SOL     OW19519   0.678   5.768   4.314
 6207SOL    HW119520   0.725   5.850   4.347
 6207SOL    HW219521   0.727   5.731   4.235
 6208SOL     OW19522   4.359   4.158   5.604
 6208SOL    HW119523   4.371   4.067   5.566
 6208SOL    HW219524   4.442   4.213   5.587
 6209SOL     OW19525   3.618   2.328   1.452
 6209SOL    HW119526   3.699   2.382   1.431
 6209SOL    HW219527   3.645   2.245   1.500
 6210SOL     OW19528   5.393   1.607   4.443
 6210SOL    HW119529   5.363   1.688   4.493
 6210SOL    HW219530   5.443   1.546   4.505
 6211SOL     OW19531   5.991   4.033   5.119
 6211SOL    HW119532   5.919   3.972   5.087
 6211SOL    HW219533   5.978   4.124   5.079
 6212SOL     OW19534   5.382   4.500   4.860
 6212SOL    HW119535   5.324   4.458   4.931
 6212SOL    HW219536   5.324   4.536   4.787
 6213SOL     OW19537   4.143   5.661   0.619
 6213SOL    HW119538   4.072   5.615   0.565
 6213SOL    HW219539   4.152   5.756   0.587
 6214SOL     OW19540   5.998   6.845   0.131
 6214SOL    HW119541   6.039   6.932   0.104
 6214SOL    HW219542   5.935   6.860   0.207
 6215SOL     OW19543   5.860   2.323   5.183
 6215SOL    HW119544   5.764   2.338   5.206
 6215SOL    HW219545   5.918   2.365   5.252
 6216SOL     OW19546   4.335   1.476   4.730
 6216SOL    HW119547   4.285   1.450   4.648
 6216SOL    HW219548   4.315   1.571   4.753
 6217SOL     OW19549   0.553   4.160   2.565
 6217SOL    HW119550   0.564   4.065   2.595
 6217SOL    HW219551   0.597   4.171   2.476
 6218SOL     OW19552   4.554   6.023   0.109
 6218SOL    HW119553   4.590   5.964   0.181
 6218SOL    HW219554   4.624   6.090   0.083
 6219SOL     OW19555   2.095   1.083   6.837
 6219SOL    HW119556   2.084   1.176   6.872
 6219SOL    HW219557   2.057   1.077   6.745
 6220SOL     OW19558   3.298   6.197   0.908
 6220SOL    HW119559   3.225   6.135   0.877
 6220SOL    HW219560   3.303   6.194   1.008
 6221SOL     OW19561   5.140   5.644   6.321
 6221SOL    HW119562   5.106   5.561   6.365
 6221SOL    HW219563   5.205   5.690   6.382
 6222SOL     OW19564   6.788   1.603   2.321
 6222SOL    HW119565   6.745   1.688   2.290
 6222SOL    HW219566   6.885   1.604   2.298
 6223SOL     OW19567   0.097   5.146   3.964
 6223SOL    HW119568   0.085   5.234   3.919
 6223SOL    HW219569   0.012   5.119   4.010
 6224SOL     OW19570   3.906   6.929   0.134
 6224SOL    HW119571   3.987   6.872   0.148
 6224SOL    HW219572   3.828   6.870   0.111
 6225SOL     OW19573   5.108   6.355   6.485
 6225SOL    HW119574   5.073   6.446   6.505
 6225SOL    HW219575   5.041   6.286   6.513
 6226SOL     OW19576   0.708   1.020   4.252
 6226SOL    HW119577   0.612   0.999   4.235
 6226SOL    HW219578   0.764   0.976   4.182
 6227SOL     OW19579   2.791   4.714   5.652
 6227SOL    HW119580   2.822   4.752   5.740
 6227SOL    HW219581   2.857   4.648   5.619
 6228SOL     OW19582   0.963   3.035   3.817
 6228SOL    HW119583   1.031   3.064   3.749
 6228SOL    HW219584   0.946   2.937   3.808
 6229SOL     OW19585   0.533   3.473   3.961
 6229SOL    HW119586   0.466   3.408   3.995
 6229SOL    HW219587   0.518   3.489   3.864
 6230SOL     OW19588   0.447   1.191   1.372
 6230SOL    HW119589   0.505   1.189   1.454
 6230SOL    HW219590   0.368   1.132   1.387
 6231SOL     OW19591   2.017   5.477   5.822
 6231SOL    HW119592   2.105   5.469   5.867
 6231SOL    HW219593   1.975   5.386   5.813
 6232SOL     OW19594   4.269   0.556   6.513
 6232SOL    HW119595   4.236   0.488   6.447
 6232SOL    HW219596   4.284   0.643   6.466
 6233SOL     OW19597   6.602   3.321   1.303
 6233SOL    HW119598   6.539   3.346   1.230
 6233SOL    HW219599   6.603   3.394   1.372
 6234SOL     OW19600   4.978   4.859   4.439
 6234SOL    HW119601   4.912   4.905   4.498
 6234SOL    HW219602   4.935   4.778   4.398
 6235SOL     OW19603   6.972   0.670   2.410
 6235SOL    HW119604   7.002   0.721   2.330
 6235SOL    HW219605   0.028   0.621   2.449
 6236SOL     OW19606   6.920   5.798   1.499
 6236SOL    HW119607   6.837   5.847   1.474
 6236SOL    HW219608   6.904   5.699   1.496
 6237SOL     OW19609   3.262   1.481   2.065
 6237SOL    HW119610   3.254   1.382   2.074
 6237SOL    HW219611   3.283   1.521   2.154
 6238SOL     OW19612   2.170   0.975   3.518
 6238SOL    HW119613   2.179   0.909   3.444
 6238SOL    HW219614   2.259   0.988   3.562
 6239SOL     OW19615   5.085   1.376   4.533
 6239SOL    HW119616   5.132   1.456   4.571
 6239SOL    HW219617   5.005   1.355   4.589
 6240SOL     OW19618   4.019   3.324   3.992
 6240SOL    HW119619   4.057   3.417   3.989
 6240SOL    HW219620   4.027   3.288   4.085
 6241SOL     OW19621   3.627   6.867   3.503
 6241SOL    HW119622   3.639   6.927   3.582
 6241SOL    HW219623   3.565   6.791   3.528
 6242SOL     OW19624   2.815   2.184   3.736
 6242SOL    HW119625   2.877   2.162   3.811
 6242SOL    HW219626   2.767   2.100   3.707
 6243SOL     OW19627   4.414   1.843   7.001
 6243SOL    HW119628   4.341   1.789   0.021
 6243SOL    HW219629   4.454   1.792   6.925
 6244SOL     OW19630   4.626   2.666   2.066
 6244SOL    HW119631   4.542   2.720   2.056
 6244SOL    HW219632   4.625   2.621   2.155
 6245SOL     OW19633   0.146   5.315   2.131
 6245SOL    HW119634   0.165   5.399   2.181
 6245SOL    HW219635   0.227   5.289   2.078
 6246SOL     OW19636   6.897   6.574   4.778
 6246SOL    HW119637   6.918   6.555   4.682
 6246SOL    HW219638   6.839   6.656   4.784
 6247SOL     OW19639   6.358   5.960   3.587
 6247SOL    HW119640   6.303   5.988   3.666
 6247SOL    HW219641   6.455   5.974   3.607
 6248SOL     OW19642   4.022   3.207   5.208
 6248SOL    HW119643   3.987   3.297   5.235
 6248SOL    HW219644   4.106   3.187   5.258
 6249SOL     OW19645   5.730   3.540   2.333
 6249SOL    HW119646   5.727   3.640   2.329
 6249SOL    HW219647   5.637   3.504   2.322
 6250SOL     OW19648   5.551   7.008   6.356
 6250SOL    HW119649   5.610   0.064   6.380
 6250SOL    HW219650   5.577   6.974   6.266
 6251SOL     OW19651   2.500   1.162   4.412
 6251SOL    HW119652   2.556   1.184   4.332
 6251SOL    HW219653   2.428   1.231   4.423
 6252SOL     OW19654   3.193   5.261   6.835
 6252SOL    HW119655   3.191   5.315   6.918
 6252SOL    HW219656   3.284   5.221   6.823
 6253SOL     OW19657   3.686   6.099   4.070
 6253SOL    HW119658   3.660   6.008   4.037
 6253SOL    HW219659   3.673   6.166   3.997
 6254SOL     OW19660   0.528   0.116   1.783
 6254SOL    HW119661   0.495   0.035   1.734
 6254SOL    HW219662   0.588   0.169   1.723
 6255SOL     OW19663   1.127   1.573   0.745
 6255SOL    HW119664   1.184   1.655   0.751
 6255SOL    HW219665   1.112   1.536   0.836
 6256SOL     OW19666   5.743   5.715   2.393
 6256SOL    HW119667   5.708   5.806   2.372
 6256SOL    HW219668   5.800   5.683   2.318
 6257SOL     OW19669   3.569   4.794   0.656
 6257SOL    HW119670   3.499   4.862   0.633
 6257SOL    HW219671   3.526   4.703   0.662
 6258SOL     OW19672   4.254   5.275   4.957
 6258SOL    HW119673   4.202   5.309   5.035
 6258SOL    HW219674   4.275   5.178   4.971
 6259SOL     OW19675   4.223   1.037   5.353
 6259SOL    HW119676   4.219   1.027   5.254
 6259SOL    HW219677   4.269   0.957   5.393
 6260SOL     OW19678   2.245   1.408   0.662
 6260SOL    HW119679   2.182   1.476   0.699
 6260SOL    HW219680   2.335   1.422   0.702
 6261SOL     OW19681   3.455   0.204   0.784
 6261SOL    HW119682   3.477   0.130   0.721
 6261SOL    HW219683   3.361   0.195   0.815
 6262SOL     OW19684   5.535   0.893   2.466
 6262SOL    HW119685   5.577   0.806   2.493
 6262SOL    HW219686   5.579   0.968   2.515
 6263SOL     OW19687   6.249   5.841   5.896
 6263SOL    HW119688   6.194   5.924   5.891
 6263SOL    HW219689   6.283   5.829   5.990
 6264SOL     OW19690   2.532   5.895   0.117
 6264SOL    HW119691   2.463   5.951   0.162
 6264SOL    HW219692   2.618   5.946   0.109
 6265SOL     OW19693   4.327   6.230   6.404
 6265SOL    HW119694   4.287   6.301   6.345
 6265SOL    HW219695   4.425   6.222   6.385
 6266SOL     OW19696   3.202   5.257   2.821
 6266SOL    HW119697   3.158   5.187   2.877
 6266SOL    HW219698   3.230   5.216   2.734
 6267SOL     OW19699   1.274   6.369   4.704
 6267SOL    HW119700   1.330   6.452   4.702
 6267SOL    HW219701   1.328   6.294   4.743
 6268SOL     OW19702   3.148   1.722   1.075
 6268SOL    HW119703   3.076   1.694   1.138
 6268SOL    HW219704   3.237   1.718   1.122
 6269SOL     OW19705   6.870   5.746   6.399
 6269SOL    HW119706   6.847   5.811   6.472
 6269SOL    HW219707   6.969   5.740   6.391
 6270SOL     OW19708   1.920   6.227   0.946
 6270SOL    HW119709   2.000   6.288   0.953
 6270SOL    HW219710   1.945   6.136   0.978
 6271SOL     OW19711   6.537   3.020   5.813
 6271SOL    HW119712   6.495   3.035   5.903
 6271SOL    HW219713   6.595   3.098   5.790
 6272SOL     OW19714   0.102   0.808   6.856
 6272SOL    HW119715   0.083   0.901   6.825
 6272SOL    HW219716   0.044   0.787   6.934
 6273SOL     OW19717   0.620   6.474   2.906
 6273SOL    HW119718   0.599   6.520   2.820
 6273SOL    HW219719   0.698   6.413   2.893
 6274SOL     OW19720   2.832   5.769   3.843
 6274SOL    HW119721   2.871   5.725   3.924
 6274SOL    HW219722   2.786   5.854   3.871
 6275SOL     OW19723   3.025   5.877   6.456
 6275SOL    HW119724   3.114   5.919   6.472
 6275SOL    HW219725   3.037   5.786   6.417
 6276SOL     OW19726   1.462   5.462   2.599
 6276SOL    HW119727   1.524   5.459   2.678
 6276SOL    HW219728   1.515   5.482   2.516
 6277SOL     OW19729   5.264   2.614   1.431
 6277SOL    HW119730   5.254   2.550   1.507
 6277SOL    HW219731   5.187   2.677   1.431
 6278SOL     OW19732   4.453   2.127   0.817
 6278SOL    HW119733   4.550   2.119   0.837
 6278SOL    HW219734   4.438   2.203   0.754
 6279SOL     OW19735   3.120   6.688   1.592
 6279SOL    HW119736   3.086   6.595   1.580
 6279SOL    HW219737   3.102   6.718   1.686
 6280SOL     OW19738   5.021   2.288   6.432
 6280SOL    HW119739   5.035   2.190   6.416
 6280SOL    HW219740   5.088   2.340   6.379
 6281SOL     OW19741   5.079   4.628   5.887
 6281SOL    HW119742   5.027   4.687   5.949
 6281SOL    HW219743   5.167   4.671   5.867
 6282SOL     OW19744   0.575   3.767   6.182
 6282SOL    HW119745   0.602   3.679   6.220
 6282SOL    HW219746   0.573   3.761   6.082
 6283SOL     OW19747   2.501   6.688   4.643
 6283SOL    HW119748   2.477   6.658   4.551
 6283SOL    HW219749   2.461   6.626   4.711
 6284SOL     OW19750   1.811   3.115   5.451
 6284SOL    HW119751   1.791   3.211   5.431
 6284SOL    HW219752   1.749   3.056   5.400
 6285SOL     OW19753   1.307   3.263   3.001
 6285SOL    HW119754   1.322   3.349   2.952
 6285SOL    HW219755   1.384   3.247   3.063
 6286SOL     OW19756   0.794   2.230   6.523
 6286SOL    HW119757   0.788   2.156   6.456
 6286SOL    HW219758   0.739   2.308   6.492
 6287SOL     OW19759   4.349   5.038   4.934
 6287SOL    HW119760   4.323   4.943   4.918
 6287SOL    HW219761   4.436   5.042   4.983
 6288SOL     OW19762   2.626   3.836   5.729
 6288SOL    HW119763   2.579   3.749   5.711
 6288SOL    HW219764   2.646   3.882   5.642
 6289SOL     OW19765   2.064   4.823   4.997
 6289SOL    HW119766   2.154   4.826   5.040
 6289SOL    HW219767   2.073   4.788   4.903
 6290SOL     OW19768   5.950   0.074   4.091
 6290SOL    HW119769   5.873   0.086   4.029
 6290SOL    HW219770   6.035   0.094   4.042
 6291SOL     OW19771   3.760   3.603   2.066
 6291SOL    HW119772   3.693   3.583   1.994
 6291SOL    HW219773   3.731   3.684   2.116
 6292SOL     OW19774   1.765   4.848   4.757
 6292SOL    HW119775   1.718   4.859   4.844
 6292SOL    HW219776   1.863   4.841   4.772
 6293SOL     OW19777   2.898   1.734   6.476
 6293SOL    HW119778   2.964   1.712   6.548
 6293SOL    HW219779   2.929   1.814   6.426
 6294SOL     OW19780   2.145   1.315   2.128
 6294SOL    HW119781   2.182   1.222   2.127
 6294SOL    HW219782   2.064   1.318   2.185
 6295SOL     OW19783   4.486   3.548   6.406
 6295SOL    HW119784   4.402   3.514   6.364
 6295SOL    HW219785   4.483   3.648   6.410
 6296SOL     OW19786   0.650   2.606   6.725
 6296SOL    HW119787   0.648   2.592   6.626
 6296SOL    HW219788   0.597   2.687   6.748
 6297SOL     OW19789   6.575   1.409   3.933
 6297SOL    HW119790   6.552   1.469   3.857
 6297SOL    HW219791   6.672   1.385   3.929
 6298SOL     OW19792   0.431   6.309   0.818
 6298SOL    HW119793   0.367   6.235   0.797
 6298SOL    HW219794   0.506   6.273   0.874
 6299SOL     OW19795   3.898   1.539   4.293
 6299SOL    HW119796   3.865   1.456   4.339
 6299SOL    HW219797   3.896   1.525   4.194
 6300SOL     OW19798   2.866   2.155   0.470
 6300SOL    HW119799   2.949   2.108   0.441
 6300SOL    HW219800   2.789   2.090   0.469
 6301SOL     OW19801   4.424   6.347   6.756
 6301SOL    HW119802   4.369   6.355   6.840
 6301SOL    HW219803   4.386   6.409   6.686
 6302SOL     OW19804   1.237   3.317   0.028
 6302SOL    HW119805   1.144   3.352   0.036
 6302SOL    HW219806   1.298   3.391   0.001
 6303SOL     OW19807   0.628   5.334   4.591
 6303SOL    HW119808   0.545   5.292   4.625
 6303SOL    HW219809   0.612   5.431   4.574
 6304SOL     OW19810   2.919   0.806   4.005
 6304SOL    HW119811   2.937   0.904   4.010
 6304SOL    HW219812   2.885   0.774   4.093
 6305SOL     OW19813   0.864   5.814   5.955
 6305SOL    HW119814   0.924   5.892   5.937
 6305SOL    HW219815   0.894   5.735   5.902
 6306SOL     OW19816   0.390   4.353   4.969
 6306SOL    HW119817   0.434   4.420   4.909
 6306SOL    HW219818   0.447   4.271   4.974
 6307SOL     OW19819   3.677   2.896   2.355
 6307SOL    HW119820   3.618   2.849   2.290
 6307SOL    HW219821   3.757   2.933   2.307
 6308SOL     OW19822   0.702   2.150   0.454
 6308SOL    HW119823   0.622   2.095   0.481
 6308SOL    HW219824   0.690   2.181   0.360
 6309SOL     OW19825   1.768   6.275   4.815
 6309SOL    HW119826   1.785   6.267   4.716
 6309SOL    HW219827   1.763   6.184   4.855
 6310SOL     OW19828   0.992   6.947   3.942
 6310SOL    HW119829   0.911   6.940   4.000
 6310SOL    HW219830   1.006   0.021   3.915
 6311SOL     OW19831   6.310   1.286   6.437
 6311SOL    HW119832   6.270   1.362   6.387
 6311SOL    HW219833   6.288   1.295   6.534
 6312SOL     OW19834   3.180   5.764   0.233
 6312SOL    HW119835   3.192   5.721   0.322
 6312SOL    HW219836   3.248   5.728   0.169
 6313SOL     OW19837   6.278   4.336   3.836
 6313SOL    HW119838   6.275   4.409   3.768
 6313SOL    HW219839   6.305   4.374   3.924
 6314SOL     OW19840   1.825   6.148   2.856
 6314SOL    HW119841   1.743   6.116   2.903
 6314SOL    HW219842   1.832   6.105   2.766
 6315SOL     OW19843   2.025   1.784   3.764
 6315SOL    HW119844   2.075   1.772   3.850
 6315SOL    HW219845   1.988   1.696   3.734
 6316SOL     OW19846   4.379   0.627   4.945
 6316SOL    HW119847   4.401   0.715   4.902
 6316SOL    HW219848   4.454   0.599   5.005
 6317SOL     OW19849   5.214   4.353   2.953
 6317SOL    HW119850   5.236   4.336   2.857
 6317SOL    HW219851   5.196   4.451   2.966
 6318SOL     OW19852   6.426   6.852   6.951
 6318SOL    HW119853   6.428   6.828   6.854
 6318SOL    HW219854   6.339   6.823   6.991
 6319SOL     OW19855   4.821   2.094   4.434
 6319SOL    HW119856   4.771   2.156   4.373
 6319SOL    HW219857   4.788   2.001   4.421
 6320SOL     OW19858   6.520   1.315   5.242
 6320SOL    HW119859   6.432   1.362   5.232
 6320SOL    HW219860   6.526   1.275   5.333
 6321SOL     OW19861   0.317   2.581   0.394
 6321SOL    HW119862   0.389   2.641   0.430
 6321SOL    HW219863   0.241   2.637   0.361
 6322SOL     OW19864   1.418   1.318   2.940
 6322SOL    HW119865   1.502   1.337   2.990
 6322SOL    HW219866   1.376   1.403   2.910
 6323SOL     OW19867   2.218   4.954   0.657
 6323SOL    HW119868   2.150   4.896   0.701
 6323SOL    HW219869   2.300   4.958   0.714
 6324SOL     OW19870   4.792   3.645   1.297
 6324SOL    HW119871   4.786   3.546   1.309
 6324SOL    HW219872   4.880   3.678   1.329
 6325SOL     OW19873   1.880   3.255   3.899
 6325SOL    HW119874   1.851   3.200   3.978
 6325SOL    HW219875   1.932   3.334   3.931
 6326SOL     OW19876   5.609   5.560   5.256
 6326SOL    HW119877   5.662   5.475   5.266
 6326SOL    HW219878   5.636   5.607   5.173
 6327SOL     OW19879   0.724   1.272   3.189
 6327SOL    HW119880   0.727   1.191   3.248
 6327SOL    HW219881   0.698   1.352   3.243
 6328SOL     OW19882   4.776   3.881   5.224
 6328SOL    HW119883   4.725   3.796   5.229
 6328SOL    HW219884   4.874   3.861   5.222
 6329SOL     OW19885   1.039   2.251   5.956
 6329SOL    HW119886   1.117   2.214   6.007
 6329SOL    HW219887   0.994   2.176   5.907
 6330SOL     OW19888   4.447   1.693   4.241
 6330SOL    HW119889   4.474   1.786   4.215
 6330SOL    HW219890   4.487   1.627   4.177
 6331SOL     OW19891   1.052   3.400   3.671
 6331SOL    HW119892   1.062   3.390   3.770
 6331SOL    HW219893   1.059   3.311   3.627
 6332SOL     OW19894   3.286   1.632   6.966
 6332SOL    HW119895   3.195   1.661   6.996
 6332SOL    HW219896   3.297   1.654   6.869
 6333SOL     OW19897   5.639   0.607   0.882
 6333SOL    HW119898   5.556   0.553   0.892
 6333SOL    HW219899   5.666   0.610   0.785
 6334SOL     OW19900   1.540   1.080   1.552
 6334SOL    HW119901   1.568   1.156   1.493
 6334SOL    HW219902   1.613   1.061   1.617
 6335SOL     OW19903   6.723   3.435   5.955
 6335SOL    HW119904   6.675   3.374   5.893
 6335SOL    HW219905   6.820   3.438   5.931
 6336SOL     OW19906   0.309   3.842   5.511
 6336SOL    HW119907   0.325   3.911   5.581
 6336SOL    HW219908   0.396   3.818   5.467
 6337SOL     OW19909   5.452   0.235   5.147
 6337SOL    HW119910   5.489   0.326   5.128
 6337SOL    HW219911   5.499   0.168   5.089
 6338SOL     OW19912   1.166   0.808   3.121
 6338SOL    HW119913   1.247   0.769   3.077
 6338SOL    HW219914   1.115   0.863   3.055
 6339SOL     OW19915   0.285   3.431   3.174
 6339SOL    HW119916   0.298   3.348   3.228
 6339SOL    HW219917   0.374   3.473   3.155
 6340SOL     OW19918   2.839   4.655   0.502
 6340SOL    HW119919   2.755   4.620   0.545
 6340SOL    HW219920   2.848   4.752   0.520
 6341SOL     OW19921   6.990   5.742   1.970
 6341SOL    HW119922   0.001   5.756   1.876
 6341SOL    HW219923   6.931   5.662   1.974
 6342SOL     OW19924   2.210   0.793   1.938
 6342SOL    HW119925   2.111   0.789   1.946
 6342SOL    HW219926   2.250   0.706   1.967
 6343SOL     OW19927   1.155   5.421   0.336
 6343SOL    HW119928   1.239   5.468   0.313
 6343SOL    HW219929   1.077   5.478   0.312
 6344SOL     OW19930   1.346   1.356   4.451
 6344SOL    HW119931   1.413   1.343   4.377
 6344SOL    HW219932   1.325   1.453   4.459
 6345SOL     OW19933   5.967   2.766   2.728
 6345SOL    HW119934   5.874   2.758   2.693
 6345SOL    HW219935   6.030   2.778   2.652
 6346SOL     OW19936   6.986   4.212   5.013
 6346SOL    HW119937   0.023   4.135   4.989
 6346SOL    HW219938   6.890   4.185   5.007
 6347SOL     OW19939   1.743   2.607   3.666
 6347SOL    HW119940   1.754   2.654   3.753
 6347SOL    HW219941   1.688   2.663   3.604
 6348SOL     OW19942   0.920   2.933   6.439
 6348SOL    HW119943   0.985   2.924   6.363
 6348SOL    HW219944   0.934   3.020   6.485
 6349SOL     OW19945   5.967   0.925   0.865
 6349SOL    HW119946   5.892   0.901   0.927
 6349SOL    HW219947   6.045   0.959   0.917
 6350SOL     OW19948   1.127   6.144   1.373
 6350SOL    HW119949   1.119   6.215   1.302
 6350SOL    HW219950   1.086   6.177   1.458
 6351SOL     OW19951   5.768   3.723   1.334
 6351SOL    HW119952   5.718   3.737   1.419
 6351SOL    HW219953   5.818   3.806   1.310
 6352SOL     OW19954   3.754   0.560   4.717
 6352SOL    HW119955   3.687   0.498   4.760
 6352SOL    HW219956   3.754   0.544   4.619
 6353SOL     OW19957   3.604   6.113   5.360
 6353SOL    HW119958   3.626   6.030   5.308
 6353SOL    HW219959   3.582   6.187   5.297
 6354SOL     OW19960   5.004   4.816   2.568
 6354SOL    HW119961   4.926   4.787   2.623
 6354SOL    HW219962   5.024   4.912   2.587
 6355SOL     OW19963   3.452   5.655   1.159
 6355SOL    HW119964   3.390   5.578   1.175
 6355SOL    HW219965   3.398   5.738   1.141
 6356SOL     OW19966   0.205   6.192   6.509
 6356SOL    HW119967   0.148   6.200   6.591
 6356SOL    HW219968   0.146   6.185   6.429
 6357SOL     OW19969   4.920   1.193   3.247
 6357SOL    HW119970   4.959   1.138   3.173
 6357SOL    HW219971   4.962   1.284   3.247
 6358SOL     OW19972   1.176   1.943   4.572
 6358SOL    HW119973   1.160   1.876   4.644
 6358SOL    HW219974   1.241   2.012   4.604
 6359SOL     OW19975   5.446   5.882   2.033
 6359SOL    HW119976   5.407   5.801   1.989
 6359SOL    HW219977   5.539   5.898   1.999
 6360SOL     OW19978   1.845   2.020   1.025
 6360SOL    HW119979   1.858   1.924   1.000
 6360SOL    HW219980   1.926   2.053   1.073
 6361SOL     OW19981   0.467   1.412   1.232
 6361SOL    HW119982   0.435   1.339   1.292
 6361SOL    HW219983   0.470   1.498   1.284
 6362SOL     OW19984   1.625   5.275   0.513
 6362SOL    HW119985   1.564   5.244   0.440
 6362SOL    HW219986   1.717   5.240   0.496
 6363SOL     OW19987   1.568   3.420   1.750
 6363SOL    HW119988   1.547   3.513   1.781
 6363SOL    HW219989   1.665   3.414   1.726
 6364SOL     OW19990   2.651   1.783   3.960
 6364SOL    HW119991   2.647   1.833   3.874
 6364SOL    HW219992   2.587   1.823   4.025
 6365SOL     OW19993   6.097   0.021   2.922
 6365SOL    HW119994   6.120   6.951   2.889
 6365SOL    HW219995   6.027   0.014   2.993
 6366SOL     OW19996   5.683   0.762   5.007
 6366SOL    HW119997   5.586   0.757   4.980
 6366SOL    HW219998   5.698   0.842   5.065
 6367SOL     OW19999   0.980   2.303   3.564
 6367SOL    HW120000   1.038   2.266   3.491
 6367SOL    HW220001   0.902   2.351   3.523
 6368SOL     OW20002   4.935   3.557   4.798
 6368SOL    HW120003   5.014   3.507   4.831
 6368SOL    HW220004   4.870   3.571   4.873
 6369SOL     OW20005   4.477   4.460   0.321
 6369SOL    HW120006   4.480   4.368   0.360
 6369SOL    HW220007   4.552   4.470   0.256
 6370SOL     OW20008   5.794   4.735   4.452
 6370SOL    HW120009   5.728   4.716   4.379
 6370SOL    HW220010   5.756   4.804   4.514
 6371SOL     OW20011   5.627   4.942   0.914
 6371SOL    HW120012   5.651   4.850   0.944
 6371SOL    HW220013   5.566   4.984   0.981
 6372SOL     OW20014   6.654   1.605   1.626
 6372SOL    HW120015   6.657   1.526   1.565
 6372SOL    HW220016   6.591   1.673   1.589
 6373SOL     OW20017   4.915   3.157   2.448
 6373SOL    HW120018   4.899   3.102   2.365
 6373SOL    HW220019   4.845   3.228   2.454
 6374SOL     OW20020   4.735   3.266   6.551
 6374SOL    HW120021   4.786   3.221   6.625
 6374SOL    HW220022   4.644   3.226   6.544
 6375SOL     OW20023   4.880   1.044   2.194
 6375SOL    HW120024   4.830   1.128   2.210
 6375SOL    HW220025   4.975   1.065   2.170
 6376SOL     OW20026   2.797   0.121   0.279
 6376SOL    HW120027   2.844   0.210   0.281
 6376SOL    HW220028   2.863   0.048   0.263
 6377SOL     OW20029   0.437   0.717   6.994
 6377SOL    HW120030   0.387   0.695   6.910
 6377SOL    HW220031   0.376   0.764   0.036
 6378SOL     OW20032   5.819   4.719   2.592
 6378SOL    HW120033   5.870   4.783   2.650
 6378SOL    HW220034   5.721   4.735   2.602
 6379SOL     OW20035   1.737   5.218   6.246
 6379SOL    HW120036   1.774   5.286   6.181
 6379SOL    HW220037   1.775   5.235   6.337
 6380SOL     OW20038   1.454   3.428   5.224
 6380SOL    HW120039   1.541   3.402   5.183
 6380SOL    HW220040   1.468   3.507   5.284
 6381SOL     OW20041   3.894   3.851   0.261
 6381SOL    HW120042   3.826   3.797   0.309
 6381SOL    HW220043   3.849   3.926   0.212
 6382SOL     OW20044   1.672   1.379   0.654
 6382SOL    HW120045   1.731   1.438   0.709
 6382SOL    HW220046   1.721   1.349   0.572
 6383SOL     OW20047   2.360   2.717   2.094
 6383SOL    HW120048   2.356   2.775   2.013
 6383SOL    HW220049   2.435   2.652   2.084
 6384SOL     OW20050   6.579   2.809   1.936
 6384SOL    HW120051   6.511   2.876   1.907
 6384SOL    HW220052   6.533   2.727   1.972
 6385SOL     OW20053   6.651   3.723   0.161
 6385SOL    HW120054   6.694   3.702   0.249
 6385SOL    HW220055   6.691   3.665   0.090
 6386SOL     OW20056   2.938   3.039   0.508
 6386SOL    HW120057   2.982   3.090   0.435
 6386SOL    HW220058   2.852   3.001   0.475
 6387SOL     OW20059   6.852   6.951   6.887
 6387SOL    HW120060   6.878   6.902   6.804
 6387SOL    HW220061   6.755   6.976   6.882
 6388SOL     OW20062   5.632   5.186   2.052
 6388SOL    HW120063   5.694   5.185   1.974
 6388SOL    HW220064   5.638   5.098   2.100
 6389SOL     OW20065   6.776   6.716   0.348
 6389SOL    HW120066   6.727   6.649   0.404
 6389SOL    HW220067   6.825   6.779   0.407
 6390SOL     OW20068   5.552   0.334   0.004
 6390SOL    HW120069   5.561   0.377   0.094
 6390SOL    HW220070   5.460   0.295   7.017
 6391SOL     OW20071   1.586   2.244   4.656
 6391SOL    HW120072   1.527   2.211   4.729
 6391SOL    HW220073   1.681   2.219   4.676
 6392SOL     OW20074   4.662   0.113   4.089
 6392SOL    HW120075   4.639   0.123   4.186
 6392SOL    HW220076   4.600   0.168   4.034
 6393SOL     OW20077   1.744   4.530   0.599
 6393SOL    HW120078   1.749   4.466   0.676
 6393SOL    HW220079   1.672   4.597   0.615
 6394SOL     OW20080   1.884   5.009   1.403
 6394SOL    HW120081   1.978   5.020   1.437
 6394SOL    HW220082   1.859   4.913   1.404
 6395SOL     OW20083   2.117   4.337   3.943
 6395SOL    HW120084   2.154   4.251   3.978
 6395SOL    HW220085   2.054   4.376   4.009
 6396SOL     OW20086   2.108   2.963   5.510
 6396SOL    HW120087   2.095   3.059   5.536
 6396SOL    HW220088   2.195   2.953   5.462
 6397SOL     OW20089   6.109   3.584   4.844
 6397SOL    HW120090   6.109   3.677   4.881
 6397SOL    HW220091   6.052   3.525   4.901
 6398SOL     OW20092   2.084   0.257   2.627
 6398SOL    HW120093   2.088   0.280   2.724
 6398SOL    HW220094   2.163   0.201   2.603
 6399SOL     OW20095   3.447   6.988   0.031
 6399SOL    HW120096   3.427   6.917   0.099
 6399SOL    HW220097   3.546   6.995   0.019
 6400SOL     OW20098   0.442   6.841   2.783
 6400SOL    HW120099   0.526   6.791   2.763
 6400SOL    HW220100   0.370   6.777   2.809
 6401SOL     OW20101   3.963   5.164   2.710
 6401SOL    HW120102   3.925   5.091   2.653
 6401SOL    HW220103   3.974   5.247   2.656
 6402SOL     OW20104   2.960   4.547   5.519
 6402SOL    HW120105   3.057   4.544   5.540
 6402SOL    HW220106   2.939   4.475   5.452
 6403SOL     OW20107   5.253   5.352   5.566
 6403SOL    HW120108   5.336   5.360   5.511
 6403SOL    HW220109   5.183   5.305   5.512
 6404SOL     OW20110   4.822   6.173   0.513
 6404SOL    HW120111   4.887   6.155   0.439
 6404SOL    HW220112   4.817   6.271   0.530
 6405SOL     OW20113   4.441   1.139   2.941
 6405SOL    HW120114   4.501   1.174   2.869
 6405SOL    HW220115   4.435   1.040   2.934
 6406SOL     OW20116   0.370   3.256   2.928
 6406SOL    HW120117   0.287   3.288   2.974
 6406SOL    HW220118   0.358   3.264   2.829
 6407SOL     OW20119   0.361   6.683   2.509
 6407SOL    HW120120   0.354   6.688   2.410
 6407SOL    HW220121   0.275   6.712   2.551
 6408SOL     OW20122   0.077   1.043   2.059
 6408SOL    HW120123   0.007   1.097   2.012
 6408SOL    HW220124   0.114   1.094   2.136
 6409SOL     OW20125   5.429   4.792   3.394
 6409SOL    HW120126   5.358   4.742   3.344
 6409SOL    HW220127   5.392   4.878   3.428
 6410SOL     OW20128   1.770   1.089   0.312
 6410SOL    HW120129   1.806   1.176   0.347
 6410SOL    HW220130   1.677   1.103   0.278
 6411SOL     OW20131   0.434   2.779   2.248
 6411SOL    HW120132   0.446   2.873   2.280
 6411SOL    HW220133   0.441   2.717   2.326
 6412SOL     OW20134   3.921   0.952   6.617
 6412SOL    HW120135   3.867   0.975   6.697
 6412SOL    HW220136   4.011   0.918   6.646
 6413SOL     OW20137   4.878   6.455   3.267
 6413SOL    HW120138   4.972   6.424   3.257
 6413SOL    HW220139   4.827   6.434   3.182
 6414SOL     OW20140   2.572   0.563   0.709
 6414SOL    HW120141   2.573   0.522   0.618
 6414SOL    HW220142   2.556   0.492   0.777
 6415SOL     OW20143   0.991   1.537   3.533
 6415SOL    HW120144   1.061   1.529   3.462
 6415SOL    HW220145   0.944   1.625   3.525
 6416SOL     OW20146   3.300   5.064   0.209
 6416SOL    HW120147   3.244   4.981   0.203
 6416SOL    HW220148   3.253   5.132   0.265
 6417SOL     OW20149   4.099   2.675   6.634
 6417SOL    HW120150   4.127   2.744   6.701
 6417SOL    HW220151   4.004   2.691   6.608
 6418SOL     OW20152   4.967   5.057   0.313
 6418SOL    HW120153   4.918   5.049   0.227
 6418SOL    HW220154   5.004   5.149   0.323
 6419SOL     OW20155   1.063   6.597   6.635
 6419SOL    HW120156   1.158   6.589   6.606
 6419SOL    HW220157   1.023   6.680   6.596
 6420SOL     OW20158   2.777   4.754   3.862
 6420SOL    HW120159   2.777   4.741   3.762
 6420SOL    HW220160   2.871   4.758   3.895
 6421SOL     OW20161   4.894   7.009   1.638
 6421SOL    HW120162   4.799   7.018   1.607
 6421SOL    HW220163   4.955   7.019   1.559
 6422SOL     OW20164   6.528   3.052   4.969
 6422SOL    HW120165   6.449   3.021   5.021
 6422SOL    HW220166   6.608   3.058   5.029
 6423SOL     OW20167   1.079   4.915   4.812
 6423SOL    HW120168   1.128   4.846   4.759
 6423SOL    HW220169   1.097   4.901   4.910
 6424SOL     OW20170   6.951   4.440   6.273
 6424SOL    HW120171   6.884   4.403   6.209
 6424SOL    HW220172   6.907   4.458   6.361
 6425SOL     OW20173   7.014   6.183   4.172
 6425SOL    HW120174   0.025   6.129   4.250
 6425SOL    HW220175   0.069   6.201   4.110
 6426SOL     OW20176   4.778   4.952   4.602
 6426SOL    HW120177   4.705   4.926   4.539
 6426SOL    HW220178   4.762   4.912   4.692
 6427SOL     OW20179   3.943   3.036   3.369
 6427SOL    HW120180   4.015   3.105   3.375
 6427SOL    HW220181   3.936   3.002   3.275
 6428SOL     OW20182   5.507   2.609   0.249
 6428SOL    HW120183   5.429   2.649   0.203
 6428SOL    HW220184   5.500   2.509   0.247
 6429SOL     OW20185   2.462   1.432   5.352
 6429SOL    HW120186   2.393   1.382   5.404
 6429SOL    HW220187   2.428   1.448   5.259
 6430SOL     OW20188   6.296   1.025   5.290
 6430SOL    HW120189   6.289   0.925   5.300
 6430SOL    HW220190   6.232   1.056   5.221
 6431SOL     OW20191   3.543   5.269   2.450
 6431SOL    HW120192   3.538   5.176   2.487
 6431SOL    HW220193   3.626   5.278   2.396
 6432SOL     OW20194   4.795   3.342   5.773
 6432SOL    HW120195   4.804   3.331   5.674
 6432SOL    HW220196   4.716   3.291   5.806
 6433SOL     OW20197   3.740   4.503   5.709
 6433SOL    HW120198   3.652   4.484   5.752
 6433SOL    HW220199   3.802   4.426   5.726
 6434SOL     OW20200   5.373   5.557   5.966
 6434SOL    HW120201   5.341   5.467   5.936
 6434SOL    HW220202   5.441   5.546   6.039
 6435SOL     OW20203   5.011   1.151   0.879
 6435SOL    HW120204   4.926   1.098   0.880
 6435SOL    HW220205   5.077   1.109   0.941
 6436SOL     OW20206   0.425   3.567   3.718
 6436SOL    HW120207   0.351   3.500   3.720
 6436SOL    HW220208   0.394   3.650   3.671
 6437SOL     OW20209   1.545   2.799   5.838
 6437SOL    HW120210   1.511   2.737   5.768
 6437SOL    HW220211   1.496   2.886   5.832
 6438SOL     OW20212   0.536   5.651   6.995
 6438SOL    HW120213   0.528   5.729   6.932
 6438SOL    HW220214   0.501   5.678   0.063
 6439SOL     OW20215   5.559   6.999   2.416
 6439SOL    HW120216   5.499   6.921   2.399
 6439SOL    HW220217   5.513   0.041   2.479
 6440SOL     OW20218   2.735   1.518   6.288
 6440SOL    HW120219   2.788   1.504   6.371
 6440SOL    HW220220   2.651   1.569   6.309
 6441SOL     OW20221   0.105   2.146   1.925
 6441SOL    HW120222   0.191   2.094   1.921
 6441SOL    HW220223   0.125   2.243   1.938
 6442SOL     OW20224   2.670   1.980   4.693
 6442SOL    HW120225   2.685   2.022   4.783
 6442SOL    HW220226   2.610   1.901   4.702
 6443SOL     OW20227   3.468   2.888   6.508
 6443SOL    HW120228   3.462   2.904   6.409
 6443SOL    HW220229   3.486   2.975   6.555
 6444SOL     OW20230   6.889   4.228   4.461
 6444SOL    HW120231   6.950   4.196   4.389
 6444SOL    HW220232   6.807   4.171   4.464
 6445SOL     OW20233   3.012   3.192   3.620
 6445SOL    HW120234   3.007   3.283   3.662
 6445SOL    HW220235   2.974   3.197   3.527
 6446SOL     OW20236   1.430   1.095   0.463
 6446SOL    HW120237   1.495   1.036   0.511
 6446SOL    HW220238   1.451   1.097   0.366
 6447SOL     OW20239   5.552   3.665   2.107
 6447SOL    HW120240   5.510   3.725   2.039
 6447SOL    HW220241   5.570   3.718   2.190
 6448SOL     OW20242   4.497   4.607   0.969
 6448SOL    HW120243   4.597   4.601   0.973
 6448SOL    HW220244   4.465   4.576   0.880
 6449SOL     OW20245   3.306   4.971   0.737
 6449SOL    HW120246   3.288   4.898   0.803
 6449SOL    HW220247   3.233   4.973   0.669
 6450SOL     OW20248   6.039   3.831   6.812
 6450SOL    HW120249   5.956   3.780   6.790
 6450SOL    HW220250   6.018   3.929   6.814
 6451SOL     OW20251   4.191   2.651   1.740
 6451SOL    HW120252   4.202   2.750   1.735
 6451SOL    HW220253   4.141   2.619   1.659
 6452SOL     OW20254   3.684   2.097   4.868
 6452SOL    HW120255   3.725   2.121   4.956
 6452SOL    HW220256   3.729   2.015   4.832
 6453SOL     OW20257   1.824   0.088   2.623
 6453SOL    HW120258   1.801   0.026   2.548
 6453SOL    HW220259   1.892   0.045   2.682
 6454SOL     OW20260   5.062   2.711   3.986
 6454SOL    HW120261   5.094   2.789   3.931
 6454SOL    HW220262   5.125   2.697   4.062
 6455SOL     OW20263   6.821   3.147   4.044
 6455SOL    HW120264   6.726   3.164   4.071
 6455SOL    HW220265   6.848   3.215   3.976
 6456SOL     OW20266   6.419   1.922   2.107
 6456SOL    HW120267   6.482   1.910   2.183
 6456SOL    HW220268   6.363   1.839   2.097
 6457SOL     OW20269   2.820   6.385   2.719
 6457SOL    HW120270   2.814   6.406   2.817
 6457SOL    HW220271   2.735   6.413   2.674
 6458SOL     OW20272   0.124   6.888   4.714
 6458SOL    HW120273   0.169   6.882   4.804
 6458SOL    HW220274   0.076   6.802   4.696
 6459SOL     OW20275   0.763   3.380   3.033
 6459SOL    HW120276   0.688   3.422   3.083
 6459SOL    HW220277   0.786   3.437   2.954
 6460SOL     OW20278   1.233   5.499   6.518
 6460SOL    HW120279   1.200   5.547   6.600
 6460SOL    HW220280   1.220   5.558   6.438
 6461SOL     OW20281   0.957   6.172   0.852
 6461SOL    HW120282   0.960   6.264   0.812
 6461SOL    HW220283   1.044   6.125   0.835
 6462SOL     OW20284   1.883   3.715   5.335
 6462SOL    HW120285   1.961   3.665   5.299
 6462SOL    HW220286   1.886   3.714   5.435
 6463SOL     OW20287   5.220   3.290   1.451
 6463SOL    HW120288   5.170   3.371   1.421
 6463SOL    HW220289   5.215   3.283   1.551
 6464SOL     OW20290   0.506   4.255   4.064
 6464SOL    HW120291   0.408   4.272   4.074
 6464SOL    HW220292   0.546   4.324   4.004
 6465SOL     OW20293   2.898   0.651   3.791
 6465SOL    HW120294   2.877   0.710   3.713
 6465SOL    HW220295   2.910   0.707   3.873
 6466SOL     OW20296   0.008   4.940   6.799
 6466SOL    HW120297   6.971   4.981   6.729
 6466SOL    HW220298   6.980   4.866   6.845
 6467SOL     OW20299   1.793   1.935   6.434
 6467SOL    HW120300   1.862   2.004   6.410
 6467SOL    HW220301   1.720   1.935   6.366
 6468SOL     OW20302   1.817   0.212   1.171
 6468SOL    HW120303   1.828   0.117   1.199
 6468SOL    HW220304   1.728   0.246   1.201
 6469SOL     OW20305   2.125   0.995   1.647
 6469SOL    HW120306   2.192   1.018   1.718
 6469SOL    HW220307   2.160   0.919   1.592
 6470SOL     OW20308   6.335   1.645   0.171
 6470SOL    HW120309   6.318   1.673   0.266
 6470SOL    HW220310   6.363   1.725   0.118
 6471SOL     OW20311   0.276   6.541   5.910
 6471SOL    HW120312   0.316   6.632   5.919
 6471SOL    HW220313   0.342   6.472   5.941
 6472SOL     OW20314   6.864   6.322   2.639
 6472SOL    HW120315   6.918   6.293   2.559
 6472SOL    HW220316   6.832   6.241   2.688
 6473SOL     OW20317   2.462   0.975   2.998
 6473SOL    HW120318   2.392   1.020   3.054
 6473SOL    HW220319   2.462   1.015   2.907
 6474SOL     OW20320   3.894   6.376   4.021
 6474SOL    HW120321   3.921   6.352   4.114
 6474SOL    HW220322   3.799   6.348   4.005
 6475SOL     OW20323   5.602   5.472   2.855
 6475SOL    HW120324   5.687   5.523   2.866
 6475SOL    HW220325   5.576   5.470   2.759
 6476SOL     OW20326   4.212   2.851   6.309
 6476SOL    HW120327   4.183   2.771   6.363
 6476SOL    HW220328   4.312   2.854   6.306
 6477SOL     OW20329   0.392   6.504   1.166
 6477SOL    HW120330   0.304   6.518   1.123
 6477SOL    HW220331   0.406   6.406   1.184
 6478SOL     OW20332   2.547   5.962   1.155
 6478SOL    HW120333   2.532   5.875   1.203
 6478SOL    HW220334   2.545   5.945   1.056
 6479SOL     OW20335   4.524   6.057   3.155
 6479SOL    HW120336   4.526   6.098   3.246
 6479SOL    HW220337   4.467   5.975   3.156
 6480SOL     OW20338   3.752   1.664   6.149
 6480SOL    HW120339   3.664   1.623   6.125
 6480SOL    HW220340   3.813   1.661   6.070
 6481SOL     OW20341   4.150   3.221   1.997
 6481SOL    HW120342   4.157   3.296   2.062
 6481SOL    HW220343   4.231   3.162   2.005
 6482SOL     OW20344   4.900   3.682   5.698
 6482SOL    HW120345   4.914   3.605   5.636
 6482SOL    HW220346   4.871   3.648   5.787
 6483SOL     OW20347   1.744   6.026   4.947
 6483SOL    HW120348   1.659   6.060   4.987
 6483SOL    HW220349   1.734   5.929   4.925
 6484SOL     OW20350   3.612   1.288   3.136
 6484SOL    HW120351   3.668   1.360   3.177
 6484SOL    HW220352   3.602   1.304   3.038
 6485SOL     OW20353   2.494   5.870   4.923
 6485SOL    HW120354   2.557   5.843   4.850
 6485SOL    HW220355   2.521   5.826   5.009
 6486SOL     OW20356   6.970   4.684   2.562
 6486SOL    HW120357   7.009   4.639   2.642
 6486SOL    HW220358   6.874   4.705   2.579
 6487SOL     OW20359   6.749   5.140   3.744
 6487SOL    HW120360   6.704   5.165   3.830
 6487SOL    HW220361   6.738   5.214   3.678
 6488SOL     OW20362   3.303   5.176   3.973
 6488SOL    HW120363   3.394   5.196   3.937
 6488SOL    HW220364   3.235   5.184   3.900
 6489SOL     OW20365   5.317   3.163   4.549
 6489SOL    HW120366   5.245   3.213   4.502
 6489SOL    HW220367   5.284   3.072   4.575
 6490SOL     OW20368   2.223   2.434   0.311
 6490SOL    HW120369   2.165   2.406   0.235
 6490SOL    HW220370   2.220   2.534   0.320
 6491SOL     OW20371   1.793   6.509   1.780
 6491SOL    HW120372   1.727   6.496   1.855
 6491SOL    HW220373   1.879   6.464   1.804
 6492SOL     OW20374   4.099   3.722   4.221
 6492SOL    HW120375   4.043   3.804   4.212
 6492SOL    HW220376   4.145   3.703   4.135
 6493SOL     OW20377   1.317   4.234   4.165
 6493SOL    HW120378   1.410   4.252   4.195
 6493SOL    HW220379   1.306   4.265   4.070
 6494SOL     OW20380   6.845   0.866   1.539
 6494SOL    HW120381   6.901   0.896   1.462
 6494SOL    HW220382   6.780   0.796   1.508
 6495SOL     OW20383   6.681   6.714   3.072
 6495SOL    HW120384   6.726   6.784   3.017
 6495SOL    HW220385   6.734   6.695   3.154
 6496SOL     OW20386   3.289   2.121   1.812
 6496SOL    HW120387   3.231   2.052   1.768
 6496SOL    HW220388   3.360   2.075   1.866
 6497SOL     OW20389   6.857   1.397   0.841
 6497SOL    HW120390   6.931   1.331   0.857
 6497SOL    HW220391   6.866   1.435   0.749
 6498SOL     OW20392   2.341   4.252   4.228
 6498SOL    HW120393   2.367   4.284   4.319
 6498SOL    HW220394   2.411   4.278   4.161
 6499SOL     OW20395   4.544   2.329   3.283
 6499SOL    HW120396   4.620   2.284   3.237
 6499SOL    HW220397   4.573   2.360   3.373
 6500SOL     OW20398   1.289   3.860   3.655
 6500SOL    HW120399   1.284   3.927   3.581
 6500SOL    HW220400   1.338   3.779   3.623
 6501SOL     OW20401   6.031   1.542   3.063
 6501SOL    HW120402   6.021   1.457   3.115
 6501SOL    HW220403   5.983   1.616   3.112
 6502SOL     OW20404   0.261   3.493   1.610
 6502SOL    HW120405   0.205   3.526   1.686
 6502SOL    HW220406   0.224   3.526   1.523
 6503SOL     OW20407   6.882   3.382   5.632
 6503SOL    HW120408   6.881   3.394   5.532
 6503SOL    HW220409   6.960   3.324   5.657
 6504SOL     OW20410   3.308   0.047   6.302
 6504SOL    HW120411   3.332   0.001   6.387
 6504SOL    HW220412   3.225   0.006   6.263
 6505SOL     OW20413   0.213   6.466   0.923
 6505SOL    HW120414   0.309   6.438   0.918
 6505SOL    HW220415   0.180   6.491   0.832
 6506SOL     OW20416   0.666   3.624   2.143
 6506SOL    HW120417   0.764   3.638   2.130
 6506SOL    HW220418   0.638   3.542   2.093
 6507SOL     OW20419   4.075   5.435   0.942
 6507SOL    HW120420   4.132   5.414   0.862
 6507SOL    HW220421   4.129   5.426   1.025
 6508SOL     OW20422   6.883   0.877   3.630
 6508SOL    HW120423   6.921   0.927   3.708
 6508SOL    HW220424   6.951   0.811   3.598
 6509SOL     OW20425   2.599   1.817   0.187
 6509SOL    HW120426   2.583   1.721   0.212
 6509SOL    HW220427   2.625   1.822   0.090
 6510SOL     OW20428   3.195   5.465   4.721
 6510SOL    HW120429   3.146   5.434   4.639
 6510SOL    HW220430   3.166   5.558   4.744
 6511SOL     OW20431   2.885   2.338   0.264
 6511SOL    HW120432   2.856   2.311   0.173
 6511SOL    HW220433   2.861   2.267   0.330
 6512SOL     OW20434   4.777   0.726   0.154
 6512SOL    HW120435   4.823   0.688   0.234
 6512SOL    HW220436   4.845   0.746   0.083
 6513SOL     OW20437   2.564   4.694   2.840
 6513SOL    HW120438   2.546   4.757   2.765
 6513SOL    HW220439   2.533   4.602   2.815
 6514SOL     OW20440   5.126   6.255   5.667
 6514SOL    HW120441   5.123   6.171   5.614
 6514SOL    HW220442   5.191   6.319   5.626
 6515SOL     OW20443   0.763   4.746   2.860
 6515SOL    HW120444   0.675   4.791   2.842
 6515SOL    HW220445   0.747   4.659   2.908
 6516SOL     OW20446   6.565   2.534   2.480
 6516SOL    HW120447   6.481   2.537   2.535
 6516SOL    HW220448   6.553   2.469   2.405
 6517SOL     OW20449   6.516   3.860   0.406
 6517SOL    HW120450   6.603   3.823   0.374
 6517SOL    HW220451   6.524   3.959   0.416
 6518SOL     OW20452   1.104   0.736   2.293
 6518SOL    HW120453   1.052   0.683   2.226
 6518SOL    HW220454   1.116   0.682   2.377
 6519SOL     OW20455   1.356   1.087   2.762
 6519SOL    HW120456   1.318   1.016   2.822
 6519SOL    HW220457   1.380   1.167   2.816
 6520SOL     OW20458   6.773   5.673   0.544
 6520SOL    HW120459   6.774   5.597   0.609
 6520SOL    HW220460   6.827   5.649   0.463
 6521SOL     OW20461   1.743   4.773   4.082
 6521SOL    HW120462   1.710   4.685   4.049
 6521SOL    HW220463   1.769   4.766   4.178
 6522SOL     OW20464   2.666   2.910   5.325
 6522SOL    HW120465   2.684   2.959   5.410
 6522SOL    HW220466   2.589   2.952   5.277
 6523SOL     OW20467   6.501   6.593   0.890
 6523SOL    HW120468   6.576   6.543   0.847
 6523SOL    HW220469   6.433   6.527   0.924
 6524SOL     OW20470   2.918   3.090   1.271
 6524SOL    HW120471   2.911   3.020   1.342
 6524SOL    HW220472   2.844   3.078   1.205
 6525SOL     OW20473   1.350   4.827   3.693
 6525SOL    HW120474   1.442   4.851   3.665
 6525SOL    HW220475   1.319   4.892   3.763
 6526SOL     OW20476   0.148   6.325   0.452
 6526SOL    HW120477   0.188   6.250   0.399
 6526SOL    HW220478   0.086   6.287   0.521
 6527SOL     OW20479   6.312   1.526   1.049
 6527SOL    HW120480   6.216   1.501   1.053
 6527SOL    HW220481   6.360   1.486   1.127
 6528SOL     OW20482   4.473   6.653   0.290
 6528SOL    HW120483   4.466   6.624   0.195
 6528SOL    HW220484   4.522   6.583   0.342
 6529SOL     OW20485   4.623   0.315   2.129
 6529SOL    HW120486   4.526   0.296   2.149
 6529SOL    HW220487   4.654   0.392   2.185
 6530SOL     OW20488   0.611   2.561   3.584
 6530SOL    HW120489   0.567   2.526   3.667
 6530SOL    HW220490   0.579   2.654   3.567
 6531SOL     OW20491   3.901   3.948   4.185
 6531SOL    HW120492   3.836   4.006   4.136
 6531SOL    HW220493   3.880   3.951   4.283
 6532SOL     OW20494   0.981   6.250   0.518
 6532SOL    HW120495   0.946   6.159   0.498
 6532SOL    HW220496   1.079   6.245   0.538
 6533SOL     OW20497   4.740   4.633   1.533
 6533SOL    HW120498   4.727   4.533   1.535
 6533SOL    HW220499   4.815   4.658   1.595
 6534SOL     OW20500   6.979   4.343   3.047
 6534SOL    HW120501   6.986   4.364   3.144
 6534SOL    HW220502   6.886   4.312   3.027
 6535SOL     OW20503   5.270   3.922   5.614
 6535SOL    HW120504   5.365   3.949   5.628
 6535SOL    HW220505   5.228   3.902   5.703
 6536SOL     OW20506   0.436   4.463   5.818
 6536SOL    HW120507   0.449   4.443   5.915
 6536SOL    HW220508   0.523   4.491   5.778
 6537SOL     OW20509   7.014   5.519   3.494
 6537SOL    HW120510   7.009   5.512   3.594
 6537SOL    HW220511   6.924   5.542   3.458
 6538SOL     OW20512   0.701   2.511   4.368
 6538SOL    HW120513   0.662   2.449   4.300
 6538SOL    HW220514   0.631   2.536   4.435
 6539SOL     OW20515   4.356   6.725   6.326
 6539SOL    HW120516   4.455   6.739   6.326
 6539SOL    HW220517   4.325   6.702   6.418
 6540SOL     OW20518   6.998   2.450   5.843
 6540SOL    HW120519   6.937   2.400   5.905
 6540SOL    HW220520   6.960   2.540   5.824
 6541SOL     OW20521   4.847   1.851   5.728
 6541SOL    HW120522   4.870   1.755   5.714
 6541SOL    HW220523   4.758   1.857   5.773
 6542SOL     OW20524   1.796   3.722   2.759
 6542SOL    HW120525   1.816   3.649   2.694
 6542SOL    HW220526   1.762   3.802   2.710
 6543SOL     OW20527   3.771   1.396   4.962
 6543SOL    HW120528   3.718   1.478   4.986
 6543SOL    HW220529   3.868   1.419   4.958
 6544SOL     OW20530   0.596   0.163   0.716
 6544SOL    HW120531   0.602   0.193   0.621
 6544SOL    HW220532   0.541   0.079   0.721
 6545SOL     OW20533   4.909   6.336   1.363
 6545SOL    HW120534   4.963   6.303   1.440
 6545SOL    HW220535   4.833   6.274   1.346
 6546SOL     OW20536   5.003   4.941   5.994
 6546SOL    HW120537   5.099   4.955   5.968
 6546SOL    HW220538   4.992   4.848   6.029
 6547SOL     OW20539   0.787   6.227   5.376
 6547SOL    HW120540   0.743   6.146   5.336
 6547SOL    HW220541   0.727   6.268   5.444
 6548SOL     OW20542   0.522   1.904   5.944
 6548SOL    HW120543   0.580   1.842   5.890
 6548SOL    HW220544   0.429   1.866   5.949
 6549SOL     OW20545   3.902   1.799   2.852
 6549SOL    HW120546   3.889   1.898   2.849
 6549SOL    HW220547   3.850   1.756   2.778
 6550SOL     OW20548   6.096   6.286   2.532
 6550SOL    HW120549   6.189   6.262   2.504
 6550SOL    HW220550   6.076   6.242   2.620
 6551SOL     OW20551   2.778   4.815   0.732
 6551SOL    HW120552   2.755   4.731   0.780
 6551SOL    HW220553   2.876   4.834   0.742
 6552SOL     OW20554   1.958   4.656   0.097
 6552SOL    HW120555   1.930   4.599   0.020
 6552SOL    HW220556   1.880   4.706   0.133
 6553SOL     OW20557   0.716   1.927   3.586
 6553SOL    HW120558   0.724   1.881   3.674
 6553SOL    HW220559   0.760   1.872   3.515
 6554SOL     OW20560   1.614   2.884   4.082
 6554SOL    HW120561   1.641   2.831   4.162
 6554SOL    HW220562   1.522   2.858   4.054
 6555SOL     OW20563   0.902   3.761   4.465
 6555SOL    HW120564   0.826   3.825   4.463
 6555SOL    HW220565   0.986   3.811   4.487
 6556SOL     OW20566   4.685   2.674   2.635
 6556SOL    HW120567   4.712   2.714   2.723
 6556SOL    HW220568   4.673   2.748   2.568
 6557SOL     OW20569   2.288   1.039   2.121
 6557SOL    HW120570   2.261   0.948   2.091
 6557SOL    HW220571   2.366   1.032   2.183
 6558SOL     OW20572   5.462   5.861   0.819
 6558SOL    HW120573   5.475   5.768   0.784
 6558SOL    HW220574   5.457   5.925   0.743
 6559SOL     OW20575   6.812   2.390   6.035
 6559SOL    HW120576   6.804   2.301   6.081
 6559SOL    HW220577   6.723   2.417   5.998
 6560SOL     OW20578   6.291   4.641   6.815
 6560SOL    HW120579   6.248   4.601   6.896
 6560SOL    HW220580   6.222   4.686   6.759
 6561SOL     OW20581   2.749   3.948   0.400
 6561SOL    HW120582   2.774   3.856   0.430
 6561SOL    HW220583   2.661   3.973   0.441
 6562SOL     OW20584   4.880   2.660   1.708
 6562SOL    HW120585   4.871   2.716   1.790
 6562SOL    HW220586   4.973   2.669   1.672
 6563SOL     OW20587   6.481   5.162   5.461
 6563SOL    HW120588   6.471   5.223   5.539
 6563SOL    HW220589   6.457   5.068   5.489
 6564SOL     OW20590   5.467   3.373   2.335
 6564SOL    HW120591   5.469   3.296   2.399
 6564SOL    HW220592   5.433   3.340   2.246
 6565SOL     OW20593   5.188   6.894   2.339
 6565SOL    HW120594   5.251   6.962   2.302
 6565SOL    HW220595   5.218   6.866   2.430
 6566SOL     OW20596   5.049   5.534   4.061
 6566SOL    HW120597   4.966   5.581   4.091
 6566SOL    HW220598   5.074   5.565   3.970
 6567SOL     OW20599   3.927   0.458   2.289
 6567SOL    HW120600   4.011   0.480   2.238
 6567SOL    HW220601   3.952   0.416   2.376
 6568SOL     OW20602   5.113   1.143   0.630
 6568SOL    HW120603   5.091   1.174   0.722
 6568SOL    HW220604   5.058   1.193   0.564
 6569SOL     OW20605   1.310   5.122   4.227
 6569SOL    HW120606   1.373   5.191   4.192
 6569SOL    HW220607   1.343   5.031   4.203
 6570SOL     OW20608   4.450   0.068   2.376
 6570SOL    HW120609   4.404   0.025   2.298
 6570SOL    HW220610   4.382   0.104   2.439
 6571SOL     OW20611   3.207   6.334   3.434
 6571SOL    HW120612   3.245   6.403   3.371
 6571SOL    HW220613   3.108   6.348   3.442
 6572SOL     OW20614   2.078   6.180   3.748
 6572SOL    HW120615   2.114   6.245   3.813
 6572SOL    HW220616   1.982   6.161   3.768
 6573SOL     OW20617   6.995   1.968   3.355
 6573SOL    HW120618   6.924   1.963   3.285
 6573SOL    HW220619   6.952   1.982   3.444
 6574SOL     OW20620   1.419   4.523   1.992
 6574SOL    HW120621   1.502   4.552   2.040
 6574SOL    HW220622   1.424   4.425   1.975
 6575SOL     OW20623   0.026   1.511   3.463
 6575SOL    HW120624   0.066   1.479   3.548
 6575SOL    HW220625   0.057   1.452   3.387
 6576SOL     OW20626   4.125   0.202   1.494
 6576SOL    HW120627   4.135   0.296   1.528
 6576SOL    HW220628   4.028   0.182   1.478
 6577SOL     OW20629   3.600   1.159   4.494
 6577SOL    HW120630   3.575   1.110   4.577
 6577SOL    HW220631   3.582   1.101   4.414
 6578SOL     OW20632   1.292   4.762   0.687
 6578SOL    HW120633   1.384   4.750   0.648
 6578SOL    HW220634   1.261   4.675   0.726
 6579SOL     OW20635   1.229   1.083   3.492
 6579SOL    HW120636   1.261   1.176   3.510
 6579SOL    HW220637   1.259   1.022   3.566
 6580SOL     OW20638   2.634   2.087   0.286
 6580SOL    HW120639   2.621   2.001   0.237
 6580SOL    HW220640   2.608   2.164   0.228
 6581SOL     OW20641   0.863   2.236   0.965
 6581SOL    HW120642   0.848   2.190   1.052
 6581SOL    HW220643   0.961   2.254   0.953
 6582SOL     OW20644   5.550   0.891   3.190
 6582SOL    HW120645   5.522   0.816   3.250
 6582SOL    HW220646   5.499   0.887   3.105
 6583SOL     OW20647   3.080   4.164   0.402
 6583SOL    HW120648   3.167   4.121   0.426
 6583SOL    HW220649   3.078   4.257   0.438
 6584SOL     OW20650   4.289   1.922   6.526
 6584SOL    HW120651   4.379   1.966   6.531
 6584SOL    HW220652   4.218   1.992   6.532
 6585SOL     OW20653   5.962   0.107   2.026
 6585SOL    HW120654   5.974   0.087   2.123
 6585SOL    HW220655   5.890   0.175   2.014
 6586SOL     OW20656   6.593   1.205   6.474
 6586SOL    HW120657   6.586   1.235   6.570
 6586SOL    HW220658   6.528   1.257   6.419
 6587SOL     OW20659   2.733   5.083   4.887
 6587SOL    HW120660   2.771   5.026   4.960
 6587SOL    HW220661   2.761   5.178   4.902
 6588SOL     OW20662   0.641   1.739   0.354
 6588SOL    HW120663   0.736   1.761   0.376
 6588SOL    HW220664   0.580   1.795   0.410
 6589SOL     OW20665   6.752   6.448   1.853
 6589SOL    HW120666   6.725   6.352   1.849
 6589SOL    HW220667   6.809   6.463   1.934
 6590SOL     OW20668   1.363   6.234   4.402
 6590SOL    HW120669   1.395   6.325   4.428
 6590SOL    HW220670   1.300   6.242   4.325
 6591SOL     OW20671   6.301   3.303   3.845
 6591SOL    HW120672   6.319   3.396   3.813
 6591SOL    HW220673   6.386   3.263   3.880
 6592SOL     OW20674   6.249   6.946   4.016
 6592SOL    HW120675   6.239   0.013   4.062
 6592SOL    HW220676   6.213   6.874   4.074
 6593SOL     OW20677   2.270   1.497   1.948
 6593SOL    HW120678   2.335   1.555   1.997
 6593SOL    HW220679   2.227   1.433   2.011
 6594SOL     OW20680   5.102   6.778   0.139
 6594SOL    HW120681   5.030   6.755   0.073
 6594SOL    HW220682   5.062   6.828   0.215
 6595SOL     OW20683   0.966   1.673   5.335
 6595SOL    HW120684   0.950   1.652   5.239
 6595SOL    HW220685   0.879   1.683   5.382
 6596SOL     OW20686   5.136   1.130   2.451
 6596SOL    HW120687   5.205   1.062   2.475
 6596SOL    HW220688   5.157   1.216   2.498
 6597SOL     OW20689   0.815   4.520   1.180
 6597SOL    HW120690   0.846   4.425   1.174
 6597SOL    HW220691   0.732   4.532   1.127
 6598SOL     OW20692   1.484   5.138   3.211
 6598SOL    HW120693   1.541   5.074   3.159
 6598SOL    HW220694   1.449   5.209   3.150
 6599SOL     OW20695   0.144   5.898   6.184
 6599SOL    HW120696   0.227   5.942   6.149
 6599SOL    HW220697   0.068   5.917   6.121
 6600SOL     OW20698   4.816   6.958   5.035
 6600SOL    HW120699   4.846   6.874   5.081
 6600SOL    HW220700   4.896   7.012   5.008
 6601SOL     OW20701   1.149   2.549   1.657
 6601SOL    HW120702   1.089   2.520   1.582
 6601SOL    HW220703   1.233   2.588   1.619
 6602SOL     OW20704   0.007   5.534   1.292
 6602SOL    HW120705   6.981   5.476   1.226
 6602SOL    HW220706   0.081   5.482   1.335
 6603SOL     OW20707   0.244   4.695   1.962
 6603SOL    HW120708   0.177   4.654   2.024
 6603SOL    HW220709   0.336   4.673   1.994
 6604SOL     OW20710   1.807   5.616   3.396
 6604SOL    HW120711   1.824   5.561   3.477
 6604SOL    HW220712   1.890   5.621   3.340
 6605SOL     OW20713   0.033   5.425   0.903
 6605SOL    HW120714   6.995   5.412   0.983
 6605SOL    HW220715   7.019   5.371   0.826
 6606SOL     OW20716   1.566   3.705   2.915
 6606SOL    HW120717   1.616   3.692   3.001
 6606SOL    HW220718   1.631   3.708   2.839
 6607SOL     OW20719   6.318   2.956   4.111
 6607SOL    HW120720   6.387   2.910   4.167
 6607SOL    HW220721   6.281   3.034   4.161
 6608SOL     OW20722   1.301   0.102   5.829
 6608SOL    HW120723   1.248   0.019   5.850
 6608SOL    HW220724   1.380   0.107   5.891
 6609SOL     OW20725   3.864   2.044   6.661
 6609SOL    HW120726   3.895   2.055   6.567
 6609SOL    HW220727   3.776   1.997   6.662
 6610SOL     OW20728   3.102   5.950   1.065
 6610SOL    HW120729   3.117   5.952   0.966
 6610SOL    HW220730   3.057   6.035   1.094
 6611SOL     OW20731   3.012   1.840   4.856
 6611SOL    HW120732   3.004   1.822   4.758
 6611SOL    HW220733   3.095   1.797   4.891
 6612SOL     OW20734   0.883   0.107   0.081
 6612SOL    HW120735   0.953   0.101   0.009
 6612SOL    HW220736   0.923   0.152   0.161
 6613SOL     OW20737   4.816   6.438   0.593
 6613SOL    HW120738   4.785   6.483   0.677
 6613SOL    HW220739   4.913   6.457   0.579
 6614SOL     OW20740   3.928   4.964   0.913
 6614SOL    HW120741   3.974   5.045   0.877
 6614SOL    HW220742   3.996   4.900   0.948
 6615SOL     OW20743   3.497   5.647   5.805
 6615SOL    HW120744   3.533   5.557   5.830
 6615SOL    HW220745   3.400   5.641   5.785
 6616SOL     OW20746   4.109   1.153   0.057
 6616SOL    HW120747   4.023   1.198   0.082
 6616SOL    HW220748   4.151   1.201   7.002
 6617SOL     OW20749   3.306   0.650   3.721
 6617SOL    HW120750   3.342   0.688   3.636
 6617SOL    HW220751   3.307   0.720   3.792
 6618SOL     OW20752   5.916   2.088   4.480
 6618SOL    HW120753   6.012   2.080   4.454
 6618SOL    HW220754   5.861   2.027   4.423
 6619SOL     OW20755   4.908   5.291   4.037
 6619SOL    HW120756   4.972   5.368   4.040
 6619SOL    HW220757   4.857   5.294   3.951
 6620SOL     OW20758   1.212   2.574   3.405
 6620SOL    HW120759   1.244   2.534   3.491
 6620SOL    HW220760   1.127   2.624   3.421
 6621SOL     OW20761   2.933   3.445   3.906
 6621SOL    HW120762   2.930   3.501   3.989
 6621SOL    HW220763   2.972   3.355   3.928
 6622SOL     OW20764   6.956   5.018   0.946
 6622SOL    HW120765   6.884   4.988   1.009
 6622SOL    HW220766   0.009   5.060   0.999
 6623SOL     OW20767   3.154   4.086   3.877
 6623SOL    HW120768   3.192   4.116   3.965
 6623SOL    HW220769   3.102   4.002   3.890
 6624SOL     OW20770   2.518   2.446   2.694
 6624SOL    HW120771   2.568   2.397   2.622
 6624SOL    HW220772   2.474   2.380   2.755
 6625SOL     OW20773   6.815   3.952   5.754
 6625SOL    HW120774   6.908   3.954   5.718
 6625SOL    HW220775   6.783   4.046   5.767
 6626SOL     OW20776   3.231   5.585   5.386
 6626SOL    HW120777   3.266   5.566   5.294
 6626SOL    HW220778   3.207   5.499   5.431
 6627SOL     OW20779   2.389   6.278   4.315
 6627SOL    HW120780   2.425   6.204   4.372
 6627SOL    HW220781   2.320   6.329   4.366
 6628SOL     OW20782   3.876   6.896   3.402
 6628SOL    HW120783   3.915   6.969   3.458
 6628SOL    HW220784   3.784   6.874   3.433
 6629SOL     OW20785   5.073   5.407   5.181
 6629SOL    HW120786   5.041   5.501   5.172
 6629SOL    HW220787   5.172   5.405   5.166
 6630SOL     OW20788   1.582   0.942   0.664
 6630SOL    HW120789   1.676   0.933   0.697
 6630SOL    HW220790   1.521   0.888   0.721
 6631SOL     OW20791   2.226   3.279   5.712
 6631SOL    HW120792   2.164   3.270   5.634
 6631SOL    HW220793   2.321   3.273   5.682
 6632SOL     OW20794   1.430   0.311   6.709
 6632SOL    HW120795   1.501   0.378   6.730
 6632SOL    HW220796   1.346   0.336   6.757
 6633SOL     OW20797   4.356   5.750   6.388
 6633SOL    HW120798   4.285   5.820   6.386
 6633SOL    HW220799   4.316   5.661   6.367
 6634SOL     OW20800   3.665   2.098   4.134
 6634SOL    HW120801   3.736   2.042   4.091
 6634SOL    HW220802   3.589   2.108   4.070
 6635SOL     OW20803   5.377   5.358   5.155
 6635SOL    HW120804   5.421   5.444   5.182
 6635SOL    HW220805   5.401   5.286   5.220
 6636SOL     OW20806   4.405   1.023   6.895
 6636SOL    HW120807   4.504   1.033   6.880
 6636SOL    HW220808   4.381   1.065   6.982
 6637SOL     OW20809   0.131   2.302   6.806
 6637SOL    HW120810   0.117   2.244   6.726
 6637SOL    HW220811   0.195   2.375   6.784
 6638SOL     OW20812   3.012   3.928   3.620
 6638SOL    HW120813   2.991   3.849   3.678
 6638SOL    HW220814   3.045   4.003   3.677
 6639SOL     OW20815   5.288   2.324   1.574
 6639SOL    HW120816   5.371   2.312   1.519
 6639SOL    HW220817   5.308   2.298   1.669
 6640SOL     OW20818   1.546   4.157   4.679
 6640SOL    HW120819   1.610   4.181   4.751
 6640SOL    HW220820   1.455   4.142   4.719
 6641SOL     OW20821   5.884   2.513   0.086
 6641SOL    HW120822   5.789   2.539   0.071
 6641SOL    HW220823   5.887   2.435   0.149
 6642SOL     OW20824   1.604   5.921   0.007
 6642SOL    HW120825   1.646   5.956   0.090
 6642SOL    HW220826   1.525   5.865   0.031
 6643SOL     OW20827   3.244   6.279   6.408
 6643SOL    HW120828   3.148   6.309   6.406
 6643SOL    HW220829   3.301   6.347   6.361
 6644SOL     OW20830   2.517   7.004   3.881
 6644SOL    HW120831   2.559   6.986   3.970
 6644SOL    HW220832   2.547   0.072   3.848
 6645SOL     OW20833   5.377   2.797   6.079
 6645SOL    HW120834   5.326   2.858   6.019
 6645SOL    HW220835   5.356   2.818   6.174
 6646SOL     OW20836   3.835   6.846   5.334
 6646SOL    HW120837   3.841   6.945   5.320
 6646SOL    HW220838   3.739   6.818   5.330
 6647SOL     OW20839   4.030   4.676   0.543
 6647SOL    HW120840   4.053   4.688   0.446
 6647SOL    HW220841   3.988   4.761   0.577
 6648SOL     OW20842   2.993   5.558   5.033
 6648SOL    HW120843   3.081   5.535   5.075
 6648SOL    HW220844   2.926   5.487   5.054
 6649SOL     OW20845   4.673   2.668   6.119
 6649SOL    HW120846   4.681   2.699   6.024
 6649SOL    HW220847   4.735   2.721   6.177
 6650SOL     OW20848   1.478   1.211   5.652
 6650SOL    HW120849   1.551   1.274   5.679
 6650SOL    HW220850   1.509   1.155   5.576
 6651SOL     OW20851   7.016   1.823   5.753
 6651SOL    HW120852   0.050   1.892   5.707
 6651SOL    HW220853   6.920   1.833   5.725
 6652SOL     OW20854   6.972   5.014   0.365
 6652SOL    HW120855   6.975   4.987   0.268
 6652SOL    HW220856   6.953   5.112   0.372
 6653SOL     OW20857   5.871   4.648   6.906
 6653SOL    HW120858   5.800   4.709   6.941
 6653SOL    HW220859   5.829   4.577   6.850
 6654SOL     OW20860   6.306   3.219   3.450
 6654SOL    HW120861   6.268   3.147   3.509
 6654SOL    HW220862   6.381   3.265   3.498
 6655SOL     OW20863   0.169   6.040   1.654
 6655SOL    HW120864   0.074   6.069   1.656
 6655SOL    HW220865   0.211   6.054   1.744
 6656SOL     OW20866   4.020   1.310   3.062
 6656SOL    HW120867   3.963   1.247   3.010
 6656SOL    HW220868   4.108   1.266   3.081
 6657SOL     OW20869   5.467   1.238   4.476
 6657SOL    HW120870   5.458   1.295   4.394
 6657SOL    HW220871   5.402   1.270   4.546
 6658SOL     OW20872   6.800   6.165   5.403
 6658SOL    HW120873   6.799   6.265   5.406
 6658SOL    HW220874   6.884   6.134   5.359
 6659SOL     OW20875   0.862   5.401   1.318
 6659SOL    HW120876   0.820   5.388   1.229
 6659SOL    HW220877   0.827   5.332   1.382
 6660SOL     OW20878   6.947   0.064   4.818
 6660SOL    HW120879   6.880   0.035   4.749
 6660SOL    HW220880   0.017   0.035   4.790
 6661SOL     OW20881   4.133   5.696   3.786
 6661SOL    HW120882   4.090   5.778   3.748
 6661SOL    HW220883   4.063   5.638   3.826
 6662SOL     OW20884   3.676   6.569   2.524
 6662SOL    HW120885   3.708   6.609   2.610
 6662SOL    HW220886   3.578   6.551   2.531
 6663SOL     OW20887   0.897   4.365   6.068
 6663SOL    HW120888   0.978   4.421   6.086
 6663SOL    HW220889   0.832   4.375   6.144
 6664SOL     OW20890   2.981   0.629   1.433
 6664SOL    HW120891   3.016   0.587   1.350
 6664SOL    HW220892   2.991   0.565   1.509
 6665SOL     OW20893   2.765   0.646   6.802
 6665SOL    HW120894   2.742   0.553   6.772
 6665SOL    HW220895   2.814   0.693   6.728
 6666SOL     OW20896   3.853   6.072   5.014
 6666SOL    HW120897   3.893   6.122   5.091
 6666SOL    HW220898   3.852   5.974   5.036
 6667SOL     OW20899   1.215   5.708   6.332
 6667SOL    HW120900   1.163   5.790   6.358
 6667SOL    HW220901   1.313   5.726   6.341
 6668SOL     OW20902   0.214   4.230   0.286
 6668SOL    HW120903   0.170   4.149   0.248
 6668SOL    HW220904   0.146   4.301   0.302
 6669SOL     OW20905   1.757   2.253   3.253
 6669SOL    HW120906   1.855   2.240   3.271
 6669SOL    HW220907   1.718   2.311   3.325
 6670SOL     OW20908   3.620   3.252   0.398
 6670SOL    HW120909   3.641   3.289   0.489
 6670SOL    HW220910   3.588   3.326   0.339
 6671SOL     OW20911   4.686   4.948   0.176
 6671SOL    HW120912   4.764   4.938   0.115
 6671SOL    HW220913   4.605   4.904   0.137
 6672SOL     OW20914   1.204   2.133   1.561
 6672SOL    HW120915   1.257   2.218   1.557
 6672SOL    HW220916   1.125   2.141   1.500
 6673SOL     OW20917   6.315   2.537   3.989
 6673SOL    HW120918   6.235   2.491   3.951
 6673SOL    HW220919   6.286   2.598   4.063
 6674SOL     OW20920   0.238   1.038   0.660
 6674SOL    HW120921   0.337   1.034   0.677
 6674SOL    HW220922   0.222   1.065   0.565
 6675SOL     OW20923   5.033   0.297   6.975
 6675SOL    HW120924   5.045   0.381   0.007
 6675SOL    HW220925   5.043   0.318   6.878
 6676SOL     OW20926   0.681   3.960   4.481
 6676SOL    HW120927   0.715   4.045   4.522
 6676SOL    HW220928   0.647   3.899   4.553
 6677SOL     OW20929   0.672   1.747   6.484
 6677SOL    HW120930   0.655   1.653   6.457
 6677SOL    HW220931   0.609   1.774   6.556
 6678SOL     OW20932   3.033   4.567   6.535
 6678SOL    HW120933   3.012   4.645   6.476
 6678SOL    HW220934   3.092   4.597   6.609
 6679SOL     OW20935   1.853   0.207   3.793
 6679SOL    HW120936   1.840   0.306   3.794
 6679SOL    HW220937   1.901   0.178   3.876
 6680SOL     OW20938   6.490   5.521   1.196
 6680SOL    HW120939   6.532   5.591   1.254
 6680SOL    HW220940   6.495   5.549   1.100
 6681SOL     OW20941   3.258   6.039   1.676
 6681SOL    HW120942   3.158   6.034   1.676
 6681SOL    HW220943   3.295   5.969   1.737
 6682SOL     OW20944   3.253   5.634   5.682
 6682SOL    HW120945   3.183   5.689   5.727
 6682SOL    HW220946   3.242   5.640   5.583
 6683SOL     OW20947   6.904   5.258   5.550
 6683SOL    HW120948   6.994   5.301   5.543
 6683SOL    HW220949   6.880   5.217   5.462
 6684SOL     OW20950   2.830   5.959   6.802
 6684SOL    HW120951   2.763   5.887   6.785
 6684SOL    HW220952   2.835   6.020   6.723
 6685SOL     OW20953   4.913   2.809   0.944
 6685SOL    HW120954   4.929   2.751   1.024
 6685SOL    HW220955   4.836   2.775   0.892
 6686SOL     OW20956   5.088   5.087   4.967
 6686SOL    HW120957   5.107   5.040   5.053
 6686SOL    HW220958   4.993   5.070   4.940
 6687SOL     OW20959   0.211   1.432   1.517
 6687SOL    HW120960   0.148   1.496   1.561
 6687SOL    HW220961   0.166   1.390   1.438
 6688SOL     OW20962   4.007   4.978   0.148
 6688SOL    HW120963   4.094   4.998   0.192
 6688SOL    HW220964   4.022   4.964   0.050
 6689SOL     OW20965   2.771   4.123   5.686
 6689SOL    HW120966   2.854   4.085   5.646
 6689SOL    HW220967   2.719   4.172   5.616
 6690SOL     OW20968   0.740   0.468   6.782
 6690SOL    HW120969   0.789   0.551   6.807
 6690SOL    HW220970   0.686   0.436   6.860
 6691SOL     OW20971   2.831   1.784   2.148
 6691SOL    HW120972   2.925   1.809   2.127
 6691SOL    HW220973   2.769   1.856   2.117
 6692SOL     OW20974   4.359   5.554   2.576
 6692SOL    HW120975   4.299   5.474   2.580
 6692SOL    HW220976   4.306   5.636   2.597
 6693SOL     OW20977   3.504   1.246   5.484
 6693SOL    HW120978   3.432   1.184   5.513
 6693SOL    HW220979   3.514   1.320   5.551
 6694SOL     OW20980   4.237   4.189   1.229
 6694SOL    HW120981   4.157   4.193   1.168
 6694SOL    HW220982   4.304   4.258   1.200
 6695SOL     OW20983   2.521   2.365   0.477
 6695SOL    HW120984   2.494   2.460   0.490
 6695SOL    HW220985   2.440   2.310   0.456
 6696SOL     OW20986   4.112   3.322   4.541
 6696SOL    HW120987   4.102   3.421   4.534
 6696SOL    HW220988   4.208   3.297   4.529
 6697SOL     OW20989   4.593   2.305   2.185
 6697SOL    HW120990   4.522   2.369   2.212
 6697SOL    HW220991   4.554   2.213   2.176
 6698SOL     OW20992   3.836   4.353   1.492
 6698SOL    HW120993   3.829   4.269   1.546
 6698SOL    HW220994   3.774   4.422   1.529
 6699SOL     OW20995   1.445   3.050   5.813
 6699SOL    HW120996   1.515   3.120   5.829
 6699SOL    HW220997   1.438   3.032   5.715
 6700SOL     OW20998   5.685   0.068   1.021
 6700SOL    HW120999   5.696   0.087   1.119
 6700SOL    HW221000   5.611   0.002   1.008
 6701SOL     OW21001   6.272   6.788   1.482
 6701SOL    HW121002   6.218   6.726   1.426
 6701SOL    HW221003   6.369   6.776   1.462
 6702SOL     OW21004   3.685   3.038   0.769
 6702SOL    HW121005   3.744   3.030   0.849
 6702SOL    HW221006   3.695   2.957   0.711
 6703SOL     OW21007   0.033   1.372   0.166
 6703SOL    HW121008   0.038   1.422   0.080
 6703SOL    HW221009   0.083   1.422   0.237
 6704SOL     OW21010   3.491   6.915   5.731
 6704SOL    HW121011   3.442   6.923   5.818
 6704SOL    HW221012   3.478   6.823   5.694
 6705SOL     OW21013   0.180   4.373   2.290
 6705SOL    HW121014   0.162   4.275   2.294
 6705SOL    HW221015   0.264   4.394   2.341
 6706SOL     OW21016   0.370   6.730   1.410
 6706SOL    HW121017   0.316   6.680   1.342
 6706SOL    HW221018   0.456   6.761   1.368
 6707SOL     OW21019   4.165   1.234   2.619
 6707SOL    HW121020   4.262   1.225   2.595
 6707SOL    HW221021   4.139   1.161   2.682
 6708SOL     OW21022   0.819   3.239   0.197
 6708SOL    HW121023   0.732   3.223   0.243
 6708SOL    HW221024   0.856   3.152   0.164
 6709SOL     OW21025   2.455   4.385   2.546
 6709SOL    HW121026   2.369   4.423   2.513
 6709SOL    HW221027   2.470   4.296   2.504
 6710SOL     OW21028   4.645   1.394   1.013
 6710SOL    HW121029   4.564   1.380   0.956
 6710SOL    HW221030   4.654   1.318   1.077
 6711SOL     OW21031   3.302   6.062   6.198
 6711SOL    HW121032   3.319   6.097   6.105
 6711SOL    HW221033   3.262   6.135   6.254
 6712SOL     OW21034   5.423   4.599   1.187
 6712SOL    HW121035   5.365   4.658   1.243
 6712SOL    HW221036   5.519   4.612   1.213
 6713SOL     OW21037   1.213   5.057   4.508
 6713SOL    HW121038   1.261   5.076   4.422
 6713SOL    HW221039   1.115   5.046   4.490
 6714SOL     OW21040   5.518   1.245   1.630
 6714SOL    HW121041   5.506   1.192   1.546
 6714SOL    HW221042   5.592   1.206   1.684
 6715SOL     OW21043   1.739   0.310   6.112
 6715SOL    HW121044   1.653   0.352   6.138
 6715SOL    HW221045   1.764   0.241   6.180
 6716SOL     OW21046   0.274   5.903   2.090
 6716SOL    HW121047   0.359   5.903   2.144
 6716SOL    HW221048   0.272   5.820   2.033
 6717SOL     OW21049   5.935   1.701   5.775
 6717SOL    HW121050   5.960   1.605   5.790
 6717SOL    HW221051   5.952   1.753   5.858
 6718SOL     OW21052   5.027   1.381   1.064
 6718SOL    HW121053   5.002   1.350   0.972
 6718SOL    HW221054   5.013   1.480   1.071
 6719SOL     OW21055   1.773   1.581   0.264
 6719SOL    HW121056   1.701   1.578   0.195
 6719SOL    HW221057   1.857   1.617   0.224
 6720SOL     OW21058   1.365   0.779   6.163
 6720SOL    HW121059   1.353   0.870   6.124
 6720SOL    HW221060   1.300   0.715   6.121
 6721SOL     OW21061   6.217   6.684   1.057
 6721SOL    HW121062   6.251   6.774   1.030
 6721SOL    HW221063   6.136   6.661   1.002
 6722SOL     OW21064   5.690   3.709   0.240
 6722SOL    HW121065   5.615   3.676   0.183
 6722SOL    HW221066   5.759   3.637   0.250
 6723SOL     OW21067   1.080   3.217   5.854
 6723SOL    HW121068   0.995   3.186   5.811
 6723SOL    HW221069   1.100   3.160   5.933
 6724SOL     OW21070   2.130   3.756   4.182
 6724SOL    HW121071   2.114   3.767   4.084
 6724SOL    HW221072   2.143   3.659   4.203
 6725SOL     OW21073   5.443   2.835   3.550
 6725SOL    HW121074   5.519   2.778   3.518
 6725SOL    HW221075   5.403   2.794   3.632
 6726SOL     OW21076   0.536   0.650   6.224
 6726SOL    HW121077   0.589   0.568   6.244
 6726SOL    HW221078   0.446   0.624   6.189
 6727SOL     OW21079   1.641   5.244   5.352
 6727SOL    HW121080   1.573   5.201   5.294
 6727SOL    HW221081   1.699   5.174   5.394
 6728SOL     OW21082   3.938   1.329   3.777
 6728SOL    HW121083   3.907   1.260   3.843
 6728SOL    HW221084   3.933   1.291   3.685
 6729SOL     OW21085   4.040   1.027   2.380
 6729SOL    HW121086   4.080   1.048   2.291
 6729SOL    HW221087   4.085   1.083   2.450
 6730SOL     OW21088   0.146   1.916   1.004
 6730SOL    HW121089   0.151   1.933   0.906
 6730SOL    HW221090   0.215   1.849   1.031
 6731SOL     OW21091   3.913   0.302   6.215
 6731SOL    HW121092   3.880   0.239   6.285
 6731SOL    HW221093   3.982   0.363   6.255
 6732SOL     OW21094   0.154   4.775   5.568
 6732SOL    HW121095   0.204   4.705   5.619
 6732SOL    HW221096   0.168   4.864   5.611
 6733SOL     OW21097   4.724   4.922   5.377
 6733SOL    HW121098   4.761   4.942   5.468
 6733SOL    HW221099   4.795   4.935   5.308
 6734SOL     OW21100   6.454   1.988   4.438
 6734SOL    HW121101   6.542   1.993   4.485
 6734SOL    HW221102   6.412   1.898   4.454
 6735SOL     OW21103   6.586   2.649   3.417
 6735SOL    HW121104   6.561   2.566   3.367
 6735SOL    HW221105   6.639   2.710   3.358
 6736SOL     OW21106   3.869   3.655   1.083
 6736SOL    HW121107   3.911   3.620   1.000
 6736SOL    HW221108   3.769   3.650   1.075
 6737SOL     OW21109   6.737   3.699   0.429
 6737SOL    HW121110   6.704   3.705   0.523
 6737SOL    HW221111   6.836   3.714   0.427
 6738SOL     OW21112   1.648   5.770   4.145
 6738SOL    HW121113   1.706   5.838   4.189
 6738SOL    HW221114   1.665   5.680   4.184
 6739SOL     OW21115   0.122   0.299   5.541
 6739SOL    HW121116   0.035   0.250   5.553
 6739SOL    HW221117   0.114   0.362   5.464
 6740SOL     OW21118   0.271   0.055   2.839
 6740SOL    HW121119   0.344   7.017   2.805
 6740SOL    HW221120   0.212   0.082   2.763
 6741SOL     OW21121   3.658   1.889   0.317
 6741SOL    HW121122   3.570   1.856   0.351
 6741SOL    HW221123   3.696   1.824   0.252
 6742SOL     OW21124   5.790   4.470   3.460
 6742SOL    HW121125   5.829   4.549   3.506
 6742SOL    HW221126   5.821   4.386   3.506
 6743SOL     OW21127   3.881   3.650   0.616
 6743SOL    HW121128   3.924   3.728   0.570
 6743SOL    HW221129   3.809   3.683   0.677
 6744SOL     OW21130   6.022   6.689   6.111
 6744SOL    HW121131   5.944   6.724   6.164
 6744SOL    HW221132   6.104   6.690   6.169
 6745SOL     OW21133   0.028   4.406   5.183
 6745SOL    HW121134   6.989   4.399   5.262
 6745SOL    HW221135   0.008   4.331   5.119
 6746SOL     OW21136   1.009   2.367   2.756
 6746SOL    HW121137   1.045   2.425   2.683
 6746SOL    HW221138   1.039   2.273   2.743
 6747SOL     OW21139   0.853   6.077   5.679
 6747SOL    HW121140   0.848   6.174   5.654
 6747SOL    HW221141   0.807   6.022   5.609
 6748SOL     OW21142   1.836   1.019   4.740
 6748SOL    HW121143   1.932   1.013   4.766
 6748SOL    HW221144   1.829   1.049   4.644
 6749SOL     OW21145   4.324   4.866   1.972
 6749SOL    HW121146   4.320   4.943   2.034
 6749SOL    HW221147   4.254   4.799   1.997
 6750SOL     OW21148   3.453   0.862   5.016
 6750SOL    HW121149   3.509   0.830   4.939
 6750SOL    HW221150   3.409   0.784   5.060
 6751SOL     OW21151   4.369   0.250   4.595
 6751SOL    HW121152   4.430   0.329   4.599
 6751SOL    HW221153   4.366   0.205   4.684
 6752SOL     OW21154   1.955   4.537   2.365
 6752SOL    HW121155   1.935   4.617   2.422
 6752SOL    HW221156   1.955   4.564   2.269
 6753SOL     OW21157   3.917   3.272   6.508
 6753SOL    HW121158   3.987   3.322   6.558
 6753SOL    HW221159   3.960   3.201   6.452
 6754SOL     OW21160   6.132   1.708   0.380
 6754SOL    HW121161   6.202   1.779   0.375
 6754SOL    HW221162   6.043   1.746   0.357
 6755SOL     OW21163   2.646   5.927   6.312
 6755SOL    HW121164   2.723   5.966   6.362
 6755SOL    HW221165   2.560   5.951   6.358
 6756SOL     OW21166   3.546   2.574   6.390
 6756SOL    HW121167   3.527   2.612   6.480
 6756SOL    HW221168   3.644   2.557   6.381
 6757SOL     OW21169   4.189   0.539   1.253
 6757SOL    HW121170   4.098   0.504   1.278
 6757SOL    HW221171   4.245   0.464   1.220
 6758SOL     OW21172   5.446   2.266   3.260
 6758SOL    HW121173   5.382   2.209   3.312
 6758SOL    HW221174   5.422   2.362   3.271
 6759SOL     OW21175   0.654   1.803   2.884
 6759SOL    HW121176   0.611   1.718   2.854
 6759SOL    HW221177   0.653   1.808   2.984
 6760SOL     OW21178   5.398   2.108   4.781
 6760SOL    HW121179   5.392   2.088   4.683
 6760SOL    HW221180   5.492   2.135   4.803
 6761SOL     OW21181   3.347   1.340   5.279
 6761SOL    HW121182   3.278   1.361   5.348
 6761SOL    HW221183   3.398   1.259   5.307
 6762SOL     OW21184   6.931   5.238   4.419
 6762SOL    HW121185   7.016   5.193   4.446
 6762SOL    HW221186   6.913   5.315   4.480
 6763SOL     OW21187   5.952   6.016   4.697
 6763SOL    HW121188   6.001   6.098   4.726
 6763SOL    HW221189   5.907   6.034   4.609
 6764SOL     OW21190   0.962   4.992   0.940
 6764SOL    HW121191   0.991   5.041   1.022
 6764SOL    HW221192   0.980   4.894   0.951
 6765SOL     OW21193   0.172   4.084   2.760
 6765SOL    HW121194   0.086   4.056   2.718
 6765SOL    HW221195   0.246   4.026   2.726
 6766SOL     OW21196   5.787   0.575   1.400
 6766SOL    HW121197   5.746   0.616   1.318
 6766SOL    HW221198   5.786   0.475   1.391
 6767SOL     OW21199   3.107   0.440   0.523
 6767SOL    HW121200   3.074   0.513   0.583
 6767SOL    HW221201   3.129   0.359   0.578
 6768SOL     OW21202   1.696   0.780   0.291
 6768SOL    HW121203   1.734   0.693   0.322
 6768SOL    HW221204   1.701   0.847   0.365
 6769SOL     OW21205   4.447   2.733   1.486
 6769SOL    HW121206   4.359   2.746   1.532
 6769SOL    HW221207   4.520   2.774   1.542
 6770SOL     OW21208   0.187   1.102   1.717
 6770SOL    HW121209   0.090   1.125   1.714
 6770SOL    HW221210   0.235   1.165   1.778
 6771SOL     OW21211   4.678   1.589   3.359
 6771SOL    HW121212   4.680   1.490   3.345
 6771SOL    HW221213   4.701   1.635   3.273
 6772SOL     OW21214   3.236   1.441   3.625
 6772SOL    HW121215   3.250   1.343   3.638
 6772SOL    HW221216   3.154   1.456   3.570
 6773SOL     OW21217   0.419   3.822   1.138
 6773SOL    HW121218   0.439   3.831   1.235
 6773SOL    HW221219   0.427   3.726   1.111
 6774SOL     OW21220   0.531   2.171   6.312
 6774SOL    HW121221   0.464   2.106   6.349
 6774SOL    HW221222   0.487   2.258   6.294
 6775SOL     OW21223   2.273   4.567   7.004
 6775SOL    HW121224   2.315   4.591   0.070
 6775SOL    HW221225   2.238   4.474   7.008
 6776SOL     OW21226   5.839   5.762   0.093
 6776SOL    HW121227   5.846   5.805   0.003
 6776SOL    HW221228   5.873   5.668   0.089
 6777SOL     OW21229   5.036   5.250   6.714
 6777SOL    HW121230   5.128   5.230   6.679
 6777SOL    HW221231   5.016   5.189   6.791
 6778SOL     OW21232   0.118   5.931   2.799
 6778SOL    HW121233   0.067   6.015   2.819
 6778SOL    HW221234   0.092   5.897   2.708
 6779SOL     OW21235   0.401   4.520   0.339
 6779SOL    HW121236   0.453   4.525   0.425
 6779SOL    HW221237   0.441   4.451   0.279
 6780SOL     OW21238   0.234   2.825   2.045
 6780SOL    HW121239   0.287   2.804   1.963
 6780SOL    HW221240   0.282   2.792   2.126
 6781SOL     OW21241   6.230   4.889   6.010
 6781SOL    HW121242   6.313   4.924   5.966
 6781SOL    HW221243   6.154   4.891   5.945
 6782SOL     OW21244   6.139   1.505   2.609
 6782SOL    HW121245   6.066   1.506   2.677
 6782SOL    HW221246   6.149   1.596   2.569
 6783SOL     OW21247   0.616   6.020   6.798
 6783SOL    HW121248   0.554   6.097   6.811
 6783SOL    HW221249   0.564   5.935   6.796
 6784SOL     OW21250   3.604   3.017   0.253
 6784SOL    HW121251   3.629   3.103   0.298
 6784SOL    HW221252   3.506   3.002   0.262
 6785SOL     OW21253   5.930   6.362   1.995
 6785SOL    HW121254   5.929   6.439   2.059
 6785SOL    HW221255   5.880   6.387   1.912
 6786SOL     OW21256   1.890   3.043   6.344
 6786SOL    HW121257   1.899   3.132   6.301
 6786SOL    HW221258   1.906   3.052   6.443
 6787SOL     OW21259   1.022   3.905   1.888
 6787SOL    HW121260   0.928   3.893   1.921
 6787SOL    HW221261   1.079   3.831   1.924
 6788SOL     OW21262   2.737   4.642   0.963
 6788SOL    HW121263   2.802   4.679   1.029
 6788SOL    HW221264   2.735   4.542   0.970
 6789SOL     OW21265   7.010   6.633   3.500
 6789SOL    HW121266   0.053   6.687   3.445
 6789SOL    HW221267   6.986   6.550   3.450
 6790SOL     OW21268   1.779   3.256   6.972
 6790SOL    HW121269   1.715   3.228   6.900
 6790SOL    HW221270   1.828   3.337   6.942
 6791SOL     OW21271   3.892   3.671   6.451
 6791SOL    HW121272   3.823   3.600   6.442
 6791SOL    HW221273   3.859   3.755   6.408
 6792SOL     OW21274   0.326   5.196   0.364
 6792SOL    HW121275   0.288   5.270   0.420
 6792SOL    HW221276   0.420   5.218   0.339
 6793SOL     OW21277   6.310   1.790   0.963
 6793SOL    HW121278   6.306   1.698   1.004
 6793SOL    HW221279   6.239   1.798   0.893
 6794SOL     OW21280   4.739   1.148   5.110
 6794SOL    HW121281   4.784   1.179   5.026
 6794SOL    HW221282   4.644   1.178   5.110
 6795SOL     OW21283   2.960   6.150   0.201
 6795SOL    HW121284   3.043   6.205   0.194
 6795SOL    HW221285   2.895   6.196   0.262
 6796SOL     OW21286   4.205   2.307   2.887
 6796SOL    HW121287   4.132   2.291   2.953
 6796SOL    HW221288   4.271   2.372   2.926
 6797SOL     OW21289   6.734   3.099   2.435
 6797SOL    HW121290   6.646   3.130   2.470
 6797SOL    HW221291   6.743   3.001   2.449
 6798SOL     OW21292   6.190   6.400   2.247
 6798SOL    HW121293   6.170   6.318   2.299
 6798SOL    HW221294   6.141   6.478   2.287
 6799SOL     OW21295   5.261   6.143   1.516
 6799SOL    HW121296   5.244   6.045   1.502
 6799SOL    HW221297   5.290   6.158   1.611
 6800SOL     OW21298   3.183   4.824   6.984
 6800SOL    HW121299   3.173   4.923   6.981
 6800SOL    HW221300   3.158   4.790   0.053
 6801SOL     OW21301   1.912   1.979   2.728
 6801SOL    HW121302   1.832   1.980   2.668
 6801SOL    HW221303   1.952   2.070   2.732
 6802SOL     OW21304   2.165   5.453   2.408
 6802SOL    HW121305   2.215   5.446   2.322
 6802SOL    HW221306   2.137   5.362   2.438
 6803SOL     OW21307   5.224   2.894   0.499
 6803SOL    HW121308   5.162   2.867   0.573
 6803SOL    HW221309   5.314   2.853   0.514
 6804SOL     OW21310   1.501   6.828   3.915
 6804SOL    HW121311   1.477   6.831   3.818
 6804SOL    HW221312   1.419   6.845   3.970
 6805SOL     OW21313   5.578   0.565   4.427
 6805SOL    HW121314   5.515   0.490   4.409
 6805SOL    HW221315   5.575   0.589   4.524
 6806SOL     OW21316   4.347   0.213   5.629
 6806SOL    HW121317   4.396   0.242   5.711
 6806SOL    HW221318   4.412   0.171   5.565
 6807SOL     OW21319   3.109   3.045   0.033
 6807SOL    HW121320   3.178   3.004   6.996
 6807SOL    HW221321   3.020   3.041   7.009
 6808SOL     OW21322   1.977   3.126   4.982
 6808SOL    HW121323   2.038   3.166   5.049
 6808SOL    HW221324   2.025   3.055   4.931
 6809SOL     OW21325   1.785   3.925   6.686
 6809SOL    HW121326   1.826   4.014   6.707
 6809SOL    HW221327   1.704   3.939   6.629
 6810SOL     OW21328   5.769   1.524   2.411
 6810SOL    HW121329   5.760   1.624   2.405
 6810SOL    HW221330   5.854   1.496   2.367
 6811SOL     OW21331   5.020   5.390   1.500
 6811SOL    HW121332   4.987   5.301   1.467
 6811SOL    HW221333   4.948   5.434   1.555
 6812SOL     OW21334   3.420   2.852   2.640
 6812SOL    HW121335   3.356   2.775   2.645
 6812SOL    HW221336   3.399   2.907   2.559
 6813SOL     OW21337   4.532   3.878   1.300
 6813SOL    HW121338   4.543   3.879   1.399
 6813SOL    HW221339   4.523   3.971   1.265
 6814SOL     OW21340   2.297   4.156   0.271
 6814SOL    HW121341   2.200   4.135   0.262
 6814SOL    HW221342   2.351   4.075   0.251
 6815SOL     OW21343   2.349   6.996   2.104
 6815SOL    HW121344   2.396   0.063   2.100
 6815SOL    HW221345   2.313   6.982   2.196
 6816SOL     OW21346   6.393   4.210   1.700
 6816SOL    HW121347   6.300   4.173   1.693
 6816SOL    HW221348   6.390   4.305   1.731
 6817SOL     OW21349   0.217   1.840   5.958
 6817SOL    HW121350   0.123   1.829   5.925
 6817SOL    HW221351   0.259   1.750   5.971
 6818SOL     OW21352   3.210   5.817   2.567
 6818SOL    HW121353   3.280   5.884   2.545
 6818SOL    HW221354   3.123   5.863   2.582
 6819SOL     OW21355   2.984   1.078   4.009
 6819SOL    HW121356   2.969   1.104   4.104
 6819SOL    HW221357   2.904   1.104   3.954
 6820SOL     OW21358   0.962   4.077   4.084
 6820SOL    HW121359   0.987   3.993   4.037
 6820SOL    HW221360   0.978   4.155   4.023
 6821SOL     OW21361   2.125   1.947   4.656
 6821SOL    HW121362   2.126   2.012   4.581
 6821SOL    HW221363   2.031   1.920   4.675
 6822SOL     OW21364   5.000   2.457   5.784
 6822SOL    HW121365   5.005   2.445   5.884
 6822SOL    HW221366   4.910   2.427   5.752
 6823SOL     OW21367   3.222   2.921   1.963
 6823SOL    HW121368   3.164   2.893   1.886
 6823SOL    HW221369   3.318   2.906   1.939
 6824SOL     OW21370   1.325   4.314   6.299
 6824SOL    HW121371   1.415   4.335   6.338
 6824SOL    HW221372   1.280   4.399   6.271
 6825SOL     OW21373   4.895   0.015   3.983
 6825SOL    HW121374   4.816   0.066   4.017
 6825SOL    HW221375   4.870   6.940   3.973
 6826SOL     OW21376   1.291   3.025   2.846
 6826SOL    HW121377   1.281   3.120   2.876
 6826SOL    HW221378   1.335   2.971   2.918
 6827SOL     OW21379   5.769   6.327   4.956
 6827SOL    HW121380   5.814   6.248   4.998
 6827SOL    HW221381   5.695   6.359   5.015
 6828SOL     OW21382   1.444   2.645   1.295
 6828SOL    HW121383   1.417   2.692   1.211
 6828SOL    HW221384   1.534   2.603   1.282
 6829SOL     OW21385   4.497   5.417   3.861
 6829SOL    HW121386   4.445   5.502   3.863
 6829SOL    HW221387   4.595   5.437   3.857
 6830SOL     OW21388   5.762   1.861   3.910
 6830SOL    HW121389   5.736   1.822   3.822
 6830SOL    HW221390   5.766   1.789   3.979
 6831SOL     OW21391   0.299   1.260   6.204
 6831SOL    HW121392   0.369   1.200   6.242
 6831SOL    HW221393   0.332   1.354   6.204
 6832SOL     OW21394   3.093   5.126   2.575
 6832SOL    HW121395   3.107   5.044   2.519
 6832SOL    HW221396   3.111   5.208   2.520
 6833SOL     OW21397   3.880   5.272   0.430
 6833SOL    HW121398   3.855   5.221   0.348
 6833SOL    HW221399   3.820   5.246   0.506
 6834SOL     OW21400   4.036   5.208   2.355
 6834SOL    HW121401   4.035   5.305   2.330
 6834SOL    HW221402   3.957   5.162   2.316
 6835SOL     OW21403   3.972   6.439   4.705
 6835SOL    HW121404   3.940   6.526   4.668
 6835SOL    HW221405   3.907   6.405   4.773
 6836SOL     OW21406   3.454   5.988   6.802
 6836SOL    HW121407   3.407   6.041   6.872
 6836SOL    HW221408   3.424   5.893   6.807
 6837SOL     OW21409   1.145   2.966   2.066
 6837SOL    HW121410   1.212   2.903   2.104
 6837SOL    HW221411   1.160   3.057   2.105
 6838SOL     OW21412   2.473   1.568   6.963
 6838SOL    HW121413   2.423   1.520   0.014
 6838SOL    HW221414   2.569   1.577   6.990
 6839SOL     OW21415   4.211   1.010   0.902
 6839SOL    HW121416   4.156   0.927   0.894
 6839SOL    HW221417   4.164   1.086   0.858
 6840SOL     OW21418   0.890   1.912   6.509
 6840SOL    HW121419   0.816   1.845   6.510
 6840SOL    HW221420   0.930   1.916   6.417
 6841SOL     OW21421   6.650   3.886   6.426
 6841SOL    HW121422   6.658   3.788   6.407
 6841SOL    HW221423   6.687   3.938   6.350
 6842SOL     OW21424   1.892   4.516   3.085
 6842SOL    HW121425   1.924   4.488   3.176
 6842SOL    HW221426   1.794   4.538   3.090
 6843SOL     OW21427   4.146   6.513   0.064
 6843SOL    HW121428   4.063   6.457   0.068
 6843SOL    HW221429   4.143   6.581   0.138
 6844SOL     OW21430   5.139   0.436   5.793
 6844SOL    HW121431   5.059   0.492   5.770
 6844SOL    HW221432   5.118   0.339   5.777
 6845SOL     OW21433   5.249   1.770   2.200
 6845SOL    HW121434   5.279   1.836   2.269
 6845SOL    HW221435   5.197   1.817   2.129
 6846SOL     OW21436   2.262   3.731   0.261
 6846SOL    HW121437   2.284   3.654   0.201
 6846SOL    HW221438   2.164   3.747   0.261
 6847SOL     OW21439   6.667   3.537   3.793
 6847SOL    HW121440   6.616   3.516   3.877
 6847SOL    HW221441   6.698   3.632   3.795
 6848SOL     OW21442   6.064   4.429   3.241
 6848SOL    HW121443   6.045   4.519   3.281
 6848SOL    HW221444   5.986   4.400   3.186
 6849SOL     OW21445   2.694   4.064   6.558
 6849SOL    HW121446   2.649   4.012   6.630
 6849SOL    HW221447   2.741   4.143   6.598
 6850SOL     OW21448   4.231   1.396   4.485
 6850SOL    HW121449   4.157   1.462   4.499
 6850SOL    HW221450   4.272   1.411   4.396
 6851SOL     OW21451   2.027   3.407   3.308
 6851SOL    HW121452   2.012   3.506   3.306
 6851SOL    HW221453   2.061   3.381   3.399
 6852SOL     OW21454   2.988   4.507   0.079
 6852SOL    HW121455   2.973   4.442   0.004
 6852SOL    HW221456   2.914   4.498   0.146
 6853SOL     OW21457   5.098   3.818   6.637
 6853SOL    HW121458   5.043   3.885   6.686
 6853SOL    HW221459   5.133   3.858   6.552
 6854SOL     OW21460   5.743   6.102   6.326
 6854SOL    HW121461   5.701   6.087   6.237
 6854SOL    HW221462   5.717   6.027   6.388
 6855SOL     OW21463   4.179   5.247   3.680
 6855SOL    HW121464   4.209   5.327   3.627
 6855SOL    HW221465   4.254   5.216   3.739
 6856SOL     OW21466   0.171   1.844   6.274
 6856SOL    HW121467   0.258   1.798   6.259
 6856SOL    HW221468   0.119   1.847   6.189
 6857SOL     OW21469   0.975   3.746   5.306
 6857SOL    HW121470   0.971   3.777   5.211
 6857SOL    HW221471   1.044   3.674   5.315
 6858SOL     OW21472   2.409   3.731   1.721
 6858SOL    HW121473   2.391   3.814   1.774
 6858SOL    HW221474   2.385   3.650   1.776
 6859SOL     OW21475   1.846   1.579   2.469
 6859SOL    HW121476   1.932   1.606   2.513
 6859SOL    HW221477   1.854   1.593   2.370
 6860SOL     OW21478   0.901   6.409   1.922
 6860SOL    HW121479   0.904   6.317   1.884
 6860SOL    HW221480   0.934   6.475   1.854
 6861SOL     OW21481   6.142   2.945   5.839
 6861SOL    HW121482   6.222   2.968   5.783
 6861SOL    HW221483   6.100   3.029   5.874
 6862SOL     OW21484   0.816   4.343   4.891
 6862SOL    HW121485   0.730   4.338   4.840
 6862SOL    HW221486   0.831   4.258   4.940
 6863SOL     OW21487   6.039   0.980   5.446
 6863SOL    HW121488   6.119   0.920   5.444
 6863SOL    HW221489   6.045   1.047   5.372
 6864SOL     OW21490   1.208   3.825   5.831
 6864SOL    HW121491   1.173   3.918   5.823
 6864SOL    HW221492   1.204   3.796   5.927
 6865SOL     OW21493   2.257   0.556   3.546
 6865SOL    HW121494   2.169   0.598   3.569
 6865SOL    HW221495   2.330   0.606   3.592
 6866SOL     OW21496   1.407   4.969   0.153
 6866SOL    HW121497   1.437   4.876   0.132
 6866SOL    HW221498   1.319   4.966   0.200
 6867SOL     OW21499   2.290   3.693   6.631
 6867SOL    HW121500   2.294   3.726   6.726
 6867SOL    HW221501   2.194   3.686   6.603
 6868SOL     OW21502   2.732   5.266   3.777
 6868SOL    HW121503   2.775   5.328   3.712
 6868SOL    HW221504   2.800   5.205   3.816
 6869SOL     OW21505   3.476   0.966   6.205
 6869SOL    HW121506   3.510   0.920   6.123
 6869SOL    HW221507   3.552   0.987   6.266
 6870SOL     OW21508   5.887   2.121   0.252
 6870SOL    HW121509   5.802   2.173   0.259
 6870SOL    HW221510   5.963   2.184   0.238
 6871SOL     OW21511   6.718   3.485   2.559
 6871SOL    HW121512   6.681   3.565   2.513
 6871SOL    HW221513   6.770   3.430   2.494
 6872SOL     OW21514   1.739   4.005   0.558
 6872SOL    HW121515   1.696   3.975   0.473
 6872SOL    HW221516   1.746   3.928   0.621
 6873SOL     OW21517   0.527   4.333   3.557
 6873SOL    HW121518   0.455   4.286   3.608
 6873SOL    HW221519   0.535   4.293   3.465
 6874SOL     OW21520   5.630   6.600   3.207
 6874SOL    HW121521   5.546   6.634   3.165
 6874SOL    HW221522   5.648   6.506   3.177
 6875SOL     OW21523   2.541   1.248   0.528
 6875SOL    HW121524   2.464   1.288   0.478
 6875SOL    HW221525   2.538   1.148   0.519
 6876SOL     OW21526   4.913   5.378   3.493
 6876SOL    HW121527   4.937   5.282   3.509
 6876SOL    HW221528   4.837   5.382   3.428
 6877SOL     OW21529   0.825   3.385   1.725
 6877SOL    HW121530   0.800   3.400   1.629
 6877SOL    HW221531   0.892   3.310   1.731
 6878SOL     OW21532   2.206   0.706   4.580
 6878SOL    HW121533   2.130   0.642   4.591
 6878SOL    HW221534   2.286   0.657   4.545
 6879SOL     OW21535   1.722   1.012   0.988
 6879SOL    HW121536   1.751   0.924   0.948
 6879SOL    HW221537   1.629   1.003   1.023
 6880SOL     OW21538   1.341   5.384   0.073
 6880SOL    HW121539   1.246   5.362   0.098
 6880SOL    HW221540   1.403   5.335   0.135
 6881SOL     OW21541   0.621   2.879   0.782
 6881SOL    HW121542   0.672   2.837   0.857
 6881SOL    HW221543   0.662   2.853   0.695
 6882SOL     OW21544   2.351   6.471   6.720
 6882SOL    HW121545   2.252   6.473   6.708
 6882SOL    HW221546   2.394   6.422   6.645
 6883SOL     OW21547   4.815   0.188   1.182
 6883SOL    HW121548   4.856   0.213   1.094
 6883SOL    HW221549   4.722   0.155   1.167
 6884SOL     OW21550   1.796   4.155   3.144
 6884SOL    HW121551   1.813   4.060   3.169
 6884SOL    HW221552   1.872   4.189   3.089
 6885SOL     OW21553   6.145   5.262   4.485
 6885SOL    HW121554   6.207   5.239   4.560
 6885SOL    HW221555   6.124   5.360   4.487
 6886SOL     OW21556   4.841   2.354   0.222
 6886SOL    HW121557   4.879   2.351   0.129
 6886SOL    HW221558   4.795   2.267   0.242
 6887SOL     OW21559   5.602   5.501   6.105
 6887SOL    HW121560   5.648   5.547   6.029
 6887SOL    HW221561   5.614   5.402   6.097
 6888SOL     OW21562   6.266   4.792   6.519
 6888SOL    HW121563   6.358   4.823   6.543
 6888SOL    HW221564   6.271   4.727   6.443
 6889SOL     OW21565   6.810   2.605   6.365
 6889SOL    HW121566   6.854   2.538   6.424
 6889SOL    HW221567   6.860   2.611   6.279
 6890SOL     OW21568   4.643   4.369   3.710
 6890SOL    HW121569   4.558   4.345   3.663
 6890SOL    HW221570   4.705   4.414   3.645
 6891SOL     OW21571   1.664   1.286   1.421
 6891SOL    HW121572   1.628   1.303   1.329
 6891SOL    HW221573   1.764   1.281   1.418
 6892SOL     OW21574   3.200   0.967   4.320
 6892SOL    HW121575   3.296   0.976   4.296
 6892SOL    HW221576   3.178   0.870   4.331
 6893SOL     OW21577   6.357   3.226   0.898
 6893SOL    HW121578   6.276   3.204   0.953
 6893SOL    HW221579   6.335   3.212   0.801
 6894SOL     OW21580   6.016   5.040   0.677
 6894SOL    HW121581   6.022   4.950   0.632
 6894SOL    HW221582   5.925   5.051   0.715
 6895SOL     OW21583   0.551   6.704   2.200
 6895SOL    HW121584   0.557   6.784   2.141
 6895SOL    HW221585   0.563   6.621   2.145
 6896SOL     OW21586   4.939   1.273   4.959
 6896SOL    HW121587   5.024   1.233   4.925
 6896SOL    HW221588   4.903   1.337   4.890
 6897SOL     OW21589   4.974   2.851   4.761
 6897SOL    HW121590   4.973   2.824   4.858
 6897SOL    HW221591   5.023   2.783   4.708
 6898SOL     OW21592   1.698   6.254   1.522
 6898SOL    HW121593   1.722   6.247   1.619
 6898SOL    HW221594   1.779   6.283   1.470
 6899SOL     OW21595   6.362   5.686   2.219
 6899SOL    HW121596   6.451   5.662   2.183
 6899SOL    HW221597   6.330   5.770   2.174
 6900SOL     OW21598   6.578   3.763   4.898
 6900SOL    HW121599   6.530   3.850   4.886
 6900SOL    HW221600   6.544   3.716   4.979
 6901SOL     OW21601   5.126   4.734   6.860
 6901SOL    HW121602   5.220   4.760   6.838
 6901SOL    HW221603   5.114   4.731   6.959
 6902SOL     OW21604   0.354   5.978   6.015
 6902SOL    HW121605   0.437   5.958   5.962
 6902SOL    HW221606   0.274   5.965   5.957
 6903SOL     OW21607   1.011   5.760   4.448
 6903SOL    HW121608   1.002   5.667   4.483
 6903SOL    HW221609   0.991   5.825   4.522
 6904SOL     OW21610   6.636   0.025   6.143
 6904SOL    HW121611   6.644   0.023   6.243
 6904SOL    HW221612   6.704   6.985   6.103
 6905SOL     OW21613   5.010   6.401   6.054
 6905SOL    HW121614   4.953   6.377   6.132
 6905SOL    HW221615   5.032   6.319   6.001
 6906SOL     OW21616   3.302   1.172   3.707
 6906SOL    HW121617   3.388   1.212   3.673
 6906SOL    HW221618   3.313   1.148   3.804
 6907SOL     OW21619   5.698   2.519   0.886
 6907SOL    HW121620   5.728   2.424   0.884
 6907SOL    HW221621   5.778   2.579   0.897
 6908SOL     OW21622   3.023   5.208   0.265
 6908SOL    HW121623   2.927   5.215   0.293
 6908SOL    HW221624   3.068   5.296   0.279
 6909SOL     OW21625   5.958   4.907   1.827
 6909SOL    HW121626   5.937   4.929   1.922
 6909SOL    HW221627   5.886   4.850   1.789
 6910SOL     OW21628   0.892   2.909   2.897
 6910SOL    HW121629   0.972   2.968   2.905
 6910SOL    HW221630   0.836   2.939   2.821
 6911SOL     OW21631   1.452   6.511   5.568
 6911SOL    HW121632   1.538   6.475   5.532
 6911SOL    HW221633   1.380   6.443   5.556
 6912SOL     OW21634   2.823   3.692   6.820
 6912SOL    HW121635   2.881   3.705   6.901
 6912SOL    HW221636   2.755   3.621   6.840
 6913SOL     OW21637   4.741   6.262   5.929
 6913SOL    HW121638   4.678   6.255   5.851
 6913SOL    HW221639   4.831   6.229   5.902
 6914SOL     OW21640   5.900   2.677   2.335
 6914SOL    HW121641   5.971   2.706   2.271
 6914SOL    HW221642   5.814   2.721   2.311
 6915SOL     OW21643   6.369   3.536   3.501
 6915SOL    HW121644   6.348   3.611   3.563
 6915SOL    HW221645   6.444   3.481   3.539
 6916SOL     OW21646   5.013   6.616   6.598
 6916SOL    HW121647   5.000   6.585   6.692
 6916SOL    HW221648   5.089   6.680   6.594
 6917SOL     OW21649   4.141   6.821   2.045
 6917SOL    HW121650   4.138   6.837   1.946
 6917SOL    HW221651   4.055   6.852   2.087
 6918SOL     OW21652   2.206   3.322   0.694
 6918SOL    HW121653   2.204   3.415   0.731
 6918SOL    HW221654   2.296   3.304   0.654
 6919SOL     OW21655   5.360   5.924   3.512
 6919SOL    HW121656   5.313   5.989   3.452
 6919SOL    HW221657   5.434   5.970   3.560
 6920SOL     OW21658   6.187   0.996   6.074
 6920SOL    HW121659   6.117   0.924   6.074
 6920SOL    HW221660   6.239   0.993   6.159
 6921SOL     OW21661   4.244   0.056   4.417
 6921SOL    HW121662   4.282   6.992   4.451
 6921SOL    HW221663   4.300   0.132   4.449
 6922SOL     OW21664   1.770   4.663   6.234
 6922SOL    HW121665   1.771   4.763   6.225
 6922SOL    HW221666   1.694   4.626   6.181
 6923SOL     OW21667   6.171   6.875   2.171
 6923SOL    HW121668   6.180   6.972   2.190
 6923SOL    HW221669   6.150   6.861   2.074
 6924SOL     OW21670   3.241   5.783   2.111
 6924SOL    HW121671   3.249   5.715   2.183
 6924SOL    HW221672   3.171   5.851   2.136
 6925SOL     OW21673   5.923   6.896   5.271
 6925SOL    HW121674   6.003   6.952   5.248
 6925SOL    HW221675   5.943   6.843   5.353
 6926SOL     OW21676   3.177   2.378   0.068
 6926SOL    HW121677   3.252   2.405   0.008
 6926SOL    HW221678   3.173   2.278   0.075
 6927SOL     OW21679   4.653   0.485   0.818
 6927SOL    HW121680   4.570   0.527   0.782
 6927SOL    HW221681   4.647   0.385   0.807
 6928SOL     OW21682   3.772   5.045   0.265
 6928SOL    HW121683   3.842   5.057   0.195
 6928SOL    HW221684   3.722   4.960   0.248
 6929SOL     OW21685   5.618   4.962   2.200
 6929SOL    HW121686   5.537   4.911   2.170
 6929SOL    HW221687   5.667   4.908   2.268
 6930SOL     OW21688   0.374   6.910   1.638
 6930SOL    HW121689   0.326   6.844   1.695
 6930SOL    HW221690   0.417   6.862   1.561
 6931SOL     OW21691   2.926   3.269   0.989
 6931SOL    HW121692   2.921   3.366   1.012
 6931SOL    HW221693   2.946   3.258   0.892
 6932SOL     OW21694   3.943   6.501   6.525
 6932SOL    HW121695   4.024   6.559   6.521
 6932SOL    HW221696   3.929   6.469   6.618
 6933SOL     OW21697   3.148   5.770   6.084
 6933SOL    HW121698   3.091   5.720   6.019
 6933SOL    HW221699   3.231   5.800   6.039
 6934SOL     OW21700   5.128   4.707   6.568
 6934SOL    HW121701   5.129   4.710   6.668
 6934SOL    HW221702   5.190   4.777   6.533
 6935SOL     OW21703   4.305   6.065   1.805
 6935SOL    HW121704   4.242   6.104   1.737
 6935SOL    HW221705   4.261   6.063   1.894
 6936SOL     OW21706   0.200   1.721   5.314
 6936SOL    HW121707   0.186   1.819   5.300
 6936SOL    HW221708   0.291   1.695   5.282
 6937SOL     OW21709   5.516   5.281   7.014
 6937SOL    HW121710   5.482   5.232   0.073
 6937SOL    HW221711   5.441   5.331   6.971
 6938SOL     OW21712   2.646   1.253   4.861
 6938SOL    HW121713   2.552   1.286   4.857
 6938SOL    HW221714   2.664   1.193   4.783
 6939SOL     OW21715   5.873   3.172   3.252
 6939SOL    HW121716   5.818   3.154   3.333
 6939SOL    HW221717   5.813   3.183   3.172
 6940SOL     OW21718   2.877   6.151   0.858
 6940SOL    HW121719   2.895   6.163   0.955
 6940SOL    HW221720   2.779   6.135   0.844
 6941SOL     OW21721   3.620   3.556   2.995
 6941SOL    HW121722   3.637   3.485   2.927
 6941SOL    HW221723   3.540   3.610   2.968
 6942SOL     OW21724   6.082   5.390   2.462
 6942SOL    HW121725   6.039   5.400   2.552
 6942SOL    HW221726   6.118   5.478   2.433
 6943SOL     OW21727   4.398   4.425   6.192
 6943SOL    HW121728   4.355   4.398   6.106
 6943SOL    HW221729   4.492   4.390   6.195
 6944SOL     OW21730   1.289   4.281   4.886
 6944SOL    HW121731   1.215   4.346   4.870
 6944SOL    HW221732   1.252   4.199   4.930
 6945SOL     OW21733   5.278   1.726   1.067
 6945SOL    HW121734   5.194   1.688   1.027
 6945SOL    HW221735   5.355   1.706   1.006
 6946SOL     OW21736   5.136   6.318   3.168
 6946SOL    HW121737   5.140   6.370   3.083
 6946SOL    HW221738   5.223   6.271   3.183
 6947SOL     OW21739   6.248   4.394   4.987
 6947SOL    HW121740   6.318   4.458   4.954
 6947SOL    HW221741   6.195   4.437   5.060
 6948SOL     OW21742   0.403   4.695   6.969
 6948SOL    HW121743   0.427   4.760   6.897
 6948SOL    HW221744   0.409   4.741   0.036
 6949SOL     OW21745   2.608   1.963   3.764
 6949SOL    HW121746   2.572   2.051   3.793
 6949SOL    HW221747   2.538   1.914   3.711
 6950SOL     OW21748   0.355   0.912   4.628
 6950SOL    HW121749   0.367   1.010   4.609
 6950SOL    HW221750   0.422   0.860   4.576
 6951SOL     OW21751   0.795   4.218   0.066
 6951SOL    HW121752   0.826   4.172   7.005
 6951SOL    HW221753   0.785   4.316   0.048
 6952SOL     OW21754   4.856   5.911   4.192
 6952SOL    HW121755   4.869   5.953   4.102
 6952SOL    HW221756   4.869   5.981   4.263
 6953SOL     OW21757   6.563   1.876   1.050
 6953SOL    HW121758   6.606   1.938   0.985
 6953SOL    HW221759   6.472   1.851   1.016
 6954SOL     OW21760   6.691   4.567   6.851
 6954SOL    HW121761   6.768   4.502   6.859
 6954SOL    HW221762   6.679   4.614   6.938
 6955SOL     OW21763   4.797   6.401   3.007
 6955SOL    HW121764   4.763   6.491   3.033
 6955SOL    HW221765   4.838   6.405   2.916
 6956SOL     OW21766   5.774   5.237   2.569
 6956SOL    HW121767   5.732   5.169   2.628
 6956SOL    HW221768   5.750   5.219   2.474
 6957SOL     OW21769   6.374   5.596   5.441
 6957SOL    HW121770   6.316   5.640   5.372
 6957SOL    HW221771   6.452   5.553   5.396
 6958SOL     OW21772   3.291   3.753   3.156
 6958SOL    HW121773   3.290   3.852   3.142
 6958SOL    HW221774   3.340   3.710   3.080
 6959SOL     OW21775   1.665   4.128   2.894
 6959SOL    HW121776   1.716   4.114   2.979
 6959SOL    HW221777   1.574   4.165   2.915
 6960SOL     OW21778   4.039   4.248   0.324
 6960SOL    HW121779   4.091   4.179   0.274
 6960SOL    HW221780   4.102   4.320   0.357
 6961SOL     OW21781   4.766   2.354   5.110
 6961SOL    HW121782   4.694   2.305   5.061
 6961SOL    HW221783   4.775   2.318   5.203
 6962SOL     OW21784   2.317   6.737   6.650
 6962SOL    HW121785   2.358   6.746   6.560
 6962SOL    HW221786   2.339   6.647   6.688
 6963SOL     OW21787   6.299   5.901   0.656
 6963SOL    HW121788   6.221   5.860   0.609
 6963SOL    HW221789   6.384   5.872   0.611
 6964SOL     OW21790   1.695   1.415   5.352
 6964SOL    HW121791   1.716   1.452   5.442
 6964SOL    HW221792   1.780   1.391   5.305
 6965SOL     OW21793   1.140   1.351   0.580
 6965SOL    HW121794   1.233   1.315   0.575
 6965SOL    HW221795   1.141   1.442   0.620
 6966SOL     OW21796   1.276   6.479   0.987
 6966SOL    HW121797   1.272   6.493   1.085
 6966SOL    HW221798   1.184   6.487   0.948
 6967SOL     OW21799   4.203   1.013   6.612
 6967SOL    HW121800   4.157   1.101   6.609
 6967SOL    HW221801   4.296   1.025   6.645
 6968SOL     OW21802   4.002   6.453   2.789
 6968SOL    HW121803   3.985   6.476   2.885
 6968SOL    HW221804   4.076   6.511   2.754
 6969SOL     OW21805   2.153   1.988   2.082
 6969SOL    HW121806   2.177   2.001   2.178
 6969SOL    HW221807   2.081   1.918   2.075
 6970SOL     OW21808   3.756   5.148   4.872
 6970SOL    HW121809   3.664   5.178   4.895
 6970SOL    HW221810   3.800   5.109   4.953
 6971SOL     OW21811   6.534   4.134   0.466
 6971SOL    HW121812   6.565   4.229   0.472
 6971SOL    HW221813   6.435   4.131   0.455
 6972SOL     OW21814   5.389   4.348   1.389
 6972SOL    HW121815   5.447   4.413   1.438
 6972SOL    HW221816   5.418   4.342   1.293
 6973SOL     OW21817   1.670   2.205   3.011
 6973SOL    HW121818   1.627   2.280   2.961
 6973SOL    HW221819   1.700   2.238   3.101
 6974SOL     OW21820   4.134   3.621   3.063
 6974SOL    HW121821   4.121   3.522   3.055
 6974SOL    HW221822   4.232   3.641   3.070
 6975SOL     OW21823   2.782   5.638   4.350
 6975SOL    HW121824   2.742   5.565   4.294
 6975SOL    HW221825   2.870   5.666   4.310
 6976SOL     OW21826   4.642   4.042   6.202
 6976SOL    HW121827   4.587   3.965   6.168
 6976SOL    HW221828   4.739   4.025   6.182
 6977SOL     OW21829   4.884   5.166   2.245
 6977SOL    HW121830   4.865   5.071   2.266
 6977SOL    HW221831   4.833   5.225   2.307
 6978SOL     OW21832   0.156   3.475   1.098
 6978SOL    HW121833   0.126   3.386   1.062
 6978SOL    HW221834   0.233   3.508   1.043
 6979SOL     OW21835   1.251   3.497   2.406
 6979SOL    HW121836   1.298   3.567   2.352
 6979SOL    HW221837   1.257   3.409   2.358
 6980SOL     OW21838   2.001   5.396   2.778
 6980SOL    HW121839   1.937   5.375   2.704
 6980SOL    HW221840   2.091   5.359   2.756
 6981SOL     OW21841   4.171   2.475   6.805
 6981SOL    HW121842   4.241   2.502   6.871
 6981SOL    HW221843   4.155   2.550   6.741
 6982SOL     OW21844   1.304   0.468   2.665
 6982SOL    HW121845   1.305   0.558   2.708
 6982SOL    HW221846   1.219   0.421   2.688
 6983SOL     OW21847   5.992   1.104   4.251
 6983SOL    HW121848   6.031   1.016   4.281
 6983SOL    HW221849   5.960   1.155   4.331
 6984SOL     OW21850   1.378   2.883   3.078
 6984SOL    HW121851   1.292   2.927   3.103
 6984SOL    HW221852   1.368   2.784   3.083
 6985SOL     OW21853   5.708   3.783   6.518
 6985SOL    HW121854   5.663   3.857   6.468
 6985SOL    HW221855   5.666   3.696   6.492
 6986SOL     OW21856   4.714   4.646   5.497
 6986SOL    HW121857   4.800   4.597   5.484
 6986SOL    HW221858   4.709   4.680   5.591
 6987SOL     OW21859   0.500   0.944   6.799
 6987SOL    HW121860   0.529   0.934   6.894
 6987SOL    HW221861   0.532   0.865   6.747
 6988SOL     OW21862   2.786   1.271   6.665
 6988SOL    HW121863   2.783   1.286   6.566
 6988SOL    HW221864   2.696   1.289   6.704
 6989SOL     OW21865   0.651   4.296   2.841
 6989SOL    HW121866   0.632   4.245   2.758
 6989SOL    HW221867   0.589   4.374   2.847
 6990SOL     OW21868   3.662   3.688   0.293
 6990SOL    HW121869   3.695   3.598   0.322
 6990SOL    HW221870   3.596   3.676   0.219
 6991SOL     OW21871   6.618   2.820   2.287
 6991SOL    HW121872   6.657   2.868   2.208
 6991SOL    HW221873   6.680   2.746   2.314
 6992SOL     OW21874   0.897   5.881   0.277
 6992SOL    HW121875   0.831   5.951   0.304
 6992SOL    HW221876   0.888   5.862   0.179
 6993SOL     OW21877   4.297   2.084   1.749
 6993SOL    HW121878   4.222   2.133   1.795
 6993SOL    HW221879   4.384   2.113   1.787
 6994SOL     OW21880   2.877   1.178   3.548
 6994SOL    HW121881   2.783   1.190   3.579
 6994SOL    HW221882   2.932   1.139   3.622
 6995SOL     OW21883   0.060   4.076   0.884
 6995SOL    HW121884   0.078   4.103   0.979
 6995SOL    HW221885   7.019   3.998   0.883
 6996SOL     OW21886   0.743   1.081   6.660
 6996SOL    HW121887   0.677   1.094   6.735
 6996SOL    HW221888   0.732   0.989   6.623
 6997SOL     OW21889   6.125   6.074   5.830
 6997SOL    HW121890   6.116   6.134   5.909
 6997SOL    HW221891   6.216   6.084   5.791
 6998SOL     OW21892   6.909   1.262   0.377
 6998SOL    HW121893   6.936   1.326   0.449
 6998SOL    HW221894   6.931   1.301   0.287
 6999SOL     OW21895   0.063   3.385   6.499
 6999SOL    HW121896   0.044   3.482   6.490
 6999SOL    HW221897   0.017   3.349   6.580
 7000SOL     OW21898   0.307   5.807   3.211
 7000SOL    HW121899   0.406   5.789   3.213
 7000SOL    HW221900   0.267   5.784   3.299
 7001SOL     OW21901   0.025   2.001   3.857
 7001SOL    HW121902   0.077   2.066   3.913
 7001SOL    HW221903   0.081   1.919   3.842
 7002SOL     OW21904   1.037   5.424   2.558
 7002SOL    HW121905   1.060   5.502   2.500
 7002SOL    HW221906   1.121   5.375   2.582
 7003SOL     OW21907   0.135   4.317   0.733
 7003SOL    HW121908   0.179   4.279   0.814
 7003SOL    HW221909   0.057   4.259   0.708
 7004SOL     OW21910   1.726   6.877   0.332
 7004SOL    HW121911   1.753   6.906   0.423
 7004SOL    HW221912   1.730   6.777   0.326
 7005SOL     OW21913   1.295   5.226   0.493
 7005SOL    HW121914   1.279   5.130   0.518
 7005SOL    HW221915   1.210   5.264   0.456
 7006SOL     OW21916   0.567   0.168   4.062
 7006SOL    HW121917   0.490   0.130   4.011
 7006SOL    HW221918   0.538   0.250   4.111
 7007SOL     OW21919   2.049   0.477   6.064
 7007SOL    HW121920   1.999   0.412   6.007
 7007SOL    HW221921   2.065   0.561   6.013
 7008SOL     OW21922   5.582   3.620   3.051
 7008SOL    HW121923   5.496   3.668   3.063
 7008SOL    HW221924   5.565   3.531   3.010
 7009SOL     OW21925   4.981   5.860   2.532
 7009SOL    HW121926   5.043   5.792   2.572
 7009SOL    HW221927   4.888   5.826   2.535
 7010SOL     OW21928   5.017   3.578   2.216
 7010SOL    HW121929   5.044   3.505   2.154
 7010SOL    HW221930   4.972   3.539   2.297
 7011SOL     OW21931   2.811   6.865   6.324
 7011SOL    HW121932   2.783   6.885   6.417
 7011SOL    HW221933   2.852   6.773   6.320
 7012SOL     OW21934   6.908   2.993   7.015
 7012SOL    HW121935   6.839   3.024   6.948
 7012SOL    HW221936   6.914   2.894   7.012
 7013SOL     OW21937   3.286   3.007   0.269
 7013SOL    HW121938   3.235   3.045   0.192
 7013SOL    HW221939   3.274   3.065   0.349
 7014SOL     OW21940   5.481   3.190   0.440
 7014SOL    HW121941   5.569   3.223   0.473
 7014SOL    HW221942   5.424   3.267   0.414
 7015SOL     OW21943   6.112   6.655   1.298
 7015SOL    HW121944   6.146   6.670   1.205
 7015SOL    HW221945   6.012   6.659   1.299
 7016SOL     OW21946   3.308   5.043   1.058
 7016SOL    HW121947   3.295   4.953   1.017
 7016SOL    HW221948   3.328   5.110   0.985
 7017SOL     OW21949   5.906   4.444   5.683
 7017SOL    HW121950   5.888   4.412   5.591
 7017SOL    HW221951   5.987   4.397   5.719
 7018SOL     OW21952   5.329   3.594   4.758
 7018SOL    HW121953   5.299   3.583   4.664
 7018SOL    HW221954   5.329   3.691   4.783
 7019SOL     OW21955   4.330   5.364   2.141
 7019SOL    HW121956   4.326   5.433   2.213
 7019SOL    HW221957   4.386   5.398   2.065
 7020SOL     OW21958   0.720   2.525   6.463
 7020SOL    HW121959   0.704   2.526   6.364
 7020SOL    HW221960   0.817   2.537   6.481
 7021SOL     OW21961   0.522   2.343   4.573
 7021SOL    HW121962   0.585   2.293   4.514
 7021SOL    HW221963   0.477   2.415   4.520
 7022SOL     OW21964   2.980   2.453   0.935
 7022SOL    HW121965   2.923   2.531   0.908
 7022SOL    HW221966   2.972   2.381   0.867
 7023SOL     OW21967   0.214   1.420   0.641
 7023SOL    HW121968   0.307   1.402   0.672
 7023SOL    HW221969   0.209   1.405   0.542
 7024SOL     OW21970   3.292   3.832   4.620
 7024SOL    HW121971   3.360   3.854   4.690
 7024SOL    HW221972   3.321   3.869   4.532
 7025SOL     OW21973   2.987   0.186   1.077
 7025SOL    HW121974   3.058   0.139   1.130
 7025SOL    HW221975   2.952   0.125   1.006
 7026SOL     OW21976   3.470   2.780   1.063
 7026SOL    HW121977   3.441   2.864   1.018
 7026SOL    HW221978   3.389   2.726   1.088
 7027SOL     OW21979   2.852   5.111   2.759
 7027SOL    HW121980   2.787   5.049   2.715
 7027SOL    HW221981   2.944   5.094   2.723
 7028SOL     OW21982   3.473   6.785   3.159
 7028SOL    HW121983   3.562   6.808   3.198
 7028SOL    HW221984   3.418   6.868   3.152
 7029SOL     OW21985   3.493   3.576   3.685
 7029SOL    HW121986   3.438   3.506   3.640
 7029SOL    HW221987   3.586   3.542   3.699
 7030SOL     OW21988   6.853   0.861   4.408
 7030SOL    HW121989   6.758   0.857   4.438
 7030SOL    HW221990   6.876   0.776   4.360
 7031SOL     OW21991   5.090   6.492   0.595
 7031SOL    HW121992   5.091   6.589   0.572
 7031SOL    HW221993   5.184   6.457   0.594
 7032SOL     OW21994   4.654   5.297   4.335
 7032SOL    HW121995   4.584   5.241   4.291
 7032SOL    HW221996   4.745   5.258   4.316
 7033SOL     OW21997   1.785   1.863   5.408
 7033SOL    HW121998   1.848   1.936   5.384
 7033SOL    HW221999   1.784   1.851   5.507
 7034SOL     OW22000   6.292   0.945   2.710
 7034SOL    HW122001   6.348   0.865   2.732
 7034SOL    HW222002   6.349   1.027   2.714
 7035SOL     OW22003   1.925   0.393   0.829
 7035SOL    HW122004   1.862   0.441   0.889
 7035SOL    HW222005   2.000   0.354   0.883
 7036SOL     OW22006   6.619   1.407   2.336
 7036SOL    HW122007   6.683   1.482   2.324
 7036SOL    HW222008   6.658   1.323   2.298
 7037SOL     OW22009   1.392   0.302   6.045
 7037SOL    HW122010   1.305   0.313   5.997
 7037SOL    HW222011   1.419   0.388   6.087
 7038SOL     OW22012   1.271   3.746   0.158
 7038SOL    HW122013   1.288   3.792   0.245
 7038SOL    HW222014   1.335   3.779   0.090
 7039SOL     OW22015   0.268   6.974   2.176
 7039SOL    HW122016   0.235   6.883   2.203
 7039SOL    HW222017   0.193   0.018   2.177
 7040SOL     OW22018   5.651   2.830   4.742
 7040SOL    HW122019   5.735   2.848   4.692
 7040SOL    HW222020   5.663   2.749   4.800
 7041SOL     OW22021   1.183   6.782   4.281
 7041SOL    HW122022   1.200   6.694   4.238
 7041SOL    HW222023   1.086   6.793   4.300
 7042SOL     OW22024   5.666   6.056   5.328
 7042SOL    HW122025   5.619   6.134   5.370
 7042SOL    HW222026   5.653   5.975   5.385
 7043SOL     OW22027   2.243   5.542   0.919
 7043SOL    HW122028   2.323   5.534   0.979
 7043SOL    HW222029   2.227   5.454   0.874
 7044SOL     OW22030   5.949   6.828   4.956
 7044SOL    HW122031   6.035   6.800   4.999
 7044SOL    HW222032   5.892   6.748   4.938
 7045SOL     OW22033   6.481   5.300   2.016
 7045SOL    HW122034   6.487   5.228   2.085
 7045SOL    HW222035   6.401   5.356   2.032
 7046SOL     OW22036   1.727   1.454   3.987
 7046SOL    HW122037   1.699   1.547   4.009
 7046SOL    HW222038   1.778   1.453   3.900
 7047SOL     OW22039   1.356   6.470   0.657
 7047SOL    HW122040   1.358   6.490   0.559
 7047SOL    HW222041   1.364   6.371   0.671
 7048SOL     OW22042   0.386   6.268   4.114
 7048SOL    HW122043   0.458   6.307   4.057
 7048SOL    HW222044   0.422   6.250   4.206
 7049SOL     OW22045   3.632   1.324   3.969
 7049SOL    HW122046   3.643   1.422   3.949
 7049SOL    HW222047   3.709   1.292   4.024
 7050SOL     OW22048   4.038   3.897   0.650
 7050SOL    HW122049   4.028   3.992   0.618
 7050SOL    HW222050   4.060   3.898   0.748
 7051SOL     OW22051   1.156   1.296   2.102
 7051SOL    HW122052   1.087   1.314   2.172
 7051SOL    HW222053   1.247   1.312   2.140
 7052SOL     OW22054   4.267   1.226   3.131
 7052SOL    HW122055   4.276   1.157   3.203
 7052SOL    HW222056   4.324   1.200   3.053
 7053SOL     OW22057   1.450   3.918   3.180
 7053SOL    HW122058   1.498   3.916   3.268
 7053SOL    HW222059   1.463   3.831   3.133
 7054SOL     OW22060   5.750   1.145   6.796
 7054SOL    HW122061   5.738   1.046   6.787
 7054SOL    HW222062   5.800   1.180   6.717
 7055SOL     OW22063   2.615   0.437   0.450
 7055SOL    HW122064   2.690   0.455   0.386
 7055SOL    HW222065   2.549   0.375   0.407
 7056SOL     OW22066   6.758   4.984   1.139
 7056SOL    HW122067   6.683   5.034   1.097
 7056SOL    HW222068   6.732   4.953   1.230
 7057SOL     OW22069   2.723   5.743   4.840
 7057SOL    HW122070   2.738   5.659   4.892
 7057SOL    HW222071   2.653   5.727   4.770
 7058SOL     OW22072   5.892   2.753   6.411
 7058SOL    HW122073   5.981   2.727   6.372
 7058SOL    HW222074   5.906   2.807   6.494
 7059SOL     OW22075   1.704   6.978   5.064
 7059SOL    HW122076   1.716   0.006   5.150
 7059SOL    HW222077   1.794   6.952   5.028
 7060SOL     OW22078   3.152   1.994   1.037
 7060SOL    HW122079   3.131   1.897   1.048
 7060SOL    HW222080   3.161   2.037   1.127
 7061SOL     OW22081   1.015   1.008   1.563
 7061SOL    HW122082   1.087   1.077   1.552
 7061SOL    HW222083   1.013   0.975   1.657
 7062SOL     OW22084   3.466   0.283   3.842
 7062SOL    HW122085   3.462   0.377   3.875
 7062SOL    HW222086   3.435   0.221   3.914
 7063SOL     OW22087   0.054   0.970   1.021
 7063SOL    HW122088   6.986   0.978   1.065
 7063SOL    HW222089   0.115   0.915   1.079
 7064SOL     OW22090   3.183   1.049   5.173
 7064SOL    HW122091   3.148   1.092   5.256
 7064SOL    HW222092   3.279   1.074   5.161
 7065SOL     OW22093   4.250   5.168   5.324
 7065SOL    HW122094   4.238   5.265   5.302
 7065SOL    HW222095   4.233   5.113   5.243
 7066SOL     OW22096   3.567   0.425   0.890
 7066SOL    HW122097   3.534   0.335   0.860
 7066SOL    HW222098   3.517   0.454   0.971
 7067SOL     OW22099   1.908   3.871   6.394
 7067SOL    HW122100   1.851   3.930   6.452
 7067SOL    HW222101   1.941   3.924   6.316
 7068SOL     OW22102   5.432   4.110   4.391
 7068SOL    HW122103   5.354   4.050   4.378
 7068SOL    HW222104   5.440   4.172   4.313
 7069SOL     OW22105   4.975   0.732   6.097
 7069SOL    HW122106   4.920   0.798   6.045
 7069SOL    HW222107   5.053   0.779   6.138
 7070SOL     OW22108   0.596   0.045   5.958
 7070SOL    HW122109   0.688   0.044   5.995
 7070SOL    HW222110   0.599   0.076   5.863
 7071SOL     OW22111   4.905   6.007   6.659
 7071SOL    HW122112   4.841   5.950   6.710
 7071SOL    HW222113   4.888   6.103   6.680
 7072SOL     OW22114   0.695   3.876   6.436
 7072SOL    HW122115   0.650   3.875   6.347
 7072SOL    HW222116   0.790   3.845   6.426
 7073SOL     OW22117   4.922   1.781   3.938
 7073SOL    HW122118   4.914   1.834   4.022
 7073SOL    HW222119   4.906   1.840   3.859
 7074SOL     OW22120   5.187   3.941   3.046
 7074SOL    HW122121   5.261   3.970   2.986
 7074SOL    HW222122   5.189   3.994   3.130
 7075SOL     OW22123   2.448   5.465   3.106
 7075SOL    HW122124   2.428   5.373   3.070
 7075SOL    HW222125   2.541   5.467   3.142
 7076SOL     OW22126   5.509   2.732   1.426
 7076SOL    HW122127   5.414   2.709   1.447
 7076SOL    HW222128   5.513   2.778   1.337
 7077SOL     OW22129   4.059   5.722   1.882
 7077SOL    HW122130   4.013   5.720   1.794
 7077SOL    HW222131   3.995   5.695   1.954
 7078SOL     OW22132   6.642   0.427   6.836
 7078SOL    HW122133   6.636   0.409   6.738
 7078SOL    HW222134   6.562   0.388   6.882
 7079SOL     OW22135   1.399   5.841   4.925
 7079SOL    HW122136   1.453   5.845   4.841
 7079SOL    HW222137   1.370   5.934   4.950
 7080SOL     OW22138   3.849   2.056   5.992
 7080SOL    HW122139   3.766   2.034   5.940
 7080SOL    HW222140   3.925   2.070   5.929
 7081SOL     OW22141   2.792   6.756   0.550
 7081SOL    HW122142   2.712   6.798   0.593
 7081SOL    HW222143   2.864   6.824   0.541
 7082SOL     OW22144   0.443   3.862   2.407
 7082SOL    HW122145   0.392   3.947   2.393
 7082SOL    HW222146   0.428   3.801   2.329
 7083SOL     OW22147   5.142   2.332   3.073
 7083SOL    HW122148   5.055   2.377   3.053
 7083SOL    HW222149   5.152   2.319   3.171
 7084SOL     OW22150   1.169   5.575   6.766
 7084SOL    HW122151   1.249   5.627   6.796
 7084SOL    HW222152   1.165   5.489   6.816
 7085SOL     OW22153   0.698   3.897   2.038
 7085SOL    HW122154   0.662   3.851   1.957
 7085SOL    HW222155   0.718   3.829   2.109
 7086SOL     OW22156   5.431   0.920   3.841
 7086SOL    HW122157   5.421   1.015   3.810
 7086SOL    HW222158   5.347   0.891   3.887
 7087SOL     OW22159   4.797   2.816   3.297
 7087SOL    HW122160   4.744   2.786   3.376
 7087SOL    HW222161   4.789   2.748   3.224
 7088SOL     OW22162   5.985   2.118   5.063
 7088SOL    HW122163   6.073   2.093   5.101
 7088SOL    HW222164   5.948   2.196   5.113
 7089SOL     OW22165   2.664   5.586   1.618
 7089SOL    HW122166   2.714   5.515   1.570
 7089SOL    HW222167   2.688   5.584   1.715
 7090SOL     OW22168   4.352   2.749   1.229
 7090SOL    HW122169   4.422   2.777   1.164
 7090SOL    HW222170   4.391   2.747   1.321
 7091SOL     OW22171   0.352   6.759   0.876
 7091SOL    HW122172   0.321   6.838   0.823
 7091SOL    HW222173   0.320   6.675   0.832
 7092SOL     OW22174   4.472   6.981   6.540
 7092SOL    HW122175   4.570   6.991   6.521
 7092SOL    HW222176   4.459   6.916   6.615
 7093SOL     OW22177   3.370   2.926   0.837
 7093SOL    HW122178   3.406   2.898   0.748
 7093SOL    HW222179   3.304   3.000   0.825
 7094SOL     OW22180   3.620   0.345   6.167
 7094SOL    HW122181   3.694   0.334   6.233
 7094SOL    HW222182   3.622   0.269   6.102
 7095SOL     OW22183   2.427   4.828   4.689
 7095SOL    HW122184   2.471   4.761   4.749
 7095SOL    HW222185   2.393   4.782   4.607
 7096SOL     OW22186   0.172   0.436   1.335
 7096SOL    HW122187   0.151   0.353   1.284
 7096SOL    HW222188   0.099   0.453   1.402
 7097SOL     OW22189   4.890   1.223   2.554
 7097SOL    HW122190   4.907   1.245   2.458
 7097SOL    HW222191   4.908   1.126   2.569
 7098SOL     OW22192   0.803   0.779   3.408
 7098SOL    HW122193   0.884   0.732   3.376
 7098SOL    HW222194   0.795   0.868   3.363
 7099SOL     OW22195   3.470   1.914   4.734
 7099SOL    HW122196   3.511   1.825   4.715
 7099SOL    HW222197   3.426   1.911   4.824
 7100SOL     OW22198   6.681   4.189   1.299
 7100SOL    HW122199   6.723   4.138   1.374
 7100SOL    HW222200   6.610   4.132   1.256
 7101SOL     OW22201   2.239   6.137   5.042
 7101SOL    HW122202   2.322   6.097   5.002
 7101SOL    HW222203   2.194   6.070   5.100
 7102SOL     OW22204   5.607   1.340   2.242
 7102SOL    HW122205   5.553   1.319   2.323
 7102SOL    HW222206   5.680   1.404   2.265
 7103SOL     OW22207   4.931   3.573   3.393
 7103SOL    HW122208   4.903   3.669   3.383
 7103SOL    HW222209   4.893   3.536   3.477
 7104SOL     OW22210   4.820   2.939   4.164
 7104SOL    HW122211   4.839   2.952   4.261
 7104SOL    HW222212   4.778   2.849   4.150
 7105SOL     OW22213   2.950   3.810   3.337
 7105SOL    HW122214   2.955   3.871   3.258
 7105SOL    HW222215   3.007   3.846   3.411
 7106SOL     OW22216   3.444   2.073   2.382
 7106SOL    HW122217   3.519   2.089   2.318
 7106SOL    HW222218   3.357   2.069   2.332
 7107SOL     OW22219   4.153   0.429   6.295
 7107SOL    HW122220   4.183   0.368   6.222
 7107SOL    HW222221   4.097   0.502   6.257
 7108SOL     OW22222   4.435   0.688   1.977
 7108SOL    HW122223   4.361   0.724   2.034
 7108SOL    HW222224   4.517   0.744   1.990
 7109SOL     OW22225   2.704   5.734   6.753
 7109SOL    HW122226   2.720   5.640   6.782
 7109SOL    HW222227   2.686   5.736   6.654
 7110SOL     OW22228   3.113   6.771   4.791
 7110SOL    HW122229   3.106   6.672   4.799
 7110SOL    HW222230   3.022   6.812   4.797
 7111SOL     OW22231   6.916   0.816   4.979
 7111SOL    HW122232   6.987   0.863   4.926
 7111SOL    HW222233   6.863   0.883   5.030
 7112SOL     OW22234   1.046   4.910   5.095
 7112SOL    HW122235   1.067   4.968   5.174
 7112SOL    HW222236   0.955   4.933   5.061
 7113SOL     OW22237   3.335   6.235   4.599
 7113SOL    HW122238   3.318   6.216   4.696
 7113SOL    HW222239   3.250   6.260   4.554
 7114SOL     OW22240   5.912   3.929   1.201
 7114SOL    HW122241   5.872   4.005   1.149
 7114SOL    HW222242   6.011   3.936   1.198
 7115SOL     OW22243   5.808   3.693   6.107
 7115SOL    HW122244   5.771   3.786   6.107
 7115SOL    HW222245   5.863   3.679   6.189
 7116SOL     OW22246   6.688   4.044   4.520
 7116SOL    HW122247   6.611   4.060   4.581
 7116SOL    HW222248   6.657   3.993   4.439
 7117SOL     OW22249   5.191   6.983   3.529
 7117SOL    HW122250   5.236   6.929   3.457
 7117SOL    HW222251   5.124   0.022   3.487
 7118SOL     OW22252   4.015   4.314   6.063
 7118SOL    HW122253   3.992   4.380   6.135
 7118SOL    HW222254   4.100   4.267   6.088
 7119SOL     OW22255   3.853   6.277   5.537
 7119SOL    HW122256   3.826   6.191   5.494
 7119SOL    HW222257   3.772   6.322   5.575
 7120SOL     OW22258   4.538   1.257   0.717
 7120SOL    HW122259   4.609   1.310   0.672
 7120SOL    HW222260   4.490   1.314   0.783
 7121SOL     OW22261   1.626   5.624   2.153
 7121SOL    HW122262   1.663   5.610   2.245
 7121SOL    HW222263   1.598   5.719   2.143
 7122SOL     OW22264   3.559   1.944   6.979
 7122SOL    HW122265   3.566   1.859   0.010
 7122SOL    HW222266   3.569   2.022   0.019
 7123SOL     OW22267   5.938   5.120   5.985
 7123SOL    HW122268   5.890   5.083   6.064
 7123SOL    HW222269   5.982   5.045   5.935
 7124SOL     OW22270   1.685   2.907   1.157
 7124SOL    HW122271   1.758   2.868   1.101
 7124SOL    HW222272   1.600   2.857   1.141
 7125SOL     OW22273   0.315   6.378   2.327
 7125SOL    HW122274   0.356   6.309   2.387
 7125SOL    HW222275   0.258   6.440   2.382
 7126SOL     OW22276   3.525   5.482   1.440
 7126SOL    HW122277   3.605   5.481   1.381
 7126SOL    HW222278   3.442   5.489   1.385
 7127SOL     OW22279   2.643   6.283   6.382
 7127SOL    HW122280   2.618   6.218   6.454
 7127SOL    HW222281   2.636   6.377   6.418
 7128SOL     OW22282   3.205   4.253   6.835
 7128SOL    HW122283   3.217   4.164   6.791
 7128SOL    HW222284   3.161   4.241   6.924
 7129SOL     OW22285   0.354   0.175   0.204
 7129SOL    HW122286   0.325   0.176   0.108
 7129SOL    HW222287   0.454   0.176   0.209
 7130SOL     OW22288   3.428   6.473   4.099
 7130SOL    HW122289   3.399   6.395   4.154
 7130SOL    HW222290   3.384   6.556   4.133
 7131SOL     OW22291   2.330   1.315   1.728
 7131SOL    HW122292   2.350   1.387   1.795
 7131SOL    HW222293   2.232   1.309   1.713
 7132SOL     OW22294   4.921   4.164   0.898
 7132SOL    HW122295   4.866   4.148   0.980
 7132SOL    HW222296   4.953   4.076   0.862
 7133SOL     OW22297   5.024   6.165   2.935
 7133SOL    HW122298   5.037   6.069   2.910
 7133SOL    HW222299   4.930   6.192   2.915
 7134SOL     OW22300   4.864   5.689   6.960
 7134SOL    HW122301   4.855   5.666   6.863
 7134SOL    HW222302   4.916   5.617   7.006
 7135SOL     OW22303   1.573   3.483   1.304
 7135SOL    HW122304   1.577   3.583   1.298
 7135SOL    HW222305   1.666   3.447   1.311
 7136SOL     OW22306   0.897   2.544   2.101
 7136SOL    HW122307   0.930   2.563   2.009
 7136SOL    HW222308   0.816   2.601   2.120
 7137SOL     OW22309   2.715   1.163   1.362
 7137SOL    HW122310   2.810   1.159   1.395
 7137SOL    HW222311   2.663   1.086   1.399
 7138SOL     OW22312   0.419   2.775   0.573
 7138SOL    HW122313   0.506   2.744   0.611
 7138SOL    HW222314   0.417   2.875   0.572
 7139SOL     OW22315   5.961   6.346   0.993
 7139SOL    HW122316   6.038   6.286   1.017
 7139SOL    HW222317   5.881   6.289   0.971
 7140SOL     OW22318   6.705   4.269   0.186
 7140SOL    HW122319   6.690   4.307   0.277
 7140SOL    HW222320   6.674   4.174   0.184
 7141SOL     OW22321   3.192   0.132   0.845
 7141SOL    HW122322   3.180   0.178   0.933
 7141SOL    HW222323   3.214   0.036   0.861
 7142SOL     OW22324   4.025   6.921   4.638
 7142SOL    HW122325   4.116   6.955   4.659
 7142SOL    HW222326   3.966   6.997   4.610
 7143SOL     OW22327   2.717   3.255   6.482
 7143SOL    HW122328   2.802   3.284   6.438
 7143SOL    HW222329   2.640   3.304   6.442
 7144SOL     OW22330   6.663   1.069   6.182
 7144SOL    HW122331   6.645   0.998   6.114
 7144SOL    HW222332   6.611   1.152   6.158
 7145SOL     OW22333   5.514   1.366   6.020
 7145SOL    HW122334   5.547   1.340   5.930
 7145SOL    HW222335   5.573   1.327   6.090
 7146SOL     OW22336   1.099   2.309   5.522
 7146SOL    HW122337   1.057   2.370   5.589
 7146SOL    HW222338   1.197   2.303   5.539
 7147SOL     OW22339   6.276   6.347   1.693
 7147SOL    HW122340   6.357   6.399   1.718
 7147SOL    HW222341   6.255   6.361   1.596
 7148SOL     OW22342   6.496   6.645   1.391
 7148SOL    HW122343   6.466   6.621   1.299
 7148SOL    HW222344   6.595   6.631   1.398
 7149SOL     OW22345   5.641   4.393   5.791
 7149SOL    HW122346   5.717   4.421   5.732
 7149SOL    HW222347   5.588   4.321   5.745
 7150SOL     OW22348   2.987   2.515   6.930
 7150SOL    HW122349   3.045   2.473   7.001
 7150SOL    HW222350   2.914   2.567   6.974
 7151SOL     OW22351   5.356   1.217   0.087
 7151SOL    HW122352   5.321   1.246   0.176
 7151SOL    HW222353   5.405   1.294   0.044
 7152SOL     OW22354   4.985   0.473   6.144
 7152SOL    HW122355   5.023   0.467   6.236
 7152SOL    HW222356   4.980   0.569   6.116
 7153SOL     OW22357   3.569   5.465   0.293
 7153SOL    HW122358   3.574   5.540   0.226
 7153SOL    HW222359   3.552   5.379   0.245
 7154SOL     OW22360   4.140   1.559   2.384
 7154SOL    HW122361   4.099   1.494   2.449
 7154SOL    HW222362   4.118   1.531   2.291
 7155SOL     OW22363   1.389   0.655   2.177
 7155SOL    HW122364   1.459   0.687   2.241
 7155SOL    HW222365   1.331   0.588   2.222
 7156SOL     OW22366   6.719   3.295   5.200
 7156SOL    HW122367   6.622   3.300   5.225
 7156SOL    HW222368   6.740   3.369   5.137
 7157SOL     OW22369   0.311   4.126   6.328
 7157SOL    HW122370   0.401   4.166   6.348
 7157SOL    HW222371   0.321   4.029   6.307
 7158SOL     OW22372   5.224   6.849   4.081
 7158SOL    HW122373   5.166   6.893   4.150
 7158SOL    HW222374   5.204   6.888   3.991
 7159SOL     OW22375   0.497   6.320   3.103
 7159SOL    HW122376   0.531   6.391   3.042
 7159SOL    HW222377   0.399   6.333   3.119
 7160SOL     OW22378   5.926   0.338   3.596
 7160SOL    HW122379   6.009   0.345   3.651
 7160SOL    HW222380   5.950   0.340   3.499
 7161SOL     OW22381   3.858   3.430   2.627
 7161SOL    HW122382   3.859   3.330   2.619
 7161SOL    HW222383   3.944   3.461   2.669
 7162SOL     OW22384   1.032   6.257   1.614
 7162SOL    HW122385   1.004   6.351   1.635
 7162SOL    HW222386   1.017   6.200   1.694
 7163SOL     OW22387   0.049   0.725   0.523
 7163SOL    HW122388   0.006   0.684   0.443
 7163SOL    HW222389   7.003   0.732   0.597
 7164SOL     OW22390   1.438   1.007   6.729
 7164SOL    HW122391   1.419   0.909   6.731
 7164SOL    HW222392   1.412   1.044   6.640
 7165SOL     OW22393   5.750   2.097   0.018
 7165SOL    HW122394   5.826   2.118   0.079
 7165SOL    HW222395   5.715   2.182   7.000
 7166SOL     OW22396   6.709   5.998   5.878
 7166SOL    HW122397   6.748   5.911   5.848
 7166SOL    HW222398   6.782   6.065   5.890
 7167SOL     OW22399   7.006   3.019   5.087
 7167SOL    HW122400   0.037   3.098   5.118
 7167SOL    HW222401   0.040   2.936   5.095
 7168SOL     OW22402   1.860   1.541   2.178
 7168SOL    HW122403   1.761   1.554   2.175
 7168SOL    HW222404   1.898   1.561   2.087
 7169SOL     OW22405   1.969   4.677   5.447
 7169SOL    HW122406   2.057   4.631   5.437
 7169SOL    HW222407   1.984   4.776   5.454
 7170SOL     OW22408   3.607   1.616   1.327
 7170SOL    HW122409   3.662   1.635   1.246
 7170SOL    HW222410   3.536   1.550   1.304
 7171SOL     OW22411   0.205   3.898   0.751
 7171SOL    HW122412   0.160   3.987   0.756
 7171SOL    HW222413   0.265   3.886   0.831
 7172SOL     OW22414   0.250   2.557   3.737
 7172SOL    HW122415   0.206   2.467   3.732
 7172SOL    HW222416   0.348   2.546   3.750
 7173SOL     OW22417   4.694   5.416   6.159
 7173SOL    HW122418   4.761   5.484   6.190
 7173SOL    HW222419   4.742   5.336   6.124
 7174SOL     OW22420   6.600   4.203   2.133
 7174SOL    HW122421   6.519   4.153   2.164
 7174SOL    HW222422   6.612   4.189   2.035
 7175SOL     OW22423   6.598   3.764   5.888
 7175SOL    HW122424   6.569   3.758   5.983
 7175SOL    HW222425   6.676   3.826   5.881
 7176SOL     OW22426   6.947   1.099   6.223
 7176SOL    HW122427   0.021   1.081   6.197
 7176SOL    HW222428   6.886   1.053   6.158
 7177SOL     OW22429   1.525   6.007   3.685
 7177SOL    HW122430   1.484   6.014   3.594
 7177SOL    HW222431   1.488   6.079   3.744
 7178SOL     OW22432   1.633   6.925   4.739
 7178SOL    HW122433   1.616   7.020   4.713
 7178SOL    HW222434   1.654   6.921   4.837
 7179SOL     OW22435   3.994   4.842   6.071
 7179SOL    HW122436   4.074   4.794   6.105
 7179SOL    HW222437   4.021   4.931   6.033
 7180SOL     OW22438   1.783   2.995   1.779
 7180SOL    HW122439   1.762   2.991   1.877
 7180SOL    HW222440   1.864   3.051   1.764
 7181SOL     OW22441   1.946   1.561   7.018
 7181SOL    HW122442   1.850   1.544   6.995
 7181SOL    HW222443   1.968   1.656   6.998
 7182SOL     OW22444   1.693   1.167   3.898
 7182SOL    HW122445   1.706   1.255   3.945
 7182SOL    HW222446   1.765   1.155   3.829
 7183SOL     OW22447   1.517   6.811   2.018
 7183SOL    HW122448   1.484   6.854   1.934
 7183SOL    HW222449   1.448   6.821   2.090
 7184SOL     OW22450   6.483   1.150   3.788
 7184SOL    HW122451   6.536   1.210   3.848
 7184SOL    HW222452   6.539   1.071   3.762
 7185SOL     OW22453   4.143   0.297   4.114
 7185SOL    HW122454   4.064   0.354   4.139
 7185SOL    HW222455   4.116   0.201   4.116
 7186SOL     OW22456   6.487   0.659   6.938
 7186SOL    HW122457   6.539   0.734   6.980
 7186SOL    HW222458   6.545   0.577   6.934
 7187SOL     OW22459   3.773   3.418   4.002
 7187SOL    HW122460   3.872   3.401   4.003
 7187SOL    HW222461   3.732   3.374   4.082
 7188SOL     OW22462   4.484   4.498   6.834
 7188SOL    HW122463   4.414   4.487   6.905
 7188SOL    HW222464   4.464   4.438   6.757
 7189SOL     OW22465   6.450   2.774   5.703
 7189SOL    HW122466   6.417   2.734   5.789
 7189SOL    HW222467   6.510   2.852   5.724
 7190SOL     OW22468   5.884   5.105   6.693
 7190SOL    HW122469   5.813   5.167   6.658
 7190SOL    HW222470   5.863   5.082   6.788
 7191SOL     OW22471   6.749   4.794   2.637
 7191SOL    HW122472   6.677   4.729   2.661
 7191SOL    HW222473   6.749   4.869   2.703
 7192SOL     OW22474   2.328   3.932   6.046
 7192SOL    HW122475   2.344   3.835   6.062
 7192SOL    HW222476   2.325   3.950   5.948
 7193SOL     OW22477   3.177   1.786   3.112
 7193SOL    HW122478   3.168   1.784   3.012
 7193SOL    HW222479   3.087   1.779   3.154
 7194SOL     OW22480   3.036   2.716   6.041
 7194SOL    HW122481   3.068   2.640   6.098
 7194SOL    HW222482   3.100   2.792   6.049
 7195SOL     OW22483   0.858   4.464   5.313
 7195SOL    HW122484   0.764   4.454   5.281
 7195SOL    HW222485   0.870   4.413   5.398
 7196SOL     OW22486   3.569   4.164   1.977
 7196SOL    HW122487   3.650   4.110   1.951
 7196SOL    HW222488   3.555   4.158   2.076
 7197SOL     OW22489   3.250   4.723   6.706
 7197SOL    HW122490   3.239   4.802   6.766
 7197SOL    HW222491   3.267   4.641   6.761
 7198SOL     OW22492   0.720   0.862   1.985
 7198SOL    HW122493   0.750   0.776   2.027
 7198SOL    HW222494   0.787   0.933   2.003
 7199SOL     OW22495   6.092   1.667   2.340
 7199SOL    HW122496   6.076   1.755   2.296
 7199SOL    HW222497   6.150   1.610   2.281
 7200SOL     OW22498   1.068   2.737   0.216
 7200SOL    HW122499   1.057   2.651   0.265
 7200SOL    HW222500   0.978   2.769   0.186
 7201SOL     OW22501   6.440   5.497   3.862
 7201SOL    HW122502   6.433   5.597   3.862
 7201SOL    HW222503   6.429   5.463   3.769
 7202SOL     OW22504   4.454   6.913   5.849
 7202SOL    HW122505   4.503   6.938   5.933
 7202SOL    HW222506   4.356   6.909   5.868
 7203SOL     OW22507   0.165   1.384   1.007
 7203SOL    HW122508   0.218   1.449   0.953
 7203SOL    HW222509   0.135   1.309   0.948
 7204SOL     OW22510   6.450   0.412   2.456
 7204SOL    HW122511   6.452   0.488   2.520
 7204SOL    HW222512   6.444   0.326   2.507
 7205SOL     OW22513   2.937   2.260   4.339
 7205SOL    HW122514   2.861   2.316   4.304
 7205SOL    HW222515   3.024   2.303   4.314
 7206SOL     OW22516   1.621   3.833   0.073
 7206SOL    HW122517   1.662   3.924   0.079
 7206SOL    HW222518   1.631   3.797   7.002
 7207SOL     OW22519   1.833   1.024   3.386
 7207SOL    HW122520   1.733   1.024   3.395
 7207SOL    HW222521   1.874   1.013   3.476
 7208SOL     OW22522   2.940   0.516   4.094
 7208SOL    HW122523   2.983   0.579   4.029
 7208SOL    HW222524   2.998   0.507   4.175
 7209SOL     OW22525   3.484   1.012   1.571
 7209SOL    HW122526   3.516   0.999   1.664
 7209SOL    HW222527   3.471   0.923   1.527
 7210SOL     OW22528   3.276   1.223   3.024
 7210SOL    HW122529   3.214   1.155   3.061
 7210SOL    HW222530   3.320   1.273   3.098
 7211SOL     OW22531   4.767   6.514   5.369
 7211SOL    HW122532   4.820   6.489   5.451
 7211SOL    HW222533   4.771   6.438   5.304
 7212SOL     OW22534   0.517   4.854   5.684
 7212SOL    HW122535   0.617   4.864   5.687
 7212SOL    HW222536   0.492   4.807   5.600
 7213SOL     OW22537   4.104   2.026   6.835
 7213SOL    HW122538   4.034   2.031   6.763
 7213SOL    HW222539   4.103   1.935   6.876
 7214SOL     OW22540   6.165   0.177   6.583
 7214SOL    HW122541   6.231   0.106   6.606
 7214SOL    HW222542   6.198   0.228   6.504
 7215SOL     OW22543   6.098   1.842   2.883
 7215SOL    HW122544   6.069   1.907   2.953
 7215SOL    HW222545   6.176   1.789   2.916
 7216SOL     OW22546   4.350   6.497   3.036
 7216SOL    HW122547   4.372   6.403   3.062
 7216SOL    HW222548   4.342   6.554   3.118
 7217SOL     OW22549   1.038   3.147   2.996
 7217SOL    HW122550   0.966   3.215   3.010
 7217SOL    HW222551   1.125   3.193   2.982
 7218SOL     OW22552   6.361   2.525   4.532
 7218SOL    HW122553   6.293   2.453   4.541
 7218SOL    HW222554   6.323   2.612   4.565
 7219SOL     OW22555   3.261   6.355   2.698
 7219SOL    HW122556   3.241   6.367   2.795
 7219SOL    HW222557   3.337   6.413   2.671
 7220SOL     OW22558   6.534   4.514   3.574
 7220SOL    HW122559   6.436   4.518   3.591
 7220SOL    HW222560   6.551   4.499   3.477
 7221SOL     OW22561   3.897   5.565   3.882
 7221SOL    HW122562   3.847   5.598   3.802
 7221SOL    HW222563   3.857   5.605   3.964
 7222SOL     OW22564   6.553   5.808   4.421
 7222SOL    HW122565   6.586   5.714   4.425
 7222SOL    HW222566   6.453   5.809   4.429
 7223SOL     OW22567   0.154   4.233   1.610
 7223SOL    HW122568   0.173   4.329   1.632
 7223SOL    HW222569   0.105   4.190   1.686
 7224SOL     OW22570   4.451   1.958   2.730
 7224SOL    HW122571   4.537   1.930   2.687
 7224SOL    HW222572   4.374   1.919   2.680
 7225SOL     OW22573   1.690   5.507   0.620
 7225SOL    HW122574   1.715   5.497   0.717
 7225SOL    HW222575   1.654   5.421   0.586
 7226SOL     OW22576   0.021   6.434   0.245
 7226SOL    HW122577   0.057   6.414   0.336
 7226SOL    HW222578   0.023   6.533   0.228
 7227SOL     OW22579   1.922   1.270   2.272
 7227SOL    HW122580   1.880   1.354   2.237
 7227SOL    HW222581   1.875   1.242   2.356
 7228SOL     OW22582   6.353   3.442   1.926
 7228SOL    HW122583   6.286   3.377   1.961
 7228SOL    HW222584   6.369   3.425   1.829
 7229SOL     OW22585   6.477   1.164   4.994
 7229SOL    HW122586   6.493   1.218   5.077
 7229SOL    HW222587   6.550   1.182   4.928
 7230SOL     OW22588   2.259   5.228   4.950
 7230SOL    HW122589   2.186   5.182   4.899
 7230SOL    HW222590   2.337   5.167   4.959
 7231SOL     OW22591   4.526   2.945   5.744
 7231SOL    HW122592   4.621   2.936   5.715
 7231SOL    HW222593   4.503   2.870   5.806
 7232SOL     OW22594   4.935   6.402   3.585
 7232SOL    HW122595   4.978   6.318   3.615
 7232SOL    HW222596   5.001   6.459   3.536
 7233SOL     OW22597   0.180   1.314   4.757
 7233SOL    HW122598   0.100   1.255   4.767
 7233SOL    HW222599   0.248   1.268   4.699
 7234SOL     OW22600   5.225   4.110   3.249
 7234SOL    HW122601   5.277   4.069   3.324
 7234SOL    HW222602   5.201   4.205   3.273
 7235SOL     OW22603   6.552   6.212   1.211
 7235SOL    HW122604   6.502   6.243   1.130
 7235SOL    HW222605   6.487   6.195   1.285
 7236SOL     OW22606   1.349   3.527   2.905
 7236SOL    HW122607   1.423   3.588   2.877
 7236SOL    HW222608   1.286   3.513   2.829
 7237SOL     OW22609   5.817   1.093   0.664
 7237SOL    HW122610   5.886   1.054   0.724
 7237SOL    HW222611   5.861   1.154   0.598
 7238SOL     OW22612   3.925   3.352   6.898
 7238SOL    HW122613   3.861   3.419   6.936
 7238SOL    HW222614   3.941   3.279   6.964
 7239SOL     OW22615   6.444   2.401   2.276
 7239SOL    HW122616   6.386   2.391   2.195
 7239SOL    HW222617   6.465   2.311   2.313
 7240SOL     OW22618   6.644   1.838   0.301
 7240SOL    HW122619   6.730   1.886   0.287
 7240SOL    HW222620   6.604   1.815   0.212
 7241SOL     OW22621   2.728   0.957   2.076
 7241SOL    HW122622   2.647   0.943   2.133
 7241SOL    HW222623   2.709   1.026   2.007
 7242SOL     OW22624   6.738   4.606   4.450
 7242SOL    HW122625   6.759   4.697   4.415
 7242SOL    HW222626   6.669   4.563   4.391
 7243SOL     OW22627   5.714   4.684   6.300
 7243SOL    HW122628   5.727   4.607   6.238
 7243SOL    HW222629   5.624   4.725   6.283
 7244SOL     OW22630   0.211   6.126   0.086
 7244SOL    HW122631   0.238   6.096   0.177
 7244SOL    HW222632   0.231   6.224   0.076
 7245SOL     OW22633   1.152   3.340   0.621
 7245SOL    HW122634   1.243   3.376   0.599
 7245SOL    HW222635   1.091   3.415   0.645
 7246SOL     OW22636   4.610   6.851   3.258
 7246SOL    HW122637   4.606   6.841   3.357
 7246SOL    HW222638   4.574   6.941   3.232
 7247SOL     OW22639   3.435   4.194   5.151
 7247SOL    HW122640   3.527   4.229   5.162
 7247SOL    HW222641   3.437   4.112   5.093
 7248SOL     OW22642   3.053   1.207   5.367
 7248SOL    HW122643   3.007   1.247   5.288
 7248SOL    HW222644   3.109   1.276   5.412
 7249SOL     OW22645   4.185   4.818   2.522
 7249SOL    HW122646   4.248   4.836   2.446
 7249SOL    HW222647   4.199   4.886   2.594
 7250SOL     OW22648   5.642   5.222   4.960
 7250SOL    HW122649   5.738   5.215   4.988
 7250SOL    HW222650   5.594   5.137   4.981
 7251SOL     OW22651   0.068   6.033   5.618
 7251SOL    HW122652   7.009   5.995   5.573
 7251SOL    HW222653   0.070   6.132   5.606
 7252SOL     OW22654   3.733   3.639   2.546
 7252SOL    HW122655   3.773   3.553   2.575
 7252SOL    HW222656   3.805   3.700   2.512
 7253SOL     OW22657   2.494   5.708   4.686
 7253SOL    HW122658   2.524   5.620   4.723
 7253SOL    HW222659   2.399   5.701   4.656
 7254SOL     OW22660   5.861   3.153   4.173
 7254SOL    HW122661   5.924   3.228   4.190
 7254SOL    HW222662   5.771   3.176   4.210
 7255SOL     OW22663   5.193   3.337   6.738
 7255SOL    HW122664   5.174   3.431   6.767
 7255SOL    HW222665   5.213   3.281   6.818
 7256SOL     OW22666   3.127   0.233   5.170
 7256SOL    HW122667   3.043   0.281   5.193
 7256SOL    HW222668   3.159   0.262   5.080
 7257SOL     OW22669   0.684   1.611   4.547
 7257SOL    HW122670   0.646   1.702   4.563
 7257SOL    HW222671   0.626   1.562   4.482
 7258SOL     OW22672   6.131   2.823   2.494
 7258SOL    HW122673   6.140   2.782   2.403
 7258SOL    HW222674   6.217   2.810   2.545
 7259SOL     OW22675   1.501   3.823   2.546
 7259SOL    HW122676   1.572   3.864   2.604
 7259SOL    HW222677   1.414   3.823   2.595
 7260SOL     OW22678   5.615   3.409   0.832
 7260SOL    HW122679   5.577   3.346   0.899
 7260SOL    HW222680   5.706   3.438   0.861
 7261SOL     OW22681   6.922   4.656   0.385
 7261SOL    HW122682   6.864   4.732   0.415
 7261SOL    HW222683   6.995   4.641   0.452
 7262SOL     OW22684   6.016   1.345   4.997
 7262SOL    HW122685   6.036   1.432   5.042
 7262SOL    HW222686   5.958   1.362   4.917
 7263SOL     OW22687   0.185   5.916   6.916
 7263SOL    HW122688   0.181   5.985   6.988
 7263SOL    HW222689   0.160   5.827   6.953
 7264SOL     OW22690   6.175   1.522   0.574
 7264SOL    HW122691   6.215   1.447   0.523
 7264SOL    HW222692   6.160   1.600   0.514
 7265SOL     OW22693   4.083   6.234   5.870
 7265SOL    HW122694   4.077   6.329   5.841
 7265SOL    HW222695   4.119   6.178   5.795
 7266SOL     OW22696   0.436   0.872   3.748
 7266SOL    HW122697   0.483   0.940   3.805
 7266SOL    HW222698   0.479   0.783   3.761
 7267SOL     OW22699   6.432   4.556   4.850
 7267SOL    HW122700   6.383   4.639   4.878
 7267SOL    HW222701   6.524   4.558   4.888
 7268SOL     OW22702   6.270   6.534   4.423
 7268SOL    HW122703   6.356   6.501   4.384
 7268SOL    HW222704   6.234   6.606   4.364
 7269SOL     OW22705   2.508   4.611   5.150
 7269SOL    HW122706   2.591   4.612   5.095
 7269SOL    HW222707   2.455   4.529   5.130
 7270SOL     OW22708   0.611   1.185   4.662
 7270SOL    HW122709   0.695   1.217   4.618
 7270SOL    HW222710   0.633   1.146   4.751
 7271SOL     OW22711   0.853   4.580   3.646
 7271SOL    HW122712   0.878   4.483   3.645
 7271SOL    HW222713   0.907   4.629   3.579
 7272SOL     OW22714   6.668   4.644   2.176
 7272SOL    HW122715   6.718   4.723   2.213
 7272SOL    HW222716   6.730   4.566   2.168
 7273SOL     OW22717   0.730   2.606   5.154
 7273SOL    HW122718   0.735   2.656   5.240
 7273SOL    HW222719   0.695   2.514   5.171
 7274SOL     OW22720   0.758   4.486   0.006
 7274SOL    HW122721   0.836   4.549   0.008
 7274SOL    HW222722   0.698   4.509   6.950
 7275SOL     OW22723   6.863   0.214   3.113
 7275SOL    HW122724   6.885   0.229   3.210
 7275SOL    HW222725   6.854   0.302   3.067
 7276SOL     OW22726   5.653   6.643   4.497
 7276SOL    HW122727   5.633   6.546   4.504
 7276SOL    HW222728   5.726   6.667   4.561
 7277SOL     OW22729   4.886   0.021   6.123
 7277SOL    HW122730   4.944   0.096   6.089
 7277SOL    HW222731   4.933   6.995   6.197
 7278SOL     OW22732   3.084   2.994   2.197
 7278SOL    HW122733   3.119   2.926   2.132
 7278SOL    HW222734   2.985   3.001   2.188
 7279SOL     OW22735   3.190   6.582   6.158
 7279SOL    HW122736   3.096   6.561   6.185
 7279SOL    HW222737   3.218   6.521   6.084
 7280SOL     OW22738   4.637   1.194   5.904
 7280SOL    HW122739   4.636   1.267   5.835
 7280SOL    HW222740   4.716   1.205   5.963
 7281SOL     OW22741   5.041   1.530   5.890
 7281SOL    HW122742   5.122   1.517   5.833
 7281SOL    HW222743   5.026   1.449   5.946
 7282SOL     OW22744   5.598   5.522   2.568
 7282SOL    HW122745   5.624   5.426   2.554
 7282SOL    HW222746   5.652   5.580   2.507
 7283SOL     OW22747   1.924   1.057   3.679
 7283SOL    HW122748   1.997   1.033   3.614
 7283SOL    HW222749   1.879   0.973   3.709
 7284SOL     OW22750   0.254   3.714   4.913
 7284SOL    HW122751   0.294   3.804   4.895
 7284SOL    HW222752   0.217   3.676   4.829
 7285SOL     OW22753   5.173   5.607   1.613
 7285SOL    HW122754   5.255   5.601   1.670
 7285SOL    HW222755   5.146   5.515   1.584
 7286SOL     OW22756   1.929   3.517   1.250
 7286SOL    HW122757   1.891   3.489   1.338
 7286SOL    HW222758   2.027   3.533   1.259
 7287SOL     OW22759   5.968   1.396   6.229
 7287SOL    HW122760   5.902   1.455   6.275
 7287SOL    HW222761   6.053   1.448   6.213
 7288SOL     OW22762   3.633   6.290   0.087
 7288SOL    HW122763   3.633   6.270   7.010
 7288SOL    HW222764   3.636   6.204   0.138
 7289SOL     OW22765   4.826   1.798   3.457
 7289SOL    HW122766   4.771   1.878   3.480
 7289SOL    HW222767   4.783   1.748   3.382
 7290SOL     OW22768   2.714   5.204   4.360
 7290SOL    HW122769   2.630   5.257   4.347
 7290SOL    HW222770   2.746   5.170   4.272
 7291SOL     OW22771   2.612   5.176   2.208
 7291SOL    HW122772   2.658   5.262   2.185
 7291SOL    HW222773   2.534   5.194   2.267
 7292SOL     OW22774   2.754   0.079   4.466
 7292SOL    HW122775   2.844   0.122   4.454
 7292SOL    HW222776   2.689   0.122   4.403
 7293SOL     OW22777   1.304   2.701   5.424
 7293SOL    HW122778   1.376   2.686   5.356
 7293SOL    HW222779   1.218   2.664   5.390
 7294SOL     OW22780   3.342   5.198   0.866
 7294SOL    HW122781   3.279   5.271   0.840
 7294SOL    HW222782   3.345   5.129   0.794
 7295SOL     OW22783   6.221   0.638   1.862
 7295SOL    HW122784   6.284   0.562   1.840
 7295SOL    HW222785   6.197   0.686   1.778
 7296SOL     OW22786   4.191   4.692   1.694
 7296SOL    HW122787   4.174   4.701   1.792
 7296SOL    HW222788   4.127   4.625   1.655
 7297SOL     OW22789   5.182   6.893   1.727
 7297SOL    HW122790   5.141   6.883   1.636
 7297SOL    HW222791   5.151   6.979   1.768
 7298SOL     OW22792   5.866   3.641   4.253
 7298SOL    HW122793   5.787   3.690   4.290
 7298SOL    HW222794   5.888   3.563   4.311
 7299SOL     OW22795   6.427   3.948   6.588
 7299SOL    HW122796   6.409   3.905   6.676
 7299SOL    HW222797   6.490   3.891   6.535
 7300SOL     OW22798   4.255   4.925   0.976
 7300SOL    HW122799   4.222   5.001   0.921
 7300SOL    HW222800   4.342   4.949   1.019
 7301SOL     OW22801   6.576   0.346   6.333
 7301SOL    HW122802   6.586   0.393   6.245
 7301SOL    HW222803   6.622   0.257   6.329
 7302SOL     OW22804   4.857   1.184   6.221
 7302SOL    HW122805   4.785   1.248   6.248
 7302SOL    HW222806   4.855   1.104   6.281
 7303SOL     OW22807   3.741   1.170   0.349
 7303SOL    HW122808   3.704   1.093   0.297
 7303SOL    HW222809   3.733   1.152   0.447
 7304SOL     OW22810   3.317   4.065   5.550
 7304SOL    HW122811   3.406   4.104   5.527
 7304SOL    HW222812   3.291   3.999   5.480
 7305SOL     OW22813   5.311   1.284   0.352
 7305SOL    HW122814   5.233   1.333   0.391
 7305SOL    HW222815   5.361   1.237   0.424
 7306SOL     OW22816   4.941   4.706   1.689
 7306SOL    HW122817   4.962   4.795   1.650
 7306SOL    HW222818   4.960   4.707   1.788
 7307SOL     OW22819   4.112   6.763   2.437
 7307SOL    HW122820   4.132   6.792   2.530
 7307SOL    HW222821   4.194   6.773   2.380
 7308SOL     OW22822   6.745   1.938   4.498
 7308SOL    HW122823   6.730   2.001   4.423
 7308SOL    HW222824   6.730   1.844   4.467
 7309SOL     OW22825   4.557   6.332   1.479
 7309SOL    HW122826   4.638   6.276   1.497
 7309SOL    HW222827   4.584   6.413   1.427
 7310SOL     OW22828   2.976   5.178   1.639
 7310SOL    HW122829   2.898   5.179   1.700
 7310SOL    HW222830   3.008   5.083   1.627
 7311SOL     OW22831   2.675   2.204   1.879
 7311SOL    HW122832   2.733   2.247   1.948
 7311SOL    HW222833   2.699   2.238   1.789
 7312SOL     OW22834   0.000   1.228   5.695
 7312SOL    HW122835   6.939   1.267   5.655
 7312SOL    HW222836   7.000   1.189   5.784
 7313SOL     OW22837   4.300   2.569   6.498
 7313SOL    HW122838   4.361   2.558   6.576
 7313SOL    HW222839   4.216   2.613   6.527
 7314SOL     OW22840   0.367   3.304   4.104
 7314SOL    HW122841   0.299   3.304   4.178
 7314SOL    HW222842   0.439   3.238   4.125
 7315SOL     OW22843   6.760   0.226   4.524
 7315SOL    HW122844   6.810   0.303   4.564
 7315SOL    HW222845   6.695   0.260   4.456
 7316SOL     OW22846   3.640   3.816   5.537
 7316SOL    HW122847   3.658   3.759   5.457
 7316SOL    HW222848   3.647   3.912   5.511
 7317SOL     OW22849   3.743   0.913   4.019
 7317SOL    HW122850   3.673   0.870   3.963
 7317SOL    HW222851   3.803   0.842   4.057
 7318SOL     OW22852   2.377   2.183   1.228
 7318SOL    HW122853   2.390   2.278   1.201
 7318SOL    HW222854   2.398   2.173   1.326
 7319SOL     OW22855   6.050   4.839   6.839
 7319SOL    HW122856   6.041   4.849   6.740
 7319SOL    HW222857   5.986   4.771   6.872
 7320SOL     OW22858   6.973   2.792   1.837
 7320SOL    HW122859   6.897   2.827   1.781
 7320SOL    HW222860   6.992   2.857   1.910
 7321SOL     OW22861   2.692   1.133   4.196
 7321SOL    HW122862   2.687   1.132   4.096
 7321SOL    HW222863   2.783   1.100   4.225
 7322SOL     OW22864   0.662   4.062   2.975
 7322SOL    HW122865   0.673   4.161   2.975
 7322SOL    HW222866   0.693   4.025   2.887
 7323SOL     OW22867   2.075   3.676   3.279
 7323SOL    HW122868   2.104   3.731   3.358
 7323SOL    HW222869   2.096   3.725   3.195
 7324SOL     OW22870   5.541   6.878   2.718
 7324SOL    HW122871   5.635   6.911   2.711
 7324SOL    HW222872   5.535   6.809   2.791
 7325SOL     OW22873   3.311   6.120   0.017
 7325SOL    HW122874   3.246   6.044   0.026
 7325SOL    HW222875   3.280   6.197   0.072
 7326SOL     OW22876   3.442   6.626   5.608
 7326SOL    HW122877   3.405   6.558   5.545
 7326SOL    HW222878   3.482   6.579   5.687
 7327SOL     OW22879   1.413   2.947   5.537
 7327SOL    HW122880   1.463   3.009   5.476
 7327SOL    HW222881   1.358   2.884   5.482
 7328SOL     OW22882   2.522   0.252   6.883
 7328SOL    HW122883   2.436   0.231   6.836
 7328SOL    HW222884   2.589   0.180   6.865
 7329SOL     OW22885   4.224   2.860   0.930
 7329SOL    HW122886   4.168   2.911   0.864
 7329SOL    HW222887   4.181   2.862   1.020
 7330SOL     OW22888   3.959   1.532   0.072
 7330SOL    HW122889   4.049   1.573   0.058
 7330SOL    HW222890   3.933   1.543   0.168
 7331SOL     OW22891   5.726   0.213   1.710
 7331SOL    HW122892   5.786   0.235   1.787
 7331SOL    HW222893   5.645   0.273   1.713
 7332SOL     OW22894   3.441   5.295   1.639
 7332SOL    HW122895   3.468   5.370   1.579
 7332SOL    HW222896   3.384   5.230   1.588
 7333SOL     OW22897   1.386   4.976   2.491
 7333SOL    HW122898   1.434   4.925   2.419
 7333SOL    HW222899   1.408   5.073   2.484
 7334SOL     OW22900   4.018   6.621   4.119
 7334SOL    HW122901   4.036   6.619   4.217
 7334SOL    HW222902   3.982   6.532   4.090
 7335SOL     OW22903   1.909   2.617   3.081
 7335SOL    HW122904   1.813   2.633   3.061
 7335SOL    HW222905   1.937   2.673   3.159
 7336SOL     OW22906   1.844   6.756   3.545
 7336SOL    HW122907   1.833   6.820   3.622
 7336SOL    HW222908   1.755   6.736   3.506
 7337SOL     OW22909   6.472   3.126   2.131
 7337SOL    HW122910   6.558   3.083   2.158
 7337SOL    HW222911   6.463   3.213   2.179
 7338SOL     OW22912   6.603   3.109   0.370
 7338SOL    HW122913   6.567   3.190   0.323
 7338SOL    HW222914   6.674   3.137   0.434
 7339SOL     OW22915   0.160   5.687   4.395
 7339SOL    HW122916   0.098   5.718   4.323
 7339SOL    HW222917   0.174   5.761   4.461
 7340SOL     OW22918   2.321   0.168   6.740
 7340SOL    HW122919   2.253   0.176   6.813
 7340SOL    HW222920   2.276   0.180   6.651
 7341SOL     OW22921   6.319   2.507   6.882
 7341SOL    HW122922   6.253   2.582   6.881
 7341SOL    HW222923   6.394   2.529   6.944
 7342SOL     OW22924   6.875   6.879   2.547
 7342SOL    HW122925   6.904   6.962   2.500
 7342SOL    HW222926   6.777   6.864   2.532
 7343SOL     OW22927   5.243   3.225   6.980
 7343SOL    HW122928   5.268   3.320   7.000
 7343SOL    HW222929   5.165   3.199   0.014
 7344SOL     OW22930   1.418   6.446   5.927
 7344SOL    HW122931   1.358   6.505   5.981
 7344SOL    HW222932   1.364   6.391   5.864
 7345SOL     OW22933   3.544   5.254   6.092
 7345SOL    HW122934   3.562   5.175   6.151
 7345SOL    HW222935   3.540   5.337   6.147
 7346SOL     OW22936   4.950   4.774   3.132
 7346SOL    HW122937   4.884   4.780   3.057
 7346SOL    HW222938   4.977   4.866   3.161
 7347SOL     OW22939   5.787   2.339   6.442
 7347SOL    HW122940   5.747   2.315   6.353
 7347SOL    HW222941   5.877   2.381   6.428
 7348SOL     OW22942   6.975   4.893   1.513
 7348SOL    HW122943   6.905   4.825   1.491
 7348SOL    HW222944   7.002   4.885   1.608
 7349SOL     OW22945   3.934   1.870   2.053
 7349SOL    HW122946   3.910   1.948   1.995
 7349SOL    HW222947   3.971   1.797   1.996
 7350SOL     OW22948   3.293   0.314   4.904
 7350SOL    HW122949   3.310   0.409   4.876
 7350SOL    HW222950   3.203   0.286   4.873
 7351SOL     OW22951   3.319   4.880   3.921
 7351SOL    HW122952   3.359   4.831   3.999
 7351SOL    HW222953   3.298   4.974   3.948
 7352SOL     OW22954   6.879   2.746   3.812
 7352SOL    HW122955   6.975   2.755   3.788
 7352SOL    HW222956   6.869   2.686   3.891
 7353SOL     OW22957   6.205   0.479   6.599
 7353SOL    HW122958   6.212   0.540   6.678
 7353SOL    HW222959   6.202   0.384   6.630
 7354SOL     OW22960   0.667   1.827   3.145
 7354SOL    HW122961   0.568   1.813   3.149
 7354SOL    HW222962   0.693   1.897   3.211
 7355SOL     OW22963   1.674   1.888   0.182
 7355SOL    HW122964   1.744   1.849   0.242
 7355SOL    HW222965   1.593   1.828   0.182
 7356SOL     OW22966   4.175   3.995   6.356
 7356SOL    HW122967   4.091   4.049   6.362
 7356SOL    HW222968   4.241   4.029   6.423
 7357SOL     OW22969   5.204   5.758   2.255
 7357SOL    HW122970   5.273   5.771   2.326
 7357SOL    HW222971   5.126   5.708   2.293
 7358SOL     OW22972   5.914   1.163   3.757
 7358SOL    HW122973   5.961   1.150   3.845
 7358SOL    HW222974   5.833   1.105   3.754
 7359SOL     OW22975   5.292   0.303   1.387
 7359SOL    HW122976   5.285   0.402   1.372
 7359SOL    HW222977   5.201   0.262   1.380
 7360SOL     OW22978   3.062   3.872   5.069
 7360SOL    HW122979   2.973   3.862   5.024
 7360SOL    HW222980   3.054   3.841   5.164
 7361SOL     OW22981   5.376   0.516   3.656
 7361SOL    HW122982   5.309   0.487   3.724
 7361SOL    HW222983   5.345   0.492   3.564
 7362SOL     OW22984   3.279   5.136   6.579
 7362SOL    HW122985   3.374   5.108   6.587
 7362SOL    HW222986   3.272   5.218   6.523
 7363SOL     OW22987   3.945   0.606   0.565
 7363SOL    HW122988   3.988   0.516   0.576
 7363SOL    HW222989   3.906   0.635   0.652
 7364SOL     OW22990   5.895   6.962   1.218
 7364SOL    HW122991   5.910   0.003   1.142
 7364SOL    HW222992   5.983   6.940   1.260
 7365SOL     OW22993   5.803   4.809   2.322
 7365SOL    HW122994   5.884   4.780   2.272
 7365SOL    HW222995   5.798   4.761   2.409
 7366SOL     OW22996   1.808   1.122   4.222
 7366SOL    HW122997   1.810   1.218   4.250
 7366SOL    HW222998   1.852   1.112   4.133
 7367SOL     OW22999   4.346   0.385   6.704
 7367SOL    HW123000   4.347   0.455   6.632
 7367SOL    HW223001   4.259   0.336   6.701
 7368SOL     OW23002   3.579   3.797   3.537
 7368SOL    HW123003   3.677   3.780   3.527
 7368SOL    HW223004   3.536   3.720   3.585
 7369SOL     OW23005   5.354   2.360   0.481
 7369SOL    HW123006   5.266   2.331   0.443
 7369SOL    HW223007   5.346   2.371   0.580
 7370SOL     OW23008   2.046   1.433   4.159
 7370SOL    HW123009   2.088   1.342   4.152
 7370SOL    HW223010   1.985   1.435   4.238
 7371SOL     OW23011   3.544   0.825   3.790
 7371SOL    HW123012   3.552   0.726   3.775
 7371SOL    HW223013   3.529   0.871   3.703
 7372SOL     OW23014   5.460   0.986   5.548
 7372SOL    HW123015   5.456   0.906   5.607
 7372SOL    HW223016   5.552   1.025   5.551
 7373SOL     OW23017   5.594   3.359   4.343
 7373SOL    HW123018   5.634   3.403   4.423
 7373SOL    HW223019   5.536   3.283   4.372
 7374SOL     OW23020   6.480   2.315   5.167
 7374SOL    HW123021   6.570   2.354   5.186
 7374SOL    HW223022   6.436   2.368   5.095
 7375SOL     OW23023   1.497   3.452   2.138
 7375SOL    HW123024   1.554   3.525   2.176
 7375SOL    HW223025   1.551   3.369   2.128
 7376SOL     OW23026   0.173   3.778   0.254
 7376SOL    HW123027   0.271   3.791   0.271
 7376SOL    HW223028   0.128   3.750   0.339
 7377SOL     OW23029   2.715   6.130   1.288
 7377SOL    HW123030   2.666   6.056   1.241
 7377SOL    HW223031   2.649   6.194   1.328
 7378SOL     OW23032   0.893   5.518   4.286
 7378SOL    HW123033   0.793   5.508   4.288
 7378SOL    HW223034   0.932   5.480   4.369
 7379SOL     OW23035   3.933   1.187   1.151
 7379SOL    HW123036   3.877   1.104   1.144
 7379SOL    HW223037   4.016   1.166   1.203
 7380SOL     OW23038   5.295   4.169   1.999
 7380SOL    HW123039   5.369   4.128   2.052
 7380SOL    HW223040   5.232   4.097   1.968
 7381SOL     OW23041   3.776   0.958   1.044
 7381SOL    HW123042   3.764   0.904   1.127
 7381SOL    HW223043   3.686   0.983   1.007
 7382SOL     OW23044   6.518   1.281   6.094
 7382SOL    HW123045   6.431   1.323   6.067
 7382SOL    HW223046   6.577   1.351   6.135
 7383SOL     OW23047   2.121   0.161   0.733
 7383SOL    HW123048   2.170   0.126   0.653
 7383SOL    HW223049   2.116   0.261   0.728
 7384SOL     OW23050   6.898   6.773   0.996
 7384SOL    HW123051   6.801   6.795   0.990
 7384SOL    HW223052   6.908   6.677   1.025
 7385SOL     OW23053   5.774   4.126   3.091
 7385SOL    HW123054   5.850   4.087   3.143
 7385SOL    HW223055   5.767   4.224   3.110
 7386SOL     OW23056   5.462   3.692   7.009
 7386SOL    HW123057   5.419   3.775   0.023
 7386SOL    HW223058   5.500   3.710   6.918
 7387SOL     OW23059   6.859   5.917   5.529
 7387SOL    HW123060   6.792   5.982   5.494
 7387SOL    HW223061   6.819   5.866   5.605
 7388SOL     OW23062   2.109   4.979   3.095
 7388SOL    HW123063   2.155   4.925   3.165
 7388SOL    HW223064   2.039   5.037   3.139
 7389SOL     OW23065   5.640   2.594   0.001
 7389SOL    HW123066   5.602   2.640   0.082
 7389SOL    HW223067   5.635   2.655   6.944
 7390SOL     OW23068   2.204   2.864   3.309
 7390SOL    HW123069   2.188   2.956   3.274
 7390SOL    HW223070   2.251   2.869   3.397
 7391SOL     OW23071   3.838   3.445   3.195
 7391SOL    HW123072   3.775   3.497   3.252
 7391SOL    HW223073   3.829   3.475   3.100
 7392SOL     OW23074   2.915   6.266   6.677
 7392SOL    HW123075   2.853   6.335   6.714
 7392SOL    HW223076   2.987   6.248   6.744
 7393SOL     OW23077   5.346   5.547   4.149
 7393SOL    HW123078   5.349   5.447   4.146
 7393SOL    HW223079   5.250   5.577   4.143
 7394SOL     OW23080   3.065   1.697   6.041
 7394SOL    HW123081   3.157   1.727   6.065
 7394SOL    HW223082   3.053   1.601   6.067
 7395SOL     OW23083   3.041   5.656   1.109
 7395SOL    HW123084   3.065   5.753   1.108
 7395SOL    HW223085   2.962   5.641   1.049
 7396SOL     OW23086   2.481   5.161   1.836
 7396SOL    HW123087   2.416   5.140   1.763
 7396SOL    HW223088   2.477   5.090   1.906
 7397SOL     OW23089   5.602   4.429   4.153
 7397SOL    HW123090   5.532   4.365   4.121
 7397SOL    HW223091   5.689   4.406   4.109
 7398SOL     OW23092   2.582   4.609   2.411
 7398SOL    HW123093   2.536   4.671   2.474
 7398SOL    HW223094   2.582   4.516   2.449
 7399SOL     OW23095   5.259   2.258   5.529
 7399SOL    HW123096   5.198   2.336   5.531
 7399SOL    HW223097   5.209   2.175   5.554
 7400SOL     OW23098   5.761   3.040   5.776
 7400SOL    HW123099   5.744   3.013   5.871
 7400SOL    HW223100   5.730   3.134   5.762
 7401SOL     OW23101   1.324   3.183   3.792
 7401SOL    HW123102   1.406   3.132   3.766
 7401SOL    HW223103   1.288   3.147   3.878
 7402SOL     OW23104   3.335   5.675   4.572
 7402SOL    HW123105   3.326   5.581   4.538
 7402SOL    HW223106   3.380   5.674   4.662
 7403SOL     OW23107   1.997   4.052   4.122
 7403SOL    HW123108   1.986   4.008   4.211
 7403SOL    HW223109   2.093   4.048   4.094
 7404SOL     OW23110   3.530   3.363   1.146
 7404SOL    HW123111   3.602   3.296   1.128
 7404SOL    HW223112   3.441   3.322   1.130
 7405SOL     OW23113   3.719   6.536   3.732
 7405SOL    HW123114   3.787   6.602   3.764
 7405SOL    HW223115   3.643   6.534   3.797
 7406SOL     OW23116   0.932   1.585   5.050
 7406SOL    HW123117   0.988   1.503   5.037
 7406SOL    HW223118   0.930   1.638   4.966
 7407SOL     OW23119   0.850   5.599   5.432
 7407SOL    HW123120   0.855   5.578   5.530
 7407SOL    HW223121   0.757   5.628   5.409
 7408SOL     OW23122   4.130   5.020   5.104
 7408SOL    HW123123   4.185   5.006   5.022
 7408SOL    HW223124   4.036   4.988   5.087
 7409SOL     OW23125   6.491   3.680   1.175
 7409SOL    HW123126   6.470   3.583   1.162
 7409SOL    HW223127   6.523   3.695   1.268
 7410SOL     OW23128   0.348   0.836   0.972
 7410SOL    HW123129   0.372   0.790   0.887
 7410SOL    HW223130   0.421   0.900   0.997
 7411SOL     OW23131   1.821   1.662   5.159
 7411SOL    HW123132   1.743   1.723   5.178
 7411SOL    HW223133   1.859   1.630   5.245
 7412SOL     OW23134   4.245   6.750   0.485
 7412SOL    HW123135   4.329   6.719   0.442
 7412SOL    HW223136   4.264   6.830   0.541
 7413SOL     OW23137   4.460   0.088   3.141
 7413SOL    HW123138   4.539   0.069   3.083
 7413SOL    HW223139   4.380   0.107   3.084
 7414SOL     OW23140   3.398   1.242   4.128
 7414SOL    HW123141   3.351   1.327   4.148
 7414SOL    HW223142   3.464   1.256   4.054
 7415SOL     OW23143   4.000   6.223   6.697
 7415SOL    HW123144   4.078   6.181   6.651
 7415SOL    HW223145   3.918   6.167   6.680
 7416SOL     OW23146   1.474   0.627   1.737
 7416SOL    HW123147   1.450   0.693   1.666
 7416SOL    HW223148   1.401   0.558   1.744
 7417SOL     OW23149   0.222   0.883   2.977
 7417SOL    HW123150   0.321   0.869   2.975
 7417SOL    HW223151   0.185   0.846   3.062
 7418SOL     OW23152   1.401   4.244   5.883
 7418SOL    HW123153   1.339   4.205   5.951
 7418SOL    HW223154   1.486   4.191   5.880
 7419SOL     OW23155   6.699   3.818   3.832
 7419SOL    HW123156   6.611   3.814   3.880
 7419SOL    HW223157   6.692   3.883   3.756
 7420SOL     OW23158   0.222   0.112   1.897
 7420SOL    HW123159   0.290   0.038   1.903
 7420SOL    HW223160   0.135   0.080   1.934
 7421SOL     OW23161   5.325   3.534   0.857
 7421SOL    HW123162   5.342   3.602   0.928
 7421SOL    HW223163   5.412   3.498   0.824
 7422SOL     OW23164   5.677   2.696   2.661
 7422SOL    HW123165   5.610   2.651   2.601
 7422SOL    HW223166   5.688   2.643   2.745
 7423SOL     OW23167   5.414   1.763   5.777
 7423SOL    HW123168   5.373   1.855   5.774
 7423SOL    HW223169   5.510   1.769   5.752
 7424SOL     OW23170   0.442   2.268   3.460
 7424SOL    HW123171   0.455   2.339   3.529
 7424SOL    HW223172   0.448   2.178   3.504
 7425SOL     OW23173   6.033   0.642   1.155
 7425SOL    HW123174   5.935   0.629   1.148
 7425SOL    HW223175   6.055   0.694   1.238
 7426SOL     OW23176   4.044   3.216   5.651
 7426SOL    HW123177   4.082   3.308   5.638
 7426SOL    HW223178   4.106   3.162   5.709
 7427SOL     OW23179   3.299   0.908   3.289
 7427SOL    HW123180   3.339   0.848   3.220
 7427SOL    HW223181   3.239   0.975   3.244
 7428SOL     OW23182   4.597   6.192   4.772
 7428SOL    HW123183   4.681   6.140   4.788
 7428SOL    HW223184   4.564   6.228   4.860
 7429SOL     OW23185   0.974   6.700   2.981
 7429SOL    HW123186   1.055   6.687   3.039
 7429SOL    HW223187   0.982   6.787   2.933
 7430SOL     OW23188   6.530   5.469   2.557
 7430SOL    HW123189   6.630   5.471   2.560
 7430SOL    HW223190   6.497   5.392   2.611
 7431SOL     OW23191   1.294   1.682   3.653
 7431SOL    HW123192   1.299   1.583   3.668
 7431SOL    HW223193   1.270   1.728   3.739
 7432SOL     OW23194   2.412   0.532   3.096
 7432SOL    HW123195   2.402   0.587   3.013
 7432SOL    HW223196   2.401   0.591   3.176
 7433SOL     OW23197   2.656   0.134   6.551
 7433SOL    HW123198   2.619   0.047   6.585
 7433SOL    HW223199   2.602   0.165   6.473
 7434SOL     OW23200   4.044   6.717   4.406
 7434SOL    HW123201   4.029   6.815   4.411
 7434SOL    HW223202   3.992   6.671   4.478
 7435SOL     OW23203   5.194   4.010   2.700
 7435SOL    HW123204   5.168   4.103   2.674
 7435SOL    HW223205   5.112   3.954   2.713
 7436SOL     OW23206   5.592   2.884   5.972
 7436SOL    HW123207   5.504   2.836   5.975
 7436SOL    HW223208   5.625   2.901   6.065
 7437SOL     OW23209   3.199   7.021   0.490
 7437SOL    HW123210   3.128   0.039   0.549
 7437SOL    HW223211   3.188   0.035   0.398
 7438SOL     OW23212   2.004   0.670   0.194
 7438SOL    HW123213   2.037   0.751   0.146
 7438SOL    HW223214   1.982   0.599   0.128
 7439SOL     OW23215   1.239   4.236   6.703
 7439SOL    HW123216   1.203   4.329   6.695
 7439SOL    HW223217   1.221   4.202   6.795
 7440SOL     OW23218   5.645   3.599   3.871
 7440SOL    HW123219   5.637   3.544   3.954
 7440SOL    HW223220   5.647   3.539   3.791
 7441SOL     OW23221   5.887   5.688   1.251
 7441SOL    HW123222   5.968   5.741   1.226
 7441SOL    HW223223   5.874   5.692   1.350
 7442SOL     OW23224   5.477   0.760   5.711
 7442SOL    HW123225   5.445   0.668   5.690
 7442SOL    HW223226   5.459   0.780   5.808
 7443SOL     OW23227   0.370   0.864   1.769
 7443SOL    HW123228   0.466   0.891   1.756
 7443SOL    HW223229   0.312   0.945   1.774
 7444SOL     OW23230   1.910   6.463   6.881
 7444SOL    HW123231   1.891   6.384   6.940
 7444SOL    HW223232   1.984   6.440   6.818
 7445SOL     OW23233   3.865   6.287   1.772
 7445SOL    HW123234   3.918   6.220   1.822
 7445SOL    HW223235   3.927   6.348   1.722
 7446SOL     OW23236   5.381   4.334   0.115
 7446SOL    HW123237   5.296   4.337   0.167
 7446SOL    HW223238   5.361   4.344   0.018
 7447SOL     OW23239   0.173   4.575   0.549
 7447SOL    HW123240   0.128   4.527   0.624
 7447SOL    HW223241   0.185   4.513   0.472
 7448SOL     OW23242   4.732   5.391   6.999
 7448SOL    HW123243   4.674   5.472   7.010
 7448SOL    HW223244   4.676   5.309   7.011
 7449SOL     OW23245   0.088   4.453   5.983
 7449SOL    HW123246   0.009   4.499   6.024
 7449SOL    HW223247   0.127   4.388   6.048
 7450SOL     OW23248   5.496   2.172   5.448
 7450SOL    HW123249   5.466   2.079   5.428
 7450SOL    HW223250   5.423   2.221   5.495
 7451SOL     OW23251   4.705   4.370   3.297
 7451SOL    HW123252   4.696   4.455   3.350
 7451SOL    HW223253   4.775   4.382   3.227
 7452SOL     OW23254   5.915   5.343   5.813
 7452SOL    HW123255   5.887   5.296   5.730
 7452SOL    HW223256   5.911   5.281   5.891
 7453SOL     OW23257   3.450   5.825   6.128
 7453SOL    HW123258   3.499   5.872   6.055
 7453SOL    HW223259   3.376   5.883   6.161
 7454SOL     OW23260   4.549   2.063   1.256
 7454SOL    HW123261   4.475   2.113   1.212
 7454SOL    HW223262   4.531   2.055   1.354
 7455SOL     OW23263   6.802   1.694   2.956
 7455SOL    HW123264   6.704   1.715   2.962
 7455SOL    HW223265   6.840   1.683   3.047
 7456SOL     OW23266   2.507   2.029   6.317
 7456SOL    HW123267   2.419   1.993   6.350
 7456SOL    HW223268   2.504   2.037   6.217
 7457SOL     OW23269   1.952   1.010   2.127
 7457SOL    HW123270   1.930   1.101   2.163
 7457SOL    HW223271   1.926   1.005   2.030
 7458SOL     OW23272   1.954   5.470   5.232
 7458SOL    HW123273   2.000   5.500   5.315
 7458SOL    HW223274   1.963   5.541   5.162
 7459SOL     OW23275   5.833   0.290   2.431
 7459SOL    HW123276   5.771   0.369   2.438
 7459SOL    HW223277   5.927   0.323   2.424
 7460SOL     OW23278   2.090   6.510   1.020
 7460SOL    HW123279   2.009   6.564   1.040
 7460SOL    HW223280   2.150   6.509   1.100
 7461SOL     OW23281   2.146   4.307   5.882
 7461SOL    HW123282   2.057   4.347   5.860
 7461SOL    HW223283   2.170   4.329   5.977
 7462SOL     OW23284   1.196   4.213   0.821
 7462SOL    HW123285   1.233   4.123   0.846
 7462SOL    HW223286   1.223   4.281   0.888
 7463SOL     OW23287   4.088   5.395   1.317
 7463SOL    HW123288   4.033   5.315   1.293
 7463SOL    HW223289   4.155   5.412   1.245
 7464SOL     OW23290   6.030   6.186   5.203
 7464SOL    HW123291   5.947   6.142   5.171
 7464SOL    HW223292   6.064   6.139   5.285
 7465SOL     OW23293   1.773   4.816   0.210
 7465SOL    HW123294   1.799   4.894   0.267
 7465SOL    HW223295   1.730   4.746   0.268
 7466SOL     OW23296   0.315   0.617   4.981
 7466SOL    HW123297   0.396   0.641   5.035
 7466SOL    HW223298   0.244   0.687   4.994
 7467SOL     OW23299   0.674   3.518   5.056
 7467SOL    HW123300   0.684   3.618   5.055
 7467SOL    HW223301   0.691   3.484   5.148
 7468SOL     OW23302   5.873   3.470   5.671
 7468SOL    HW123303   5.805   3.520   5.617
 7468SOL    HW223304   5.870   3.373   5.645
 7469SOL     OW23305   0.474   1.818   0.739
 7469SOL    HW123306   0.390   1.861   0.708
 7469SOL    HW223307   0.469   1.799   0.837
 7470SOL     OW23308   5.692   2.561   3.296
 7470SOL    HW123309   5.703   2.632   3.366
 7470SOL    HW223310   5.727   2.474   3.330
 7471SOL     OW23311   4.045   5.843   6.062
 7471SOL    HW123312   3.947   5.842   6.041
 7471SOL    HW223313   4.064   5.915   6.129
 7472SOL     OW23314   6.654   0.196   5.906
 7472SOL    HW123315   6.560   0.197   5.871
 7472SOL    HW223316   6.654   0.153   5.997
 7473SOL     OW23317   3.328   5.839   3.907
 7473SOL    HW123318   3.302   5.896   3.984
 7473SOL    HW223319   3.309   5.743   3.929
 7474SOL     OW23320   6.015   1.991   6.938
 7474SOL    HW123321   5.981   2.085   6.942
 7474SOL    HW223322   5.940   1.928   6.960
 7475SOL     OW23323   5.049   1.964   0.806
 7475SOL    HW123324   5.048   2.058   0.839
 7475SOL    HW223325   5.142   1.938   0.781
 7476SOL     OW23326   2.196   0.356   3.124
 7476SOL    HW123327   2.211   0.320   3.215
 7476SOL    HW223328   2.263   0.428   3.105
 7477SOL     OW23329   0.941   3.838   5.030
 7477SOL    HW123330   0.841   3.837   5.023
 7477SOL    HW223331   0.980   3.801   4.946
 7478SOL     OW23332   0.532   1.073   6.004
 7478SOL    HW123333   0.548   1.097   6.099
 7478SOL    HW223334   0.579   0.987   5.982
 7479SOL     OW23335   5.095   2.805   0.723
 7479SOL    HW123336   5.039   2.728   0.692
 7479SOL    HW223337   5.094   2.809   0.823
 7480SOL     OW23338   3.587   4.939   2.867
 7480SOL    HW123339   3.593   5.038   2.879
 7480SOL    HW223340   3.594   4.917   2.769
 7481SOL     OW23341   0.242   4.029   6.914
 7481SOL    HW123342   0.239   4.015   6.815
 7481SOL    HW223343   0.291   3.953   6.957
 7482SOL     OW23344   5.282   1.994   2.944
 7482SOL    HW123345   5.203   2.049   2.917
 7482SOL    HW223346   5.272   1.965   3.039
 7483SOL     OW23347   4.792   2.102   5.584
 7483SOL    HW123348   4.706   2.137   5.622
 7483SOL    HW223349   4.823   2.025   5.639
 7484SOL     OW23350   3.364   0.135   3.647
 7484SOL    HW123351   3.396   0.191   3.724
 7484SOL    HW223352   3.438   0.126   3.580
 7485SOL     OW23353   3.783   6.438   5.881
 7485SOL    HW123354   3.795   6.529   5.840
 7485SOL    HW223355   3.796   6.444   5.980
 7486SOL     OW23356   2.610   6.625   0.862
 7486SOL    HW123357   2.663   6.672   0.932
 7486SOL    HW223358   2.554   6.554   0.905
 7487SOL     OW23359   4.033   6.099   4.555
 7487SOL    HW123360   4.092   6.180   4.550
 7487SOL    HW223361   3.938   6.128   4.563
 7488SOL     OW23362   0.768   5.701   4.078
 7488SOL    HW123363   0.757   5.712   3.979
 7488SOL    HW223364   0.819   5.617   4.096
 7489SOL     OW23365   5.518   3.137   6.513
 7489SOL    HW123366   5.595   3.111   6.570
 7489SOL    HW223367   5.466   3.055   6.488
 7490SOL     OW23368   0.998   2.713   2.355
 7490SOL    HW123369   0.971   2.652   2.429
 7490SOL    HW223370   0.965   2.677   2.268
 7491SOL     OW23371   4.148   3.470   0.580
 7491SOL    HW123372   4.122   3.393   0.639
 7491SOL    HW223373   4.170   3.437   0.489
 7492SOL     OW23374   1.355   0.208   4.436
 7492SOL    HW123375   1.324   0.125   4.389
 7492SOL    HW223376   1.282   0.240   4.496
 7493SOL     OW23377   6.613   4.699   5.120
 7493SOL    HW123378   6.663   4.651   5.193
 7493SOL    HW223379   6.677   4.755   5.068
 7494SOL     OW23380   6.774   0.936   1.773
 7494SOL    HW123381   6.819   0.904   1.689
 7494SOL    HW223382   6.816   0.893   1.852
 7495SOL     OW23383   1.471   3.555   4.938
 7495SOL    HW123384   1.555   3.575   4.989
 7495SOL    HW223385   1.392   3.586   4.991
 7496SOL     OW23386   5.901   4.465   2.472
 7496SOL    HW123387   5.891   4.557   2.511
 7496SOL    HW223388   5.895   4.397   2.544
 7497SOL     OW23389   7.007   6.316   1.058
 7497SOL    HW123390   0.030   6.288   1.143
 7497SOL    HW223391   0.051   6.368   1.003
 7498SOL     OW23392   3.383   6.640   2.858
 7498SOL    HW123393   3.457   6.626   2.923
 7498SOL    HW223394   3.297   6.605   2.896
 7499SOL     OW23395   2.981   1.586   4.154
 7499SOL    HW123396   2.924   1.553   4.229
 7499SOL    HW223397   2.995   1.684   4.163
 7500SOL     OW23398   3.807   0.397   3.390
 7500SOL    HW123399   3.749   0.334   3.339
 7500SOL    HW223400   3.817   0.364   3.484
 7501SOL     OW23401   6.227   2.498   5.635
 7501SOL    HW123402   6.215   2.410   5.589
 7501SOL    HW223403   6.230   2.571   5.566
 7502SOL     OW23404   4.568   0.860   4.347
 7502SOL    HW123405   4.624   0.870   4.265
 7502SOL    HW223406   4.515   0.944   4.361
 7503SOL     OW23407   1.906   5.395   1.717
 7503SOL    HW123408   1.997   5.368   1.747
 7503SOL    HW223409   1.840   5.326   1.743
 7504SOL     OW23410   6.582   6.401   4.829
 7504SOL    HW123411   6.498   6.432   4.783
 7504SOL    HW223412   6.559   6.370   4.921
 7505SOL     OW23413   0.337   6.447   4.971
 7505SOL    HW123414   0.390   6.482   5.048
 7505SOL    HW223415   0.296   6.359   4.996
 7506SOL     OW23416   3.392   1.760   3.986
 7506SOL    HW123417   3.300   1.798   3.975
 7506SOL    HW223418   3.395   1.704   4.068
 7507SOL     OW23419   6.346   4.533   5.907
 7507SOL    HW123420   6.327   4.578   5.820
 7507SOL    HW223421   6.437   4.560   5.940
 7508SOL     OW23422   2.729   6.156   0.378
 7508SOL    HW123423   2.766   6.063   0.383
 7508SOL    HW223424   2.648   6.163   0.436
 7509SOL     OW23425   6.129   5.002   2.203
 7509SOL    HW123426   6.193   4.935   2.164
 7509SOL    HW223427   6.164   5.035   2.290
 7510SOL     OW23428   3.368   3.686   2.897
 7510SOL    HW123429   3.380   3.760   2.831
 7510SOL    HW223430   3.277   3.646   2.885
 7511SOL     OW23431   4.734   6.665   4.117
 7511SOL    HW123432   4.729   6.741   4.052
 7511SOL    HW223433   4.650   6.612   4.113
 7512SOL     OW23434   3.588   0.988   0.227
 7512SOL    HW123435   3.631   0.961   0.140
 7512SOL    HW223436   3.502   0.938   0.238
 7513SOL     OW23437   1.607   2.044   2.513
 7513SOL    HW123438   1.659   2.128   2.529
 7513SOL    HW223439   1.585   2.037   2.416
 7514SOL     OW23440   1.134   5.844   1.814
 7514SOL    HW123441   1.136   5.826   1.716
 7514SOL    HW223442   1.226   5.836   1.852
 7515SOL     OW23443   0.497   4.697   5.021
 7515SOL    HW123444   0.566   4.646   4.969
 7515SOL    HW223445   0.531   4.790   5.039
 7516SOL     OW23446   1.526   6.311   5.288
 7516SOL    HW123447   1.477   6.390   5.250
 7516SOL    HW223448   1.604   6.343   5.342
 7517SOL     OW23449   0.783   1.577   6.090
 7517SOL    HW123450   0.724   1.600   6.013
 7517SOL    HW223451   0.873   1.619   6.077
 7518SOL     OW23452   4.995   2.133   3.580
 7518SOL    HW123453   4.989   2.228   3.608
 7518SOL    HW223454   4.918   2.081   3.617
 7519SOL     OW23455   3.928   6.268   4.262
 7519SOL    HW123456   3.830   6.260   4.279
 7519SOL    HW223457   3.973   6.309   4.342
 7520SOL     OW23458   1.671   1.967   0.694
 7520SOL    HW123459   1.679   2.055   0.647
 7520SOL    HW223460   1.755   1.915   0.681
 7521SOL     OW23461   3.640   1.959   5.587
 7521SOL    HW123462   3.674   2.025   5.520
 7521SOL    HW223463   3.690   1.873   5.577
 7522SOL     OW23464   1.718   6.928   3.275
 7522SOL    HW123465   1.685   7.016   3.308
 7522SOL    HW223466   1.773   6.884   3.346
 7523SOL     OW23467   5.657   1.064   0.915
 7523SOL    HW123468   5.714   1.083   0.835
 7523SOL    HW223469   5.561   1.077   0.891
 7524SOL     OW23470   0.247   3.290   4.375
 7524SOL    HW123471   0.284   3.211   4.425
 7524SOL    HW223472   0.150   3.301   4.397
 7525SOL     OW23473   3.970   5.483   5.923
 7525SOL    HW123474   3.993   5.423   5.846
 7525SOL    HW223475   4.033   5.561   5.923
 7526SOL     OW23476   2.427   3.492   1.505
 7526SOL    HW123477   2.373   3.550   1.445
 7526SOL    HW223478   2.514   3.537   1.526
 7527SOL     OW23479   3.944   5.008   3.381
 7527SOL    HW123480   3.944   5.093   3.435
 7527SOL    HW223481   3.850   4.976   3.371
 7528SOL     OW23482   6.126   3.158   6.241
 7528SOL    HW123483   6.205   3.197   6.194
 7528SOL    HW223484   6.047   3.217   6.226
 7529SOL     OW23485   6.024   3.254   3.871
 7529SOL    HW123486   6.121   3.251   3.849
 7529SOL    HW223487   5.994   3.165   3.905
 7530SOL     OW23488   0.893   2.201   1.958
 7530SOL    HW123489   0.801   2.210   1.996
 7530SOL    HW223490   0.952   2.154   2.023
 7531SOL     OW23491   4.218   2.188   4.032
 7531SOL    HW123492   4.221   2.092   4.059
 7531SOL    HW223493   4.173   2.195   3.942
 7532SOL     OW23494   4.606   5.465   6.519
 7532SOL    HW123495   4.683   5.445   6.581
 7532SOL    HW223496   4.602   5.563   6.501
 7533SOL     OW23497   4.385   4.339   1.485
 7533SOL    HW123498   4.294   4.309   1.455
 7533SOL    HW223499   4.377   4.381   1.576
 7534SOL     OW23500   3.876   6.689   4.643
 7534SOL    HW123501   3.934   6.770   4.644
 7534SOL    HW223502   3.783   6.714   4.670
 7535SOL     OW23503   0.535   6.761   4.208
 7535SOL    HW123504   0.561   6.668   4.182
 7535SOL    HW223505   0.440   6.778   4.185
 7536SOL     OW23506   5.749   6.108   4.523
 7536SOL    HW123507   5.675   6.142   4.581
 7536SOL    HW223508   5.739   6.009   4.511
 7537SOL     OW23509   2.776   6.537   2.944
 7537SOL    HW123510   2.796   6.628   2.909
 7537SOL    HW223511   2.694   6.541   3.002
 7538SOL     OW23512   0.393   3.698   0.584
 7538SOL    HW123513   0.337   3.759   0.528
 7538SOL    HW223514   0.343   3.675   0.668
 7539SOL     OW23515   6.930   0.420   4.600
 7539SOL    HW123516   6.915   0.458   4.691
 7539SOL    HW223517   0.001   0.382   4.595
 7540SOL     OW23518   6.152   5.632   3.106
 7540SOL    HW123519   6.186   5.671   3.020
 7540SOL    HW223520   6.053   5.644   3.111
 7541SOL     OW23521   2.630   4.041   5.919
 7541SOL    HW123522   2.587   4.102   5.852
 7541SOL    HW223523   2.671   3.963   5.872
 7542SOL     OW23524   6.133   5.570   4.867
 7542SOL    HW123525   6.082   5.646   4.827
 7542SOL    HW223526   6.101   5.483   4.828
 7543SOL     OW23527   2.487   0.817   6.397
 7543SOL    HW123528   2.523   0.724   6.388
 7543SOL    HW223529   2.560   0.877   6.430
 7544SOL     OW23530   6.582   1.864   4.044
 7544SOL    HW123531   6.580   1.770   4.078
 7544SOL    HW223532   6.677   1.892   4.031
 7545SOL     OW23533   1.491   5.070   5.609
 7545SOL    HW123534   1.444   4.994   5.653
 7545SOL    HW223535   1.522   5.043   5.518
 7546SOL     OW23536   2.335   2.846   1.818
 7546SOL    HW123537   2.241   2.841   1.783
 7546SOL    HW223538   2.395   2.878   1.746
 7547SOL     OW23539   4.334   0.607   1.571
 7547SOL    HW123540   4.426   0.630   1.603
 7547SOL    HW223541   4.338   0.522   1.518
 7548SOL     OW23542   3.480   2.993   6.238
 7548SOL    HW123543   3.500   2.895   6.231
 7548SOL    HW223544   3.559   3.041   6.276
 7549SOL     OW23545   5.241   1.528   4.243
 7549SOL    HW123546   5.148   1.560   4.265
 7549SOL    HW223547   5.295   1.526   4.327
 7550SOL     OW23548   2.619   4.807   4.148
 7550SOL    HW123549   2.681   4.882   4.123
 7550SOL    HW223550   2.659   4.754   4.222
 7551SOL     OW23551   6.579   2.536   6.276
 7551SOL    HW123552   6.669   2.568   6.305
 7551SOL    HW223553   6.542   2.598   6.207
 7552SOL     OW23554   2.379   6.819   5.032
 7552SOL    HW123555   2.333   6.841   4.946
 7552SOL    HW223556   2.470   6.861   5.033
 7553SOL     OW23557   5.409   6.228   5.412
 7553SOL    HW123558   5.480   6.297   5.427
 7553SOL    HW223559   5.352   6.255   5.335
 7554SOL     OW23560   4.830   0.679   0.792
 7554SOL    HW123561   4.843   0.726   0.879
 7554SOL    HW223562   4.783   0.592   0.808
 7555SOL     OW23563   4.244   5.524   4.839
 7555SOL    HW123564   4.245   5.506   4.740
 7555SOL    HW223565   4.258   5.438   4.888
 7556SOL     OW23566   0.586   6.543   1.761
 7556SOL    HW123567   0.587   6.507   1.667
 7556SOL    HW223568   0.650   6.620   1.767
 7557SOL     OW23569   5.097   0.369   0.714
 7557SOL    HW123570   5.164   0.308   0.758
 7557SOL    HW223571   5.143   0.452   0.683
 7558SOL     OW23572   0.980   1.753   4.014
 7558SOL    HW123573   0.964   1.662   4.053
 7558SOL    HW223574   1.076   1.761   3.988
 7559SOL     OW23575   2.769   1.883   5.001
 7559SOL    HW123576   2.791   1.928   5.088
 7559SOL    HW223577   2.854   1.860   4.953
 7560SOL     OW23578   1.030   1.690   6.129
 7560SOL    HW123579   1.078   1.758   6.074
 7560SOL    HW223580   1.082   1.671   6.212
 7561SOL     OW23581   6.266   1.390   5.192
 7561SOL    HW123582   6.225   1.346   5.272
 7561SOL    HW223583   6.195   1.410   5.124
 7562SOL     OW23584   2.165   6.195   3.478
 7562SOL    HW123585   2.222   6.120   3.446
 7562SOL    HW223586   2.140   6.180   3.574
 7563SOL     OW23587   3.698   5.367   2.251
 7563SOL    HW123588   3.662   5.399   2.164
 7563SOL    HW223589   3.727   5.445   2.306
 7564SOL     OW23590   3.310   2.041   5.357
 7564SOL    HW123591   3.223   2.071   5.318
 7564SOL    HW223592   3.374   2.020   5.283
 7565SOL     OW23593   6.407   4.101   6.066
 7565SOL    HW123594   6.396   4.148   5.979
 7565SOL    HW223595   6.323   4.110   6.120
 7566SOL     OW23596   4.470   4.739   1.222
 7566SOL    HW123597   4.383   4.712   1.264
 7566SOL    HW223598   4.483   4.688   1.137
 7567SOL     OW23599   0.836   0.394   4.150
 7567SOL    HW123600   0.868   0.333   4.221
 7567SOL    HW223601   0.835   0.346   4.062
 7568SOL     OW23602   5.895   5.622   2.178
 7568SOL    HW123603   5.976   5.661   2.133
 7568SOL    HW223604   5.913   5.526   2.201
 7569SOL     OW23605   4.528   3.592   0.295
 7569SOL    HW123606   4.605   3.539   0.331
 7569SOL    HW223607   4.517   3.676   0.347
 7570SOL     OW23608   0.397   2.997   2.639
 7570SOL    HW123609   0.305   2.994   2.676
 7570SOL    HW223610   0.406   3.074   2.575
 7571SOL     OW23611   5.302   2.079   2.645
 7571SOL    HW123612   5.320   2.062   2.742
 7571SOL    HW223613   5.337   2.169   2.620
 7572SOL     OW23614   4.682   0.247   3.699
 7572SOL    HW123615   4.725   0.335   3.681
 7572SOL    HW223616   4.589   0.261   3.731
 7573SOL     OW23617   4.624   6.304   5.687
 7573SOL    HW123618   4.556   6.369   5.720
 7573SOL    HW223619   4.692   6.351   5.631
 7574SOL     OW23620   1.105   2.770   3.810
 7574SOL    HW123621   1.134   2.804   3.721
 7574SOL    HW223622   1.157   2.689   3.834
 7575SOL     OW23623   0.420   6.902   1.977
 7575SOL    HW123624   0.358   6.839   1.929
 7575SOL    HW223625   0.375   6.935   2.060
 7576SOL     OW23626   4.943   2.550   0.401
 7576SOL    HW123627   4.894   2.637   0.400
 7576SOL    HW223628   4.891   2.482   0.349
 7577SOL     OW23629   0.777   0.050   0.913
 7577SOL    HW123630   0.784   0.131   0.971
 7577SOL    HW223631   0.733   0.074   0.826
 7578SOL     OW23632   6.615   6.001   3.218
 7578SOL    HW123633   6.643   6.091   3.184
 7578SOL    HW223634   6.531   5.973   3.172
 7579SOL     OW23635   0.611   1.228   6.924
 7579SOL    HW123636   0.620   1.139   6.968
 7579SOL    HW223637   0.570   1.293   6.988
 7580SOL     OW23638   2.434   5.150   3.473
 7580SOL    HW123639   2.485   5.070   3.504
 7580SOL    HW223640   2.337   5.139   3.496
 7581SOL     OW23641   6.773   0.804   2.519
 7581SOL    HW123642   6.791   0.880   2.456
 7581SOL    HW223643   6.838   0.730   2.500
 7582SOL     OW23644   2.566   1.608   6.005
 7582SOL    HW123645   2.521   1.683   6.054
 7582SOL    HW223646   2.665   1.616   6.017
 7583SOL     OW23647   5.100   2.982   3.043
 7583SOL    HW123648   5.157   2.906   3.012
 7583SOL    HW223649   5.127   3.008   3.136
 7584SOL     OW23650   0.534   0.849   3.228
 7584SOL    HW123651   0.523   0.779   3.298
 7584SOL    HW223652   0.631   0.862   3.209
 7585SOL     OW23653   1.013   1.433   6.589
 7585SOL    HW123654   1.034   1.423   6.686
 7585SOL    HW223655   1.008   1.530   6.565
 7586SOL     OW23656   1.841   0.639   2.394
 7586SOL    HW123657   1.761   0.698   2.407
 7586SOL    HW223658   1.923   0.687   2.425
 7587SOL     OW23659   4.045   0.365   0.605
 7587SOL    HW123660   4.060   0.321   0.516
 7587SOL    HW223661   4.121   0.342   0.666
 7588SOL     OW23662   2.417   2.702   4.280
 7588SOL    HW123663   2.472   2.684   4.361
 7588SOL    HW223664   2.451   2.648   4.203
 7589SOL     OW23665   0.550   0.417   2.696
 7589SOL    HW123666   0.475   0.373   2.647
 7589SOL    HW223667   0.558   0.512   2.667
 7590SOL     OW23668   6.872   0.780   0.008
 7590SOL    HW123669   6.836   0.743   6.945
 7590SOL    HW223670   6.854   0.878   0.013
 7591SOL     OW23671   3.803   3.116   4.436
 7591SOL    HW123672   3.867   3.095   4.510
 7591SOL    HW223673   3.715   3.145   4.476
 7592SOL     OW23674   6.501   6.404   4.376
 7592SOL    HW123675   6.508   6.439   4.470
 7592SOL    HW223676   6.590   6.411   4.332
 7593SOL     OW23677   0.814   1.343   5.785
 7593SOL    HW123678   0.783   1.307   5.697
 7593SOL    HW223679   0.847   1.437   5.773
 7594SOL     OW23680   0.483   4.311   0.196
 7594SOL    HW123681   0.519   4.237   0.140
 7594SOL    HW223682   0.383   4.301   0.203
 7595SOL     OW23683   1.238   3.584   6.582
 7595SOL    HW123684   1.160   3.534   6.544
 7595SOL    HW223685   1.321   3.558   6.534
 7596SOL     OW23686   3.110   1.302   5.894
 7596SOL    HW123687   3.181   1.368   5.868
 7596SOL    HW223688   3.064   1.334   5.977
 7597SOL     OW23689   1.454   4.375   1.680
 7597SOL    HW123690   1.477   4.302   1.616
 7597SOL    HW223691   1.366   4.355   1.724
 7598SOL     OW23692   6.279   0.861   2.414
 7598SOL    HW123693   6.244   0.878   2.506
 7598SOL    HW223694   6.348   0.930   2.391
 7599SOL     OW23695   3.298   3.874   1.151
 7599SOL    HW123696   3.268   3.915   1.237
 7599SOL    HW223697   3.219   3.864   1.090
 7600SOL     OW23698   1.616   6.565   4.264
 7600SOL    HW123699   1.587   6.568   4.169
 7600SOL    HW223700   1.687   6.635   4.280
 7601SOL     OW23701   3.217   6.477   2.073
 7601SOL    HW123702   3.262   6.422   2.144
 7601SOL    HW223703   3.284   6.538   2.031
 7602SOL     OW23704   0.098   1.920   0.408
 7602SOL    HW123705   0.177   1.867   0.378
 7602SOL    HW223706   0.128   2.001   0.458
 7603SOL     OW23707   3.881   6.699   6.042
 7603SOL    HW123708   3.803   6.708   6.104
 7603SOL    HW223709   3.930   6.614   6.062
 7604SOL     OW23710   0.713   2.347   5.246
 7604SOL    HW123711   0.724   2.337   5.345
 7604SOL    HW223712   0.683   2.260   5.207
 7605SOL     OW23713   2.332   6.196   6.957
 7605SOL    HW123714   2.312   6.124   6.890
 7605SOL    HW223715   2.422   6.236   6.936
 7606SOL     OW23716   6.522   1.134   2.829
 7606SOL    HW123717   6.577   1.183   2.762
 7606SOL    HW223718   6.564   1.046   2.850
 7607SOL     OW23719   1.579   6.250   5.721
 7607SOL    HW123720   1.641   6.326   5.701
 7607SOL    HW223721   1.594   6.219   5.815
 7608SOL     OW23722   5.527   2.085   6.503
 7608SOL    HW123723   5.571   2.124   6.584
 7608SOL    HW223724   5.430   2.110   6.503
 7609SOL     OW23725   1.650   1.779   4.803
 7609SOL    HW123726   1.646   1.877   4.784
 7609SOL    HW223727   1.562   1.737   4.784
 7610SOL     OW23728   4.090   5.247   4.188
 7610SOL    HW123729   4.022   5.195   4.241
 7610SOL    HW223730   4.167   5.272   4.248
 7611SOL     OW23731   4.853   2.878   0.250
 7611SOL    HW123732   4.951   2.883   0.268
 7611SOL    HW223733   4.803   2.875   0.336
 7612SOL     OW23734   3.953   1.782   3.703
 7612SOL    HW123735   3.901   1.862   3.674
 7612SOL    HW223736   3.897   1.700   3.693
 7613SOL     OW23737   0.825   1.323   0.929
 7613SOL    HW123738   0.832   1.423   0.928
 7613SOL    HW223739   0.824   1.291   1.024
 7614SOL     OW23740   5.171   3.856   0.282
 7614SOL    HW123741   5.085   3.807   0.296
 7614SOL    HW223742   5.213   3.826   0.196
 7615SOL     OW23743   5.670   3.537   4.948
 7615SOL    HW123744   5.696   3.456   4.896
 7615SOL    HW223745   5.687   3.522   5.045
 7616SOL     OW23746   6.019   0.397   3.349
 7616SOL    HW123747   6.000   0.419   3.253
 7616SOL    HW223748   6.104   0.441   3.377
 7617SOL     OW23749   6.311   4.111   3.449
 7617SOL    HW123750   6.342   4.120   3.544
 7617SOL    HW223751   6.223   4.158   3.438
 7618SOL     OW23752   2.249   2.877   0.602
 7618SOL    HW123753   2.168   2.880   0.660
 7618SOL    HW223754   2.331   2.869   0.658
 7619SOL     OW23755   1.373   1.633   4.493
 7619SOL    HW123756   1.343   1.713   4.440
 7619SOL    HW223757   1.397   1.662   4.585
 7620SOL     OW23758   3.985   4.167   0.595
 7620SOL    HW123759   4.022   4.181   0.503
 7620SOL    HW223760   4.040   4.219   0.661
 7621SOL     OW23761   6.271   4.038   6.853
 7621SOL    HW123762   6.301   4.010   6.944
 7621SOL    HW223763   6.245   3.958   6.800
 7622SOL     OW23764   3.295   4.003   1.376
 7622SOL    HW123765   3.347   4.081   1.411
 7622SOL    HW223766   3.201   4.007   1.412
 7623SOL     OW23767   5.206   4.524   1.622
 7623SOL    HW123768   5.149   4.606   1.623
 7623SOL    HW223769   5.154   4.447   1.585
 7624SOL     OW23770   1.222   3.453   2.670
 7624SOL    HW123771   1.233   3.472   2.573
 7624SOL    HW223772   1.166   3.371   2.683
 7625SOL     OW23773   5.429   0.727   1.595
 7625SOL    HW123774   5.422   0.802   1.661
 7625SOL    HW223775   5.338   0.690   1.578
 7626SOL     OW23776   4.271   0.560   5.973
 7626SOL    HW123777   4.305   0.467   5.989
 7626SOL    HW223778   4.318   0.624   6.035
 7627SOL     OW23779   3.824   2.825   6.595
 7627SOL    HW123780   3.848   2.921   6.614
 7627SOL    HW223781   3.797   2.816   6.499
 7628SOL     OW23782   3.277   2.747   0.201
 7628SOL    HW123783   3.274   2.842   0.235
 7628SOL    HW223784   3.188   2.704   0.217
 7629SOL     OW23785   5.980   2.500   2.768
 7629SOL    HW123786   5.905   2.441   2.799
 7629SOL    HW223787   5.949   2.595   2.765
 7630SOL     OW23788   0.836   6.589   4.675
 7630SOL    HW123789   0.908   6.633   4.729
 7630SOL    HW223790   0.867   6.499   4.645
 7631SOL     OW23791   0.957   0.270   5.818
 7631SOL    HW123792   0.904   0.201   5.869
 7631SOL    HW223793   0.894   0.332   5.772
 7632SOL     OW23794   4.295   5.974   0.175
 7632SOL    HW123795   4.390   5.981   0.146
 7632SOL    HW223796   4.286   6.005   0.270
 7633SOL     OW23797   6.521   1.063   1.105
 7633SOL    HW123798   6.524   1.115   1.019
 7633SOL    HW223799   6.574   0.979   1.095
 7634SOL     OW23800   6.900   2.707   0.057
 7634SOL    HW123801   6.988   2.659   0.048
 7634SOL    HW223802   6.835   2.647   0.103
 7635SOL     OW23803   2.368   3.633   5.837
 7635SOL    HW123804   2.446   3.589   5.882
 7635SOL    HW223805   2.385   3.639   5.739
 7636SOL     OW23806   6.975   3.879   4.270
 7636SOL    HW123807   0.041   3.924   4.287
 7636SOL    HW223808   6.990   3.793   4.222
 7637SOL     OW23809   1.272   5.251   4.678
 7637SOL    HW123810   1.328   5.222   4.756
 7637SOL    HW223811   1.253   5.173   4.620
 7638SOL     OW23812   0.268   6.080   1.139
 7638SOL    HW123813   0.327   6.098   1.218
 7638SOL    HW223814   0.314   6.112   1.055
 7639SOL     OW23815   1.399   0.767   0.230
 7639SOL    HW123816   1.495   0.762   0.258
 7639SOL    HW223817   1.344   0.801   0.307
 7640SOL     OW23818   3.255   1.138   0.873
 7640SOL    HW123819   3.301   1.223   0.899
 7640SOL    HW223820   3.164   1.136   0.914
 7641SOL     OW23821   0.115   3.826   3.632
 7641SOL    HW123822   0.097   3.921   3.609
 7641SOL    HW223823   0.212   3.807   3.622
 7642SOL     OW23824   5.863   1.113   3.065
 7642SOL    HW123825   5.855   1.112   2.965
 7642SOL    HW223826   5.825   1.029   3.102
 7643SOL     OW23827   5.172   3.548   3.927
 7643SOL    HW123828   5.231   3.508   3.998
 7643SOL    HW223829   5.138   3.475   3.867
 7644SOL     OW23830   5.491   3.928   1.396
 7644SOL    HW123831   5.535   3.909   1.484
 7644SOL    HW223832   5.545   3.994   1.345
 7645SOL     OW23833   3.535   5.005   6.765
 7645SOL    HW123834   3.540   4.908   6.792
 7645SOL    HW223835   3.594   5.059   6.826
 7646SOL     OW23836   6.167   1.438   0.168
 7646SOL    HW123837   6.224   1.520   0.162
 7646SOL    HW223838   6.072   1.461   0.145
 7647SOL     OW23839   0.077   2.128   4.102
 7647SOL    HW123840   0.021   2.119   4.185
 7647SOL    HW223841   0.173   2.111   4.125
 7648SOL     OW23842   2.413   2.165   1.818
 7648SOL    HW123843   2.501   2.177   1.864
 7648SOL    HW223844   2.359   2.098   1.869
 7649SOL     OW23845   3.694   1.048   6.374
 7649SOL    HW123846   3.723   0.956   6.402
 7649SOL    HW223847   3.750   1.116   6.421
 7650SOL     OW23848   3.967   2.588   0.589
 7650SOL    HW123849   4.014   2.541   0.664
 7650SOL    HW223850   3.873   2.557   0.584
 7651SOL     OW23851   3.256   4.850   6.470
 7651SOL    HW123852   3.252   4.798   6.555
 7651SOL    HW223853   3.276   4.946   6.491
 7652SOL     OW23854   1.462   0.576   3.954
 7652SOL    HW123855   1.437   0.528   4.038
 7652SOL    HW223856   1.556   0.554   3.930
 7653SOL     OW23857   1.742   0.984   6.419
 7653SOL    HW123858   1.696   0.985   6.330
 7653SOL    HW223859   1.677   0.955   6.489
 7654SOL     OW23860   5.990   1.849   5.994
 7654SOL    HW123861   6.003   1.851   6.094
 7654SOL    HW223862   5.999   1.942   5.958
 7655SOL     OW23863   3.418   1.419   3.427
 7655SOL    HW123864   3.352   1.419   3.503
 7655SOL    HW223865   3.387   1.482   3.356
 7656SOL     OW23866   6.698   3.731   6.858
 7656SOL    HW123867   6.718   3.781   6.774
 7656SOL    HW223868   6.601   3.741   6.880
 7657SOL     OW23869   1.079   4.427   4.791
 7657SOL    HW123870   1.081   4.512   4.845
 7657SOL    HW223871   0.985   4.391   4.790
 7658SOL     OW23872   2.377   0.788   1.144
 7658SOL    HW123873   2.423   0.777   1.056
 7658SOL    HW223874   2.369   0.886   1.164
 7659SOL     OW23875   4.540   3.941   5.597
 7659SOL    HW123876   4.545   3.841   5.599
 7659SOL    HW223877   4.601   3.977   5.527
 7660SOL     OW23878   6.879   5.110   5.321
 7660SOL    HW123879   6.784   5.130   5.297
 7660SOL    HW223880   6.914   5.037   5.263
 7661SOL     OW23881   3.859   1.472   5.295
 7661SOL    HW123882   3.878   1.379   5.263
 7661SOL    HW223883   3.801   1.519   5.228
 7662SOL     OW23884   6.766   6.403   1.120
 7662SOL    HW123885   6.855   6.367   1.093
 7662SOL    HW223886   6.718   6.335   1.175
 7663SOL     OW23887   0.295   5.551   5.077
 7663SOL    HW123888   0.379   5.547   5.023
 7663SOL    HW223889   0.281   5.464   5.124
 7664SOL     OW23890   3.718   2.078   2.262
 7664SOL    HW123891   3.718   2.129   2.176
 7664SOL    HW223892   3.794   2.109   2.319
 7665SOL     OW23893   3.609   0.338   5.566
 7665SOL    HW123894   3.616   0.412   5.633
 7665SOL    HW223895   3.529   0.282   5.586
 7666SOL     OW23896   5.149   4.369   3.320
 7666SOL    HW123897   5.225   4.426   3.288
 7666SOL    HW223898   5.113   4.407   3.405
 7667SOL     OW23899   4.179   5.988   2.706
 7667SOL    HW123900   4.158   5.973   2.610
 7667SOL    HW223901   4.239   6.067   2.715
 7668SOL     OW23902   2.358   5.645   0.705
 7668SOL    HW123903   2.311   5.604   0.627
 7668SOL    HW223904   2.305   5.627   0.789
 7669SOL     OW23905   2.331   0.994   6.632
 7669SOL    HW123906   2.316   0.944   6.547
 7669SOL    HW223907   2.266   0.964   6.701
 7670SOL     OW23908   0.767   0.294   1.102
 7670SOL    HW123909   0.839   0.259   1.161
 7670SOL    HW223910   0.682   0.301   1.154
 7671SOL     OW23911   3.434   0.006   0.598
 7671SOL    HW123912   3.492   0.035   0.522
 7671SOL    HW223913   3.339   7.019   0.568
 7672SOL     OW23914   4.904   4.449   2.281
 7672SOL    HW123915   4.882   4.526   2.221
 7672SOL    HW223916   4.999   4.421   2.266
 7673SOL     OW23917   1.798   6.730   4.425
 7673SOL    HW123918   1.898   6.727   4.420
 7673SOL    HW223919   1.769   6.707   4.518
 7674SOL     OW23920   4.795   6.035   4.860
 7674SOL    HW123921   4.876   6.063   4.913
 7674SOL    HW223922   4.736   5.978   4.918
 7675SOL     OW23923   4.905   6.125   3.236
 7675SOL    HW123924   4.818   6.131   3.187
 7675SOL    HW223925   4.962   6.204   3.212
 7676SOL     OW23926   3.677   2.937   5.413
 7676SOL    HW123927   3.620   3.019   5.425
 7676SOL    HW223928   3.729   2.945   5.328
 7677SOL     OW23929   6.264   4.739   0.185
 7677SOL    HW123930   6.341   4.775   0.131
 7677SOL    HW223931   6.204   4.687   0.125
 7678SOL     OW23932   2.266   1.083   5.260
 7678SOL    HW123933   2.363   1.082   5.283
 7678SOL    HW223934   2.212   1.098   5.343
 7679SOL     OW23935   3.665   5.872   5.208
 7679SOL    HW123936   3.582   5.820   5.185
 7679SOL    HW223937   3.730   5.866   5.133
 7680SOL     OW23938   1.975   6.981   4.080
 7680SOL    HW123939   2.026   0.036   4.118
 7680SOL    HW223940   2.022   6.895   4.101
 7681SOL     OW23941   2.553   3.212   6.013
 7681SOL    HW123942   2.551   3.132   6.072
 7681SOL    HW223943   2.510   3.289   6.060
 7682SOL     OW23944   3.332   0.836   2.599
 7682SOL    HW123945   3.264   0.909   2.600
 7682SOL    HW223946   3.382   0.835   2.686
 7683SOL     OW23947   0.388   5.048   4.457
 7683SOL    HW123948   0.345   5.083   4.374
 7683SOL    HW223949   0.460   4.983   4.432
 7684SOL     OW23950   4.867   3.314   1.405
 7684SOL    HW123951   4.891   3.347   1.496
 7684SOL    HW223952   4.935   3.248   1.374
 7685SOL     OW23953   2.794   0.265   0.773
 7685SOL    HW123954   2.854   0.339   0.805
 7685SOL    HW223955   2.698   0.291   0.788
 7686SOL     OW23956   6.580   6.829   5.216
 7686SOL    HW123957   6.667   6.872   5.192
 7686SOL    HW223958   6.550   6.770   5.141
 7687SOL     OW23959   5.442   4.381   6.157
 7687SOL    HW123960   5.488   4.432   6.084
 7687SOL    HW223961   5.343   4.384   6.142
 7688SOL     OW23962   6.997   3.965   6.525
 7688SOL    HW123963   6.957   3.936   6.438
 7688SOL    HW223964   0.012   4.058   6.516
 7689SOL     OW23965   4.522   0.998   1.681
 7689SOL    HW123966   4.549   0.912   1.638
 7689SOL    HW223967   4.595   1.065   1.669
 7690SOL     OW23968   5.653   5.433   1.889
 7690SOL    HW123969   5.640   5.414   1.986
 7690SOL    HW223970   5.702   5.519   1.878
 7691SOL     OW23971   4.908   3.231   3.727
 7691SOL    HW123972   4.830   3.198   3.780
 7691SOL    HW223973   4.905   3.191   3.635
 7692SOL     OW23974   3.097   6.909   2.481
 7692SOL    HW123975   3.093   6.850   2.401
 7692SOL    HW223976   3.126   7.000   2.453
 7693SOL     OW23977   2.836   0.694   1.777
 7693SOL    HW123978   2.766   0.756   1.741
 7693SOL    HW223979   2.859   0.721   1.871
 7694SOL     OW23980   4.687   1.304   5.605
 7694SOL    HW123981   4.599   1.339   5.637
 7694SOL    HW223982   4.760   1.364   5.637
 7695SOL     OW23983   4.408   0.098   3.686
 7695SOL    HW123984   4.405   0.133   3.592
 7695SOL    HW223985   4.482   0.030   3.693
 7696SOL     OW23986   1.886   2.916   5.919
 7696SOL    HW123987   1.899   2.899   6.017
 7696SOL    HW223988   1.962   2.874   5.868
 7697SOL     OW23989   4.978   0.122   3.426
 7697SOL    HW123990   4.888   0.109   3.468
 7697SOL    HW223991   5.004   0.218   3.431
 7698SOL     OW23992   6.131   3.106   1.018
 7698SOL    HW123993   6.050   3.099   0.960
 7698SOL    HW223994   6.140   3.023   1.073
 7699SOL     OW23995   4.960   5.917   5.859
 7699SOL    HW123996   4.866   5.885   5.856
 7699SOL    HW223997   5.020   5.844   5.891
 7700SOL     OW23998   5.093   6.232   2.280
 7700SOL    HW123999   5.007   6.200   2.320
 7700SOL    HW224000   5.110   6.181   2.195
 7701SOL     OW24001   1.495   2.440   5.982
 7701SOL    HW124002   1.410   2.488   5.958
 7701SOL    HW224003   1.525   2.467   6.073
 7702SOL     OW24004   4.759   0.032   4.395
 7702SOL    HW124005   4.858   0.022   4.403
 7702SOL    HW224006   4.734   0.126   4.417
 7703SOL     OW24007   6.922   6.901   5.707
 7703SOL    HW124008   6.932   6.909   5.806
 7703SOL    HW224009   6.825   6.898   5.683
 7704SOL     OW24010   1.102   1.690   4.700
 7704SOL    HW124011   1.055   1.618   4.649
 7704SOL    HW224012   1.047   1.715   4.779
 7705SOL     OW24013   1.378   5.125   6.795
 7705SOL    HW124014   1.394   5.220   6.767
 7705SOL    HW224015   1.463   5.086   6.829
 7706SOL     OW24016   3.695   2.881   2.689
 7706SOL    HW124017   3.729   2.863   2.597
 7706SOL    HW224018   3.595   2.874   2.690
 7707SOL     OW24019   0.070   4.015   0.169
 7707SOL    HW124020   0.118   4.037   0.084
 7707SOL    HW224021   0.100   3.925   0.201
 7708SOL     OW24022   1.998   1.025   3.965
 7708SOL    HW124023   2.032   1.118   3.951
 7708SOL    HW224024   1.940   1.000   3.887
 7709SOL     OW24025   0.056   4.885   1.233
 7709SOL    HW124026   7.007   4.835   1.182
 7709SOL    HW224027   0.051   4.860   1.330
 7710SOL     OW24028   6.855   2.717   0.823
 7710SOL    HW124029   6.802   2.644   0.867
 7710SOL    HW224030   6.941   2.679   0.789
 7711SOL     OW24031   0.255   4.734   4.569
 7711SOL    HW124032   0.177   4.682   4.533
 7711SOL    HW224033   0.260   4.722   4.668
 7712SOL     OW24034   0.164   5.306   5.576
 7712SOL    HW124035   0.146   5.389   5.525
 7712SOL    HW224036   0.235   5.323   5.645
 7713SOL     OW24037   1.327   4.150   0.208
 7713SOL    HW124038   1.239   4.102   0.218
 7713SOL    HW224039   1.337   4.181   0.114
 7714SOL     OW24040   6.484   2.211   4.885
 7714SOL    HW124041   6.410   2.147   4.867
 7714SOL    HW224042   6.560   2.192   4.823
 7715SOL     OW24043   3.951   3.448   5.281
 7715SOL    HW124044   3.906   3.442   5.370
 7715SOL    HW224045   3.986   3.541   5.268
 7716SOL     OW24046   1.009   6.437   6.262
 7716SOL    HW124047   0.923   6.461   6.307
 7716SOL    HW224048   1.025   6.499   6.185
 7717SOL     OW24049   6.985   2.408   6.405
 7717SOL    HW124050   6.929   2.336   6.446
 7717SOL    HW224051   0.059   2.378   6.401
 7718SOL     OW24052   0.984   3.627   3.045
 7718SOL    HW124053   1.044   3.707   3.053
 7718SOL    HW224054   1.007   3.562   3.117
 7719SOL     OW24055   1.616   5.517   4.887
 7719SOL    HW124056   1.544   5.494   4.953
 7719SOL    HW224057   1.602   5.464   4.803
 7720SOL     OW24058   4.746   1.158   6.551
 7720SOL    HW124059   4.740   1.257   6.566
 7720SOL    HW224060   4.831   1.137   6.504
 7721SOL     OW24061   0.156   6.851   2.584
 7721SOL    HW124062   0.209   6.932   2.562
 7721SOL    HW224063   0.067   6.855   2.539
 7722SOL     OW24064   1.053   5.711   3.846
 7722SOL    HW124065   1.079   5.635   3.906
 7722SOL    HW224066   0.954   5.720   3.845
 7723SOL     OW24067   4.884   3.467   6.829
 7723SOL    HW124068   4.877   3.396   6.899
 7723SOL    HW224069   4.963   3.525   6.848
 7724SOL     OW24070   1.801   3.499   0.987
 7724SOL    HW124071   1.779   3.597   0.990
 7724SOL    HW224072   1.848   3.473   1.072
 7725SOL     OW24073   5.547   2.727   4.265
 7725SOL    HW124074   5.483   2.723   4.342
 7725SOL    HW224075   5.619   2.660   4.278
 7726SOL     OW24076   1.321   3.016   6.063
 7726SOL    HW124077   1.394   2.965   6.110
 7726SOL    HW224078   1.334   3.010   5.964
 7727SOL     OW24079   3.997   1.026   2.093
 7727SOL    HW124080   3.932   0.991   2.160
 7727SOL    HW224081   3.949   1.043   2.007
 7728SOL     OW24082   2.249   4.098   4.487
 7728SOL    HW124083   2.229   4.093   4.585
 7728SOL    HW224084   2.306   4.178   4.468
 7729SOL     OW24085   6.443   1.395   2.952
 7729SOL    HW124086   6.492   1.317   2.912
 7729SOL    HW224087   6.495   1.432   3.029
 7730SOL     OW24088   6.726   4.497   4.915
 7730SOL    HW124089   6.682   4.517   5.003
 7730SOL    HW224090   6.719   4.576   4.855
 7731SOL     OW24091   6.719   6.760   6.293
 7731SOL    HW124092   6.716   6.702   6.211
 7731SOL    HW224093   6.810   6.754   6.334
 7732SOL     OW24094   3.749   0.155   6.441
 7732SOL    HW124095   3.760   0.068   6.393
 7732SOL    HW224096   3.750   0.138   6.540
 7733SOL     OW24097   6.612   5.497   1.522
 7733SOL    HW124098   6.694   5.551   1.506
 7733SOL    HW224099   6.634   5.418   1.580
 7734SOL     OW24100   3.466   3.963   3.985
 7734SOL    HW124101   3.379   3.959   4.034
 7734SOL    HW224102   3.486   3.873   3.947
 7735SOL     OW24103   0.652   6.577   1.133
 7735SOL    HW124104   0.558   6.549   1.148
 7735SOL    HW224105   0.655   6.648   1.063
 7736SOL     OW24106   1.140   2.936   6.828
 7736SOL    HW124107   1.161   2.990   6.746
 7736SOL    HW224108   1.180   2.981   6.908
 7737SOL     OW24109   4.540   4.162   0.204
 7737SOL    HW124110   4.629   4.190   0.168
 7737SOL    HW224111   4.467   4.202   0.148
 7738SOL     OW24112   2.268   0.405   5.149
 7738SOL    HW124113   2.240   0.484   5.095
 7738SOL    HW224114   2.345   0.431   5.208
 7739SOL     OW24115   1.926   1.835   0.713
 7739SOL    HW124116   1.919   1.781   0.797
 7739SOL    HW224117   1.944   1.931   0.736
 7740SOL     OW24118   1.898   0.483   4.832
 7740SOL    HW124119   1.918   0.407   4.894
 7740SOL    HW224120   1.950   0.564   4.861
 7741SOL     OW24121   0.636   4.670   6.125
 7741SOL    HW124122   0.647   4.763   6.159
 7741SOL    HW224123   0.709   4.650   6.060
 7742SOL     OW24124   4.598   2.128   3.830
 7742SOL    HW124125   4.594   2.030   3.850
 7742SOL    HW224126   4.550   2.179   3.901
 7743SOL     OW24127   4.120   2.016   5.912
 7743SOL    HW124128   4.136   1.938   5.972
 7743SOL    HW224129   4.128   2.101   5.964
 7744SOL     OW24130   1.442   6.777   4.616
 7744SOL    HW124131   1.400   6.838   4.548
 7744SOL    HW224132   1.506   6.830   4.672
 7745SOL     OW24133   3.237   6.906   0.961
 7745SOL    HW124134   3.312   6.841   0.958
 7745SOL    HW224135   3.156   6.865   0.919
 7746SOL     OW24136   0.863   5.684   1.321
 7746SOL    HW124137   0.860   5.590   1.287
 7746SOL    HW224138   0.797   5.694   1.396
 7747SOL     OW24139   0.531   5.718   1.204
 7747SOL    HW124140   0.553   5.621   1.197
 7747SOL    HW224141   0.585   5.770   1.137
 7748SOL     OW24142   4.562   2.230   6.095
 7748SOL    HW124143   4.563   2.131   6.112
 7748SOL    HW224144   4.538   2.278   6.179
 7749SOL     OW24145   3.927   3.973   3.703
 7749SOL    HW124146   3.833   3.999   3.723
 7749SOL    HW224147   3.944   3.978   3.605
 7750SOL     OW24148   5.320   4.451   5.567
 7750SOL    HW124149   5.390   4.522   5.555
 7750SOL    HW224150   5.332   4.408   5.657
 7751SOL     OW24151   0.238   1.575   4.491
 7751SOL    HW124152   0.255   1.615   4.581
 7751SOL    HW224153   0.177   1.495   4.501
 7752SOL     OW24154   6.275   5.283   5.274
 7752SOL    HW124155   6.331   5.328   5.205
 7752SOL    HW224156   6.332   5.220   5.327
 7753SOL     OW24157   2.728   0.981   5.049
 7753SOL    HW124158   2.654   1.043   5.025
 7753SOL    HW224159   2.696   0.916   5.118
 7754SOL     OW24160   6.582   0.740   1.563
 7754SOL    HW124161   6.556   0.771   1.655
 7754SOL    HW224162   6.542   0.801   1.495
 7755SOL     OW24163   1.211   5.961   5.315
 7755SOL    HW124164   1.182   6.017   5.393
 7755SOL    HW224165   1.161   5.874   5.315
 7756SOL     OW24166   3.805   5.300   2.933
 7756SOL    HW124167   3.842   5.249   2.855
 7756SOL    HW224168   3.823   5.397   2.922
 7757SOL     OW24169   4.238   6.234   6.092
 7757SOL    HW124170   4.196   6.240   6.001
 7757SOL    HW224171   4.179   6.179   6.152
 7758SOL     OW24172   3.176   2.416   6.201
 7758SOL    HW124173   3.122   2.390   6.121
 7758SOL    HW224174   3.123   2.478   6.259
 7759SOL     OW24175   2.123   0.628   5.049
 7759SOL    HW124176   2.031   0.648   5.083
 7759SOL    HW224177   2.185   0.702   5.076
 7760SOL     OW24178   5.216   1.597   3.501
 7760SOL    HW124179   5.300   1.547   3.482
 7760SOL    HW224180   5.222   1.640   3.591
 7761SOL     OW24181   4.036   6.843   6.443
 7761SOL    HW124182   3.963   6.904   6.411
 7761SOL    HW224183   4.111   6.845   6.378
 7762SOL     OW24184   2.400   1.912   1.002
 7762SOL    HW124185   2.415   2.010   0.986
 7762SOL    HW224186   2.311   1.899   1.045
 7763SOL     OW24187   2.226   2.210   0.933
 7763SOL    HW124188   2.223   2.310   0.942
 7763SOL    HW224189   2.321   2.182   0.916
 7764SOL     OW24190   4.069   3.289   2.807
 7764SOL    HW124191   4.095   3.202   2.765
 7764SOL    HW224192   3.976   3.283   2.841
 7765SOL     OW24193   6.939   1.982   2.388
 7765SOL    HW124194   6.988   1.925   2.453
 7765SOL    HW224195   6.976   1.968   2.296
 7766SOL     OW24196   0.071   3.596   6.946
 7766SOL    HW124197   7.001   3.560   6.928
 7766SOL    HW224198   0.071   3.694   6.926
 7767SOL     OW24199   5.692   4.294   5.185
 7767SOL    HW124200   5.651   4.384   5.175
 7767SOL    HW224201   5.761   4.280   5.114
 7768SOL     OW24202   4.006   5.393   2.011
 7768SOL    HW124203   4.070   5.433   1.945
 7768SOL    HW224204   4.050   5.388   2.101
 7769SOL     OW24205   6.142   1.730   1.779
 7769SOL    HW124206   6.230   1.681   1.784
 7769SOL    HW224207   6.159   1.826   1.757
 7770SOL     OW24208   3.599   5.729   1.773
 7770SOL    HW124209   3.572   5.755   1.680
 7770SOL    HW224210   3.696   5.703   1.773
 7771SOL     OW24211   2.117   1.368   4.817
 7771SOL    HW124212   2.123   1.401   4.911
 7771SOL    HW224213   2.065   1.433   4.762
 7772SOL     OW24214   5.564   1.036   4.893
 7772SOL    HW124215   5.506   1.008   4.816
 7772SOL    HW224216   5.506   1.059   4.971
 7773SOL     OW24217   3.912   4.596   5.335
 7773SOL    HW124218   4.003   4.635   5.349
 7773SOL    HW224219   3.846   4.669   5.320
 7774SOL     OW24220   4.556   1.963   6.157
 7774SOL    HW124221   4.648   1.940   6.125
 7774SOL    HW224222   4.548   1.940   6.254
 7775SOL     OW24223   3.216   0.028   2.041
 7775SOL    HW124224   3.271   7.018   2.118
 7775SOL    HW224225   3.275   0.075   1.975
 7776SOL     OW24226   3.620   3.667   0.775
 7776SOL    HW124227   3.598   3.646   0.871
 7776SOL    HW224228   3.540   3.708   0.731
 7777SOL     OW24229   1.662   0.666   6.837
 7777SOL    HW124230   1.657   0.566   6.844
 7777SOL    HW224231   1.685   0.704   6.927
 7778SOL     OW24232   5.486   1.096   1.157
 7778SOL    HW124233   5.468   1.192   1.175
 7778SOL    HW224234   5.403   1.052   1.122
 7779SOL     OW24235   3.437   3.365   6.993
 7779SOL    HW124236   3.408   3.370   6.897
 7779SOL    HW224237   3.520   3.310   7.000
 7780SOL     OW24238   0.990   0.262   4.329
 7780SOL    HW124239   0.987   0.321   4.409
 7780SOL    HW224240   0.933   0.182   4.345
 7781SOL     OW24241   1.694   4.880   5.012
 7781SOL    HW124242   1.742   4.813   5.070
 7781SOL    HW224243   1.738   4.969   5.022
 7782SOL     OW24244   3.382   4.481   6.826
 7782SOL    HW124245   3.312   4.414   6.852
 7782SOL    HW224246   3.471   4.452   6.862
 7783SOL     OW24247   3.121   5.302   6.154
 7783SOL    HW124248   3.061   5.382   6.151
 7783SOL    HW224249   3.124   5.260   6.063
 7784SOL     OW24250   0.141   3.012   6.957
 7784SOL    HW124251   0.189   3.089   7.000
 7784SOL    HW224252   0.047   3.009   6.990
 7785SOL     OW24253   2.450   6.057   4.475
 7785SOL    HW124254   2.508   5.982   4.446
 7785SOL    HW224255   2.466   6.076   4.572
 7786SOL     OW24256   3.110   4.022   4.460
 7786SOL    HW124257   3.068   3.973   4.537
 7786SOL    HW224258   3.185   4.079   4.494
 7787SOL     OW24259   2.787   2.387   5.382
 7787SOL    HW124260   2.785   2.487   5.392
 7787SOL    HW224261   2.876   2.353   5.412
 7788SOL     OW24262   0.535   1.297   0.328
 7788SOL    HW124263   0.579   1.282   0.240
 7788SOL    HW224264   0.599   1.344   0.390
 7789SOL     OW24265   1.964   6.926   1.510
 7789SOL    HW124266   2.056   6.887   1.505
 7789SOL    HW224267   1.970   0.004   1.513
 7790SOL     OW24268   6.361   3.646   2.648
 7790SOL    HW124269   6.362   3.742   2.675
 7790SOL    HW224270   6.436   3.628   2.585
 7791SOL     OW24271   1.424   4.814   4.732
 7791SOL    HW124272   1.392   4.824   4.826
 7791SOL    HW224273   1.427   4.903   4.688
 7792SOL     OW24274   2.624   5.637   5.912
 7792SOL    HW124275   2.625   5.723   5.962
 7792SOL    HW224276   2.692   5.639   5.839
 7793SOL     OW24277   0.783   0.483   6.524
 7793SOL    HW124278   0.816   0.575   6.505
 7793SOL    HW224279   0.742   0.480   6.615
 7794SOL     OW24280   5.167   5.835   3.688
 7794SOL    HW124281   5.217   5.768   3.742
 7794SOL    HW224282   5.226   5.873   3.617
 7795SOL     OW24283   1.962   5.186   5.187
 7795SOL    HW124284   1.964   5.278   5.224
 7795SOL    HW224285   1.906   5.184   5.103
 7796SOL     OW24286   3.985   3.317   3.702
 7796SOL    HW124287   3.952   3.223   3.692
 7796SOL    HW224288   3.997   3.338   3.799
 7797SOL     OW24289   1.075   0.295   2.778
 7797SOL    HW124290   1.161   0.245   2.780
 7797SOL    HW224291   1.001   0.233   2.753
 7798SOL     OW24292   4.449   5.450   6.725
 7798SOL    HW124293   4.509   5.441   6.646
 7798SOL    HW224294   4.499   5.495   6.799
 7799SOL     OW24295   6.266   4.820   1.373
 7799SOL    HW124296   6.336   4.774   1.427
 7799SOL    HW224297   6.225   4.755   1.308
 7800SOL     OW24298   0.736   6.131   2.267
 7800SOL    HW124299   0.758   6.225   2.240
 7800SOL    HW224300   0.761   6.117   2.363
 7801SOL     OW24301   3.783   2.308   6.711
 7801SOL    HW124302   3.684   2.318   6.707
 7801SOL    HW224303   3.807   2.211   6.714
 7802SOL     OW24304   5.832   2.005   1.332
 7802SOL    HW124305   5.827   1.934   1.262
 7802SOL    HW224306   5.845   1.963   1.422
 7803SOL     OW24307   3.629   4.124   5.532
 7803SOL    HW124308   3.677   4.132   5.619
 7803SOL    HW224309   3.622   4.214   5.489
 7804SOL     OW24310   4.849   1.581   6.515
 7804SOL    HW124311   4.766   1.576   6.460
 7804SOL    HW224312   4.928   1.599   6.456
 7805SOL     OW24313   5.097   3.981   1.926
 7805SOL    HW124314   5.016   4.014   1.973
 7805SOL    HW224315   5.118   3.888   1.958
 7806SOL     OW24316   4.379   2.854   6.676
 7806SOL    HW124317   4.463   2.879   6.628
 7806SOL    HW224318   4.329   2.937   6.701
 7807SOL     OW24319   0.244   3.884   6.653
 7807SOL    HW124320   0.252   3.785   6.669
 7807SOL    HW224321   0.155   3.904   6.612
 7808SOL     OW24322   0.602   1.536   4.813
 7808SOL    HW124323   0.610   1.623   4.860
 7808SOL    HW224324   0.640   1.544   4.720
 7809SOL     OW24325   1.735   5.719   5.565
 7809SOL    HW124326   1.725   5.808   5.521
 7809SOL    HW224327   1.726   5.646   5.497
 7810SOL     OW24328   2.703   1.415   0.033
 7810SOL    HW124329   2.638   1.365   0.090
 7810SOL    HW224330   2.766   1.350   7.011
 7811SOL     OW24331   0.203   4.449   4.360
 7811SOL    HW124332   0.271   4.419   4.426
 7811SOL    HW224333   0.151   4.525   4.399
 7812SOL     OW24334   0.884   1.377   3.746
 7812SOL    HW124335   0.856   1.290   3.704
 7812SOL    HW224336   0.911   1.441   3.674
 7813SOL     OW24337   6.237   2.591   0.739
 7813SOL    HW124338   6.278   2.656   0.676
 7813SOL    HW224339   6.196   2.516   0.687
 7814SOL     OW24340   1.486   3.758   3.950
 7814SOL    HW124341   1.483   3.663   3.979
 7814SOL    HW224342   1.404   3.805   3.983
 7815SOL     OW24343   6.631   1.509   5.817
 7815SOL    HW124344   6.612   1.547   5.727
 7815SOL    HW224345   6.551   1.522   5.876
 7816SOL     OW24346   1.416   3.954   5.174
 7816SOL    HW124347   1.490   3.978   5.111
 7816SOL    HW224348   1.378   4.038   5.214
 7817SOL     OW24349   5.162   3.480   4.924
 7817SOL    HW124350   5.217   3.532   4.858
 7817SOL    HW224351   5.222   3.441   4.994
 7818SOL     OW24352   5.354   5.157   2.677
 7818SOL    HW124353   5.389   5.110   2.596
 7818SOL    HW224354   5.391   5.114   2.759
 7819SOL     OW24355   6.899   1.156   1.678
 7819SOL    HW124356   6.896   1.184   1.582
 7819SOL    HW224357   6.822   1.095   1.697
 7820SOL     OW24358   2.022   6.807   6.148
 7820SOL    HW124359   1.999   6.840   6.240
 7820SOL    HW224360   1.997   6.876   6.080
 7821SOL     OW24361   3.064   5.414   1.513
 7821SOL    HW124362   3.089   5.480   1.583
 7821SOL    HW224363   3.028   5.331   1.556
 7822SOL     OW24364   1.675   5.892   5.231
 7822SOL    HW124365   1.588   5.844   5.227
 7822SOL    HW224366   1.723   5.882   5.143
 7823SOL     OW24367   1.530   4.309   5.215
 7823SOL    HW124368   1.515   4.333   5.119
 7823SOL    HW224369   1.606   4.243   5.221
 7824SOL     OW24370   0.634   3.290   5.445
 7824SOL    HW124371   0.599   3.353   5.515
 7824SOL    HW224372   0.733   3.284   5.453
 7825SOL     OW24373   2.911   1.275   6.926
 7825SOL    HW124374   2.873   1.252   6.836
 7825SOL    HW224375   3.011   1.273   6.921
 7826SOL     OW24376   0.553   3.222   5.775
 7826SOL    HW124377   0.630   3.160   5.788
 7826SOL    HW224378   0.582   3.316   5.791
 7827SOL     OW24379   6.558   5.342   4.791
 7827SOL    HW124380   6.585   5.435   4.766
 7827SOL    HW224381   6.537   5.290   4.708
 7828SOL     OW24382   0.487   5.036   0.124
 7828SOL    HW124383   0.450   4.946   0.148
 7828SOL    HW224384   0.497   5.090   0.208
 7829SOL     OW24385   3.650   3.421   0.637
 7829SOL    HW124386   3.731   3.377   0.677
 7829SOL    HW224387   3.655   3.520   0.652
 7830SOL     OW24388   2.624   5.353   3.403
 7830SOL    HW124389   2.540   5.316   3.442
 7830SOL    HW224390   2.685   5.278   3.379
 7831SOL     OW24391   1.682   0.382   6.854
 7831SOL    HW124392   1.734   0.320   6.912
 7831SOL    HW224393   1.714   0.376   6.760
 7832SOL     OW24394   6.063   0.909   4.419
 7832SOL    HW124395   5.979   0.857   4.437
 7832SOL    HW224396   6.093   0.954   4.503
 7833SOL     OW24397   1.637   0.190   3.271
 7833SOL    HW124398   1.677   0.250   3.339
 7833SOL    HW224399   1.636   0.236   3.182
 7834SOL     OW24400   6.299   3.624   5.202
 7834SOL    HW124401   6.290   3.656   5.297
 7834SOL    HW224402   6.264   3.531   5.195
 7835SOL     OW24403   4.202   2.372   5.609
 7835SOL    HW124404   4.278   2.334   5.557
 7835SOL    HW224405   4.238   2.421   5.689
 7836SOL     OW24406   3.186   3.479   3.826
 7836SOL    HW124407   3.094   3.475   3.865
 7836SOL    HW224408   3.179   3.493   3.727
 7837SOL     OW24409   6.835   5.896   0.206
 7837SOL    HW124410   6.854   5.937   0.117
 7837SOL    HW224411   6.822   5.968   0.274
 7838SOL     OW24412   4.587   5.663   2.459
 7838SOL    HW124413   4.615   5.759   2.466
 7838SOL    HW224414   4.509   5.647   2.518
 7839SOL     OW24415   6.193   2.661   4.204
 7839SOL    HW124416   6.154   2.599   4.272
 7839SOL    HW224417   6.150   2.751   4.213
 7840SOL     OW24418   1.911   3.198   4.233
 7840SOL    HW124419   2.005   3.227   4.252
 7840SOL    HW224420   1.890   3.117   4.287
 7841SOL     OW24421   3.726   1.729   6.452
 7841SOL    HW124422   3.789   1.719   6.529
 7841SOL    HW224423   3.774   1.707   6.367
 7842SOL     OW24424   1.271   0.755   1.612
 7842SOL    HW124425   1.193   0.717   1.562
 7842SOL    HW224426   1.239   0.827   1.674
 7843SOL     OW24427   0.014   6.220   3.212
 7843SOL    HW124428   6.953   6.255   3.257
 7843SOL    HW224429   0.043   6.136   3.258
 7844SOL     OW24430   3.776   1.078   2.368
 7844SOL    HW124431   3.731   0.989   2.361
 7844SOL    HW224432   3.874   1.066   2.381
 7845SOL     OW24433   6.849   3.000   0.777
 7845SOL    HW124434   6.852   2.901   0.789
 7845SOL    HW224435   6.757   3.033   0.797
 7846SOL     OW24436   0.912   1.536   0.482
 7846SOL    HW124437   0.974   1.471   0.528
 7846SOL    HW224438   0.820   1.497   0.478
 7847SOL     OW24439   5.333   4.336   5.810
 7847SOL    HW124440   5.288   4.382   5.886
 7847SOL    HW224441   5.371   4.249   5.841
 7848SOL     OW24442   3.747   4.412   1.241
 7848SOL    HW124443   3.795   4.400   1.328
 7848SOL    HW224444   3.685   4.336   1.226
 7849SOL     OW24445   4.717   4.863   6.698
 7849SOL    HW124446   4.707   4.805   6.618
 7849SOL    HW224447   4.770   4.945   6.673
 7850SOL     OW24448   6.997   1.194   4.052
 7850SOL    HW124449   0.030   1.197   4.136
 7850SOL    HW224450   6.911   1.245   4.066
 7851SOL     OW24451   6.882   4.723   1.109
 7851SOL    HW124452   6.822   4.787   1.060
 7851SOL    HW224453   6.829   4.672   1.177
 7852SOL     OW24454   1.138   2.868   6.273
 7852SOL    HW124455   1.174   2.812   6.199
 7852SOL    HW224456   1.205   2.938   6.297
 7853SOL     OW24457   4.140   2.924   1.732
 7853SOL    HW124458   4.079   2.969   1.798
 7853SOL    HW224459   4.218   2.983   1.713
 7854SOL     OW24460   4.664   1.919   6.726
 7854SOL    HW124461   4.566   1.897   6.736
 7854SOL    HW224462   4.718   1.851   6.776
 7855SOL     OW24463   5.145   6.791   4.400
 7855SOL    HW124464   5.070   6.730   4.377
 7855SOL    HW224465   5.206   6.746   4.465
 7856SOL     OW24466   2.103   6.707   4.367
 7856SOL    HW124467   2.141   6.614   4.365
 7856SOL    HW224468   2.134   6.757   4.286
 7857SOL     OW24469   5.914   4.587   1.309
 7857SOL    HW124470   5.898   4.495   1.345
 7857SOL    HW224471   5.925   4.651   1.386
 7858SOL     OW24472   6.784   4.464   6.515
 7858SOL    HW124473   6.693   4.448   6.553
 7858SOL    HW224474   6.802   4.562   6.512
 7859SOL     OW24475   5.157   2.175   0.619
 7859SOL    HW124476   5.253   2.149   0.611
 7859SOL    HW224477   5.142   2.223   0.705
 7860SOL     OW24478   2.563   1.608   4.546
 7860SOL    HW124479   2.510   1.591   4.462
 7860SOL    HW224480   2.660   1.593   4.528
 7861SOL     OW24481   2.131   6.515   0.388
 7861SOL    HW124482   2.229   6.504   0.406
 7861SOL    HW224483   2.115   6.514   0.289
 7862SOL     OW24484   1.955   5.534   6.924
 7862SOL    HW124485   1.996   5.609   6.976
 7862SOL    HW224486   2.028   5.482   6.880
 7863SOL     OW24487   0.733   4.119   3.722
 7863SOL    HW124488   0.710   4.075   3.808
 7863SOL    HW224489   0.821   4.085   3.689
 7864SOL     OW24490   1.873   6.317   5.669
 7864SOL    HW124491   1.961   6.341   5.627
 7864SOL    HW224492   1.881   6.229   5.715
 7865SOL     OW24493   5.500   4.460   3.490
 7865SOL    HW124494   5.598   4.476   3.486
 7865SOL    HW224495   5.454   4.520   3.425
 7866SOL     OW24496   0.203   0.929   6.202
 7866SOL    HW124497   0.185   0.860   6.133
 7866SOL    HW224498   0.289   0.976   6.180
 7867SOL     OW24499   4.609   4.974   3.588
 7867SOL    HW124500   4.544   5.044   3.618
 7867SOL    HW224501   4.636   4.917   3.666
 7868SOL     OW24502   2.791   6.438   1.282
 7868SOL    HW124503   2.697   6.410   1.301
 7868SOL    HW224504   2.793   6.534   1.255
 7869SOL     OW24505   5.998   4.720   6.578
 7869SOL    HW124506   5.968   4.625   6.589
 7869SOL    HW224507   6.091   4.723   6.541
 7870SOL     OW24508   5.679   5.826   4.566
 7870SOL    HW124509   5.746   5.752   4.558
 7870SOL    HW224510   5.589   5.793   4.539
 7871SOL     OW24511   5.092   1.469   0.462
 7871SOL    HW124512   5.136   1.559   0.461
 7871SOL    HW224513   5.051   1.450   0.373
 7872SOL     OW24514   1.518   5.647   3.114
 7872SOL    HW124515   1.589   5.703   3.070
 7872SOL    HW224516   1.522   5.661   3.213
 7873SOL     OW24517   4.883   2.342   6.947
 7873SOL    HW124518   4.829   2.258   6.955
 7873SOL    HW224519   4.940   2.337   6.865
 7874SOL     OW24520   5.841   2.418   0.648
 7874SOL    HW124521   5.807   2.358   0.720
 7874SOL    HW224522   5.840   2.513   0.679
 7875SOL     OW24523   5.853   4.628   5.905
 7875SOL    HW124524   5.844   4.573   5.822
 7875SOL    HW224525   5.946   4.620   5.940
 7876SOL     OW24526   1.059   0.183   3.847
 7876SOL    HW124527   1.138   0.203   3.905
 7876SOL    HW224528   0.983   0.242   3.873
 7877SOL     OW24529   0.036   3.059   3.346
 7877SOL    HW124530   0.037   3.060   3.446
 7877SOL    HW224531   7.021   3.146   3.312
 7878SOL     OW24532   4.331   5.307   3.060
 7878SOL    HW124533   4.295   5.315   3.152
 7878SOL    HW224534   4.290   5.377   3.001
 7879SOL     OW24535   3.140   5.007   2.973
 7879SOL    HW124536   3.089   5.025   3.057
 7879SOL    HW224537   3.083   4.955   2.909
 7880SOL     OW24538   1.010   4.426   2.366
 7880SOL    HW124539   1.048   4.518   2.361
 7880SOL    HW224540   0.920   4.425   2.322
 7881SOL     OW24541   4.785   4.205   3.486
 7881SOL    HW124542   4.756   4.260   3.408
 7881SOL    HW224543   4.829   4.121   3.454
 7882SOL     OW24544   1.039   3.361   0.259
 7882SOL    HW124545   0.958   3.310   0.230
 7882SOL    HW224546   1.036   3.375   0.358
 7883SOL     OW24547   0.648   0.787   5.299
 7883SOL    HW124548   0.707   0.710   5.319
 7883SOL    HW224549   0.605   0.774   5.210
 7884SOL     OW24550   0.875   2.547   4.678
 7884SOL    HW124551   0.920   2.621   4.727
 7884SOL    HW224552   0.776   2.560   4.681
 7885SOL     OW24553   6.557   6.159   6.367
 7885SOL    HW124554   6.491   6.125   6.433
 7885SOL    HW224555   6.526   6.138   6.274
 7886SOL     OW24556   5.040   4.542   0.633
 7886SOL    HW124557   5.006   4.629   0.669
 7886SOL    HW224558   5.061   4.553   0.536
 7887SOL     OW24559   4.786   3.067   6.134
 7887SOL    HW124560   4.776   2.986   6.192
 7887SOL    HW224561   4.703   3.080   6.080
 7888SOL     OW24562   5.396   0.001   4.570
 7888SOL    HW124563   5.408   6.946   4.506
 7888SOL    HW224564   5.337   0.070   4.528
 7889SOL     OW24565   0.883   5.025   2.609
 7889SOL    HW124566   0.941   5.033   2.528
 7889SOL    HW224567   0.831   5.110   2.620
 7890SOL     OW24568   1.813   2.783   2.510
 7890SOL    HW124569   1.790   2.823   2.421
 7890SOL    HW224570   1.882   2.840   2.555
 7891SOL     OW24571   1.141   4.801   2.906
 7891SOL    HW124572   1.126   4.758   2.995
 7891SOL    HW224573   1.235   4.786   2.877
 7892SOL     OW24574   2.046   2.565   5.735
 7892SOL    HW124575   1.972   2.498   5.738
 7892SOL    HW224576   2.131   2.522   5.765
 7893SOL     OW24577   6.285   6.433   1.431
 7893SOL    HW124578   6.207   6.463   1.375
 7893SOL    HW224579   6.335   6.514   1.464
 7894SOL     OW24580   2.953   0.007   1.759
 7894SOL    HW124581   2.953   6.929   1.753
 7894SOL    HW224582   2.927   0.035   1.851
 7895SOL     OW24583   6.884   1.139   3.456
 7895SOL    HW124584   6.983   1.131   3.462
 7895SOL    HW224585   6.842   1.049   3.475
 7896SOL     OW24586   4.141   1.459   6.333
 7896SOL    HW124587   4.109   1.426   6.244
 7896SOL    HW224588   4.121   1.556   6.342
 7897SOL     OW24589   2.698   2.640   6.259
 7897SOL    HW124590   2.720   2.636   6.162
 7897SOL    HW224591   2.604   2.610   6.274
 7898SOL     OW24592   4.382   2.131   3.438
 7898SOL    HW124593   4.337   2.072   3.371
 7898SOL    HW224594   4.433   2.203   3.390
 7899SOL     OW24595   4.605   1.188   3.284
 7899SOL    HW124596   4.635   1.248   3.210
 7899SOL    HW224597   4.651   1.100   3.277
 7900SOL     OW24598   1.713   4.961   0.786
 7900SOL    HW124599   1.777   5.022   0.739
 7900SOL    HW224600   1.676   5.008   0.866
 7901SOL     OW24601   5.369   5.430   0.853
 7901SOL    HW124602   5.432   5.466   0.923
 7901SOL    HW224603   5.415   5.359   0.800
 7902SOL     OW24604   5.349   4.885   6.493
 7902SOL    HW124605   5.332   4.903   6.396
 7902SOL    HW224606   5.345   4.971   6.544
 7903SOL     OW24607   0.325   2.575   7.014
 7903SOL    HW124608   0.349   2.666   0.028
 7903SOL    HW224609   0.408   2.528   6.986
 7904SOL     OW24610   6.697   1.276   2.603
 7904SOL    HW124611   6.724   1.338   2.530
 7904SOL    HW224612   6.775   1.218   2.628
 7905SOL     OW24613   2.613   1.797   1.120
 7905SOL    HW124614   2.610   1.701   1.094
 7905SOL    HW224615   2.563   1.851   1.053
 7906SOL     OW24616   0.115   5.683   7.017
 7906SOL    HW124617   0.105   5.652   6.922
 7906SOL    HW224618   0.168   5.616   0.047
 7907SOL     OW24619   5.866   3.149   1.949
 7907SOL    HW124620   5.926   3.218   1.988
 7907SOL    HW224621   5.841   3.083   2.021
 7908SOL     OW24622   6.271   1.645   2.999
 7908SOL    HW124623   6.182   1.602   3.016
 7908SOL    HW224624   6.342   1.575   2.995
 7909SOL     OW24625   4.879   5.805   5.613
 7909SOL    HW124626   4.949   5.855   5.664
 7909SOL    HW224627   4.907   5.794   5.518
 7910SOL     OW24628   5.723   3.980   6.069
 7910SOL    HW124629   5.770   3.946   5.987
 7910SOL    HW224630   5.723   4.080   6.069
 7911SOL     OW24631   7.021   4.992   0.080
 7911SOL    HW124632   6.923   5.010   0.073
 7911SOL    HW224633   0.035   4.968   7.011
 7912SOL     OW24634   0.236   5.107   5.372
 7912SOL    HW124635   0.198   5.016   5.359
 7912SOL    HW224636   0.217   5.138   5.465
 7913SOL     OW24637   0.841   6.255   6.515
 7913SOL    HW124638   0.809   6.348   6.501
 7913SOL    HW224639   0.941   6.254   6.516
 7914SOL     OW24640   0.001   3.203   2.405
 7914SOL    HW124641   6.923   3.199   2.399
 7914SOL    HW224642   0.037   3.112   2.428
 7915SOL     OW24643   4.263   0.856   2.111
 7915SOL    HW124644   4.280   0.950   2.080
 7915SOL    HW224645   4.166   0.836   2.102
 7916SOL     OW24646   4.619   3.672   5.557
 7916SOL    HW124647   4.610   3.604   5.630
 7916SOL    HW224648   4.705   3.658   5.509
 7917SOL     OW24649   3.694   4.127   3.403
 7917SOL    HW124650   3.657   4.136   3.496
 7917SOL    HW224651   3.641   4.059   3.352
 7918SOL     OW24652   6.095   2.368   2.113
 7918SOL    HW124653   6.193   2.358   2.092
 7918SOL    HW224654   6.052   2.424   2.042
 7919SOL     OW24655   6.242   4.670   1.956
 7919SOL    HW124656   6.275   4.707   1.869
 7919SOL    HW224657   6.288   4.716   2.032
 7920SOL     OW24658   0.591   6.476   2.026
 7920SOL    HW124659   0.605   6.384   1.989
 7920SOL    HW224660   0.578   6.541   1.950
 7921SOL     OW24661   3.117   6.222   1.997
 7921SOL    HW124662   3.120   6.258   2.090
 7921SOL    HW224663   3.163   6.286   1.935
 7922SOL     OW24664   0.530   5.001   6.294
 7922SOL    HW124665   0.610   5.006   6.235
 7922SOL    HW224666   0.535   4.918   6.350
 7923SOL     OW24667   0.827   1.619   3.123
 7923SOL    HW124668   0.915   1.662   3.144
 7923SOL    HW224669   0.754   1.687   3.125
 7924SOL     OW24670   2.425   1.427   3.579
 7924SOL    HW124671   2.521   1.431   3.604
 7924SOL    HW224672   2.414   1.457   3.484
 7925SOL     OW24673   0.380   1.046   6.552
 7925SOL    HW124674   0.445   1.013   6.621
 7925SOL    HW224675   0.410   1.136   6.519
 7926SOL     OW24676   3.486   0.036   1.744
 7926SOL    HW124677   3.405   0.094   1.757
 7926SOL    HW224678   3.563   0.092   1.714
 7927SOL     OW24679   5.170   4.193   4.200
 7927SOL    HW124680   5.164   4.093   4.208
 7927SOL    HW224681   5.100   4.225   4.136
 7928SOL     OW24682   0.990   4.625   7.002
 7928SOL    HW124683   1.046   4.545   0.003
 7928SOL    HW224684   0.971   4.625   6.904
 7929SOL     OW24685   3.841   3.881   4.676
 7929SOL    HW124686   3.789   3.816   4.620
 7929SOL    HW224687   3.874   3.836   4.758
 7930SOL     OW24688   5.308   5.937   4.219
 7930SOL    HW124689   5.241   5.960   4.148
 7930SOL    HW224690   5.326   6.018   4.275
 7931SOL     OW24691   2.517   3.072   0.069
 7931SOL    HW124692   2.581   3.100   0.141
 7931SOL    HW224693   2.438   3.028   0.111
 7932SOL     OW24694   3.136   6.703   1.167
 7932SOL    HW124695   3.090   6.752   1.093
 7932SOL    HW224696   3.233   6.729   1.169
 7933SOL     OW24697   1.327   1.046   6.049
 7933SOL    HW124698   1.261   1.121   6.049
 7933SOL    HW224699   1.358   1.028   5.956
 7934SOL     OW24700   3.911   2.930   5.611
 7934SOL    HW124701   4.010   2.927   5.603
 7934SOL    HW224702   3.878   3.023   5.596
 7935SOL     OW24703   4.747   6.168   1.590
 7935SOL    HW124704   4.839   6.199   1.614
 7935SOL    HW224705   4.751   6.073   1.559
 7936SOL     OW24706   4.579   5.604   2.979
 7936SOL    HW124707   4.661   5.600   3.036
 7936SOL    HW224708   4.503   5.560   3.027
 7937SOL     OW24709   6.276   6.936   5.975
 7937SOL    HW124710   6.181   6.960   5.956
 7937SOL    HW224711   6.287   6.836   5.968
 7938SOL     OW24712   5.461   5.049   4.329
 7938SOL    HW124713   5.552   5.008   4.343
 7938SOL    HW224714   5.391   4.988   4.365
 7939SOL     OW24715   0.570   6.994   4.677
 7939SOL    HW124716   0.610   6.973   4.588
 7939SOL    HW224717   0.641   0.006   4.739
 7940SOL     OW24718   1.601   5.772   0.721
 7940SOL    HW124719   1.637   5.723   0.641
 7940SOL    HW224720   1.550   5.708   0.778
 7941SOL     OW24721   0.332   0.538   0.344
 7941SOL    HW124722   0.337   0.621   0.399
 7941SOL    HW224723   0.342   0.458   0.402
 7942SOL     OW24724   1.351   1.488   0.995
 7942SOL    HW124725   1.365   1.574   1.043
 7942SOL    HW224726   1.254   1.477   0.974
 7943SOL     OW24727   5.597   1.968   0.217
 7943SOL    HW124728   5.546   1.889   0.186
 7943SOL    HW224729   5.628   2.021   0.139
 7944SOL     OW24730   0.039   3.743   2.462
 7944SOL    HW124731   0.093   3.660   2.478
 7944SOL    HW224732   6.971   3.718   2.427
 7945SOL     OW24733   5.562   6.770   1.387
 7945SOL    HW124734   5.474   6.819   1.388
 7945SOL    HW224735   5.548   6.676   1.417
 7946SOL     OW24736   1.479   2.034   6.209
 7946SOL    HW124737   1.455   1.942   6.180
 7946SOL    HW224738   1.559   2.066   6.157
 7947SOL     OW24739   4.532   5.135   6.169
 7947SOL    HW124740   4.488   5.153   6.081
 7947SOL    HW224741   4.509   5.207   6.234
 7948SOL     OW24742   0.967   5.173   6.682
 7948SOL    HW124743   0.954   5.235   6.605
 7948SOL    HW224744   1.007   5.224   6.758
 7949SOL     OW24745   6.501   4.019   3.988
 7949SOL    HW124746   6.492   3.934   3.937
 7949SOL    HW224747   6.411   4.045   4.025
 7950SOL     OW24748   3.388   4.928   4.464
 7950SOL    HW124749   3.460   4.995   4.447
 7950SOL    HW224750   3.400   4.850   4.403
 7951SOL     OW24751   3.308   3.713   0.886
 7951SOL    HW124752   3.302   3.628   0.834
 7951SOL    HW224753   3.329   3.693   0.981
 7952SOL     OW24754   4.902   4.863   0.039
 7952SOL    HW124755   4.901   4.787   0.103
 7952SOL    HW224756   4.905   4.829   6.967
 7953SOL     OW24757   2.149   3.129   3.263
 7953SOL    HW124758   2.132   3.190   3.341
 7953SOL    HW224759   2.198   3.179   3.192
 7954SOL     OW24760   5.211   5.655   4.755
 7954SOL    HW124761   5.197   5.558   4.771
 7954SOL    HW224762   5.153   5.684   4.678
 7955SOL     OW24763   1.388   0.141   6.292
 7955SOL    HW124764   1.412   0.208   6.222
 7955SOL    HW224765   1.448   0.061   6.284
 7956SOL     OW24766   6.229   0.361   3.739
 7956SOL    HW124767   6.206   0.264   3.733
 7956SOL    HW224768   6.304   0.373   3.804
 7957SOL     OW24769   1.196   2.528   1.326
 7957SOL    HW124770   1.287   2.569   1.316
 7957SOL    HW224771   1.127   2.600   1.315
 7958SOL     OW24772   1.642   5.407   3.303
 7958SOL    HW124773   1.714   5.472   3.328
 7958SOL    HW224774   1.562   5.423   3.359
 7959SOL     OW24775   4.476   5.085   0.627
 7959SOL    HW124776   4.407   5.034   0.576
 7959SOL    HW224777   4.544   5.122   0.564
 7960SOL     OW24778   2.105   2.519   0.732
 7960SOL    HW124779   2.162   2.488   0.808
 7960SOL    HW224780   2.098   2.619   0.735
 7961SOL     OW24781   1.628   5.496   0.130
 7961SOL    HW124782   1.708   5.474   0.185
 7961SOL    HW224783   1.595   5.588   0.154
 7962SOL     OW24784   1.579   0.362   2.017
 7962SOL    HW124785   1.584   0.437   2.084
 7962SOL    HW224786   1.485   0.353   1.984
 7963SOL     OW24787   0.878   6.971   4.719
 7963SOL    HW124788   0.861   6.953   4.816
 7963SOL    HW224789   0.969   6.939   4.695
 7964SOL     OW24790   6.517   5.560   3.348
 7964SOL    HW124791   6.515   5.514   3.259
 7964SOL    HW224792   6.455   5.639   3.346
 7965SOL     OW24793   5.947   2.053   0.670
 7965SOL    HW124794   5.879   1.981   0.661
 7965SOL    HW224795   5.933   2.122   0.598
 7966SOL     OW24796   6.622   6.022   3.514
 7966SOL    HW124797   6.710   6.020   3.562
 7966SOL    HW224798   6.635   5.991   3.420
 7967SOL     OW24799   3.034   6.671   3.185
 7967SOL    HW124800   3.072   6.719   3.263
 7967SOL    HW224801   2.935   6.662   3.196
 7968SOL     OW24802   2.074   0.574   1.342
 7968SOL    HW124803   2.156   0.519   1.354
 7968SOL    HW224804   2.069   0.643   1.414
 7969SOL     OW24805   3.185   1.898   3.570
 7969SOL    HW124806   3.136   1.822   3.613
 7969SOL    HW224807   3.274   1.865   3.537
 7970SOL     OW24808   0.767   4.893   3.161
 7970SOL    HW124809   0.707   4.823   3.122
 7970SOL    HW224810   0.784   4.871   3.257
 7971SOL     OW24811   2.411   1.673   2.116
 7971SOL    HW124812   2.418   1.763   2.073
 7971SOL    HW224813   2.501   1.645   2.149
 7972SOL     OW24814   0.724   5.192   1.765
 7972SOL    HW124815   0.662   5.116   1.785
 7972SOL    HW224816   0.787   5.165   1.692
 7973SOL     OW24817   4.655   2.096   2.464
 7973SOL    HW124818   4.706   2.160   2.522
 7973SOL    HW224819   4.666   2.003   2.499
 7974SOL     OW24820   5.544   6.837   3.929
 7974SOL    HW124821   5.524   6.927   3.890
 7974SOL    HW224822   5.604   6.846   4.008
 7975SOL     OW24823   2.418   0.741   2.886
 7975SOL    HW124824   2.431   0.827   2.937
 7975SOL    HW224825   2.485   0.736   2.812
 7976SOL     OW24826   0.555   6.492   6.210
 7976SOL    HW124827   0.494   6.459   6.138
 7976SOL    HW224828   0.502   6.538   6.281
 7977SOL     OW24829   4.914   6.397   1.951
 7977SOL    HW124830   4.910   6.297   1.952
 7977SOL    HW224831   4.852   6.433   1.882
 7978SOL     OW24832   3.911   2.389   6.493
 7978SOL    HW124833   3.863   2.331   6.427
 7978SOL    HW224834   3.881   2.367   6.586
 7979SOL     OW24835   4.603   6.837   4.337
 7979SOL    HW124836   4.648   6.750   4.314
 7979SOL    HW224837   4.673   6.908   4.350
 7980SOL     OW24838   2.539   0.292   2.459
 7980SOL    HW124839   2.464   0.301   2.393
 7980SOL    HW224840   2.500   0.285   2.552
 7981SOL     OW24841   1.186   6.229   3.003
 7981SOL    HW124842   1.166   6.295   3.076
 7981SOL    HW224843   1.167   6.136   3.036
 7982SOL     OW24844   0.345   2.156   0.481
 7982SOL    HW124845   0.366   2.221   0.554
 7982SOL    HW224846   0.272   2.193   0.423
 7983SOL     OW24847   4.618   2.610   2.340
 7983SOL    HW124848   4.659   2.700   2.358
 7983SOL    HW224849   4.675   2.539   2.381
 7984SOL     OW24850   0.164   0.490   0.138
 7984SOL    HW124851   0.244   0.500   0.197
 7984SOL    HW224852   0.098   0.563   0.158
 7985SOL     OW24853   0.519   1.062   1.062
 7985SOL    HW124854   0.549   1.122   0.989
 7985SOL    HW224855   0.449   1.108   1.117
 7986SOL     OW24856   4.130   2.613   0.111
 7986SOL    HW124857   4.192   2.669   0.057
 7986SOL    HW224858   4.176   2.582   0.194
 7987SOL     OW24859   0.591   2.655   4.662
 7987SOL    HW124860   0.531   2.715   4.609
 7987SOL    HW224861   0.546   2.630   4.748
 7988SOL     OW24862   2.435   1.990   5.654
 7988SOL    HW124863   2.491   1.959   5.731
 7988SOL    HW224864   2.465   1.944   5.570
 7989SOL     OW24865   3.481   3.416   5.604
 7989SOL    HW124866   3.571   3.460   5.594
 7989SOL    HW224867   3.419   3.479   5.650
 7990SOL     OW24868   2.204   2.690   4.751
 7990SOL    HW124869   2.195   2.637   4.835
 7990SOL    HW224870   2.293   2.671   4.709
 7991SOL     OW24871   0.176   3.509   4.759
 7991SOL    HW124872   0.236   3.429   4.754
 7991SOL    HW224873   0.106   3.502   4.688
 7992SOL     OW24874   2.393   0.426   0.260
 7992SOL    HW124875   2.343   0.467   0.183
 7992SOL    HW224876   2.332   0.420   0.339
 7993SOL     OW24877   2.145   6.461   6.040
 7993SOL    HW124878   2.098   6.534   5.989
 7993SOL    HW224879   2.196   6.502   6.116
 7994SOL     OW24880   5.887   0.718   4.192
 7994SOL    HW124881   5.912   0.717   4.289
 7994SOL    HW224882   5.938   0.790   4.145
 7995SOL     OW24883   4.102   5.581   3.266
 7995SOL    HW124884   4.075   5.593   3.170
 7995SOL    HW224885   4.032   5.622   3.325
 7996SOL     OW24886   3.677   0.820   5.229
 7996SOL    HW124887   3.684   0.870   5.316
 7996SOL    HW224888   3.659   0.885   5.155
 7997SOL     OW24889   5.496   2.584   2.495
 7997SOL    HW124890   5.428   2.657   2.487
 7997SOL    HW224891   5.452   2.495   2.487
 7998SOL     OW24892   5.988   4.990   6.472
 7998SOL    HW124893   5.941   5.047   6.539
 7998SOL    HW224894   6.026   4.909   6.516
 7999SOL     OW24895   1.341   0.720   5.566
 7999SOL    HW124896   1.288   0.662   5.504
 7999SOL    HW224897   1.421   0.756   5.518
 8000SOL     OW24898   5.724   0.046   5.445
 8000SOL    HW124899   5.808   0.036   5.392
 8000SOL    HW224900   5.693   0.141   5.441
 8001SOL     OW24901   2.470   6.630   1.410
 8001SOL    HW124902   2.438   6.597   1.499
 8001SOL    HW224903   2.466   6.730   1.408
 8002SOL     OW24904   5.241   3.165   5.671
 8002SOL    HW124905   5.227   3.264   5.672
 8002SOL    HW224906   5.322   3.142   5.724
 8003SOL     OW24907   3.795   5.751   3.651
 8003SOL    HW124908   3.864   5.809   3.693
 8003SOL    HW224909   3.709   5.801   3.646
 8004SOL     OW24910   1.211   4.028   2.522
 8004SOL    HW124911   1.118   4.000   2.548
 8004SOL    HW224912   1.267   4.039   2.604
 8005SOL     OW24913   3.129   0.897   1.975
 8005SOL    HW124914   3.195   0.953   2.025
 8005SOL    HW224915   3.106   0.943   1.889
 8006SOL     OW24916   3.501   6.431   1.032
 8006SOL    HW124917   3.460   6.350   0.988
 8006SOL    HW224918   3.450   6.512   1.004
 8007SOL     OW24919   0.431   0.969   4.208
 8007SOL    HW124920   0.398   0.925   4.291
 8007SOL    HW224921   0.395   0.920   4.128
 8008SOL     OW24922   5.739   5.453   0.631
 8008SOL    HW124923   5.667   5.399   0.674
 8008SOL    HW224924   5.751   5.539   0.681
 8009SOL     OW24925   6.966   6.840   4.018
 8009SOL    HW124926   6.952   6.879   4.109
 8009SOL    HW224927   6.922   6.898   3.950
 8010SOL     OW24928   1.853   2.844   6.847
 8010SOL    HW124929   1.799   2.900   6.910
 8010SOL    HW224930   1.793   2.782   6.797
 8011SOL     OW24931   2.209   2.478   1.022
 8011SOL    HW124932   2.128   2.536   1.033
 8011SOL    HW224933   2.263   2.481   1.107
 8012SOL     OW24934   3.176   6.832   3.368
 8012SOL    HW124935   3.183   6.839   3.467
 8012SOL    HW224936   3.260   6.794   3.331
 8013SOL     OW24937   6.200   5.087   5.102
 8013SOL    HW124938   6.268   5.014   5.096
 8013SOL    HW224939   6.246   5.175   5.102
 8014SOL     OW24940   1.993   0.558   6.756
 8014SOL    HW124941   1.925   0.600   6.815
 8014SOL    HW224942   1.960   0.558   6.661
 8015SOL     OW24943   1.603   2.174   6.648
 8015SOL    HW124944   1.675   2.104   6.651
 8015SOL    HW224945   1.576   2.197   6.741
 8016SOL     OW24946   3.402   6.754   1.241
 8016SOL    HW124947   3.497   6.773   1.215
 8016SOL    HW224948   3.401   6.715   1.334
 8017SOL     OW24949   5.936   4.335   4.784
 8017SOL    HW124950   5.911   4.238   4.780
 8017SOL    HW224951   5.878   4.387   4.720
 8018SOL     OW24952   5.417   2.711   4.583
 8018SOL    HW124953   5.505   2.742   4.619
 8018SOL    HW224954   5.407   2.613   4.601
 8019SOL     OW24955   2.645   4.959   1.428
 8019SOL    HW124956   2.690   4.995   1.347
 8019SOL    HW224957   2.686   4.871   1.453
 8020SOL     OW24958   6.115   6.454   6.406
 8020SOL    HW124959   6.069   6.385   6.351
 8020SOL    HW224960   6.090   6.443   6.502
 8021SOL     OW24961   0.697   0.895   1.214
 8021SOL    HW124962   0.708   0.820   1.149
 8021SOL    HW224963   0.639   0.966   1.175
 8022SOL     OW24964   4.372   5.534   3.366
 8022SOL    HW124965   4.439   5.608   3.373
 8022SOL    HW224966   4.295   5.565   3.311
 8023SOL     OW24967   5.995   6.642   3.815
 8023SOL    HW124968   5.919   6.679   3.868
 8023SOL    HW224969   6.027   6.557   3.856
 8024SOL     OW24970   4.960   5.232   4.580
 8024SOL    HW124971   4.907   5.316   4.566
 8024SOL    HW224972   4.902   5.153   4.557
 8025SOL     OW24973   3.286   5.746   0.500
 8025SOL    HW124974   3.358   5.810   0.472
 8025SOL    HW224975   3.324   5.680   0.565
 8026SOL     OW24976   2.126   3.109   0.825
 8026SOL    HW124977   2.060   3.067   0.764
 8026SOL    HW224978   2.164   3.191   0.782
 8027SOL     OW24979   5.189   3.387   5.945
 8027SOL    HW124980   5.213   3.429   5.858
 8027SOL    HW224981   5.089   3.377   5.951
 8028SOL     OW24982   5.066   5.307   0.245
 8028SOL    HW124983   5.047   5.380   0.179
 8028SOL    HW224984   5.112   5.345   0.325
 8029SOL     OW24985   3.067   4.480   0.424
 8029SOL    HW124986   3.086   4.457   0.329
 8029SOL    HW224987   2.974   4.515   0.432
 8030SOL     OW24988   5.911   3.841   0.138
 8030SOL    HW124989   5.945   3.901   0.210
 8030SOL    HW224990   5.826   3.799   0.168
 8031SOL     OW24991   3.756   5.971   1.551
 8031SOL    HW124992   3.832   6.034   1.539
 8031SOL    HW224993   3.671   6.024   1.563
 8032SOL     OW24994   5.037   5.117   5.670
 8032SOL    HW124995   5.063   5.174   5.593
 8032SOL    HW224996   5.068   5.159   5.755
 8033SOL     OW24997   6.092   2.384   0.541
 8033SOL    HW124998   5.995   2.407   0.543
 8033SOL    HW224999   6.117   2.335   0.624
 8034SOL     OW25000   6.018   1.126   5.208
 8034SOL    HW125001   5.982   1.047   5.159
 8034SOL    HW225002   5.989   1.210   5.162
 8035SOL     OW25003   5.517   5.891   0.149
 8035SOL    HW125004   5.486   5.895   0.055
 8035SOL    HW225005   5.617   5.892   0.151
 8036SOL     OW25006   1.802   3.993   1.526
 8036SOL    HW125007   1.865   4.068   1.542
 8036SOL    HW225008   1.821   3.919   1.589
 8037SOL     OW25009   1.631   3.227   0.968
 8037SOL    HW125010   1.651   3.140   0.923
 8037SOL    HW225011   1.715   3.280   0.980
 8038SOL     OW25012   6.845   1.515   3.853
 8038SOL    HW125013   6.821   1.610   3.830
 8038SOL    HW225014   6.829   1.499   3.950
 8039SOL     OW25015   2.840   6.824   4.707
 8039SOL    HW125016   2.764   6.778   4.754
 8039SOL    HW225017   2.864   6.774   4.624
 8040SOL     OW25018   6.548   5.526   0.928
 8040SOL    HW125019   6.516   5.544   0.835
 8040SOL    HW225020   6.643   5.557   0.936
 8041SOL     OW25021   3.948   2.072   0.598
 8041SOL    HW125022   3.974   2.114   0.510
 8041SOL    HW225023   3.969   2.135   0.672
 8042SOL     OW25024   2.422   3.540   0.847
 8042SOL    HW125025   2.414   3.546   0.946
 8042SOL    HW225026   2.481   3.463   0.823
 8043SOL     OW25027   2.489   0.314   1.636
 8043SOL    HW125028   2.588   0.298   1.629
 8043SOL    HW225029   2.455   0.351   1.550
 8044SOL     OW25030   3.060   4.112   1.783
 8044SOL    HW125031   3.158   4.116   1.799
 8044SOL    HW225032   3.018   4.044   1.844
 8045SOL     OW25033   6.145   2.728   3.658
 8045SOL    HW125034   6.162   2.753   3.753
 8045SOL    HW225035   6.227   2.744   3.604
 8046SOL     OW25036   6.986   5.309   6.074
 8046SOL    HW125037   7.009   5.220   6.113
 8046SOL    HW225038   6.929   5.295   5.992
 8047SOL     OW25039   2.924   6.090   4.172
 8047SOL    HW125040   2.941   6.096   4.073
 8047SOL    HW225041   2.826   6.097   4.189
 8048SOL     OW25042   6.392   0.679   5.705
 8048SOL    HW125043   6.484   0.716   5.718
 8048SOL    HW225044   6.377   0.604   5.769
 8049SOL     OW25045   1.508   5.989   0.566
 8049SOL    HW125046   1.548   5.947   0.648
 8049SOL    HW225047   1.428   5.937   0.537
 8050SOL     OW25048   1.054   2.779   1.362
 8050SOL    HW125049   1.034   2.850   1.295
 8050SOL    HW225050   0.979   2.773   1.428
 8051SOL     OW25051   3.806   1.557   3.662
 8051SOL    HW125052   3.829   1.468   3.701
 8051SOL    HW225053   3.787   1.547   3.565
 8052SOL     OW25054   3.231   2.127   3.033
 8052SOL    HW125055   3.157   2.179   3.074
 8052SOL    HW225056   3.209   2.107   2.937
 8053SOL     OW25057   3.892   3.390   1.951
 8053SOL    HW125058   3.834   3.465   1.982
 8053SOL    HW225059   3.938   3.349   2.029
 8054SOL     OW25060   4.290   5.809   4.250
 8054SOL    HW125061   4.250   5.813   4.342
 8054SOL    HW225062   4.258   5.887   4.196
 8055SOL     OW25063   1.405   0.178   5.188
 8055SOL    HW125064   1.428   0.178   5.090
 8055SOL    HW225065   1.449   0.100   5.233
 8056SOL     OW25066   3.816   1.469   3.169
 8056SOL    HW125067   3.894   1.447   3.111
 8056SOL    HW225068   3.763   1.543   3.126
 8057SOL     OW25069   4.198   6.941   3.521
 8057SOL    HW125070   4.141   7.016   3.489
 8057SOL    HW225071   4.189   6.932   3.621
 8058SOL     OW25072   2.158   0.024   3.260
 8058SOL    HW125073   2.173   6.971   3.325
 8058SOL    HW225074   2.073   0.073   3.283
 8059SOL     OW25075   2.332   1.454   4.030
 8059SOL    HW125076   2.337   1.504   3.943
 8059SOL    HW225077   2.289   1.512   4.099
 8060SOL     OW25078   0.423   1.646   5.175
 8060SOL    HW125079   0.489   1.716   5.203
 8060SOL    HW225080   0.435   1.626   5.077
 8061SOL     OW25081   0.260   5.594   1.651
 8061SOL    HW125082   0.174   5.642   1.668
 8061SOL    HW225083   0.273   5.583   1.552
 8062SOL     OW25084   2.159   3.813   2.099
 8062SOL    HW125085   2.105   3.804   2.183
 8062SOL    HW225086   2.173   3.723   2.058
 8063SOL     OW25087   3.023   3.174   0.258
 8063SOL    HW125088   3.046   3.133   0.170
 8063SOL    HW225089   3.066   3.264   0.265
 8064SOL     OW25090   6.111   3.320   6.904
 8064SOL    HW125091   6.089   3.246   6.840
 8064SOL    HW225092   6.031   3.379   6.915
 8065SOL     OW25093   4.266   0.106   6.433
 8065SOL    HW125094   4.334   0.048   6.478
 8065SOL    HW225095   4.206   0.049   6.376
 8066SOL     OW25096   2.289   0.436   1.441
 8066SOL    HW125097   2.363   0.496   1.412
 8066SOL    HW225098   2.242   0.476   1.520
 8067SOL     OW25099   5.115   1.849   1.975
 8067SOL    HW125100   5.132   1.780   1.905
 8067SOL    HW225101   5.116   1.940   1.933
 8068SOL     OW25102   0.101   4.645   3.967
 8068SOL    HW125103   0.045   4.713   3.920
 8068SOL    HW225104   0.185   4.629   3.914
 8069SOL     OW25105   1.601   6.087   2.223
 8069SOL    HW125106   1.648   6.171   2.195
 8069SOL    HW225107   1.568   6.098   2.317
 8070SOL     OW25108   3.773   0.283   2.144
 8070SOL    HW125109   3.820   0.346   2.205
 8070SOL    HW225110   3.720   0.334   2.077
 8071SOL     OW25111   3.709   6.301   0.401
 8071SOL    HW125112   3.679   6.383   0.352
 8071SOL    HW225113   3.741   6.233   0.335
 8072SOL     OW25114   5.161   0.818   2.131
 8072SOL    HW125115   5.169   0.913   2.161
 8072SOL    HW225116   5.110   0.765   2.199
 8073SOL     OW25117   4.033   6.465   5.609
 8073SOL    HW125118   3.968   6.400   5.570
 8073SOL    HW225119   4.040   6.545   5.549
 8074SOL     OW25120   2.945   3.927   0.000
 8074SOL    HW125121   3.010   3.974   0.060
 8074SOL    HW225122   2.952   3.828   0.014
 8075SOL     OW25123   5.954   1.333   2.307
 8075SOL    HW125124   5.987   1.280   2.385
 8075SOL    HW225125   5.906   1.272   2.244
 8076SOL     OW25126   5.237   2.930   6.272
 8076SOL    HW125127   5.212   2.866   6.344
 8076SOL    HW225128   5.239   3.023   6.309
 8077SOL     OW25129   1.428   0.689   0.602
 8077SOL    HW125130   1.524   0.659   0.599
 8077SOL    HW225131   1.415   0.750   0.680
 8078SOL     OW25132   5.922   3.574   0.287
 8078SOL    HW125133   5.976   3.623   0.219
 8078SOL    HW225134   5.918   3.628   0.372
 8079SOL     OW25135   0.395   1.686   1.918
 8079SOL    HW125136   0.304   1.683   1.960
 8079SOL    HW225137   0.435   1.594   1.918
 8080SOL     OW25138   3.537   5.197   0.196
 8080SOL    HW125139   3.446   5.160   0.215
 8080SOL    HW225140   3.605   5.150   0.253
 8081SOL     OW25141   6.056   0.815   5.697
 8081SOL    HW125142   6.097   0.727   5.720
 8081SOL    HW225143   5.996   0.804   5.618
 8082SOL     OW25144   6.091   3.332   4.147
 8082SOL    HW125145   6.076   3.302   4.053
 8082SOL    HW225146   6.139   3.260   4.198
 8083SOL     OW25147   5.434   2.426   4.543
 8083SOL    HW125148   5.379   2.343   4.542
 8083SOL    HW225149   5.508   2.417   4.610
 8084SOL     OW25150   0.091   0.103   1.382
 8084SOL    HW125151   0.010   0.053   1.413
 8084SOL    HW225152   0.156   0.111   1.457
 8085SOL     OW25153   6.824   1.973   0.939
 8085SOL    HW125154   6.821   1.889   0.885
 8085SOL    HW225155   6.909   1.975   0.992
 8086SOL     OW25156   3.502   6.439   5.796
 8086SOL    HW125157   3.591   6.435   5.840
 8086SOL    HW225158   3.504   6.387   5.711
 8087SOL     OW25159   2.567   3.004   1.283
 8087SOL    HW125160   2.594   3.066   1.209
 8087SOL    HW225161   2.522   3.056   1.355
 8088SOL     OW25162   4.508   0.349   2.423
 8088SOL    HW125163   4.551   0.336   2.512
 8088SOL    HW225164   4.516   0.265   2.369
 8089SOL     OW25165   6.091   2.829   0.753
 8089SOL    HW125166   6.013   2.812   0.692
 8089SOL    HW225167   6.155   2.753   0.747
 8090SOL     OW25168   4.506   2.278   5.007
 8090SOL    HW125169   4.455   2.232   5.080
 8090SOL    HW225170   4.441   2.318   4.942
 8091SOL     OW25171   3.074   5.206   5.913
 8091SOL    HW125172   3.115   5.277   5.856
 8091SOL    HW225173   3.001   5.160   5.863
 8092SOL     OW25174   0.174   1.786   3.797
 8092SOL    HW125175   0.130   1.778   3.708
 8092SOL    HW225176   0.254   1.726   3.801
 8093SOL     OW25177   5.624   5.759   1.105
 8093SOL    HW125178   5.696   5.700   1.142
 8093SOL    HW225179   5.538   5.708   1.102
 8094SOL     OW25180   1.437   3.881   4.499
 8094SOL    HW125181   1.448   3.822   4.580
 8094SOL    HW225182   1.527   3.916   4.471
 8095SOL     OW25183   5.921   3.578   4.624
 8095SOL    HW125184   5.973   3.559   4.707
 8095SOL    HW225185   5.962   3.529   4.547
 8096SOL     OW25186   3.767   0.307   0.531
 8096SOL    HW125187   3.777   0.208   0.522
 8096SOL    HW225188   3.855   0.348   0.552
 8097SOL     OW25189   4.391   0.887   4.778
 8097SOL    HW125190   4.473   0.876   4.834
 8097SOL    HW225191   4.336   0.962   4.814
 8098SOL     OW25192   2.793   0.742   4.232
 8098SOL    HW125193   2.707   0.765   4.277
 8098SOL    HW225194   2.820   0.649   4.257
 8099SOL     OW25195   5.149   6.463   4.992
 8099SOL    HW125196   5.179   6.528   5.061
 8099SOL    HW225197   5.050   6.472   4.979
 8100SOL     OW25198   0.619   5.835   0.941
 8100SOL    HW125199   0.703   5.818   0.889
 8100SOL    HW225200   0.546   5.863   0.879
 8101SOL     OW25201   0.804   5.294   2.590
 8101SOL    HW125202   0.789   5.293   2.689
 8101SOL    HW225203   0.884   5.351   2.569
 8102SOL     OW25204   0.222   6.902   6.614
 8102SOL    HW125205   0.322   6.897   6.621
 8102SOL    HW225206   0.182   6.899   6.705
 8103SOL     OW25207   2.406   1.690   2.560
 8103SOL    HW125208   2.437   1.683   2.655
 8103SOL    HW225209   2.402   1.786   2.533
 8104SOL     OW25210   2.633   6.182   6.114
 8104SOL    HW125211   2.649   6.212   6.208
 8104SOL    HW225212   2.534   6.172   6.099
 8105SOL     OW25213   1.804   2.564   2.719
 8105SOL    HW125214   1.810   2.615   2.633
 8105SOL    HW225215   1.875   2.595   2.782
 8106SOL     OW25216   0.381   3.946   4.844
 8106SOL    HW125217   0.314   4.018   4.829
 8106SOL    HW225218   0.472   3.979   4.817
 8107SOL     OW25219   1.498   5.794   6.383
 8107SOL    HW125220   1.500   5.878   6.329
 8107SOL    HW225221   1.555   5.724   6.340
 8108SOL     OW25222   2.103   3.442   4.988
 8108SOL    HW125223   2.152   3.423   4.903
 8108SOL    HW225224   2.123   3.369   5.054
 8109SOL     OW25225   1.102   5.693   5.359
 8109SOL    HW125226   1.125   5.640   5.277
 8109SOL    HW225227   1.010   5.668   5.390
 8110SOL     OW25228   1.490   4.510   0.835
 8110SOL    HW125229   1.429   4.485   0.760
 8110SOL    HW225230   1.584   4.487   0.811
 8111SOL     OW25231   2.668   6.060   4.245
 8111SOL    HW125232   2.594   6.039   4.182
 8111SOL    HW225233   2.672   5.990   4.317
 8112SOL     OW25234   4.062   0.852   4.926
 8112SOL    HW125235   4.081   0.811   4.837
 8112SOL    HW225236   4.041   0.780   4.992
 8113SOL     OW25237   4.068   3.124   6.086
 8113SOL    HW125238   4.040   3.048   6.027
 8113SOL    HW225239   4.026   3.114   6.176
 8114SOL     OW25240   3.024   4.069   1.515
 8114SOL    HW125241   2.989   4.151   1.469
 8114SOL    HW225242   3.042   4.090   1.611
 8115SOL     OW25243   4.012   2.184   0.834
 8115SOL    HW125244   4.049   2.136   0.914
 8115SOL    HW225245   4.008   2.282   0.853
 8116SOL     OW25246   4.790   0.898   5.988
 8116SOL    HW125247   4.835   0.984   5.965
 8116SOL    HW225248   4.696   0.899   5.952
 8117SOL     OW25249   2.576   1.882   5.871
 8117SOL    HW125250   2.612   1.949   5.935
 8117SOL    HW225251   2.585   1.790   5.909
 8118SOL     OW25252   1.196   2.609   4.253
 8118SOL    HW125253   1.205   2.544   4.178
 8118SOL    HW225254   1.101   2.608   4.286
 8119SOL     OW25255   1.379   5.787   1.953
 8119SOL    HW125256   1.445   5.858   1.978
 8119SOL    HW225257   1.416   5.733   1.877
 8120SOL     OW25258   4.659   4.151   1.692
 8120SOL    HW125259   4.578   4.182   1.742
 8120SOL    HW225260   4.635   4.073   1.634
 8121SOL     OW25261   6.537   6.484   3.320
 8121SOL    HW125262   6.508   6.541   3.397
 8121SOL    HW225263   6.630   6.449   3.337
 8122SOL     OW25264   0.695   5.953   1.505
 8122SOL    HW125265   0.630   5.886   1.469
 8122SOL    HW225266   0.768   5.968   1.439
 8123SOL     OW25267   0.538   5.782   0.251
 8123SOL    HW125268   0.575   5.863   0.204
 8123SOL    HW225269   0.459   5.809   0.307
 8124SOL     OW25270   0.809   5.897   3.036
 8124SOL    HW125271   0.884   5.958   3.010
 8124SOL    HW225272   0.751   5.941   3.104
 8125SOL     OW25273   5.886   5.481   2.660
 8125SOL    HW125274   5.880   5.477   2.760
 8125SOL    HW225275   5.839   5.401   2.622
 8126SOL     OW25276   6.440   4.719   2.349
 8126SOL    HW125277   6.369   4.662   2.391
 8126SOL    HW225278   6.503   4.662   2.296
 8127SOL     OW25279   3.612   4.538   1.043
 8127SOL    HW125280   3.596   4.481   0.962
 8127SOL    HW225281   3.663   4.485   1.111
 8128SOL     OW25282   3.781   2.387   5.324
 8128SOL    HW125283   3.709   2.439   5.368
 8128SOL    HW225284   3.860   2.446   5.307
 8129SOL     OW25285   5.005   6.468   6.852
 8129SOL    HW125286   5.088   6.421   6.883
 8129SOL    HW225287   4.954   6.407   6.791
 8130SOL     OW25288   1.059   6.982   0.684
 8130SOL    HW125289   1.072   0.032   0.615
 8130SOL    HW225290   1.084   6.893   0.645
 8131SOL     OW25291   1.424   1.335   0.585
 8131SOL    HW125292   1.516   1.352   0.621
 8131SOL    HW225293   1.420   1.243   0.545
 8132SOL     OW25294   6.159   4.607   2.957
 8132SOL    HW125295   6.219   4.629   3.034
 8132SOL    HW225296   6.164   4.510   2.938
 8133SOL     OW25297   0.981   5.794   2.024
 8133SOL    HW125298   0.953   5.698   2.034
 8133SOL    HW225299   1.037   5.804   1.941
 8134SOL     OW25300   2.083   2.688   2.170
 8134SOL    HW125301   2.158   2.659   2.110
 8134SOL    HW225302   2.057   2.611   2.229
 8135SOL     OW25303   4.113   5.964   2.454
 8135SOL    HW125304   4.022   5.993   2.423
 8135SOL    HW225305   4.181   5.993   2.387
 8136SOL     OW25306   3.152   6.186   1.443
 8136SOL    HW125307   3.209   6.151   1.517
 8136SOL    HW225308   3.059   6.150   1.452
 8137SOL     OW25309   3.199   3.625   5.020
 8137SOL    HW125310   3.143   3.543   5.007
 8137SOL    HW225311   3.142   3.707   5.015
 8138SOL     OW25312   5.022   0.723   3.859
 8138SOL    HW125313   5.063   0.665   3.929
 8138SOL    HW225314   4.923   0.719   3.865
 8139SOL     OW25315   1.864   3.215   4.738
 8139SOL    HW125316   1.891   3.207   4.834
 8139SOL    HW225317   1.899   3.137   4.686
 8140SOL     OW25318   4.770   1.012   0.924
 8140SOL    HW125319   4.670   1.015   0.928
 8140SOL    HW225320   4.801   0.923   0.957
 8141SOL     OW25321   5.681   0.323   5.388
 8141SOL    HW125322   5.641   0.374   5.311
 8141SOL    HW225323   5.768   0.366   5.414
 8142SOL     OW25324   2.305   5.246   0.995
 8142SOL    HW125325   2.387   5.299   0.973
 8142SOL    HW225326   2.307   5.219   1.091
 8143SOL     OW25327   5.658   4.851   0.654
 8143SOL    HW125328   5.646   4.912   0.733
 8143SOL    HW225329   5.683   4.905   0.574
 8144SOL     OW25330   0.700   5.566   0.651
 8144SOL    HW125331   0.771   5.574   0.721
 8144SOL    HW225332   0.671   5.471   0.644
 8145SOL     OW25333   5.563   5.820   6.889
 8145SOL    HW125334   5.648   5.773   6.911
 8145SOL    HW225335   5.583   5.906   6.843
 8146SOL     OW25336   6.642   6.929   4.865
 8146SOL    HW125337   6.631   6.904   4.769
 8146SOL    HW225338   6.626   6.849   4.922
 8147SOL     OW25339   1.644   0.691   6.180
 8147SOL    HW125340   1.562   0.744   6.160
 8147SOL    HW225341   1.725   0.750   6.172
 8148SOL     OW25342   4.637   3.817   0.624
 8148SOL    HW125343   4.717   3.760   0.643
 8148SOL    HW225344   4.636   3.895   0.686
 8149SOL     OW25345   0.730   0.376   5.730
 8149SOL    HW125346   0.666   0.333   5.667
 8149SOL    HW225347   0.680   0.412   5.809
 8150SOL     OW25348   0.560   3.995   0.674
 8150SOL    HW125349   0.513   4.036   0.595
 8150SOL    HW225350   0.501   3.999   0.754
 8151SOL     OW25351   6.517   5.733   2.923
 8151SOL    HW125352   6.486   5.742   2.829
 8151SOL    HW225353   6.614   5.757   2.929
 8152SOL     OW25354   5.041   1.280   2.959
 8152SOL    HW125355   4.977   1.352   2.983
 8152SOL    HW225356   5.113   1.275   3.028
 8153SOL     OW25357   0.108   1.711   2.295
 8153SOL    HW125358   0.079   1.686   2.202
 8153SOL    HW225359   0.192   1.765   2.290
 8154SOL     OW25360   1.705   1.115   2.559
 8154SOL    HW125361   1.791   1.082   2.599
 8154SOL    HW225362   1.700   1.214   2.569
 8155SOL     OW25363   1.714   5.155   3.370
 8155SOL    HW125364   1.668   5.242   3.357
 8155SOL    HW225365   1.659   5.082   3.328
 8156SOL     OW25366   0.559   4.648   0.696
 8156SOL    HW125367   0.485   4.713   0.678
 8156SOL    HW225368   0.643   4.681   0.654
 8157SOL     OW25369   6.916   4.390   4.746
 8157SOL    HW125370   6.949   4.303   4.784
 8157SOL    HW225371   6.846   4.428   4.806
 8158SOL     OW25372   5.859   5.819   6.844
 8158SOL    HW125373   5.915   5.892   6.805
 8158SOL    HW225374   5.908   5.732   6.838
 8159SOL     OW25375   2.616   6.931   5.017
 8159SOL    HW125376   2.630   7.014   4.963
 8159SOL    HW225377   2.670   6.937   5.101
 8160SOL     OW25378   5.598   1.609   1.826
 8160SOL    HW125379   5.663   1.557   1.881
 8160SOL    HW225380   5.511   1.616   1.875
 8161SOL     OW25381   5.696   2.789   1.770
 8161SOL    HW125382   5.763   2.793   1.844
 8161SOL    HW225383   5.696   2.698   1.729
 8162SOL     OW25384   0.555   5.658   5.057
 8162SOL    HW125385   0.508   5.699   5.135
 8162SOL    HW225386   0.642   5.618   5.087
 8163SOL     OW25387   4.436   4.793   5.529
 8163SOL    HW125388   4.337   4.801   5.538
 8163SOL    HW225389   4.474   4.758   5.614
 8164SOL     OW25390   5.546   1.681   0.474
 8164SOL    HW125391   5.538   1.619   0.395
 8164SOL    HW225392   5.501   1.639   0.553
 8165SOL     OW25393   0.482   1.316   6.510
 8165SOL    HW125394   0.465   1.363   6.597
 8165SOL    HW225395   0.557   1.361   6.462
 8166SOL     OW25396   1.298   1.944   5.547
 8166SOL    HW125397   1.275   2.017   5.483
 8166SOL    HW225398   1.372   1.888   5.509
 8167SOL     OW25399   2.099   3.527   3.705
 8167SOL    HW125400   2.010   3.510   3.662
 8167SOL    HW225401   2.089   3.527   3.804
 8168SOL     OW25402   1.686   0.159   2.131
 8168SOL    HW125403   1.732   0.190   2.214
 8168SOL    HW225404   1.654   0.237   2.079
 8169SOL     OW25405   5.062   3.110   0.617
 8169SOL    HW125406   5.111   3.027   0.590
 8169SOL    HW225407   5.124   3.171   0.666
 8170SOL     OW25408   7.014   4.924   2.337
 8170SOL    HW125409   0.051   5.004   2.326
 8170SOL    HW225410   0.049   4.843   2.353
 8171SOL     OW25411   2.514   1.442   0.738
 8171SOL    HW125412   2.601   1.471   0.777
 8171SOL    HW225413   2.528   1.358   0.684
 8172SOL     OW25414   1.836   2.738   0.558
 8172SOL    HW125415   1.746   2.760   0.595
 8172SOL    HW225416   1.851   2.639   0.562
 8173SOL     OW25417   5.816   0.909   1.740
 8173SOL    HW125418   5.772   0.999   1.741
 8173SOL    HW225419   5.887   0.906   1.811
 8174SOL     OW25420   2.769   6.495   3.789
 8174SOL    HW125421   2.817   6.581   3.777
 8174SOL    HW225422   2.773   6.441   3.705
 8175SOL     OW25423   0.734   2.086   5.930
 8175SOL    HW125424   0.659   2.022   5.946
 8175SOL    HW225425   0.760   2.130   6.016
 8176SOL     OW25426   2.770   4.453   0.268
 8176SOL    HW125427   2.781   4.533   0.327
 8176SOL    HW225428   2.765   4.371   0.324
 8177SOL     OW25429   3.253   1.070   3.964
 8177SOL    HW125430   3.289   1.116   4.046
 8177SOL    HW225431   3.153   1.072   3.966
 8178SOL     OW25432   2.891   6.439   0.991
 8178SOL    HW125433   2.876   6.531   0.956
 8178SOL    HW225434   2.804   6.398   1.016
 8179SOL     OW25435   5.717   0.921   3.484
 8179SOL    HW125436   5.677   0.917   3.392
 8179SOL    HW225437   5.687   0.841   3.536
 8180SOL     OW25438   4.958   6.346   0.311
 8180SOL    HW125439   5.030   6.278   0.322
 8180SOL    HW225440   4.982   6.408   0.235
 8181SOL     OW25441   7.017   0.181   6.907
 8181SOL    HW125442   6.959   0.173   6.826
 8181SOL    HW225443   6.960   0.187   6.988
 8182SOL     OW25444   3.262   3.702   3.978
 8182SOL    HW125445   3.234   3.625   3.921
 8182SOL    HW225446   3.358   3.722   3.961
 8183SOL     OW25447   6.856   0.807   5.771
 8183SOL    HW125448   6.902   0.731   5.726
 8183SOL    HW225449   6.777   0.836   5.716
 8184SOL     OW25450   6.921   5.926   6.081
 8184SOL    HW125451   6.886   6.016   6.054
 8184SOL    HW225452   6.852   5.879   6.135
 8185SOL     OW25453   0.135   6.256   5.835
 8185SOL    HW125454   0.232   6.241   5.854
 8185SOL    HW225455   0.121   6.351   5.808
 8186SOL     OW25456   1.638   5.284   6.979
 8186SOL    HW125457   1.716   5.224   6.962
 8186SOL    HW225458   1.664   5.357   0.021
 8187SOL     OW25459   1.164   0.482   5.459
 8187SOL    HW125460   1.216   0.458   5.541
 8187SOL    HW225461   1.088   0.542   5.485
 8188SOL     OW25462   1.614   2.958   2.937
 8188SOL    HW125463   1.606   2.924   2.843
 8188SOL    HW225464   1.528   2.945   2.985
 8189SOL     OW25465   5.647   5.010   3.854
 8189SOL    HW125466   5.643   5.105   3.886
 8189SOL    HW225467   5.562   4.963   3.880
 8190SOL     OW25468   6.435   3.858   2.881
 8190SOL    HW125469   6.530   3.834   2.863
 8190SOL    HW225470   6.417   3.856   2.979
 8191SOL     OW25471   4.208   5.123   1.226
 8191SOL    HW125472   4.119   5.115   1.271
 8191SOL    HW225473   4.229   5.037   1.180
 8192SOL     OW25474   0.749   6.258   3.358
 8192SOL    HW125475   0.742   6.355   3.334
 8192SOL    HW225476   0.660   6.213   3.342
 8193SOL     OW25477   0.922   4.765   4.158
 8193SOL    HW125478   0.935   4.762   4.257
 8193SOL    HW225479   0.976   4.839   4.119
 8194SOL     OW25480   4.656   0.116   1.860
 8194SOL    HW125481   4.698   0.133   1.949
 8194SOL    HW225482   4.726   0.081   1.797
 8195SOL     OW25483   6.227   0.172   4.129
 8195SOL    HW125484   6.156   0.242   4.132
 8195SOL    HW225485   6.276   0.169   4.216
 8196SOL     OW25486   4.681   1.204   1.681
 8196SOL    HW125487   4.694   1.229   1.585
 8196SOL    HW225488   4.671   1.288   1.735
 8197SOL     OW25489   3.640   1.960   3.118
 8197SOL    HW125490   3.562   1.963   3.181
 8197SOL    HW225491   3.618   2.013   3.036
 8198SOL     OW25492   1.423   5.970   1.670
 8198SOL    HW125493   1.459   5.883   1.636
 8198SOL    HW225494   1.327   5.980   1.642
 8199SOL     OW25495   5.475   2.748   0.502
 8199SOL    HW125496   5.493   2.690   0.423
 8199SOL    HW225497   5.557   2.756   0.558
 8200SOL     OW25498   4.474   2.961   0.693
 8200SOL    HW125499   4.417   2.971   0.612
 8200SOL    HW225500   4.562   2.921   0.668
 8201SOL     OW25501   6.381   6.954   5.419
 8201SOL    HW125502   6.436   6.903   5.353
 8201SOL    HW225503   6.297   6.986   5.375
 8202SOL     OW25504   0.825   6.391   2.183
 8202SOL    HW125505   0.903   6.399   2.121
 8202SOL    HW225506   0.741   6.413   2.134
 8203SOL     OW25507   1.427   3.343   1.116
 8203SOL    HW125508   1.475   3.397   1.185
 8203SOL    HW225509   1.493   3.301   1.055
 8204SOL     OW25510   2.871   2.838   0.965
 8204SOL    HW125511   2.817   2.758   0.942
 8204SOL    HW225512   2.967   2.822   0.941
 8205SOL     OW25513   0.936   3.846   0.097
 8205SOL    HW125514   0.891   3.877   0.014
 8205SOL    HW225515   0.999   3.771   0.076
 8206SOL     OW25516   3.023   0.642   0.751
 8206SOL    HW125517   3.067   0.635   0.841
 8206SOL    HW225518   2.975   0.729   0.744
 8207SOL     OW25519   3.684   4.093   4.741
 8207SOL    HW125520   3.737   4.014   4.710
 8207SOL    HW225521   3.733   4.140   4.813
 8208SOL     OW25522   1.877   0.622   0.443
 8208SOL    HW125523   1.880   0.709   0.492
 8208SOL    HW225524   1.941   0.626   0.366
 8209SOL     OW25525   6.268   1.427   4.722
 8209SOL    HW125526   6.337   1.449   4.791
 8209SOL    HW225527   6.307   1.367   4.653
 8210SOL     OW25528   1.915   2.598   6.582
 8210SOL    HW125529   1.979   2.661   6.628
 8210SOL    HW225530   1.846   2.567   6.647
 8211SOL     OW25531   3.860   4.909   1.609
 8211SOL    HW125532   3.859   4.830   1.670
 8211SOL    HW225533   3.807   4.983   1.650
 8212SOL     OW25534   1.545   3.119   3.405
 8212SOL    HW125535   1.597   3.034   3.411
 8212SOL    HW225536   1.609   3.196   3.398
 8213SOL     OW25537   6.569   5.264   1.331
 8213SOL    HW125538   6.642   5.243   1.395
 8213SOL    HW225539   6.554   5.363   1.328
 8214SOL     OW25540   5.649   3.856   3.606
 8214SOL    HW125541   5.571   3.894   3.657
 8214SOL    HW225542   5.622   3.770   3.563
 8215SOL     OW25543   3.377   5.425   2.968
 8215SOL    HW125544   3.345   5.492   3.035
 8215SOL    HW225545   3.298   5.378   2.927
 8216SOL     OW25546   5.485   4.057   3.833
 8216SOL    HW125547   5.391   4.038   3.858
 8216SOL    HW225548   5.544   3.982   3.863
 8217SOL     OW25549   2.201   5.946   0.411
 8217SOL    HW125550   2.162   5.983   0.327
 8217SOL    HW225551   2.160   5.993   0.490
 8218SOL     OW25552   6.163   2.282   6.930
 8218SOL    HW125553   6.232   2.354   6.922
 8218SOL    HW225554   6.208   2.192   6.934
 8219SOL     OW25555   5.668   1.690   6.893
 8219SOL    HW125556   5.614   1.628   6.837
 8219SOL    HW225557   5.729   1.743   6.834
 8220SOL     OW25558   4.172   3.556   1.930
 8220SOL    HW125559   4.158   3.648   1.895
 8220SOL    HW225560   4.144   3.489   1.861
 8221SOL     OW25561   5.398   6.334   2.946
 8221SOL    HW125562   5.326   6.265   2.950
 8221SOL    HW225563   5.475   6.305   3.004
 8222SOL     OW25564   6.343   2.302   2.026
 8222SOL    HW125565   6.293   2.347   1.952
 8222SOL    HW225566   6.372   2.211   1.996
 8223SOL     OW25567   0.366   5.314   5.800
 8223SOL    HW125568   0.379   5.282   5.894
 8223SOL    HW225569   0.400   5.408   5.793
 8224SOL     OW25570   1.401   3.443   3.792
 8224SOL    HW125571   1.359   3.353   3.783
 8224SOL    HW225572   1.431   3.458   3.886
 8225SOL     OW25573   4.758   1.613   0.568
 8225SOL    HW125574   4.782   1.597   0.664
 8225SOL    HW225575   4.841   1.640   0.518
 8226SOL     OW25576   4.398   0.486   0.440
 8226SOL    HW125577   4.485   0.504   0.392
 8226SOL    HW225578   4.376   0.564   0.498
 8227SOL     OW25579   6.086   3.085   2.536
 8227SOL    HW125580   5.987   3.082   2.553
 8227SOL    HW225581   6.121   2.992   2.532
 8228SOL     OW25582   6.802   2.801   4.796
 8228SOL    HW125583   6.761   2.884   4.833
 8228SOL    HW225584   6.899   2.798   4.822
 8229SOL     OW25585   3.609   5.159   0.868
 8229SOL    HW125586   3.618   5.061   0.883
 8229SOL    HW225587   3.514   5.186   0.882
 8230SOL     OW25588   5.070   0.161   4.163
 8230SOL    HW125589   5.052   0.123   4.254
 8230SOL    HW225590   5.029   0.102   4.094
 8231SOL     OW25591   4.384   6.460   0.758
 8231SOL    HW125592   4.411   6.444   0.664
 8231SOL    HW225593   4.287   6.438   0.769
 8232SOL     OW25594   2.651   2.274   6.389
 8232SOL    HW125595   2.751   2.264   6.383
 8232SOL    HW225596   2.608   2.185   6.374
 8233SOL     OW25597   0.079   5.631   6.740
 8233SOL    HW125598   0.120   5.540   6.745
 8233SOL    HW225599   0.130   5.687   6.674
 8234SOL     OW25600   3.500   2.292   6.724
 8234SOL    HW125601   3.473   2.311   6.629
 8234SOL    HW225602   3.448   2.350   6.786
 8235SOL     OW25603   4.551   2.317   0.449
 8235SOL    HW125604   4.535   2.393   0.385
 8235SOL    HW225605   4.614   2.252   0.407
 8236SOL     OW25606   5.517   2.889   1.176
 8236SOL    HW125607   5.550   2.965   1.233
 8236SOL    HW225608   5.441   2.921   1.119
 8237SOL     OW25609   4.329   6.046   5.421
 8237SOL    HW125610   4.346   5.996   5.336
 8237SOL    HW225611   4.416   6.063   5.467
 8238SOL     OW25612   1.565   1.265   6.309
 8238SOL    HW125613   1.647   1.286   6.363
 8238SOL    HW225614   1.539   1.345   6.255
 8239SOL     OW25615   6.853   1.663   6.264
 8239SOL    HW125616   6.920   1.629   6.198
 8239SOL    HW225617   6.888   1.652   6.357
 8240SOL     OW25618   3.945   3.966   3.448
 8240SOL    HW125619   3.863   4.020   3.429
 8240SOL    HW225620   3.964   3.906   3.370
 8241SOL     OW25621   4.682   6.821   1.224
 8241SOL    HW125622   4.619   6.882   1.272
 8241SOL    HW225623   4.657   6.815   1.128
 8242SOL     OW25624   0.845   4.376   5.586
 8242SOL    HW125625   0.909   4.388   5.663
 8242SOL    HW225626   0.756   4.415   5.611
 8243SOL     OW25627   1.145   3.409   4.738
 8243SOL    HW125628   1.081   3.377   4.807
 8243SOL    HW225629   1.238   3.384   4.764
 8244SOL     OW25630   1.065   6.230   4.605
 8244SOL    HW125631   1.122   6.296   4.654
 8244SOL    HW225632   1.101   6.216   4.513
 8245SOL     OW25633   3.747   2.783   0.636
 8245SOL    HW125634   3.757   2.762   0.734
 8245SOL    HW225635   3.744   2.698   0.584
 8246SOL     OW25636   5.099   4.009   5.401
 8246SOL    HW125637   5.157   3.980   5.477
 8246SOL    HW225638   5.125   3.958   5.319
 8247SOL     OW25639   1.123   0.100   1.565
 8247SOL    HW125640   1.182   0.177   1.591
 8247SOL    HW225641   1.057   0.131   1.497
 8248SOL     OW25642   6.843   4.201   3.316
 8248SOL    HW125643   6.914   4.272   3.323
 8248SOL    HW225644   6.886   4.111   3.311
 8249SOL     OW25645   1.687   4.941   3.113
 8249SOL    HW125646   1.701   4.879   3.190
 8249SOL    HW225647   1.731   4.904   3.031
 8250SOL     OW25648   3.964   3.776   2.405
 8250SOL    HW125649   3.977   3.749   2.310
 8250SOL    HW225650   4.045   3.824   2.438
 8251SOL     OW25651   5.873   1.710   4.882
 8251SOL    HW125652   5.892   1.652   4.802
 8251SOL    HW225653   5.925   1.795   4.875
 8252SOL     OW25654   1.500   3.706   4.707
 8252SOL    HW125655   1.484   3.634   4.639
 8252SOL    HW225656   1.494   3.666   4.799
 8253SOL     OW25657   3.275   2.957   5.442
 8253SOL    HW125658   3.333   3.006   5.377
 8253SOL    HW225659   3.282   3.001   5.532
 8254SOL     OW25660   3.971   5.926   3.763
 8254SOL    HW125661   3.936   6.002   3.708
 8254SOL    HW225662   4.020   5.961   3.842
 8255SOL     OW25663   4.452   5.205   3.717
 8255SOL    HW125664   4.455   5.298   3.754
 8255SOL    HW225665   4.427   5.208   3.620
 8256SOL     OW25666   6.752   1.782   3.769
 8256SOL    HW125667   6.766   1.743   3.679
 8256SOL    HW225668   6.746   1.882   3.762
 8257SOL     OW25669   6.757   4.522   3.730
 8257SOL    HW125670   6.839   4.468   3.711
 8257SOL    HW225671   6.690   4.508   3.658
 8258SOL     OW25672   4.499   1.876   0.235
 8258SOL    HW125673   4.470   1.890   0.140
 8258SOL    HW225674   4.418   1.868   0.293
 8259SOL     OW25675   3.898   1.437   1.855
 8259SOL    HW125676   3.929   1.532   1.846
 8259SOL    HW225677   3.833   1.416   1.782
 8260SOL     OW25678   2.890   6.350   0.643
 8260SOL    HW125679   2.956   6.324   0.572
 8260SOL    HW225680   2.896   6.286   0.719
 8261SOL     OW25681   5.605   1.365   1.360
 8261SOL    HW125682   5.638   1.278   1.396
 8261SOL    HW225683   5.568   1.420   1.434
 8262SOL     OW25684   0.960   2.369   0.663
 8262SOL    HW125685   0.924   2.278   0.643
 8262SOL    HW225686   1.044   2.384   0.611
 8263SOL     OW25687   6.167   0.957   0.488
 8263SOL    HW125688   6.208   1.035   0.536
 8263SOL    HW225689   6.228   0.878   0.495
 8264SOL     OW25690   1.728   4.671   2.709
 8264SOL    HW125691   1.762   4.584   2.744
 8264SOL    HW225692   1.643   4.656   2.659
 8265SOL     OW25693   2.007   0.788   1.469
 8265SOL    HW125694   1.937   0.782   1.540
 8265SOL    HW225695   2.011   0.882   1.435
 8266SOL     OW25696   3.635   0.228   3.232
 8266SOL    HW125697   3.700   0.159   3.198
 8266SOL    HW225698   3.619   0.296   3.161
 8267SOL     OW25699   0.627   3.165   0.834
 8267SOL    HW125700   0.535   3.173   0.873
 8267SOL    HW225701   0.638   3.076   0.791
 8268SOL     OW25702   3.261   6.172   5.665
 8268SOL    HW125703   3.360   6.185   5.664
 8268SOL    HW225704   3.216   6.258   5.639
 8269SOL     OW25705   5.817   1.683   1.419
 8269SOL    HW125706   5.828   1.763   1.477
 8269SOL    HW225707   5.721   1.674   1.392
 8270SOL     OW25708   3.652   6.290   3.872
 8270SOL    HW125709   3.696   6.340   3.797
 8270SOL    HW225710   3.575   6.344   3.907
 8271SOL     OW25711   7.016   1.988   2.116
 8271SOL    HW125712   0.026   2.050   2.044
 8271SOL    HW225713   6.926   1.951   2.091
 8272SOL     OW25714   3.559   1.288   3.710
 8272SOL    HW125715   3.640   1.294   3.651
 8272SOL    HW225716   3.587   1.265   3.803
 8273SOL     OW25717   2.307   6.418   0.867
 8273SOL    HW125718   2.227   6.467   0.901
 8273SOL    HW225719   2.334   6.454   0.778
 8274SOL     OW25720   5.383   5.057   3.461
 8274SOL    HW125721   5.311   5.057   3.531
 8274SOL    HW225722   5.472   5.046   3.506
 8275SOL     OW25723   5.033   2.700   6.156
 8275SOL    HW125724   5.110   2.701   6.220
 8275SOL    HW225725   5.041   2.620   6.096
 8276SOL     OW25726   0.414   2.208   3.189
 8276SOL    HW125727   0.434   2.240   3.282
 8276SOL    HW225728   0.353   2.130   3.193
 8277SOL     OW25729   6.372   0.025   6.651
 8277SOL    HW125730   6.395   6.951   6.667
 8277SOL    HW225731   6.456   0.080   6.649
 8278SOL     OW25732   1.847   2.478   0.296
 8278SOL    HW125733   1.872   2.470   0.392
 8278SOL    HW225734   1.822   2.573   0.276
 8279SOL     OW25735   7.011   6.091   3.777
 8279SOL    HW125736   6.926   6.100   3.829
 8279SOL    HW225737   0.049   6.169   3.797
 8280SOL     OW25738   2.464   2.739   5.893
 8280SOL    HW125739   2.471   2.803   5.817
 8280SOL    HW225740   2.441   2.789   5.977
 8281SOL     OW25741   6.262   5.442   2.067
 8281SOL    HW125742   6.165   5.417   2.060
 8281SOL    HW225743   6.274   5.509   2.139
 8282SOL     OW25744   5.290   2.443   5.852
 8282SOL    HW125745   5.347   2.417   5.774
 8282SOL    HW225746   5.197   2.408   5.837
 8283SOL     OW25747   1.675   4.123   5.609
 8283SOL    HW125748   1.762   4.103   5.563
 8283SOL    HW225749   1.599   4.099   5.549
 8284SOL     OW25750   6.757   4.531   1.638
 8284SOL    HW125751   6.770   4.433   1.657
 8284SOL    HW225752   6.726   4.576   1.722
 8285SOL     OW25753   3.660   3.646   4.603
 8285SOL    HW125754   3.718   3.573   4.641
 8285SOL    HW225755   3.679   3.656   4.505
 8286SOL     OW25756   6.444   2.142   6.050
 8286SOL    HW125757   6.485   2.218   5.999
 8286SOL    HW225758   6.435   2.167   6.146
 8287SOL     OW25759   1.280   5.512   4.599
 8287SOL    HW125760   1.309   5.416   4.601
 8287SOL    HW225761   1.335   5.562   4.533
 8288SOL     OW25762   2.711   2.408   2.954
 8288SOL    HW125763   2.737   2.320   2.916
 8288SOL    HW225764   2.680   2.469   2.880
 8289SOL     OW25765   0.419   6.193   6.845
 8289SOL    HW125766   0.458   6.231   6.929
 8289SOL    HW225767   0.319   6.191   6.852
 8290SOL     OW25768   6.586   2.800   0.755
 8290SOL    HW125769   6.678   2.773   0.782
 8290SOL    HW225770   6.571   2.896   0.779
 8291SOL     OW25771   4.806   0.101   0.769
 8291SOL    HW125772   4.832   0.025   0.830
 8291SOL    HW225773   4.804   0.068   0.675
 8292SOL     OW25774   3.375   6.909   6.511
 8292SOL    HW125775   3.314   6.843   6.556
 8292SOL    HW225776   3.469   6.891   6.539
 8293SOL     OW25777   5.255   5.966   5.311
 8293SOL    HW125778   5.221   5.957   5.218
 8293SOL    HW225779   5.320   6.042   5.316
 8294SOL     OW25780   5.469   2.346   0.247
 8294SOL    HW125781   5.424   2.377   0.331
 8294SOL    HW225782   5.402   2.302   0.188
 8295SOL     OW25783   5.389   3.421   0.355
 8295SOL    HW125784   5.431   3.387   0.272
 8295SOL    HW225785   5.337   3.504   0.335
 8296SOL     OW25786   1.412   5.571   0.338
 8296SOL    HW125787   1.409   5.655   0.392
 8296SOL    HW225788   1.500   5.525   0.353
 8297SOL     OW25789   0.818   2.697   3.083
 8297SOL    HW125790   0.812   2.771   3.017
 8297SOL    HW225791   0.826   2.610   3.035
 8298SOL     OW25792   4.309   1.462   1.540
 8298SOL    HW125793   4.213   1.436   1.551
 8298SOL    HW225794   4.364   1.381   1.519
 8299SOL     OW25795   6.401   2.403   1.631
 8299SOL    HW125796   6.466   2.413   1.707
 8299SOL    HW225797   6.402   2.309   1.599
 8300SOL     OW25798   0.553   4.612   3.586
 8300SOL    HW125799   0.555   4.512   3.573
 8300SOL    HW225800   0.639   4.642   3.626
 8301SOL     OW25801   3.583   3.155   6.774
 8301SOL    HW125802   3.578   3.179   6.871
 8301SOL    HW225803   3.495   3.117   6.745
 8302SOL     OW25804   5.616   5.776   6.366
 8302SOL    HW125805   5.556   5.766   6.287
 8302SOL    HW225806   5.565   5.756   6.449
 8303SOL     OW25807   0.175   0.890   4.970
 8303SOL    HW125808   0.165   0.941   5.055
 8303SOL    HW225809   0.272   0.886   4.945
 8304SOL     OW25810   0.375   3.461   6.515
 8304SOL    HW125811   0.403   3.372   6.549
 8304SOL    HW225812   0.326   3.511   6.586
 8305SOL     OW25813   3.368   6.202   3.150
 8305SOL    HW125814   3.274   6.226   3.175
 8305SOL    HW225815   3.404   6.270   3.086
 8306SOL     OW25816   0.730   3.400   4.361
 8306SOL    HW125817   0.782   3.437   4.439
 8306SOL    HW225818   0.734   3.464   4.285
 8307SOL     OW25819   3.557   6.118   1.227
 8307SOL    HW125820   3.488   6.190   1.219
 8307SOL    HW225821   3.569   6.093   1.324
 8308SOL     OW25822   4.166   6.329   2.357
 8308SOL    HW125823   4.108   6.305   2.435
 8308SOL    HW225824   4.243   6.385   2.388
 8309SOL     OW25825   4.887   6.098   2.391
 8309SOL    HW125826   4.905   6.009   2.434
 8309SOL    HW225827   4.797   6.097   2.348
 8310SOL     OW25828   6.966   4.381   0.299
 8310SOL    HW125829   6.921   4.458   0.343
 8310SOL    HW225830   6.904   4.339   0.232
 8311SOL     OW25831   6.738   0.564   0.575
 8311SOL    HW125832   6.639   0.563   0.560
 8311SOL    HW225833   6.781   0.497   0.514
 8312SOL     OW25834   5.868   6.710   1.410
 8312SOL    HW125835   5.794   6.648   1.387
 8312SOL    HW225836   5.914   6.678   1.493
 8313SOL     OW25837   3.411   1.330   2.308
 8313SOL    HW125838   3.458   1.294   2.388
 8313SOL    HW225839   3.394   1.428   2.320
 8314SOL     OW25840   6.214   6.798   3.241
 8314SOL    HW125841   6.250   6.823   3.331
 8314SOL    HW225842   6.273   6.728   3.200
 8315SOL     OW25843   4.831   3.956   6.484
 8315SOL    HW125844   4.775   4.012   6.544
 8315SOL    HW225845   4.839   3.864   6.522
 8316SOL     OW25846   2.064   4.801   6.595
 8316SOL    HW125847   2.071   4.869   6.523
 8316SOL    HW225848   2.031   4.844   6.679
 8317SOL     OW25849   2.077   4.272   2.146
 8317SOL    HW125850   2.134   4.354   2.142
 8317SOL    HW225851   1.994   4.287   2.092
 8318SOL     OW25852   3.529   1.592   5.332
 8318SOL    HW125853   3.516   1.633   5.422
 8318SOL    HW225854   3.472   1.510   5.325
 8319SOL     OW25855   3.391   1.075   4.704
 8319SOL    HW125856   3.323   1.033   4.764
 8319SOL    HW225857   3.426   1.159   4.747
 8320SOL     OW25858   3.338   4.588   1.693
 8320SOL    HW125859   3.366   4.499   1.657
 8320SOL    HW225860   3.411   4.625   1.751
 8321SOL     OW25861   0.524   0.742   1.383
 8321SOL    HW125862   0.493   0.705   1.296
 8321SOL    HW225863   0.535   0.841   1.376
 8322SOL     OW25864   6.228   6.721   0.047
 8322SOL    HW125865   6.149   6.751   0.099
 8322SOL    HW225866   6.206   6.636   7.020
 8323SOL     OW25867   1.262   1.901   1.452
 8323SOL    HW125868   1.229   1.971   1.516
 8323SOL    HW225869   1.356   1.877   1.474
 8324SOL     OW25870   6.813   0.989   2.345
 8324SOL    HW125871   6.849   1.082   2.346
 8324SOL    HW225872   6.870   0.932   2.285
 8325SOL     OW25873   3.357   3.277   3.903
 8325SOL    HW125874   3.456   3.264   3.907
 8325SOL    HW225875   3.337   3.370   3.872
 8326SOL     OW25876   3.777   3.586   5.850
 8326SOL    HW125877   3.836   3.592   5.931
 8326SOL    HW225878   3.783   3.494   5.812
 8327SOL     OW25879   5.295   2.032   5.725
 8327SOL    HW125880   5.386   2.074   5.730
 8327SOL    HW225881   5.261   2.036   5.631
 8328SOL     OW25882   2.657   2.261   5.153
 8328SOL    HW125883   2.704   2.315   5.222
 8328SOL    HW225884   2.570   2.228   5.191
 8329SOL     OW25885   0.103   3.269   5.143
 8329SOL    HW125886   0.200   3.250   5.160
 8329SOL    HW225887   0.078   3.355   5.187
 8330SOL     OW25888   2.760   6.486   6.803
 8330SOL    HW125889   2.669   6.457   6.834
 8330SOL    HW225890   2.804   6.541   6.874
 8331SOL     OW25891   2.594   0.079   0.424
 8331SOL    HW125892   2.668   0.085   0.357
 8331SOL    HW225893   2.506   0.099   0.379
 8332SOL     OW25894   5.167   5.624   2.578
 8332SOL    HW125895   5.260   5.660   2.593
 8332SOL    HW225896   5.136   5.577   2.660
 8333SOL     OW25897   0.548   5.699   6.140
 8333SOL    HW125898   0.581   5.778   6.191
 8333SOL    HW225899   0.469   5.660   6.187
 8334SOL     OW25900   6.269   1.677   3.687
 8334SOL    HW125901   6.332   1.632   3.750
 8334SOL    HW225902   6.313   1.758   3.648
 8335SOL     OW25903   5.442   6.850   5.811
 8335SOL    HW125904   5.378   6.924   5.831
 8335SOL    HW225905   5.392   6.766   5.793
 8336SOL     OW25906   0.434   1.756   2.395
 8336SOL    HW125907   0.515   1.812   2.380
 8336SOL    HW225908   0.364   1.810   2.441
 8337SOL     OW25909   0.451   6.228   2.526
 8337SOL    HW125910   0.416   6.276   2.607
 8337SOL    HW225911   0.531   6.174   2.551
 8338SOL     OW25912   1.817   4.743   1.001
 8338SOL    HW125913   1.731   4.693   1.003
 8338SOL    HW225914   1.806   4.827   0.950
 8339SOL     OW25915   5.752   1.362   2.664
 8339SOL    HW125916   5.737   1.416   2.581
 8339SOL    HW225917   5.847   1.373   2.695
 8340SOL     OW25918   5.132   3.530   0.234
 8340SOL    HW125919   5.118   3.463   0.307
 8340SOL    HW225920   5.043   3.566   0.204
 8341SOL     OW25921   2.359   6.145   0.893
 8341SOL    HW125922   2.315   6.099   0.817
 8341SOL    HW225923   2.323   6.238   0.901
 8342SOL     OW25924   4.290   0.911   0.439
 8342SOL    HW125925   4.213   0.848   0.428
 8342SOL    HW225926   4.257   1.001   0.467
 8343SOL     OW25927   1.474   5.466   6.070
 8343SOL    HW125928   1.452   5.467   5.973
 8343SOL    HW225929   1.390   5.476   6.124
 8344SOL     OW25930   4.121   6.085   5.661
 8344SOL    HW125931   4.191   6.061   5.594
 8344SOL    HW225932   4.048   6.136   5.616
 8345SOL     OW25933   6.365   1.236   2.383
 8345SOL    HW125934   6.345   1.241   2.481
 8345SOL    HW225935   6.441   1.298   2.362
 8346SOL     OW25936   3.125   5.640   1.656
 8346SOL    HW125937   3.038   5.688   1.664
 8346SOL    HW225938   3.189   5.674   1.725
 8347SOL     OW25939   3.367   6.098   4.832
 8347SOL    HW125940   3.459   6.061   4.831
 8347SOL    HW225941   3.302   6.029   4.799
 8348SOL     OW25942   1.881   0.477   0.051
 8348SOL    HW125943   1.923   0.403   7.020
 8348SOL    HW225944   1.782   0.464   0.053
 8349SOL     OW25945   5.357   4.872   1.603
 8349SOL    HW125946   5.276   4.915   1.642
 8349SOL    HW225947   5.433   4.878   1.668
 8350SOL     OW25948   6.154   0.738   4.739
 8350SOL    HW125949   6.097   0.734   4.657
 8350SOL    HW225950   6.250   0.744   4.713
 8351SOL     OW25951   3.500   6.142   2.736
 8351SOL    HW125952   3.410   6.128   2.694
 8351SOL    HW225953   3.571   6.122   2.669
 8352SOL     OW25954   6.965   6.492   2.069
 8352SOL    HW125955   0.038   6.465   2.052
 8352SOL    HW225956   6.956   6.591   2.063
 8353SOL     OW25957   0.253   3.477   2.151
 8353SOL    HW125958   0.338   3.425   2.157
 8353SOL    HW225959   0.182   3.419   2.111
 8354SOL     OW25960   2.498   1.089   6.960
 8354SOL    HW125961   2.489   1.153   6.884
 8354SOL    HW225962   2.583   1.038   6.951
 8355SOL     OW25963   3.156   0.861   0.056
 8355SOL    HW125964   3.179   0.809   0.139
 8355SOL    HW225965   3.122   0.799   7.007
 8356SOL     OW25966   2.078   5.326   0.099
 8356SOL    HW125967   2.126   5.271   0.030
 8356SOL    HW225968   2.037   5.406   0.056
 8357SOL     OW25969   4.751   5.438   4.580
 8357SOL    HW125970   4.737   5.535   4.597
 8357SOL    HW225971   4.747   5.420   4.481
 8358SOL     OW25972   2.116   2.826   5.751
 8358SOL    HW125973   2.078   2.735   5.734
 8358SOL    HW225974   2.117   2.878   5.665
 8359SOL     OW25975   4.393   5.099   4.212
 8359SOL    HW125976   4.367   5.144   4.297
 8359SOL    HW225977   4.339   5.136   4.137
 8360SOL     OW25978   4.381   0.186   3.415
 8360SOL    HW125979   4.384   0.280   3.449
 8360SOL    HW225980   4.446   0.176   3.340
 8361SOL     OW25981   1.890   0.511   2.625
 8361SOL    HW125982   1.887   0.540   2.530
 8361SOL    HW225983   1.920   0.415   2.630
 8362SOL     OW25984   2.475   2.312   0.143
 8362SOL    HW125985   2.382   2.323   0.177
 8362SOL    HW225986   2.528   2.394   0.163
 8363SOL     OW25987   0.328   3.051   0.652
 8363SOL    HW125988   0.314   3.117   0.726
 8363SOL    HW225989   0.262   3.068   0.579
 8364SOL     OW25990   6.185   3.942   3.849
 8364SOL    HW125991   6.088   3.916   3.847
 8364SOL    HW225992   6.208   3.980   3.938
 8365SOL     OW25993   2.386   3.418   6.137
 8365SOL    HW125994   2.297   3.373   6.124
 8365SOL    HW225995   2.378   3.515   6.115
 8366SOL     OW25996   2.956   6.367   3.022
 8366SOL    HW125997   2.883   6.430   2.996
 8366SOL    HW225998   2.931   6.319   3.106
 8367SOL     OW25999   5.689   5.554   3.785
 8367SOL    HW126000   5.686   5.634   3.846
 8367SOL    HW226001   5.777   5.509   3.795
 8368SOL     OW26002   3.031   5.096   6.381
 8368SOL    HW126003   3.059   5.146   6.299
 8368SOL    HW226004   3.068   5.141   6.462
 8369SOL     OW26005   2.080   1.068   1.072
 8369SOL    HW126006   2.055   0.981   1.029
 8369SOL    HW226007   2.176   1.066   1.099
 8370SOL     OW26008   1.095   1.715   6.528
 8370SOL    HW126009   1.053   1.803   6.503
 8370SOL    HW226010   1.149   1.726   6.611
 8371SOL     OW26011   1.902   3.060   0.621
 8371SOL    HW126012   1.847   3.003   0.559
 8371SOL    HW226013   1.964   3.117   0.567
 8372SOL     OW26014   0.159   0.962   2.377
 8372SOL    HW126015   0.128   0.890   2.314
 8372SOL    HW226016   0.216   1.027   2.327
 8373SOL     OW26017   1.610   6.750   5.170
 8373SOL    HW126018   1.650   6.840   5.155
 8373SOL    HW226019   1.683   6.683   5.187
 8374SOL     OW26020   6.404   6.751   6.684
 8374SOL    HW126021   6.377   6.655   6.693
 8374SOL    HW226022   6.425   6.771   6.589
 8375SOL     OW26023   3.689   0.334   6.920
 8375SOL    HW126024   3.776   0.373   6.948
 8375SOL    HW226025   3.616   0.370   6.978
 8376SOL     OW26026   3.186   0.646   4.694
 8376SOL    HW126027   3.115   0.575   4.690
 8376SOL    HW226028   3.147   0.730   4.731
 8377SOL     OW26029   5.585   4.287   1.042
 8377SOL    HW126030   5.494   4.256   1.070
 8377SOL    HW226031   5.636   4.316   1.123
 8378SOL     OW26032   5.137   2.852   3.597
 8378SOL    HW126033   5.145   2.940   3.643
 8378SOL    HW226034   5.080   2.790   3.652
 8379SOL     OW26035   5.873   2.409   2.358
 8379SOL    HW126036   5.948   2.368   2.410
 8379SOL    HW226037   5.880   2.508   2.361
 8380SOL     OW26038   4.581   1.522   3.619
 8380SOL    HW126039   4.626   1.548   3.533
 8380SOL    HW226040   4.642   1.540   3.696
 8381SOL     OW26041   1.937   5.828   4.739
 8381SOL    HW126042   2.034   5.828   4.765
 8381SOL    HW226043   1.884   5.781   4.810
 8382SOL     OW26044   1.276   2.759   2.411
 8382SOL    HW126045   1.286   2.771   2.510
 8382SOL    HW226046   1.180   2.742   2.389
 8383SOL     OW26047   2.628   2.305   6.105
 8383SOL    HW126048   2.637   2.328   6.202
 8383SOL    HW226049   2.541   2.341   6.070
 8384SOL     OW26050   0.705   6.924   2.027
 8384SOL    HW126051   0.762   7.002   2.053
 8384SOL    HW226052   0.629   6.956   1.971
 8385SOL     OW26053   5.468   2.158   1.072
 8385SOL    HW126054   5.473   2.258   1.076
 8385SOL    HW226055   5.398   2.126   1.137
 8386SOL     OW26056   0.852   4.446   2.672
 8386SOL    HW126057   0.830   4.405   2.583
 8386SOL    HW226058   0.829   4.381   2.744
 8387SOL     OW26059   0.514   2.299   1.200
 8387SOL    HW126060   0.466   2.249   1.272
 8387SOL    HW226061   0.480   2.269   1.110
 8388SOL     OW26062   1.827   6.746   2.793
 8388SOL    HW126063   1.752   6.741   2.726
 8388SOL    HW226064   1.804   6.690   2.873
 8389SOL     OW26065   5.061   2.824   2.451
 8389SOL    HW126066   5.035   2.729   2.435
 8389SOL    HW226067   5.089   2.866   2.364
 8390SOL     OW26068   5.219   1.068   5.815
 8390SOL    HW126069   5.215   0.970   5.835
 8390SOL    HW226070   5.274   1.114   5.884
 8391SOL     OW26071   6.612   6.935   1.481
 8391SOL    HW126072   6.582   6.977   1.395
 8391SOL    HW226073   6.595   6.836   1.477
 8392SOL     OW26074   5.320   3.044   4.908
 8392SOL    HW126075   5.419   3.044   4.896
 8392SOL    HW226076   5.279   2.974   4.849
 8393SOL     OW26077   5.483   0.586   1.358
 8393SOL    HW126078   5.428   0.613   1.279
 8393SOL    HW226079   5.512   0.668   1.408
 8394SOL     OW26080   5.436   3.402   1.668
 8394SOL    HW126081   5.341   3.382   1.695
 8394SOL    HW226082   5.445   3.389   1.569
 8395SOL     OW26083   1.848   1.477   4.658
 8395SOL    HW126084   1.796   1.528   4.589
 8395SOL    HW226085   1.807   1.491   4.748
 8396SOL     OW26086   3.838   5.252   4.474
 8396SOL    HW126087   3.886   5.252   4.562
 8396SOL    HW226088   3.779   5.333   4.469
 8397SOL     OW26089   6.094   1.012   2.280
 8397SOL    HW126090   6.151   0.961   2.345
 8397SOL    HW226091   6.038   1.078   2.331
 8398SOL     OW26092   4.292   2.073   6.261
 8398SOL    HW126093   4.355   2.150   6.273
 8398SOL    HW226094   4.343   1.993   6.229
 8399SOL     OW26095   6.540   5.189   0.808
 8399SOL    HW126096   6.558   5.195   0.906
 8399SOL    HW226097   6.442   5.190   0.791
 8400SOL     OW26098   1.494   2.585   4.647
 8400SOL    HW126099   1.512   2.684   4.647
 8400SOL    HW226100   1.395   2.570   4.642
 8401SOL     OW26101   2.661   6.996   6.134
 8401SOL    HW126102   2.723   0.001   6.060
 8401SOL    HW226103   2.713   6.958   6.210
 8402SOL     OW26104   3.495   0.568   6.046
 8402SOL    HW126105   3.426   0.582   6.116
 8402SOL    HW226106   3.559   0.497   6.074
 8403SOL     OW26107   6.247   4.666   4.464
 8403SOL    HW126108   6.178   4.699   4.399
 8403SOL    HW226109   6.330   4.641   4.415
 8404SOL     OW26110   0.951   1.932   6.263
 8404SOL    HW126111   0.868   1.979   6.234
 8404SOL    HW226112   0.966   1.851   6.206
 8405SOL     OW26113   3.518   0.528   5.755
 8405SOL    HW126114   3.514   0.520   5.855
 8405SOL    HW226115   3.599   0.581   5.729
 8406SOL     OW26116   4.887   0.052   5.810
 8406SOL    HW126117   4.949   0.110   5.863
 8406SOL    HW226118   4.819   0.110   5.764
 8407SOL     OW26119   3.397   0.119   4.071
 8407SOL    HW126120   3.360   0.194   4.124
 8407SOL    HW226121   3.435   0.050   4.133
 8408SOL     OW26122   3.763   1.429   1.600
 8408SOL    HW126123   3.742   1.332   1.597
 8408SOL    HW226124   3.679   1.481   1.615
 8409SOL     OW26125   4.194   2.270   2.191
 8409SOL    HW126126   4.256   2.203   2.230
 8409SOL    HW226127   4.236   2.360   2.193
 8410SOL     OW26128   6.768   1.770   1.201
 8410SOL    HW126129   6.700   1.807   1.137
 8410SOL    HW226130   6.803   1.684   1.165
 8411SOL     OW26131   1.896   5.230   0.766
 8411SOL    HW126132   1.836   5.308   0.784
 8411SOL    HW226133   1.928   5.192   0.852
 8412SOL     OW26134   2.452   2.467   6.302
 8412SOL    HW126135   2.472   2.382   6.350
 8412SOL    HW226136   2.356   2.468   6.274
 8413SOL     OW26137   4.649   5.878   5.048
 8413SOL    HW126138   4.553   5.850   5.046
 8413SOL    HW226139   4.708   5.797   5.057
 8414SOL     OW26140   1.427   0.631   1.347
 8414SOL    HW126141   1.463   0.719   1.380
 8414SOL    HW226142   1.480   0.556   1.385
 8415SOL     OW26143   2.211   0.928   5.723
 8415SOL    HW126144   2.297   0.969   5.693
 8415SOL    HW226145   2.139   0.997   5.723
 8416SOL     OW26146   6.559   1.782   5.198
 8416SOL    HW126147   6.461   1.781   5.220
 8416SOL    HW226148   6.585   1.872   5.164
 8417SOL     OW26149   1.529   3.586   5.465
 8417SOL    HW126150   1.514   3.533   5.548
 8417SOL    HW226151   1.620   3.564   5.428
 8418SOL     OW26152   0.521   5.957   2.221
 8418SOL    HW126153   0.508   5.920   2.313
 8418SOL    HW226154   0.564   6.047   2.228
 8419SOL     OW26155   3.974   1.891   4.351
 8419SOL    HW126156   3.907   1.816   4.356
 8419SOL    HW226157   3.925   1.978   4.356
 8420SOL     OW26158   3.165   0.357   1.920
 8420SOL    HW126159   3.121   0.401   1.998
 8420SOL    HW226160   3.257   0.328   1.946
 8421SOL     OW26161   4.730   6.932   6.449
 8421SOL    HW126162   4.683   6.867   6.390
 8421SOL    HW226163   4.819   6.954   6.409
 8422SOL     OW26164   5.151   2.201   3.341
 8422SOL    HW126165   5.182   2.113   3.305
 8422SOL    HW226166   5.066   2.187   3.392
 8423SOL     OW26167   6.762   5.438   6.393
 8423SOL    HW126168   6.748   5.467   6.299
 8423SOL    HW226169   6.815   5.507   6.442
 8424SOL     OW26170   2.569   0.200   4.308
 8424SOL    HW126171   2.478   0.218   4.346
 8424SOL    HW226172   2.592   0.270   4.240
 8425SOL     OW26173   3.696   3.911   2.669
 8425SOL    HW126174   3.727   3.821   2.640
 8425SOL    HW226175   3.745   3.938   2.752
 8426SOL     OW26176   3.971   3.012   1.963
 8426SOL    HW126177   4.021   3.097   1.979
 8426SOL    HW226178   3.929   2.981   2.048
 8427SOL     OW26179   3.533   3.663   3.954
 8427SOL    HW126180   3.625   3.642   3.985
 8427SOL    HW226181   3.520   3.630   3.861
 8428SOL     OW26182   6.545   6.995   1.247
 8428SOL    HW126183   6.575   6.913   1.199
 8428SOL    HW226184   6.494   0.032   1.185
 8429SOL     OW26185   2.539   5.981   5.665
 8429SOL    HW126186   2.478   6.056   5.688
 8429SOL    HW226187   2.518   5.902   5.723
 8430SOL     OW26188   4.082   6.680   4.942
 8430SOL    HW126189   4.029   6.743   4.999
 8430SOL    HW226190   4.019   6.615   4.898
 8431SOL     OW26191   2.507   3.396   6.373
 8431SOL    HW126192   2.557   3.483   6.372
 8431SOL    HW226193   2.447   3.390   6.293
 8432SOL     OW26194   6.632   4.944   6.175
 8432SOL    HW126195   6.715   4.947   6.232
 8432SOL    HW226196   6.571   4.872   6.208
 8433SOL     OW26197   5.580   2.614   1.101
 8433SOL    HW126198   5.579   2.714   1.106
 8433SOL    HW226199   5.632   2.586   1.021
 8434SOL     OW26200   2.395   5.959   5.351
 8434SOL    HW126201   2.386   5.883   5.287
 8434SOL    HW226202   2.487   5.998   5.344
 8435SOL     OW26203   5.032   1.445   3.204
 8435SOL    HW126204   5.024   1.540   3.235
 8435SOL    HW226205   5.122   1.409   3.229
 8436SOL     OW26206   2.424   5.671   2.295
 8436SOL    HW126207   2.376   5.587   2.271
 8436SOL    HW226208   2.358   5.742   2.319
 8437SOL     OW26209   1.290   4.612   2.226
 8437SOL    HW126210   1.355   4.591   2.298
 8437SOL    HW226211   1.321   4.572   2.140
 8438SOL     OW26212   1.112   4.106   2.046
 8438SOL    HW126213   1.048   4.072   2.114
 8438SOL    HW226214   1.102   4.053   1.961
 8439SOL     OW26215   6.066   5.174   3.232
 8439SOL    HW126216   6.023   5.251   3.187
 8439SOL    HW226217   5.998   5.124   3.286
 8440SOL     OW26218   2.315   1.262   2.931
 8440SOL    HW126219   2.241   1.328   2.920
 8440SOL    HW226220   2.310   1.221   3.022
 8441SOL     OW26221   6.154   1.069   4.641
 8441SOL    HW126222   6.117   1.056   4.733
 8441SOL    HW226223   6.253   1.054   4.642
 8442SOL     OW26224   3.191   1.379   6.856
 8442SOL    HW126225   3.259   1.443   6.893
 8442SOL    HW226226   3.220   1.285   6.875
 8443SOL     OW26227   1.032   4.066   3.543
 8443SOL    HW126228   1.111   4.091   3.488
 8443SOL    HW226229   1.015   3.967   3.534
 8444SOL     OW26230   5.403   5.138   4.656
 8444SOL    HW126231   5.344   5.061   4.632
 8444SOL    HW226232   5.364   5.187   4.734
 8445SOL     OW26233   4.584   6.121   6.674
 8445SOL    HW126234   4.534   6.035   6.673
 8445SOL    HW226235   4.525   6.193   6.711
 8446SOL     OW26236   0.171   5.605   4.711
 8446SOL    HW126237   0.144   5.509   4.708
 8446SOL    HW226238   0.243   5.622   4.643
 8447SOL     OW26239   4.022   2.200   3.350
 8447SOL    HW126240   3.967   2.119   3.328
 8447SOL    HW226241   3.967   2.264   3.403
 8448SOL     OW26242   3.471   6.339   2.948
 8448SOL    HW126243   3.475   6.279   2.868
 8448SOL    HW226244   3.513   6.427   2.926
 8449SOL     OW26245   2.013   2.227   3.323
 8449SOL    HW126246   2.067   2.294   3.373
 8449SOL    HW226247   2.070   2.146   3.304
 8450SOL     OW26248   0.315   1.202   6.877
 8450SOL    HW126249   0.264   1.151   6.809
 8450SOL    HW226250   0.413   1.192   6.860
 8451SOL     OW26251   4.508   2.493   0.985
 8451SOL    HW126252   4.438   2.543   0.934
 8451SOL    HW226253   4.465   2.434   1.053
 8452SOL     OW26254   5.121   2.025   5.503
 8452SOL    HW126255   5.036   2.004   5.552
 8452SOL    HW226256   5.145   1.948   5.444
 8453SOL     OW26257   0.294   6.089   0.795
 8453SOL    HW126258   0.346   6.008   0.768
 8453SOL    HW226259   0.206   6.061   0.834
 8454SOL     OW26260   6.722   4.073   6.901
 8454SOL    HW126261   6.812   4.109   6.922
 8454SOL    HW226262   6.727   4.015   6.820
 8455SOL     OW26263   0.182   1.082   2.794
 8455SOL    HW126264   0.186   1.012   2.866
 8455SOL    HW226265   0.266   1.136   2.796
 8456SOL     OW26266   6.105   0.697   3.407
 8456SOL    HW126267   6.084   0.750   3.324
 8456SOL    HW226268   6.092   0.755   3.487
 8457SOL     OW26269   6.604   0.150   5.534
 8457SOL    HW126270   6.584   0.069   5.588
 8457SOL    HW226271   6.588   0.131   5.437
 8458SOL     OW26272   6.969   6.531   6.702
 8458SOL    HW126273   6.977   6.566   6.796
 8458SOL    HW226274   6.880   6.556   6.665
 8459SOL     OW26275   1.512   5.694   3.374
 8459SOL    HW126276   1.608   5.721   3.385
 8459SOL    HW226277   1.455   5.776   3.364
 8460SOL     OW26278   3.324   4.014   3.128
 8460SOL    HW126279   3.354   4.062   3.045
 8460SOL    HW226280   3.292   4.082   3.195
 8461SOL     OW26281   6.403   3.781   3.911
 8461SOL    HW126282   6.359   3.693   3.930
 8461SOL    HW226283   6.336   3.842   3.868
 8462SOL     OW26284   2.052   3.161   1.750
 8462SOL    HW126285   2.114   3.233   1.720
 8462SOL    HW226286   2.098   3.105   1.820
 8463SOL     OW26287   5.267   1.110   1.878
 8463SOL    HW126288   5.177   1.142   1.908
 8463SOL    HW226289   5.266   1.011   1.865
 8464SOL     OW26290   6.700   2.156   4.718
 8464SOL    HW126291   6.710   2.080   4.654
 8464SOL    HW226292   6.768   2.226   4.698
 8465SOL     OW26293   1.426   2.230   0.137
 8465SOL    HW126294   1.480   2.174   0.199
 8465SOL    HW226295   1.485   2.267   0.065
 8466SOL     OW26296   0.348   0.090   3.916
 8466SOL    HW126297   0.290   0.044   3.983
 8466SOL    HW226298   0.290   0.138   3.850
 8467SOL     OW26299   3.171   5.427   0.817
 8467SOL    HW126300   3.143   5.421   0.913
 8467SOL    HW226301   3.215   5.515   0.801
 8468SOL     OW26302   4.811   1.847   0.852
 8468SOL    HW126303   4.752   1.911   0.802
 8468SOL    HW226304   4.906   1.862   0.825
 8469SOL     OW26305   3.669   2.702   6.817
 8469SOL    HW126306   3.723   2.774   6.772
 8469SOL    HW226307   3.729   2.627   6.844
 8470SOL     OW26308   1.524   2.873   6.813
 8470SOL    HW126309   1.571   2.788   6.788
 8470SOL    HW226310   1.485   2.865   6.904
 8471SOL     OW26311   4.246   1.480   4.203
 8471SOL    HW126312   4.296   1.566   4.213
 8471SOL    HW226313   4.249   1.450   4.108
 8472SOL     OW26314   1.095   6.572   3.429
 8472SOL    HW126315   1.133   6.647   3.374
 8472SOL    HW226316   1.069   6.496   3.370
 8473SOL     OW26317   6.348   5.893   0.253
 8473SOL    HW126318   6.315   5.895   0.159
 8473SOL    HW226319   6.402   5.809   0.268
 8474SOL     OW26320   4.301   4.959   0.487
 8474SOL    HW126321   4.293   4.979   0.389
 8474SOL    HW226322   4.212   4.974   0.531
 8475SOL     OW26323   4.301   1.233   3.580
 8475SOL    HW126324   4.393   1.194   3.573
 8475SOL    HW226325   4.301   1.325   3.539
 8476SOL     OW26326   4.947   0.665   2.704
 8476SOL    HW126327   4.923   0.568   2.690
 8476SOL    HW226328   4.878   0.708   2.761
 8477SOL     OW26329   2.888   1.434   2.178
 8477SOL    HW126330   2.963   1.367   2.182
 8477SOL    HW226331   2.913   1.514   2.233
 8478SOL     OW26332   1.717   0.295   5.692
 8478SOL    HW126333   1.816   0.293   5.702
 8478SOL    HW226334   1.678   0.358   5.758
 8479SOL     OW26335   4.572   1.162   2.241
 8479SOL    HW126336   4.559   1.134   2.146
 8479SOL    HW226337   4.597   1.259   2.244
 8480SOL     OW26338   1.318   1.246   1.252
 8480SOL    HW126339   1.263   1.243   1.169
 8480SOL    HW226340   1.284   1.317   1.313
 8481SOL     OW26341   3.750   6.833   4.249
 8481SOL    HW126342   3.850   6.842   4.244
 8481SOL    HW226343   3.726   6.737   4.262
 8482SOL     OW26344   0.745   0.268   2.262
 8482SOL    HW126345   0.709   0.262   2.168
 8482SOL    HW226346   0.730   0.360   2.297
 8483SOL     OW26347   4.504   5.802   2.135
 8483SOL    HW126348   4.548   5.730   2.190
 8483SOL    HW226349   4.561   5.823   2.056
 8484SOL     OW26350   0.718   4.660   4.843
 8484SOL    HW126351   0.772   4.616   4.915
 8484SOL    HW226352   0.778   4.713   4.784
 8485SOL     OW26353   2.762   3.095   5.840
 8485SOL    HW126354   2.692   3.145   5.891
 8485SOL    HW226355   2.845   3.152   5.833
 8486SOL     OW26356   4.280   0.679   2.623
 8486SOL    HW126357   4.281   0.580   2.639
 8486SOL    HW226358   4.261   0.696   2.526
 8487SOL     OW26359   4.491   6.993   1.328
 8487SOL    HW126360   4.395   6.997   1.300
 8487SOL    HW226361   4.498   7.015   1.425
 8488SOL     OW26362   5.133   2.915   4.399
 8488SOL    HW126363   5.171   2.977   4.330
 8488SOL    HW226364   5.040   2.944   4.422
 8489SOL     OW26365   4.326   5.036   3.068
 8489SOL    HW126366   4.347   5.133   3.057
 8489SOL    HW226367   4.303   5.017   3.163
 8490SOL     OW26368   3.864   5.478   2.686
 8490SOL    HW126369   3.872   5.577   2.669
 8490SOL    HW226370   3.774   5.459   2.725
 8491SOL     OW26371   1.924   0.927   1.844
 8491SOL    HW126372   1.887   0.850   1.792
 8491SOL    HW226373   1.971   0.989   1.782
 8492SOL     OW26374   5.627   3.731   4.398
 8492SOL    HW126375   5.631   3.675   4.481
 8492SOL    HW226376   5.668   3.821   4.417
 8493SOL     OW26377   3.387   2.403   0.443
 8493SOL    HW126378   3.289   2.391   0.431
 8493SOL    HW226379   3.418   2.482   0.389
 8494SOL     OW26380   3.791   5.700   0.300
 8494SOL    HW126381   3.748   5.647   0.228
 8494SOL    HW226382   3.842   5.776   0.260
 8495SOL     OW26383   0.424   2.822   0.052
 8495SOL    HW126384   0.386   2.912   0.030
 8495SOL    HW226385   0.478   2.828   0.136
 8496SOL     OW26386   6.399   2.968   3.233
 8496SOL    HW126387   6.429   3.063   3.244
 8496SOL    HW226388   6.353   2.958   3.145
 8497SOL     OW26389   5.996   5.555   3.335
 8497SOL    HW126390   5.907   5.592   3.361
 8497SOL    HW226391   6.050   5.626   3.289
 8498SOL     OW26392   6.795   1.009   0.786
 8498SOL    HW126393   6.887   0.972   0.770
 8498SOL    HW226394   6.727   0.936   0.777
 8499SOL     OW26395   3.230   4.102   6.273
 8499SOL    HW126396   3.151   4.105   6.334
 8499SOL    HW226397   3.207   4.147   6.187
 8500SOL     OW26398   3.289   0.880   6.438
 8500SOL    HW126399   3.363   0.913   6.379
 8500SOL    HW226400   3.314   0.897   6.534
 8501SOL     OW26401   2.405   4.434   6.009
 8501SOL    HW126402   2.344   4.403   6.081
 8501SOL    HW226403   2.411   4.364   5.938
 8502SOL     OW26404   0.168   0.297   2.191
 8502SOL    HW126405   0.190   0.358   2.115
 8502SOL    HW226406   0.248   0.288   2.250
 8503SOL     OW26407   3.100   5.853   3.207
 8503SOL    HW126408   3.071   5.779   3.268
 8503SOL    HW226409   3.130   5.931   3.262
 8504SOL     OW26410   0.855   5.635   3.025
 8504SOL    HW126411   0.839   5.733   3.025
 8504SOL    HW226412   0.846   5.599   3.118
 8505SOL     OW26413   4.810   2.943   3.898
 8505SOL    HW126414   4.811   2.952   3.997
 8505SOL    HW226415   4.904   2.939   3.863
 8506SOL     OW26416   0.868   6.653   0.482
 8506SOL    HW126417   0.950   6.658   0.540
 8506SOL    HW226418   0.885   6.703   0.397
 8507SOL     OW26419   2.282   1.094   4.632
 8507SOL    HW126420   2.205   1.077   4.570
 8507SOL    HW226421   2.354   1.144   4.583
 8508SOL     OW26422   1.064   3.140   6.137
 8508SOL    HW126423   1.078   3.233   6.169
 8508SOL    HW226424   1.137   3.081   6.172
 8509SOL     OW26425   5.921   2.215   4.707
 8509SOL    HW126426   5.920   2.140   4.642
 8509SOL    HW226427   5.968   2.294   4.667
 8510SOL     OW26428   4.993   0.386   2.962
 8510SOL    HW126429   5.050   0.364   2.883
 8510SOL    HW226430   4.916   0.323   2.965
 8511SOL     OW26431   0.072   4.853   1.759
 8511SOL    HW126432   0.167   4.833   1.783
 8511SOL    HW226433   0.012   4.790   1.809
 8512SOL     OW26434   4.311   2.189   0.404
 8512SOL    HW126435   4.252   2.200   0.324
 8512SOL    HW226436   4.384   2.257   0.400
 8513SOL     OW26437   0.444   4.253   1.271
 8513SOL    HW126438   0.481   4.186   1.335
 8513SOL    HW226439   0.424   4.338   1.319
 8514SOL     OW26440   2.297   2.506   5.844
 8514SOL    HW126441   2.334   2.416   5.824
 8514SOL    HW226442   2.366   2.576   5.823
 8515SOL     OW26443   1.421   0.261   1.027
 8515SOL    HW126444   1.461   0.277   0.937
 8515SOL    HW226445   1.342   0.201   1.018
 8516SOL     OW26446   5.368   2.300   3.847
 8516SOL    HW126447   5.445   2.251   3.805
 8516SOL    HW226448   5.286   2.288   3.791
 8517SOL     OW26449   1.744   1.827   5.838
 8517SOL    HW126450   1.750   1.744   5.783
 8517SOL    HW226451   1.700   1.806   5.926
 8518SOL     OW26452   5.183   4.746   0.152
 8518SOL    HW126453   5.172   4.829   0.207
 8518SOL    HW226454   5.107   4.684   0.170
 8519SOL     OW26455   1.235   3.359   0.925
 8519SOL    HW126456   1.298   3.340   1.000
 8519SOL    HW226457   1.187   3.276   0.899
 8520SOL     OW26458   3.911   3.897   6.039
 8520SOL    HW126459   3.882   3.991   6.020
 8520SOL    HW226460   4.006   3.885   6.011
 8521SOL     OW26461   1.778   6.577   5.742
 8521SOL    HW126462   1.840   6.501   5.758
 8521SOL    HW226463   1.726   6.560   5.658
 8522SOL     OW26464   0.700   6.913   0.484
 8522SOL    HW126465   0.617   6.858   0.484
 8522SOL    HW226466   0.677   7.009   0.468
 8523SOL     OW26467   3.149   1.440   0.182
 8523SOL    HW126468   3.236   1.488   0.179
 8523SOL    HW226469   3.163   1.345   0.209
 8524SOL     OW26470   1.724   5.793   4.502
 8524SOL    HW126471   1.794   5.804   4.573
 8524SOL    HW226472   1.760   5.826   4.415
 8525SOL     OW26473   6.392   4.450   1.771
 8525SOL    HW126474   6.322   4.475   1.704
 8525SOL    HW226475   6.401   4.523   1.839
 8526SOL     OW26476   0.787   5.203   0.603
 8526SOL    HW126477   0.822   5.217   0.511
 8526SOL    HW226478   0.863   5.200   0.668
 8527SOL     OW26479   3.035   0.849   5.410
 8527SOL    HW126480   2.983   0.927   5.443
 8527SOL    HW226481   2.983   0.801   5.340
 8528SOL     OW26482   4.871   1.578   0.155
 8528SOL    HW126483   4.795   1.517   0.132
 8528SOL    HW226484   4.936   1.581   0.079
 8529SOL     OW26485   1.095   5.924   6.426
 8529SOL    HW126486   1.111   6.000   6.489
 8529SOL    HW226487   1.055   5.960   6.341
 8530SOL     OW26488   3.048   3.846   3.960
 8530SOL    HW126489   2.981   3.787   3.916
 8530SOL    HW226490   3.138   3.802   3.958
 8531SOL     OW26491   6.743   5.226   4.227
 8531SOL    HW126492   6.811   5.220   4.299
 8531SOL    HW226493   6.653   5.204   4.264
 8532SOL     OW26494   2.607   5.020   5.811
 8532SOL    HW126495   2.571   5.024   5.904
 8532SOL    HW226496   2.546   5.070   5.749
 8533SOL     OW26497   2.780   6.295   5.913
 8533SOL    HW126498   2.722   6.258   5.986
 8533SOL    HW226499   2.792   6.226   5.842
 8534SOL     OW26500   2.215   2.375   3.529
 8534SOL    HW126501   2.293   2.436   3.511
 8534SOL    HW226502   2.137   2.430   3.560
 8535SOL     OW26503   6.153   0.598   2.665
 8535SOL    HW126504   6.219   0.662   2.705
 8535SOL    HW226505   6.170   0.591   2.567
 8536SOL     OW26506   0.677   1.389   5.051
 8536SOL    HW126507   0.742   1.447   5.099
 8536SOL    HW226508   0.691   1.397   4.952
 8537SOL     OW26509   6.958   1.186   2.700
 8537SOL    HW126510   0.029   1.162   2.729
 8537SOL    HW226511   6.956   1.283   2.673
 8538SOL     OW26512   0.801   2.752   0.150
 8538SOL    HW126513   0.747   2.835   0.163
 8538SOL    HW226514   0.746   2.672   0.173
 8539SOL     OW26515   5.726   2.415   2.848
 8539SOL    HW126516   5.633   2.427   2.882
 8539SOL    HW226517   5.737   2.323   2.812
 8540SOL     OW26518   3.488   0.348   0.529
 8540SOL    HW126519   3.585   0.353   0.552
 8540SOL    HW226520   3.435   0.343   0.613
 8541SOL     OW26521   1.939   2.968   4.587
 8541SOL    HW126522   2.033   2.992   4.564
 8541SOL    HW226523   1.939   2.902   4.662
 8542SOL     OW26524   3.632   4.895   0.900
 8542SOL    HW126525   3.726   4.878   0.930
 8542SOL    HW226526   3.618   4.853   0.810
 8543SOL     OW26527   2.235   1.926   6.331
 8543SOL    HW126528   2.184   1.859   6.385
 8543SOL    HW226529   2.177   2.006   6.313
 8544SOL     OW26530   6.393   2.838   3.469
 8544SOL    HW126531   6.374   2.881   3.381
 8544SOL    HW226532   6.445   2.754   3.455
 8545SOL     OW26533   4.884   6.551   4.995
 8545SOL    HW126534   4.849   6.616   4.928
 8545SOL    HW226535   4.808   6.496   5.031
 8546SOL     OW26536   4.399   1.539   6.223
 8546SOL    HW126537   4.317   1.485   6.243
 8546SOL    HW226538   4.435   1.578   6.307
 8547SOL     OW26539   0.750   4.534   3.077
 8547SOL    HW126540   0.667   4.579   3.111
 8547SOL    HW226541   0.812   4.516   3.153
 8548SOL     OW26542   6.136   1.332   5.429
 8548SOL    HW126543   6.159   1.242   5.465
 8548SOL    HW226544   6.041   1.353   5.450
 8549SOL     OW26545   5.696   3.287   4.827
 8549SOL    HW126546   5.611   3.317   4.782
 8549SOL    HW226547   5.684   3.195   4.863
 8550SOL     OW26548   0.957   3.846   6.478
 8550SOL    HW126549   1.033   3.802   6.431
 8550SOL    HW226550   0.952   3.814   6.572
 8551SOL     OW26551   2.955   3.945   1.255
 8551SOL    HW126552   2.903   4.022   1.217
 8551SOL    HW226553   2.953   3.951   1.355
 8552SOL     OW26554   3.271   6.695   4.139
 8552SOL    HW126555   3.266   6.784   4.185
 8552SOL    HW226556   3.187   6.680   4.087
 8553SOL     OW26557   5.921   5.292   0.503
 8553SOL    HW126558   5.961   5.223   0.563
 8553SOL    HW226559   5.848   5.340   0.551
 8554SOL     OW26560   6.491   4.178   6.799
 8554SOL    HW126561   6.566   4.128   6.844
 8554SOL    HW226562   6.406   4.127   6.811
 8555SOL     OW26563   0.693   6.815   4.454
 8555SOL    HW126564   0.703   6.744   4.524
 8555SOL    HW226565   0.612   6.795   4.399
 8556SOL     OW26566   6.386   0.317   3.965
 8556SOL    HW126567   6.318   0.249   3.992
 8556SOL    HW226568   6.378   0.398   4.022
 8557SOL     OW26569   0.456   0.939   0.345
 8557SOL    HW126570   0.518   1.014   0.367
 8557SOL    HW226571   0.447   0.879   0.424
 8558SOL     OW26572   1.068   5.461   2.004
 8558SOL    HW126573   0.970   5.442   2.014
 8558SOL    HW226574   1.110   5.391   1.946
 8559SOL     OW26575   0.467   1.450   6.128
 8559SOL    HW126576   0.540   1.458   6.197
 8559SOL    HW226577   0.507   1.421   6.041
 8560SOL     OW26578   6.543   2.671   6.598
 8560SOL    HW126579   6.640   2.676   6.574
 8560SOL    HW226580   6.511   2.577   6.587
 8561SOL     OW26581   4.925   6.990   4.769
 8561SOL    HW126582   4.980   0.050   4.787
 8561SOL    HW226583   4.985   6.913   4.748
 8562SOL     OW26584   3.496   6.961   4.256
 8562SOL    HW126585   3.426   6.955   4.326
 8562SOL    HW226586   3.576   6.908   4.284
 8563SOL     OW26587   2.782   2.615   5.999
 8563SOL    HW126588   2.879   2.636   6.013
 8563SOL    HW226589   2.741   2.686   5.942
 8564SOL     OW26590   0.075   6.959   3.637
 8564SOL    HW126591   7.000   6.954   3.609
 8564SOL    HW226592   0.090   0.022   3.688
 8565SOL     OW26593   4.559   0.464   1.867
 8565SOL    HW126594   4.507   0.534   1.915
 8565SOL    HW226595   4.613   0.411   1.933
 8566SOL     OW26596   2.138   3.872   3.111
 8566SOL    HW126597   2.161   3.969   3.105
 8566SOL    HW226598   2.123   3.835   3.020
 8567SOL     OW26599   5.337   6.386   0.643
 8567SOL    HW126600   5.360   6.288   0.639
 8567SOL    HW226601   5.395   6.436   0.579
 8568SOL     OW26602   5.641   1.529   0.215
 8568SOL    HW126603   5.574   1.576   0.158
 8568SOL    HW226604   5.637   1.431   0.197
 8569SOL     OW26605   4.248   1.693   5.390
 8569SOL    HW126606   4.271   1.790   5.404
 8569SOL    HW226607   4.158   1.687   5.346
 8570SOL     OW26608   0.867   4.533   6.715
 8570SOL    HW126609   0.774   4.557   6.744
 8570SOL    HW226610   0.873   4.435   6.697
 8571SOL     OW26611   7.007   4.561   4.551
 8571SOL    HW126612   6.981   4.478   4.601
 8571SOL    HW226613   6.928   4.621   4.542
 8572SOL     OW26614   3.200   4.889   5.373
 8572SOL    HW126615   3.197   4.789   5.373
 8572SOL    HW226616   3.116   4.924   5.415
 8573SOL     OW26617   4.450   5.716   4.924
 8573SOL    HW126618   4.494   5.734   4.836
 8573SOL    HW226619   4.371   5.656   4.910
 8574SOL     OW26620   0.618   3.758   4.296
 8574SOL    HW126621   0.711   3.722   4.301
 8574SOL    HW226622   0.609   3.834   4.360
 8575SOL     OW26623   3.111   3.117   6.470
 8575SOL    HW126624   3.104   3.023   6.436
 8575SOL    HW226625   3.064   3.178   6.407
 8576SOL     OW26626   1.927   7.020   1.791
 8576SOL    HW126627   1.955   6.951   1.725
 8576SOL    HW226628   1.916   6.978   1.881
 8577SOL     OW26629   6.853   5.438   3.139
 8577SOL    HW126630   6.915   5.440   3.218
 8577SOL    HW226631   6.907   5.429   3.055
 8578SOL     OW26632   4.624   6.923   3.736
 8578SOL    HW126633   4.583   6.895   3.822
 8578SOL    HW226634   4.722   6.939   3.749
 8579SOL     OW26635   0.589   5.807   2.795
 8579SOL    HW126636   0.619   5.720   2.756
 8579SOL    HW226637   0.665   5.851   2.843
 8580SOL     OW26638   3.078   4.441   5.921
 8580SOL    HW126639   3.097   4.532   5.959
 8580SOL    HW226640   3.121   4.371   5.978
 8581SOL     OW26641   3.145   2.750   0.899
 8581SOL    HW126642   3.219   2.816   0.891
 8581SOL    HW226643   3.109   2.730   0.808
 8582SOL     OW26644   4.573   4.114   1.180
 8582SOL    HW126645   4.664   4.153   1.189
 8582SOL    HW226646   4.506   4.187   1.171
 8583SOL     OW26647   5.392   0.460   5.998
 8583SOL    HW126648   5.331   0.520   5.946
 8583SOL    HW226649   5.384   0.480   6.095
 8584SOL     OW26650   0.171   5.379   6.424
 8584SOL    HW126651   0.227   5.297   6.415
 8584SOL    HW226652   0.172   5.409   6.519
 8585SOL     OW26653   1.165   1.077   0.901
 8585SOL    HW126654   1.102   1.089   0.825
 8585SOL    HW226655   1.258   1.098   0.871
 8586SOL     OW26656   4.132   5.464   4.008
 8586SOL    HW126657   4.105   5.409   4.087
 8586SOL    HW226658   4.050   5.485   3.953
 8587SOL     OW26659   0.186   1.749   1.382
 8587SOL    HW126660   0.125   1.815   1.339
 8587SOL    HW226661   0.154   1.729   1.475
 8588SOL     OW26662   4.148   2.252   0.208
 8588SOL    HW126663   4.135   2.256   0.109
 8588SOL    HW226664   4.095   2.324   0.252
 8589SOL     OW26665   2.830   1.546   4.605
 8589SOL    HW126666   2.895   1.621   4.596
 8589SOL    HW226667   2.830   1.513   4.700
 8590SOL     OW26668   6.306   4.709   5.694
 8590SOL    HW126669   6.388   4.737   5.644
 8590SOL    HW226670   6.270   4.787   5.746
 8591SOL     OW26671   0.695   2.923   6.979
 8591SOL    HW126672   0.689   2.902   6.882
 8591SOL    HW226673   0.620   2.984   7.005
 8592SOL     OW26674   6.426   5.709   6.251
 8592SOL    HW126675   6.422   5.726   6.349
 8592SOL    HW226676   6.393   5.789   6.201
 8593SOL     OW26677   0.489   0.079   3.097
 8593SOL    HW126678   0.441   0.112   3.015
 8593SOL    HW226679   0.490   0.151   3.166
 8594SOL     OW26680   3.300   3.623   3.391
 8594SOL    HW126681   3.369   3.554   3.411
 8594SOL    HW226682   3.311   3.656   3.297
 8595SOL     OW26683   1.938   2.828   1.965
 8595SOL    HW126684   1.945   2.804   2.062
 8595SOL    HW226685   1.989   2.762   1.910
 8596SOL     OW26686   6.518   4.424   2.465
 8596SOL    HW126687   6.477   4.421   2.374
 8596SOL    HW226688   6.522   4.518   2.497
 8597SOL     OW26689   2.129   1.626   0.757
 8597SOL    HW126690   2.215   1.671   0.784
 8597SOL    HW226691   2.075   1.688   0.700
 8598SOL     OW26692   5.169   4.235   0.704
 8598SOL    HW126693   5.194   4.199   0.614
 8598SOL    HW226694   5.206   4.175   0.775
 8599SOL     OW26695   1.546   3.044   2.208
 8599SOL    HW126696   1.559   3.111   2.134
 8599SOL    HW226697   1.472   2.982   2.184
 8600SOL     OW26698   5.962   3.745   6.334
 8600SOL    HW126699   6.045   3.709   6.378
 8600SOL    HW226700   5.913   3.804   6.399
 8601SOL     OW26701   0.356   0.523   4.477
 8601SOL    HW126702   0.383   0.545   4.570
 8601SOL    HW226703   0.331   0.427   4.471
 8602SOL     OW26704   2.369   6.037   2.212
 8602SOL    HW126705   2.409   6.114   2.262
 8602SOL    HW226706   2.288   6.069   2.162
 8603SOL     OW26707   4.481   3.651   1.064
 8603SOL    HW126708   4.424   3.625   1.142
 8603SOL    HW226709   4.573   3.673   1.097
 8604SOL     OW26710   5.275   2.377   2.759
 8604SOL    HW126711   5.186   2.356   2.800
 8604SOL    HW226712   5.339   2.404   2.832
 8605SOL     OW26713   3.086   6.764   2.203
 8605SOL    HW126714   3.179   6.789   2.177
 8605SOL    HW226715   3.051   6.697   2.138
 8606SOL     OW26716   4.074   5.078   5.970
 8606SOL    HW126717   4.122   5.165   5.976
 8606SOL    HW226718   4.117   5.020   5.901
 8607SOL     OW26719   3.528   6.121   1.560
 8607SOL    HW126720   3.448   6.062   1.576
 8607SOL    HW226721   3.550   6.171   1.644
 8608SOL     OW26722   5.166   6.315   2.620
 8608SOL    HW126723   5.172   6.216   2.608
 8608SOL    HW226724   5.258   6.353   2.631
 8609SOL     OW26725   4.334   0.302   6.012
 8609SOL    HW126726   4.380   0.282   6.098
 8609SOL    HW226727   4.281   0.223   5.983
 8610SOL     OW26728   0.377   6.724   4.535
 8610SOL    HW126729   0.455   6.689   4.587
 8610SOL    HW226730   0.329   6.793   4.590
 8611SOL     OW26731   1.645   2.015   3.358
 8611SOL    HW126732   1.675   2.073   3.283
 8611SOL    HW226733   1.681   2.050   3.445
 8612SOL     OW26734   4.676   2.863   5.116
 8612SOL    HW126735   4.642   2.910   5.034
 8612SOL    HW226736   4.714   2.774   5.090
 8613SOL     OW26737   1.167   1.335   0.112
 8613SOL    HW126738   1.226   1.353   0.033
 8613SOL    HW226739   1.143   1.421   0.156
 8614SOL     OW26740   1.125   1.481   3.316
 8614SOL    HW126741   1.155   1.416   3.246
 8614SOL    HW226742   1.199   1.546   3.335
 8615SOL     OW26743   4.395   2.273   5.411
 8615SOL    HW126744   4.331   2.291   5.337
 8615SOL    HW226745   4.471   2.218   5.377
 8616SOL     OW26746   1.444   3.507   7.001
 8616SOL    HW126747   1.501   3.577   6.958
 8616SOL    HW226748   1.481   3.485   0.070
 8617SOL     OW26749   6.203   3.429   1.317
 8617SOL    HW126750   6.115   3.457   1.277
 8617SOL    HW226751   6.205   3.330   1.327
 8618SOL     OW26752   5.163   0.415   3.172
 8618SOL    HW126753   5.234   0.345   3.180
 8618SOL    HW226754   5.095   0.386   3.104
 8619SOL     OW26755   4.420   5.781   0.611
 8619SOL    HW126756   4.337   5.732   0.635
 8619SOL    HW226757   4.429   5.785   0.511
 8620SOL     OW26758   6.001   6.536   3.381
 8620SOL    HW126759   5.948   6.519   3.464
 8620SOL    HW226760   6.098   6.527   3.402
 8621SOL     OW26761   5.820   0.828   3.169
 8621SOL    HW126762   5.824   0.747   3.227
 8621SOL    HW226763   5.725   0.856   3.157
 8622SOL     OW26764   5.289   5.794   6.899
 8622SOL    HW126765   5.252   5.871   6.846
 8622SOL    HW226766   5.388   5.790   6.887
 8623SOL     OW26767   6.589   3.018   2.984
 8623SOL    HW126768   6.526   3.077   3.034
 8623SOL    HW226769   6.539   2.942   2.943
 8624SOL     OW26770   0.361   4.981   3.516
 8624SOL    HW126771   0.324   4.980   3.609
 8624SOL    HW226772   0.451   5.026   3.516
 8625SOL     OW26773   3.585   0.821   5.980
 8625SOL    HW126774   3.579   0.721   5.979
 8625SOL    HW226775   3.648   0.851   5.908
 8626SOL     OW26776   3.319   2.959   2.418
 8626SOL    HW126777   3.257   3.030   2.385
 8626SOL    HW226778   3.350   2.903   2.341
 8627SOL     OW26779   2.246   0.193   6.454
 8627SOL    HW126780   2.214   0.134   6.380
 8627SOL    HW226781   2.225   0.288   6.432
 8628SOL     OW26782   5.923   1.466   0.119
 8628SOL    HW126783   5.891   1.382   0.075
 8628SOL    HW226784   5.844   1.526   0.136
 8629SOL     OW26785   1.233   5.393   3.748
 8629SOL    HW126786   1.290   5.361   3.823
 8629SOL    HW226787   1.187   5.315   3.706
 8630SOL     OW26788   5.249   4.760   4.116
 8630SOL    HW126789   5.239   4.768   4.215
 8630SOL    HW226790   5.169   4.800   4.071
 8631SOL     OW26791   3.588   5.847   3.956
 8631SOL    HW126792   3.624   5.766   3.911
 8631SOL    HW226793   3.489   5.850   3.948
 8632SOL     OW26794   4.812   0.690   3.376
 8632SOL    HW126795   4.757   0.634   3.438
 8632SOL    HW226796   4.900   0.646   3.359
 8633SOL     OW26797   6.394   0.717   3.968
 8633SOL    HW126798   6.344   0.654   4.027
 8633SOL    HW226799   6.352   0.719   3.877
 8634SOL     OW26800   6.239   5.218   1.832
 8634SOL    HW126801   6.320   5.236   1.887
 8634SOL    HW226802   6.252   5.254   1.740
 8635SOL     OW26803   6.469   3.775   5.580
 8635SOL    HW126804   6.545   3.785   5.516
 8635SOL    HW226805   6.485   3.695   5.638
 8636SOL     OW26806   5.275   5.658   0.123
 8636SOL    HW126807   5.253   5.720   0.048
 8636SOL    HW226808   5.372   5.664   0.144
 8637SOL     OW26809   1.586   0.415   1.419
 8637SOL    HW126810   1.563   0.336   1.362
 8637SOL    HW226811   1.685   0.421   1.430
 8638SOL     OW26812   4.454   5.421   0.274
 8638SOL    HW126813   4.413   5.386   0.358
 8638SOL    HW226814   4.553   5.408   0.277
 8639SOL     OW26815   6.686   2.691   1.711
 8639SOL    HW126816   6.698   2.592   1.708
 8639SOL    HW226817   6.665   2.720   1.804
 8640SOL     OW26818   5.309   6.375   1.385
 8640SOL    HW126819   5.321   6.431   1.467
 8640SOL    HW226820   5.301   6.279   1.410
 8641SOL     OW26821   5.390   4.853   3.777
 8641SOL    HW126822   5.312   4.841   3.715
 8641SOL    HW226823   5.359   4.894   3.862
 8642SOL     OW26824   4.603   1.774   2.071
 8642SOL    HW126825   4.617   1.871   2.086
 8642SOL    HW226826   4.692   1.727   2.072
 8643SOL     OW26827   4.476   1.201   6.460
 8643SOL    HW126828   4.445   1.143   6.384
 8643SOL    HW226829   4.572   1.182   6.480
 8644SOL     OW26830   6.263   3.647   5.485
 8644SOL    HW126831   6.273   3.560   5.533
 8644SOL    HW226832   6.334   3.710   5.516
 8645SOL     OW26833   5.950   4.770   1.498
 8645SOL    HW126834   6.016   4.841   1.474
 8645SOL    HW226835   5.906   4.793   1.585
 8646SOL     OW26836   5.233   0.650   0.380
 8646SOL    HW126837   5.204   0.745   0.389
 8646SOL    HW226838   5.333   0.646   0.373
 8647SOL     OW26839   4.586   4.790   1.904
 8647SOL    HW126840   4.557   4.754   1.816
 8647SOL    HW226841   4.508   4.831   1.951
 8648SOL     OW26842   5.313   1.798   4.591
 8648SOL    HW126843   5.235   1.860   4.584
 8648SOL    HW226844   5.397   1.848   4.572
 8649SOL     OW26845   0.417   4.746   5.431
 8649SOL    HW126846   0.433   4.652   5.401
 8649SOL    HW226847   0.332   4.779   5.391
 8650SOL     OW26848   1.074   4.780   2.158
 8650SOL    HW126849   1.147   4.722   2.193
 8650SOL    HW226850   1.042   4.744   2.070
 8651SOL     OW26851   3.070   2.341   1.146
 8651SOL    HW126852   3.050   2.397   1.066
 8651SOL    HW226853   3.156   2.371   1.188
 8652SOL     OW26854   1.753   3.728   3.966
 8652SOL    HW126855   1.736   3.720   4.064
 8652SOL    HW226856   1.666   3.737   3.918
 8653SOL     OW26857   6.301   3.320   6.578
 8653SOL    HW126858   6.266   3.229   6.559
 8653SOL    HW226859   6.226   3.378   6.612
 8654SOL     OW26860   0.060   6.847   3.236
 8654SOL    HW126861   0.126   6.772   3.229
 8654SOL    HW226862   0.081   6.916   3.167
 8655SOL     OW26863   5.532   6.058   4.003
 8655SOL    HW126864   5.542   6.020   4.095
 8655SOL    HW226865   5.455   6.123   4.001
 8656SOL     OW26866   5.991   2.344   1.388
 8656SOL    HW126867   5.991   2.271   1.456
 8656SOL    HW226868   6.025   2.429   1.430
 8657SOL     OW26869   3.179   4.114   0.910
 8657SOL    HW126870   3.246   4.051   0.871
 8657SOL    HW226871   3.095   4.111   0.856
 8658SOL     OW26872   0.067   5.263   0.042
 8658SOL    HW126873   7.016   5.310   7.013
 8658SOL    HW226874   0.034   5.174   0.072
 8659SOL     OW26875   4.675   0.488   3.961
 8659SOL    HW126876   4.741   0.452   3.895
 8659SOL    HW226877   4.613   0.415   3.989
 8660SOL     OW26878   5.448   4.664   0.736
 8660SOL    HW126879   5.504   4.742   0.710
 8660SOL    HW226880   5.497   4.608   0.802
 8661SOL     OW26881   5.982   3.773   1.859
 8661SOL    HW126882   5.921   3.703   1.897
 8661SOL    HW226883   6.061   3.784   1.918
 8662SOL     OW26884   0.366   0.343   0.558
 8662SOL    HW126885   0.450   0.391   0.532
 8662SOL    HW226886   0.332   0.379   0.644
 8663SOL     OW26887   2.821   5.670   0.382
 8663SOL    HW126888   2.868   5.756   0.358
 8663SOL    HW226889   2.744   5.656   0.320
 8664SOL     OW26890   4.336   5.036   1.732
 8664SOL    HW126891   4.320   5.029   1.830
 8664SOL    HW226892   4.260   5.085   1.689
 8665SOL     OW26893   4.746   5.373   5.659
 8665SOL    HW126894   4.835   5.413   5.637
 8665SOL    HW226895   4.741   5.280   5.623
 8666SOL     OW26896   5.359   3.755   4.328
 8666SOL    HW126897   5.455   3.746   4.356
 8666SOL    HW226898   5.309   3.808   4.397
 8667SOL     OW26899   5.421   1.433   3.391
 8667SOL    HW126900   5.403   1.338   3.368
 8667SOL    HW226901   5.482   1.474   3.323
 8668SOL     OW26902   3.525   1.923   4.312
 8668SOL    HW126903   3.597   1.970   4.261
 8668SOL    HW226904   3.472   1.989   4.364
 8669SOL     OW26905   3.982   0.595   6.024
 8669SOL    HW126906   3.944   0.686   6.008
 8669SOL    HW226907   4.082   0.598   6.015
 8670SOL     OW26908   4.156   4.860   4.222
 8670SOL    HW126909   4.074   4.894   4.267
 8670SOL    HW226910   4.172   4.911   4.138
 8671SOL     OW26911   5.824   6.499   2.662
 8671SOL    HW126912   5.816   6.575   2.726
 8671SOL    HW226913   5.773   6.519   2.579
 8672SOL     OW26914   3.440   4.735   5.273
 8672SOL    HW126915   3.344   4.706   5.282
 8672SOL    HW226916   3.497   4.682   5.336
 8673SOL     OW26917   5.629   2.050   0.826
 8673SOL    HW126918   5.601   1.998   0.907
 8673SOL    HW226919   5.661   1.987   0.756
 8674SOL     OW26920   0.618   0.156   2.781
 8674SOL    HW126921   0.603   0.245   2.738
 8674SOL    HW226922   0.560   0.088   2.736
 8675SOL     OW26923   2.123   1.787   2.681
 8675SOL    HW126924   2.147   1.763   2.587
 8675SOL    HW226925   2.041   1.844   2.681
 8676SOL     OW26926   4.442   6.427   3.413
 8676SOL    HW126927   4.536   6.393   3.420
 8676SOL    HW226928   4.411   6.455   3.504
 8677SOL     OW26929   2.394   4.365   5.129
 8677SOL    HW126930   2.430   4.304   5.058
 8677SOL    HW226931   2.374   4.312   5.211
 8678SOL     OW26932   0.948   0.705   6.396
 8678SOL    HW126933   0.902   0.792   6.377
 8678SOL    HW226934   1.035   0.722   6.442
 8679SOL     OW26935   6.758   2.514   4.806
 8679SOL    HW126936   6.772   2.611   4.785
 8679SOL    HW226937   6.692   2.475   4.742
 8680SOL     OW26938   1.331   3.325   0.305
 8680SOL    HW126939   1.408   3.350   0.247
 8680SOL    HW226940   1.245   3.338   0.254
 8681SOL     OW26941   4.260   3.498   0.902
 8681SOL    HW126942   4.322   3.569   0.933
 8681SOL    HW226943   4.313   3.423   0.862
 8682SOL     OW26944   2.079   5.920   2.627
 8682SOL    HW126945   1.982   5.938   2.614
 8682SOL    HW226946   2.103   5.832   2.585
 8683SOL     OW26947   6.370   3.460   6.333
 8683SOL    HW126948   6.376   3.384   6.267
 8683SOL    HW226949   6.376   3.423   6.426
 8684SOL     OW26950   6.551   2.464   4.317
 8684SOL    HW126951   6.504   2.490   4.401
 8684SOL    HW226952   6.557   2.543   4.256
 8685SOL     OW26953   0.809   1.890   5.119
 8685SOL    HW126954   0.709   1.889   5.127
 8685SOL    HW226955   0.848   1.941   5.195
 8686SOL     OW26956   6.447   2.472   3.232
 8686SOL    HW126957   6.428   2.483   3.134
 8686SOL    HW226958   6.387   2.533   3.284
 8687SOL     OW26959   4.523   0.191   2.833
 8687SOL    HW126960   4.578   0.124   2.883
 8687SOL    HW226961   4.581   0.241   2.769
 8688SOL     OW26962   1.913   0.223   2.375
 8688SOL    HW126963   1.940   0.218   2.471
 8688SOL    HW226964   1.925   0.134   2.333
 8689SOL     OW26965   4.068   5.701   0.896
 8689SOL    HW126966   4.051   5.604   0.915
 8689SOL    HW226967   4.087   5.712   0.798
 8690SOL     OW26968   0.988   1.494   2.820
 8690SOL    HW126969   0.946   1.418   2.871
 8690SOL    HW226970   0.951   1.497   2.727
 8691SOL     OW26971   5.751   1.879   0.626
 8691SOL    HW126972   5.798   1.791   0.622
 8691SOL    HW226973   5.686   1.885   0.550
 8692SOL     OW26974   1.463   1.647   4.161
 8692SOL    HW126975   1.381   1.595   4.138
 8692SOL    HW226976   1.476   1.646   4.260
 8693SOL     OW26977   5.601   2.123   0.436
 8693SOL    HW126978   5.664   2.200   0.424
 8693SOL    HW226979   5.593   2.073   0.349
 8694SOL     OW26980   4.565   6.534   5.831
 8694SOL    HW126981   4.592   6.525   5.927
 8694SOL    HW226982   4.469   6.561   5.826
 8695SOL     OW26983   4.365   4.388   5.835
 8695SOL    HW126984   4.337   4.294   5.856
 8695SOL    HW226985   4.285   4.442   5.810
 8696SOL     OW26986   2.093   4.899   0.983
 8696SOL    HW126987   2.019   4.855   1.034
 8696SOL    HW226988   2.123   4.839   0.908
 8697SOL     OW26989   5.916   4.196   0.770
 8697SOL    HW126990   5.984   4.194   0.696
 8697SOL    HW226991   5.869   4.285   0.770
 8698SOL     OW26992   5.967   5.939   4.403
 8698SOL    HW126993   5.998   5.909   4.313
 8698SOL    HW226994   5.888   5.884   4.431
 8699SOL     OW26995   1.227   1.576   5.461
 8699SOL    HW126996   1.138   1.613   5.434
 8699SOL    HW226997   1.295   1.600   5.392
 8700SOL     OW26998   2.828   1.631   5.900
 8700SOL    HW126999   2.913   1.654   5.948
 8700SOL    HW227000   2.823   1.684   5.815
 8701SOL     OW27001   1.216   1.818   4.346
 8701SOL    HW127002   1.191   1.882   4.419
 8701SOL    HW227003   1.254   1.870   4.269
 8702SOL     OW27004   4.791   6.175   0.104
 8702SOL    HW127005   4.816   6.203   0.011
 8702SOL    HW227006   4.874   6.148   0.154
 8703SOL     OW27007   2.437   5.540   1.114
 8703SOL    HW127008   2.518   5.538   1.173
 8703SOL    HW227009   2.355   5.549   1.171
 8704SOL     OW27010   0.474   4.105   1.493
 8704SOL    HW127011   0.425   4.018   1.503
 8704SOL    HW227012   0.557   4.103   1.549
 8705SOL     OW27013   4.532   0.051   5.494
 8705SOL    HW127014   4.560   6.995   5.551
 8705SOL    HW227015   4.500   0.017   5.405
 8706SOL     OW27016   5.214   2.175   6.873
 8706SOL    HW127017   5.183   2.080   6.863
 8706SOL    HW227018   5.184   2.210   6.961
 8707SOL     OW27019   4.733   2.755   5.852
 8707SOL    HW127020   4.745   2.684   5.783
 8707SOL    HW227021   4.797   2.830   5.835
 8708SOL     OW27022   4.269   1.592   1.028
 8708SOL    HW127023   4.211   1.535   1.086
 8708SOL    HW227024   4.320   1.656   1.085
 8709SOL     OW27025   6.927   3.857   0.896
 8709SOL    HW127026   6.845   3.816   0.935
 8709SOL    HW227027   6.989   3.785   0.867
 8710SOL     OW27028   1.119   3.551   3.418
 8710SOL    HW127029   1.086   3.479   3.357
 8710SOL    HW227030   1.096   3.528   3.513
 8711SOL     OW27031   0.410   1.629   4.037
 8711SOL    HW127032   0.506   1.635   4.066
 8711SOL    HW227033   0.353   1.683   4.099
 8712SOL     OW27034   3.549   1.430   5.673
 8712SOL    HW127035   3.642   1.439   5.638
 8712SOL    HW227036   3.503   1.519   5.668
 8713SOL     OW27037   6.925   4.727   3.362
 8713SOL    HW127038   6.965   4.732   3.454
 8713SOL    HW227039   6.986   4.770   3.296
 8714SOL     OW27040   1.492   1.452   4.780
 8714SOL    HW127041   1.545   1.388   4.724
 8714SOL    HW227042   1.529   1.453   4.873
 8715SOL     OW27043   6.070   1.616   1.297
 8715SOL    HW127044   6.093   1.537   1.241
 8715SOL    HW227045   5.974   1.640   1.284
 8716SOL     OW27046   1.501   1.982   1.580
 8716SOL    HW127047   1.529   1.954   1.672
 8716SOL    HW227048   1.562   2.054   1.547
 8717SOL     OW27049   3.475   3.245   0.747
 8717SOL    HW127050   3.522   3.160   0.769
 8717SOL    HW227051   3.541   3.311   0.710
 8718SOL     OW27052   6.332   3.020   5.652
 8718SOL    HW127053   6.345   2.950   5.582
 8718SOL    HW227054   6.404   3.013   5.721
 8719SOL     OW27055   6.943   0.685   6.235
 8719SOL    HW127056   0.021   0.686   6.240
 8719SOL    HW227057   6.913   0.601   6.190
 8720SOL     OW27058   5.117   3.806   5.813
 8720SOL    HW127059   5.194   3.747   5.787
 8720SOL    HW227060   5.035   3.777   5.764
 8721SOL     OW27061   6.952   2.365   4.164
 8721SOL    HW127062   0.027   2.394   4.170
 8721SOL    HW227063   6.947   2.277   4.118
 8722SOL     OW27064   3.500   2.597   0.291
 8722SOL    HW127065   3.419   2.652   0.271
 8722SOL    HW227066   3.579   2.637   0.245
 8723SOL     OW27067   6.886   4.574   0.869
 8723SOL    HW127068   6.862   4.655   0.815
 8723SOL    HW227069   6.921   4.603   0.958
 8724SOL     OW27070   5.135   6.873   6.587
 8724SOL    HW127071   5.167   6.967   6.591
 8724SOL    HW227072   5.117   6.848   6.491
 8725SOL     OW27073   2.566   5.825   0.906
 8725SOL    HW127074   2.504   5.827   0.828
 8725SOL    HW227075   2.577   5.730   0.937
 8726SOL     OW27076   5.530   0.413   1.602
 8726SOL    HW127077   5.586   0.475   1.657
 8726SOL    HW227078   5.495   0.462   1.522
 8727SOL     OW27079   6.212   5.525   1.279
 8727SOL    HW127080   6.162   5.609   1.256
 8727SOL    HW227081   6.299   5.524   1.231
 8728SOL     OW27082   2.268   0.103   5.278
 8728SOL    HW127083   2.353   0.069   5.320
 8728SOL    HW227084   2.276   0.202   5.264
 8729SOL     OW27085   5.928   6.340   4.599
 8729SOL    HW127086   5.856   6.402   4.632
 8729SOL    HW227087   5.886   6.266   4.547
 8730SOL     OW27088   0.062   6.546   1.413
 8730SOL    HW127089   0.071   6.638   1.373
 8730SOL    HW227090   0.100   6.547   1.506
 8731SOL     OW27091   1.172   1.831   2.768
 8731SOL    HW127092   1.169   1.894   2.846
 8731SOL    HW227093   1.090   1.774   2.769
 8732SOL     OW27094   5.282   4.787   1.327
 8732SOL    HW127095   5.315   4.799   1.420
 8732SOL    HW227096   5.281   4.875   1.280
 8733SOL     OW27097   0.509   6.255   1.311
 8733SOL    HW127098   0.488   6.176   1.368
 8733SOL    HW227099   0.604   6.249   1.278
 8734SOL     OW27100   6.222   4.992   0.849
 8734SOL    HW127101   6.200   5.041   0.933
 8734SOL    HW227102   6.149   5.007   0.782
 8735SOL     OW27103   6.410   2.403   6.639
 8735SOL    HW127104   6.371   2.443   6.721
 8735SOL    HW227105   6.349   2.332   6.603
 8736SOL     OW27106   0.462   4.912   6.789
 8736SOL    HW127107   0.531   4.936   6.720
 8736SOL    HW227108   0.385   4.975   6.781
 8737SOL     OW27109   3.596   5.723   6.405
 8737SOL    HW127110   3.605   5.768   6.316
 8737SOL    HW227111   3.596   5.792   6.478
 8738SOL     OW27112   1.560   3.554   4.495
 8738SOL    HW127113   1.466   3.533   4.469
 8738SOL    HW227114   1.605   3.472   4.529
 8739SOL     OW27115   1.378   3.068   5.179
 8739SOL    HW127116   1.334   3.152   5.210
 8739SOL    HW227117   1.322   3.026   5.108
 8740SOL     OW27118   2.352   6.179   1.460
 8740SOL    HW127119   2.263   6.222   1.449
 8740SOL    HW227120   2.341   6.080   1.460
 8741SOL     OW27121   1.226   3.739   1.961
 8741SOL    HW127122   1.243   3.643   1.982
 8741SOL    HW227123   1.295   3.773   1.898
 8742SOL     OW27124   4.292   0.018   2.142
 8742SOL    HW127125   4.359   7.008   2.076
 8742SOL    HW227126   4.210   6.981   2.137
 8743SOL     OW27127   2.558   4.651   3.142
 8743SOL    HW127128   2.615   4.723   3.182
 8743SOL    HW227129   2.561   4.656   3.043
 8744SOL     OW27130   3.522   2.858   5.838
 8744SOL    HW127131   3.473   2.936   5.876
 8744SOL    HW227132   3.473   2.823   5.758
 8745SOL     OW27133   6.448   2.264   6.330
 8745SOL    HW127134   6.478   2.359   6.336
 8745SOL    HW227135   6.354   2.257   6.364
 8746SOL     OW27136   5.032   4.582   5.117
 8746SOL    HW127137   5.075   4.525   5.187
 8746SOL    HW227138   5.067   4.556   5.027
 8747SOL     OW27139   1.817   2.766   4.246
 8747SOL    HW127140   1.893   2.774   4.183
 8747SOL    HW227141   1.826   2.681   4.299
 8748SOL     OW27142   2.062   0.822   6.995
 8748SOL    HW127143   2.158   0.816   6.970
 8748SOL    HW227144   2.021   0.904   6.954
 8749SOL     OW27145   3.892   1.142   3.987
 8749SOL    HW127146   3.951   1.167   4.064
 8749SOL    HW227147   3.845   1.056   4.008
 8750SOL     OW27148   2.507   1.170   5.263
 8750SOL    HW127149   2.509   1.267   5.286
 8750SOL    HW227150   2.592   1.126   5.295
 8751SOL     OW27151   2.016   6.936   2.742
 8751SOL    HW127152   2.053   6.951   2.834
 8751SOL    HW227153   1.951   6.859   2.745
 8752SOL     OW27154   1.726   2.413   6.282
 8752SOL    HW127155   1.739   2.456   6.193
 8752SOL    HW227156   1.640   2.445   6.322
 8753SOL     OW27157   5.358   1.180   5.064
 8753SOL    HW127158   5.371   1.144   5.156
 8753SOL    HW227159   5.359   1.280   5.067
 8754SOL     OW27160   1.443   0.991   5.812
 8754SOL    HW127161   1.495   1.065   5.768
 8754SOL    HW227162   1.451   0.909   5.756
 8755SOL     OW27163   2.162   2.088   0.478
 8755SOL    HW127164   2.234   2.032   0.437
 8755SOL    HW227165   2.197   2.180   0.494
 8756SOL     OW27166   2.189   3.203   4.302
 8756SOL    HW127167   2.177   3.240   4.394
 8756SOL    HW227168   2.223   3.109   4.307
 8757SOL     OW27169   5.195   6.144   4.456
 8757SOL    HW127170   5.227   6.232   4.422
 8757SOL    HW227171   5.112   6.117   4.407
 8758SOL     OW27172   5.668   6.644   2.168
 8758SOL    HW127173   5.664   6.598   2.257
 8758SOL    HW227174   5.640   6.580   2.096
 8759SOL     OW27175   4.891   1.318   5.980
 8759SOL    HW127176   4.897   1.262   5.898
 8759SOL    HW227177   4.906   1.261   6.061
 8760SOL     OW27178   1.805   3.032   3.731
 8760SOL    HW127179   1.835   3.095   3.803
 8760SOL    HW227180   1.830   3.069   3.642
 8761SOL     OW27181   5.043   6.440   1.076
 8761SOL    HW127182   5.051   6.415   1.172
 8761SOL    HW227183   5.076   6.365   1.019
 8762SOL     OW27184   0.729   3.719   0.243
 8762SOL    HW127185   0.729   3.748   0.339
 8762SOL    HW227186   0.806   3.761   0.196
 8763SOL     OW27187   6.890   6.220   5.820
 8763SOL    HW127188   6.861   6.238   5.726
 8763SOL    HW227189   6.990   6.217   5.824
 8764SOL     OW27190   3.385   2.121   4.948
 8764SOL    HW127191   3.465   2.162   4.904
 8764SOL    HW227192   3.322   2.194   4.975
 8765SOL     OW27193   0.159   0.390   4.978
 8765SOL    HW127194   0.236   0.371   4.917
 8765SOL    HW227195   0.185   0.464   5.041
 8766SOL     OW27196   2.473   4.426   2.815
 8766SOL    HW127197   2.426   4.350   2.860
 8766SOL    HW227198   2.466   4.415   2.715
 8767SOL     OW27199   5.082   1.928   4.620
 8767SOL    HW127200   5.078   2.007   4.559
 8767SOL    HW227201   5.025   1.944   4.700
 8768SOL     OW27202   1.080   3.635   6.819
 8768SOL    HW127203   1.091   3.590   6.907
 8768SOL    HW227204   1.142   3.593   6.752
 8769SOL     OW27205   1.999   0.665   5.428
 8769SOL    HW127206   2.098   0.663   5.441
 8769SOL    HW227207   1.975   0.738   5.363
 8770SOL     OW27208   5.589   2.133   2.512
 8770SOL    HW127209   5.528   2.211   2.498
 8770SOL    HW227210   5.675   2.149   2.463
 8771SOL     OW27211   1.510   2.537   6.371
 8771SOL    HW127212   1.445   2.492   6.432
 8771SOL    HW227213   1.467   2.617   6.329
 8772SOL     OW27214   5.354   6.941   0.013
 8772SOL    HW127215   5.292   6.879   0.062
 8772SOL    HW227216   5.380   6.900   6.947
 8773SOL     OW27217   2.759   2.372   3.294
 8773SOL    HW127218   2.765   2.449   3.231
 8773SOL    HW227219   2.694   2.305   3.259
 8774SOL     OW27220   1.069   1.076   6.672
 8774SOL    HW127221   0.977   1.079   6.713
 8774SOL    HW227222   1.126   1.146   6.714
 8775SOL     OW27223   6.384   0.173   4.359
 8775SOL    HW127224   6.394   0.073   4.360
 8775SOL    HW227225   6.344   0.203   4.446
 8776SOL     OW27226   3.663   3.199   4.836
 8776SOL    HW127227   3.626   3.161   4.921
 8776SOL    HW227228   3.737   3.140   4.802
 8777SOL     OW27229   6.284   5.639   1.860
 8777SOL    HW127230   6.275   5.585   1.944
 8777SOL    HW227231   6.269   5.579   1.781
 8778SOL     OW27232   0.845   2.271   3.252
 8778SOL    HW127233   0.748   2.246   3.250
 8778SOL    HW227234   0.858   2.353   3.306
 8779SOL     OW27235   1.846   4.259   0.523
 8779SOL    HW127236   1.909   4.304   0.587
 8779SOL    HW227237   1.790   4.193   0.573
 8780SOL     OW27238   1.930   5.608   4.221
 8780SOL    HW127239   1.961   5.701   4.239
 8780SOL    HW227240   1.950   5.583   4.126
 8781SOL     OW27241   0.415   2.007   2.741
 8781SOL    HW127242   0.496   2.011   2.683
 8781SOL    HW227243   0.435   2.045   2.831
 8782SOL     OW27244   4.848   1.522   2.945
 8782SOL    HW127245   4.842   1.495   2.849
 8782SOL    HW227246   4.917   1.594   2.955
 8783SOL     OW27247   5.212   3.093   5.181
 8783SOL    HW127248   5.237   3.062   5.090
 8783SOL    HW227249   5.114   3.078   5.196
 8784SOL     OW27250   5.179   4.424   5.337
 8784SOL    HW127251   5.235   4.366   5.278
 8784SOL    HW227252   5.225   4.436   5.425
 8785SOL     OW27253   5.475   4.672   6.621
 8785SOL    HW127254   5.425   4.585   6.615
 8785SOL    HW227255   5.435   4.738   6.556
 8786SOL     OW27256   1.183   6.028   0.762
 8786SOL    HW127257   1.231   6.100   0.711
 8786SOL    HW227258   1.114   5.986   0.703
 8787SOL     OW27259   1.270   2.902   0.270
 8787SOL    HW127260   1.241   2.970   0.338
 8787SOL    HW227261   1.190   2.850   0.240
 8788SOL     OW27262   0.980   2.045   5.657
 8788SOL    HW127263   1.059   2.086   5.703
 8788SOL    HW227264   0.991   1.946   5.654
 8789SOL     OW27265   0.135   6.904   6.885
 8789SOL    HW127266   0.073   6.982   6.897
 8789SOL    HW227267   0.108   6.831   6.948
 8790SOL     OW27268   4.832   1.797   6.890
 8790SOL    HW127269   4.794   1.809   6.982
 8790SOL    HW227270   4.890   1.716   6.887
 8791SOL     OW27271   4.907   6.419   5.589
 8791SOL    HW127272   4.963   6.353   5.638
 8791SOL    HW227273   4.894   6.501   5.646
 8792SOL     OW27274   4.800   0.182   2.967
 8792SOL    HW127275   4.816   0.122   3.045
 8792SOL    HW227276   4.793   0.128   2.884
 8793SOL     OW27277   1.005   4.784   4.412
 8793SOL    HW127278   1.003   4.868   4.466
 8793SOL    HW227279   1.083   4.728   4.441
 8794SOL     OW27280   3.095   6.777   2.728
 8794SOL    HW127281   3.001   6.744   2.726
 8794SOL    HW227282   3.123   6.802   2.635
 8795SOL     OW27283   1.688   6.462   5.463
 8795SOL    HW127284   1.716   6.501   5.375
 8795SOL    HW227285   1.769   6.429   5.511
 8796SOL     OW27286   5.458   2.673   5.457
 8796SOL    HW127287   5.530   2.702   5.521
 8796SOL    HW227288   5.383   2.740   5.459
 8797SOL     OW27289   0.628   6.582   6.984
 8797SOL    HW127290   0.666   6.494   6.957
 8797SOL    HW227291   0.702   6.649   6.994
 8798SOL     OW27292   4.265   3.508   6.269
 8798SOL    HW127293   4.211   3.583   6.306
 8798SOL    HW227294   4.248   3.499   6.171
 8799SOL     OW27295   3.864   6.395   2.434
 8799SOL    HW127296   3.809   6.475   2.461
 8799SOL    HW227297   3.927   6.372   2.508
 8800SOL     OW27298   4.602   5.158   6.996
 8800SOL    HW127299   4.636   5.098   0.047
 8800SOL    HW227300   4.511   5.191   7.020
 8801SOL     OW27301   2.953   6.997   5.073
 8801SOL    HW127302   3.050   6.973   5.074
 8801SOL    HW227303   2.919   6.992   4.980
 8802SOL     OW27304   2.754   0.226   2.245
 8802SOL    HW127305   2.854   0.233   2.234
 8802SOL    HW227306   2.732   0.212   2.341
 8803SOL     OW27307   3.763   5.863   0.725
 8803SOL    HW127308   3.763   5.792   0.795
 8803SOL    HW227309   3.716   5.829   0.644
 8804SOL     OW27310   4.277   0.339   0.758
 8804SOL    HW127311   4.300   0.431   0.791
 8804SOL    HW227312   4.353   0.277   0.779
 8805SOL     OW27313   0.104   0.036   3.077
 8805SOL    HW127314   0.023   0.095   3.072
 8805SOL    HW227315   0.161   0.051   2.996
 8806SOL     OW27316   2.177   5.155   6.920
 8806SOL    HW127317   2.274   5.132   6.914
 8806SOL    HW227318   2.122   5.077   6.889
 8807SOL     OW27319   1.577   6.493   6.179
 8807SOL    HW127320   1.477   6.505   6.183
 8807SOL    HW227321   1.616   6.561   6.117
 8808SOL     OW27322   6.075   1.369   0.800
 8808SOL    HW127323   6.114   1.441   0.742
 8808SOL    HW227324   6.112   1.280   0.771
 8809SOL     OW27325   6.284   4.158   1.353
 8809SOL    HW127326   6.298   4.113   1.441
 8809SOL    HW227327   6.336   4.110   1.282
 8810SOL     OW27328   5.087   1.197   4.041
 8810SOL    HW127329   5.082   1.097   4.032
 8810SOL    HW227330   5.114   1.236   3.953
 8811SOL     OW27331   0.901   1.504   4.129
 8811SOL    HW127332   0.887   1.415   4.086
 8811SOL    HW227333   0.951   1.492   4.214
 8812SOL     OW27334   1.777   0.265   0.639
 8812SOL    HW127335   1.836   0.296   0.713
 8812SOL    HW227336   1.724   0.186   0.670
 8813SOL     OW27337   1.857   4.729   1.414
 8813SOL    HW127338   1.924   4.732   1.489
 8813SOL    HW227339   1.775   4.682   1.446
 8814SOL     OW27340   5.582   0.057   0.158
 8814SOL    HW127341   5.515   7.018   0.113
 8814SOL    HW227342   5.577   0.148   0.117
 8815SOL     OW27343   0.126   6.437   2.695
 8815SOL    HW127344   0.043   6.382   2.687
 8815SOL    HW227345   0.203   6.378   2.719
 8816SOL     OW27346   0.982   6.135   1.851
 8816SOL    HW127347   1.053   6.066   1.837
 8816SOL    HW227348   0.917   6.103   1.920
 8817SOL     OW27349   2.499   4.502   5.443
 8817SOL    HW127350   2.514   4.536   5.350
 8817SOL    HW227351   2.500   4.578   5.507
 8818SOL     OW27352   0.077   5.002   4.489
 8818SOL    HW127353   0.014   4.982   4.414
 8818SOL    HW227354   0.157   4.942   4.482
 8819SOL     OW27355   5.460   0.335   4.310
 8819SOL    HW127356   5.509   0.314   4.225
 8819SOL    HW227357   5.493   0.275   4.383
 8820SOL     OW27358   1.872   2.993   4.050
 8820SOL    HW127359   1.902   3.066   4.110
 8820SOL    HW227360   1.779   2.965   4.075
 8821SOL     OW27361   1.882   0.819   6.209
 8821SOL    HW127362   1.872   0.908   6.255
 8821SOL    HW227363   1.972   0.813   6.166
 8822SOL     OW27364   0.340   2.111   4.134
 8822SOL    HW127365   0.381   2.020   4.128
 8822SOL    HW227366   0.411   2.180   4.117
 8823SOL     OW27367   2.465   5.414   1.926
 8823SOL    HW127368   2.469   5.319   1.896
 8823SOL    HW227369   2.557   5.455   1.920
 8824SOL     OW27370   4.004   3.582   0.878
 8824SOL    HW127371   4.101   3.561   0.869
 8824SOL    HW227372   3.972   3.625   0.794
 8825SOL     OW27373   1.564   2.488   1.664
 8825SOL    HW127374   1.511   2.574   1.661
 8825SOL    HW227375   1.649   2.500   1.613
 8826SOL     OW27376   5.873   1.201   0.029
 8826SOL    HW127377   5.830   1.201   6.960
 8826SOL    HW227378   5.903   1.109   0.052
 8827SOL     OW27379   0.853   1.107   3.683
 8827SOL    HW127380   0.763   1.082   3.719
 8827SOL    HW227381   0.915   1.030   3.694
 8828SOL     OW27382   1.814   6.071   2.585
 8828SOL    HW127383   1.759   6.002   2.538
 8828SOL    HW227384   1.785   6.162   2.556
 8829SOL     OW27385   0.787   1.444   6.967
 8829SOL    HW127386   0.738   1.506   0.007
 8829SOL    HW227387   0.759   1.350   6.985
 8830SOL     OW27388   0.498   1.917   0.480
 8830SOL    HW127389   0.437   1.996   0.479
 8830SOL    HW227390   0.509   1.885   0.574
 8831SOL     OW27391   6.798   0.969   2.729
 8831SOL    HW127392   6.766   0.923   2.647
 8831SOL    HW227393   6.859   1.044   2.703
 8832SOL     OW27394   0.142   0.519   2.522
 8832SOL    HW127395   0.181   0.428   2.528
 8832SOL    HW227396   0.123   0.555   2.613
 8833SOL     OW27397   1.965   4.461   3.339
 8833SOL    HW127398   2.015   4.378   3.367
 8833SOL    HW227399   1.961   4.524   3.416
 8834SOL     OW27400   5.846   3.847   4.668
 8834SOL    HW127401   5.849   3.748   4.656
 8834SOL    HW227402   5.756   3.882   4.641
 8835SOL     OW27403   0.489   6.860   6.589
 8835SOL    HW127404   0.489   6.763   6.612
 8835SOL    HW227405   0.540   6.875   6.504
 8836SOL     OW27406   4.934   1.978   1.143
 8836SOL    HW127407   4.870   1.901   1.146
 8836SOL    HW227408   4.980   1.979   1.054
 8837SOL     OW27409   1.044   1.818   2.314
 8837SOL    HW127410   0.972   1.878   2.348
 8837SOL    HW227411   1.077   1.760   2.389
 8838SOL     OW27412   2.208   5.954   3.686
 8838SOL    HW127413   2.146   6.027   3.713
 8838SOL    HW227414   2.295   5.965   3.732
 8839SOL     OW27415   6.216   6.711   4.136
 8839SOL    HW127416   6.135   6.653   4.135
 8839SOL    HW227417   6.294   6.661   4.098
 8840SOL     OW27418   5.001   1.428   2.084
 8840SOL    HW127419   4.953   1.418   1.998
 8840SOL    HW227420   5.100   1.417   2.069
 8841SOL     OW27421   1.959   0.610   4.276
 8841SOL    HW127422   1.897   0.689   4.281
 8841SOL    HW227423   1.910   0.527   4.301
 8842SOL     OW27424   1.757   2.871   2.216
 8842SOL    HW127425   1.685   2.941   2.212
 8842SOL    HW227426   1.736   2.798   2.150
 8843SOL     OW27427   0.317   3.544   4.480
 8843SOL    HW127428   0.305   3.467   4.417
 8843SOL    HW227429   0.393   3.524   4.542
 8844SOL     OW27430   5.888   1.263   5.983
 8844SOL    HW127431   5.917   1.341   6.039
 8844SOL    HW227432   5.889   1.180   6.038
 8845SOL     OW27433   5.777   4.041   6.928
 8845SOL    HW127434   5.696   4.098   6.943
 8845SOL    HW227435   5.789   3.978   7.005
 8846SOL     OW27436   2.483   4.954   3.019
 8846SOL    HW127437   2.406   4.891   3.027
 8846SOL    HW227438   2.486   4.992   2.927
 8847SOL     OW27439   2.370   0.899   2.490
 8847SOL    HW127440   2.364   0.809   2.532
 8847SOL    HW227441   2.283   0.922   2.446
 8848SOL     OW27442   1.425   7.012   3.034
 8848SOL    HW127443   1.508   6.962   3.060
 8848SOL    HW227444   1.434   0.023   2.940
 8849SOL     OW27445   2.896   6.761   1.316
 8849SOL    HW127446   2.992   6.734   1.310
 8849SOL    HW227447   2.889   6.859   1.331
 8850SOL     OW27448   2.599   2.571   0.126
 8850SOL    HW127449   2.678   2.631   0.141
 8850SOL    HW227450   2.584   2.559   0.028
 8851SOL     OW27451   1.457   3.302   2.647
 8851SOL    HW127452   1.399   3.376   2.683
 8851SOL    HW227453   1.508   3.261   2.723
 8852SOL     OW27454   1.288   2.584   5.869
 8852SOL    HW127455   1.323   2.613   5.781
 8852SOL    HW227456   1.197   2.542   5.857
 8853SOL     OW27457   5.510   1.053   1.448
 8853SOL    HW127458   5.497   1.075   1.352
 8853SOL    HW227459   5.561   0.966   1.456
 8854SOL     OW27460   0.956   1.824   4.885
 8854SOL    HW127461   0.911   1.830   4.974
 8854SOL    HW227462   0.907   1.882   4.819
 8855SOL     OW27463   5.343   5.210   1.422
 8855SOL    HW127464   5.379   5.303   1.427
 8855SOL    HW227465   5.331   5.174   1.515
 8856SOL     OW27466   6.612   0.850   5.703
 8856SOL    HW127467   6.574   0.878   5.615
 8856SOL    HW227468   6.572   0.907   5.775
 8857SOL     OW27469   6.134   2.278   6.077
 8857SOL    HW127470   6.036   2.299   6.085
 8857SOL    HW227471   6.186   2.363   6.084
 8858SOL     OW27472   6.737   6.185   4.938
 8858SOL    HW127473   6.677   6.225   4.869
 8858SOL    HW227474   6.687   6.118   4.992
 8859SOL     OW27475   0.661   6.533   3.347
 8859SOL    HW127476   0.667   6.584   3.262
 8859SOL    HW227477   0.649   6.597   3.423
 8860SOL     OW27478   0.186   4.210   3.011
 8860SOL    HW127479   0.183   4.152   2.930
 8860SOL    HW227480   0.109   4.274   3.009
 8861SOL     OW27481   3.622   3.067   1.259
 8861SOL    HW127482   3.692   3.103   1.197
 8861SOL    HW227483   3.533   3.072   1.214
 8862SOL     OW27484   4.680   4.441   4.683
 8862SOL    HW127485   4.659   4.367   4.747
 8862SOL    HW227486   4.693   4.403   4.591
 8863SOL     OW27487   1.890   3.929   3.271
 8863SOL    HW127488   1.886   3.921   3.370
 8863SOL    HW227489   1.975   3.888   3.237
 8864SOL     OW27490   6.594   2.045   5.141
 8864SOL    HW127491   6.648   2.029   5.058
 8864SOL    HW227492   6.523   2.113   5.121
 8865SOL     OW27493   2.905   1.497   0.655
 8865SOL    HW127494   2.882   1.413   0.704
 8865SOL    HW227495   2.901   1.575   0.719
 8866SOL     OW27496   5.948   6.635   2.071
 8866SOL    HW127497   5.860   6.667   2.104
 8866SOL    HW227498   5.982   6.699   2.001
 8867SOL     OW27499   6.499   3.311   2.476
 8867SOL    HW127500   6.549   3.387   2.516
 8867SOL    HW227501   6.414   3.296   2.527
 8868SOL     OW27502   6.855   3.411   3.625
 8868SOL    HW127503   6.838   3.312   3.633
 8868SOL    HW227504   6.792   3.460   3.684
 8869SOL     OW27505   4.122   0.178   3.407
 8869SOL    HW127506   4.113   0.189   3.308
 8869SOL    HW227507   4.217   0.156   3.430
 8870SOL     OW27508   1.737   0.308   2.761
 8870SOL    HW127509   1.767   0.226   2.713
 8870SOL    HW227510   1.778   0.388   2.718
 8871SOL     OW27511   6.689   0.120   2.096
 8871SOL    HW127512   6.691   0.162   2.006
 8871SOL    HW227513   6.694   0.192   2.166
 8872SOL     OW27514   6.627   3.990   3.630
 8872SOL    HW127515   6.553   4.057   3.632
 8872SOL    HW227516   6.630   3.946   3.540
 8873SOL     OW27517   2.388   1.908   2.400
 8873SOL    HW127518   2.440   1.961   2.333
 8873SOL    HW227519   2.290   1.917   2.382
 8874SOL     OW27520   2.515   6.558   0.144
 8874SOL    HW127521   2.544   6.486   0.207
 8874SOL    HW227522   2.576   6.637   0.154
 8875SOL     OW27523   6.596   3.314   4.250
 8875SOL    HW127524   6.510   3.363   4.263
 8875SOL    HW227525   6.667   3.379   4.223
 8876SOL     OW27526   4.939   0.035   6.987
 8876SOL    HW127527   5.000   0.051   0.043
 8876SOL    HW227528   4.969   0.089   6.909
 8877SOL     OW27529   1.007   4.704   1.162
 8877SOL    HW127530   0.932   4.643   1.136
 8877SOL    HW227531   1.086   4.650   1.189
 8878SOL     OW27532   4.853   4.203   1.170
 8878SOL    HW127533   4.851   4.289   1.221
 8878SOL    HW227534   4.948   4.174   1.158
 8879SOL     OW27535   6.744   4.313   2.543
 8879SOL    HW127536   6.773   4.331   2.637
 8879SOL    HW227537   6.659   4.361   2.524
 8880SOL     OW27538   4.165   1.527   3.119
 8880SOL    HW127539   4.128   1.437   3.095
 8880SOL    HW227540   4.263   1.519   3.138
 8881SOL     OW27541   3.845   4.863   3.649
 8881SOL    HW127542   3.848   4.763   3.660
 8881SOL    HW227543   3.879   4.887   3.558
 8882SOL     OW27544   4.029   0.267   0.358
 8882SOL    HW127545   3.955   0.273   0.291
 8882SOL    HW227546   4.116   0.283   0.313
 8883SOL     OW27547   0.144   6.557   4.166
 8883SOL    HW127548   0.111   6.542   4.073
 8883SOL    HW227549   0.153   6.468   4.212
 8884SOL     OW27550   5.104   3.578   5.499
 8884SOL    HW127551   5.131   3.499   5.444
 8884SOL    HW227552   5.048   3.640   5.444
 8885SOL     OW27553   5.689   6.001   0.939
 8885SOL    HW127554   5.782   5.969   0.955
 8885SOL    HW227555   5.625   5.924   0.947
 8886SOL     OW27556   3.946   5.854   6.715
 8886SOL    HW127557   4.014   5.782   6.711
 8886SOL    HW227558   3.979   5.928   6.774
 8887SOL     OW27559   4.607   0.380   1.600
 8887SOL    HW127560   4.601   0.403   1.697
 8887SOL    HW227561   4.699   0.399   1.566
 8888SOL     OW27562   3.244   2.069   2.162
 8888SOL    HW127563   3.188   2.113   2.092
 8888SOL    HW227564   3.330   2.040   2.121
 8889SOL     OW27565   1.487   5.383   6.725
 8889SOL    HW127566   1.560   5.331   6.681
 8889SOL    HW227567   1.432   5.429   6.655
 8890SOL     OW27568   1.041   6.409   0.130
 8890SOL    HW127569   0.963   6.436   0.187
 8890SOL    HW227570   1.070   6.487   0.074
 8891SOL     OW27571   6.230   4.004   5.586
 8891SOL    HW127572   6.308   4.040   5.535
 8891SOL    HW227573   6.261   3.975   5.677
 8892SOL     OW27574   2.640   5.473   4.969
 8892SOL    HW127575   2.606   5.394   5.020
 8892SOL    HW227576   2.596   5.478   4.880
 8893SOL     OW27577   1.381   5.143   5.269
 8893SOL    HW127578   1.319   5.184   5.202
 8893SOL    HW227579   1.360   5.179   5.360
 8894SOL     OW27580   4.960   1.453   1.480
 8894SOL    HW127581   4.872   1.484   1.515
 8894SOL    HW227582   5.013   1.531   1.448
 8895SOL     OW27583   6.713   3.714   1.017
 8895SOL    HW127584   6.625   3.718   1.064
 8895SOL    HW227585   6.784   3.681   1.079
 8896SOL     OW27586   0.487   2.458   3.803
 8896SOL    HW127587   0.522   2.513   3.879
 8896SOL    HW227588   0.495   2.361   3.825
 8897SOL     OW27589   1.765   5.123   3.734
 8897SOL    HW127590   1.825   5.158   3.662
 8897SOL    HW227591   1.704   5.196   3.765
 8898SOL     OW27592   4.929   3.768   2.476
 8898SOL    HW127593   4.928   3.674   2.441
 8898SOL    HW227594   4.870   3.826   2.420
 8899SOL     OW27595   1.601   3.937   3.401
 8899SOL    HW127596   1.597   4.033   3.431
 8899SOL    HW227597   1.678   3.892   3.446
 8900SOL     OW27598   4.800   2.102   4.006
 8900SOL    HW127599   4.862   2.178   3.986
 8900SOL    HW227600   4.718   2.110   3.949
 8901SOL     OW27601   1.581   5.026   4.332
 8901SOL    HW127602   1.523   4.949   4.306
 8901SOL    HW227603   1.595   5.025   4.431
 8902SOL     OW27604   0.797   4.720   0.489
 8902SOL    HW127605   0.782   4.812   0.452
 8902SOL    HW227606   0.763   4.652   0.423
 8903SOL     OW27607   1.070   0.076   5.444
 8903SOL    HW127608   1.161   0.044   5.468
 8903SOL    HW227609   1.069   0.175   5.437
 8904SOL     OW27610   0.507   1.081   3.577
 8904SOL    HW127611   0.461   1.160   3.617
 8904SOL    HW227612   0.485   1.000   3.632
 8905SOL     OW27613   1.338   3.839   2.785
 8905SOL    HW127614   1.312   3.931   2.811
 8905SOL    HW227615   1.410   3.806   2.847
 8906SOL     OW27616   5.976   0.312   0.113
 8906SOL    HW127617   5.921   0.342   0.035
 8906SOL    HW227618   6.011   0.392   0.162
 8907SOL     OW27619   2.912   3.707   4.855
 8907SOL    HW127620   2.942   3.779   4.793
 8907SOL    HW227621   2.893   3.624   4.803
 8908SOL     OW27622   1.498   4.260   6.612
 8908SOL    HW127623   1.399   4.257   6.607
 8908SOL    HW227624   1.532   4.345   6.571
 8909SOL     OW27625   1.334   6.052   1.202
 8909SOL    HW127626   1.264   6.068   1.272
 8909SOL    HW227627   1.420   6.095   1.230
 8910SOL     OW27628   1.413   0.281   3.518
 8910SOL    HW127629   1.419   0.360   3.457
 8910SOL    HW227630   1.503   0.261   3.556
 8911SOL     OW27631   4.354   2.314   4.806
 8911SOL    HW127632   4.256   2.296   4.799
 8911SOL    HW227633   4.397   2.300   4.717
 8912SOL     OW27634   3.615   3.224   4.173
 8912SOL    HW127635   3.554   3.249   4.248
 8912SOL    HW227636   3.656   3.134   4.193
 8913SOL     OW27637   5.380   6.119   0.335
 8913SOL    HW127638   5.440   6.057   0.284
 8913SOL    HW227639   5.344   6.189   0.273
 8914SOL     OW27640   4.819   5.164   6.047
 8914SOL    HW127641   4.729   5.123   6.060
 8914SOL    HW227642   4.874   5.106   5.987
 8915SOL     OW27643   1.458   0.964   2.537
 8915SOL    HW127644   1.401   1.011   2.604
 8915SOL    HW227645   1.548   1.009   2.534
 8916SOL     OW27646   5.231   1.019   1.020
 8916SOL    HW127647   5.194   1.069   1.098
 8916SOL    HW227648   5.207   0.922   1.028
 8917SOL     OW27649   5.895   1.824   0.344
 8917SOL    HW127650   5.799   1.812   0.369
 8917SOL    HW227651   5.912   1.921   0.326
 8918SOL     OW27652   0.694   3.586   2.430
 8918SOL    HW127653   0.684   3.581   2.330
 8918SOL    HW227654   0.749   3.509   2.462
 8919SOL     OW27655   6.312   2.886   1.361
 8919SOL    HW127656   6.360   2.883   1.449
 8919SOL    HW227657   6.309   2.794   1.322
 8920SOL     OW27658   6.941   0.732   6.626
 8920SOL    HW127659   0.011   0.698   6.645
 8920SOL    HW227660   6.947   0.819   6.579
 8921SOL     OW27661   1.434   3.097   2.464
 8921SOL    HW127662   1.494   3.080   2.386
 8921SOL    HW227663   1.463   3.180   2.511
 8922SOL     OW27664   4.333   5.543   4.177
 8922SOL    HW127665   4.258   5.518   4.114
 8922SOL    HW227666   4.318   5.635   4.212
 8923SOL     OW27667   2.197   1.633   4.584
 8923SOL    HW127668   2.217   1.726   4.613
 8923SOL    HW227669   2.226   1.568   4.654
 8924SOL     OW27670   6.362   4.843   5.129
 8924SOL    HW127671   6.345   4.821   5.033
 8924SOL    HW227672   6.450   4.804   5.156
 8925SOL     OW27673   0.731   6.092   2.575
 8925SOL    HW127674   0.760   6.164   2.638
 8925SOL    HW227675   0.802   6.023   2.567
 8926SOL     OW27676   6.014   1.052   6.411
 8926SOL    HW127677   6.096   1.024   6.461
 8926SOL    HW227678   5.997   1.149   6.427
 8927SOL     OW27679   1.683   0.826   5.804
 8927SOL    HW127680   1.689   0.842   5.705
 8927SOL    HW227681   1.591   0.792   5.825
 8928SOL     OW27682   0.400   6.876   5.415
 8928SOL    HW127683   0.427   6.829   5.500
 8928SOL    HW227684   0.348   6.959   5.438
 8929SOL     OW27685   0.288   1.502   3.620
 8929SOL    HW127686   0.335   1.414   3.629
 8929SOL    HW227687   0.202   1.499   3.671
 8930SOL     OW27688   2.268   4.884   3.343
 8930SOL    HW127689   2.220   4.967   3.373
 8930SOL    HW227690   2.257   4.813   3.412
 8931SOL     OW27691   4.293   2.860   0.431
 8931SOL    HW127692   4.236   2.849   0.512
 8931SOL    HW227693   4.238   2.900   0.357
 8932SOL     OW27694   0.870   3.818   3.582
 8932SOL    HW127695   0.876   3.724   3.615
 8932SOL    HW227696   0.928   3.829   3.501
 8933SOL     OW27697   3.821   2.187   5.156
 8933SOL    HW127698   3.806   2.260   5.223
 8933SOL    HW227699   3.915   2.190   5.124
 8934SOL     OW27700   2.594   5.961   2.772
 8934SOL    HW127701   2.593   5.892   2.844
 8934SOL    HW227702   2.600   5.916   2.683
 8935SOL     OW27703   6.748   4.802   0.758
 8935SOL    HW127704   6.832   4.834   0.716
 8935SOL    HW227705   6.670   4.853   0.722
 8936SOL     OW27706   3.744   2.706   0.886
 8936SOL    HW127707   3.667   2.644   0.871
 8936SOL    HW227708   3.722   2.769   0.961
 8937SOL     OW27709   0.445   6.604   6.695
 8937SOL    HW127710   0.520   6.605   6.760
 8937SOL    HW227711   0.433   6.512   6.659
 8938SOL     OW27712   4.972   6.122   1.894
 8938SOL    HW127713   4.892   6.084   1.940
 8938SOL    HW227714   5.055   6.078   1.928
 8939SOL     OW27715   4.402   1.952   4.801
 8939SOL    HW127716   4.431   1.907   4.716
 8939SOL    HW227717   4.426   2.049   4.796
 8940SOL     OW27718   5.476   0.376   2.787
 8940SOL    HW127719   5.520   0.311   2.725
 8940SOL    HW227720   5.539   0.400   2.862
 8941SOL     OW27721   4.852   1.647   6.043
 8941SOL    HW127722   4.930   1.614   5.989
 8941SOL    HW227723   4.772   1.590   6.024
 8942SOL     OW27724   1.164   3.094   5.452
 8942SOL    HW127725   1.154   3.016   5.514
 8942SOL    HW227726   1.256   3.132   5.462
 8943SOL     OW27727   5.477   3.645   1.080
 8943SOL    HW127728   5.454   3.640   1.177
 8943SOL    HW227729   5.566   3.603   1.065
 8944SOL     OW27730   4.311   5.348   1.122
 8944SOL    HW127731   4.361   5.389   1.199
 8944SOL    HW227732   4.286   5.254   1.144
 8945SOL     OW27733   1.895   1.129   4.491
 8945SOL    HW127734   1.966   1.063   4.515
 8945SOL    HW227735   1.865   1.114   4.397
 8946SOL     OW27736   3.939   1.631   4.827
 8946SOL    HW127737   3.999   1.602   4.752
 8946SOL    HW227738   3.995   1.661   4.905
 8947SOL     OW27739   3.863   4.178   5.005
 8947SOL    HW127740   3.942   4.221   4.961
 8947SOL    HW227741   3.879   4.080   5.012
 8948SOL     OW27742   6.447   5.212   2.677
 8948SOL    HW127743   6.517   5.223   2.748
 8948SOL    HW227744   6.482   5.152   2.605
 8949SOL     OW27745   2.490   5.395   6.787
 8949SOL    HW127746   2.445   5.484   6.799
 8949SOL    HW227747   2.589   5.408   6.784
 8950SOL     OW27748   4.872   2.516   4.707
 8950SOL    HW127749   4.825   2.535   4.794
 8950SOL    HW227750   4.889   2.418   4.700
 8951SOL     OW27751   2.394   2.271   5.769
 8951SOL    HW127752   2.477   2.307   5.725
 8951SOL    HW227753   2.404   2.172   5.781
 8952SOL     OW27754   6.504   0.087   3.460
 8952SOL    HW127755   6.531   0.076   3.364
 8952SOL    HW227756   6.425   0.148   3.465
 8953SOL     OW27757   1.751   4.407   6.955
 8953SOL    HW127758   1.768   4.421   0.031
 8953SOL    HW227759   1.770   4.312   6.931
 8954SOL     OW27760   1.480   6.005   6.102
 8954SOL    HW127761   1.511   5.935   6.037
 8954SOL    HW227762   1.385   6.029   6.082
 8955SOL     OW27763   6.000   3.513   3.789
 8955SOL    HW127764   6.019   3.416   3.808
 8955SOL    HW227765   5.971   3.559   3.873
 8956SOL     OW27766   0.935   1.059   5.558
 8956SOL    HW127767   0.896   1.054   5.466
 8956SOL    HW227768   0.986   1.145   5.567
 8957SOL     OW27769   2.786   5.348   2.090
 8957SOL    HW127770   2.830   5.418   2.145
 8957SOL    HW227771   2.846   5.324   2.013
 8958SOL     OW27772   2.221   0.847   3.857
 8958SOL    HW127773   2.283   0.924   3.874
 8958SOL    HW227774   2.177   0.820   3.943
 8959SOL     OW27775   3.026   4.581   1.400
 8959SOL    HW127776   3.059   4.595   1.494
 8959SOL    HW227777   3.092   4.620   1.336
 8960SOL     OW27778   4.146   5.990   1.323
 8960SOL    HW127779   4.161   6.011   1.226
 8960SOL    HW227780   4.051   5.964   1.338
 8961SOL     OW27781   1.538   2.569   4.086
 8961SOL    HW127782   1.529   2.602   4.181
 8961SOL    HW227783   1.489   2.631   4.025
 8962SOL     OW27784   5.338   0.476   3.398
 8962SOL    HW127785   5.380   0.417   3.330
 8962SOL    HW227786   5.282   0.545   3.352
 8963SOL     OW27787   0.066   0.711   3.547
 8963SOL    HW127788   0.149   0.700   3.492
 8963SOL    HW227789   0.003   0.635   3.528
 8964SOL     OW27790   6.447   4.762   2.903
 8964SOL    HW127791   6.501   4.841   2.931
 8964SOL    HW227792   6.417   4.711   2.984
 8965SOL     OW27793   1.380   5.455   1.276
 8965SOL    HW127794   1.283   5.462   1.295
 8965SOL    HW227795   1.401   5.364   1.242
 8966SOL     OW27796   3.157   3.024   5.119
 8966SOL    HW127797   3.203   2.957   5.061
 8966SOL    HW227798   3.100   3.085   5.063
 8967SOL     OW27799   4.538   0.241   0.741
 8967SOL    HW127800   4.501   0.231   0.649
 8967SOL    HW227801   4.621   0.186   0.750
 8968SOL     OW27802   5.362   5.477   3.045
 8968SOL    HW127803   5.451   5.507   3.012
 8968SOL    HW227804   5.368   5.457   3.143
 8969SOL     OW27805   6.377   1.286   4.369
 8969SOL    HW127806   6.375   1.234   4.283
 8969SOL    HW227807   6.290   1.333   4.381
 8970SOL     OW27808   3.900   2.139   1.579
 8970SOL    HW127809   3.977   2.122   1.518
 8970SOL    HW227810   3.913   2.227   1.625
 8971SOL     OW27811   4.419   5.999   2.886
 8971SOL    HW127812   4.374   5.984   2.974
 8971SOL    HW227813   4.428   5.911   2.839
 8972SOL     OW27814   5.410   0.956   4.695
 8972SOL    HW127815   5.456   0.965   4.606
 8972SOL    HW227816   5.312   0.969   4.683
 8973SOL     OW27817   1.431   4.452   0.157
 8973SOL    HW127818   1.402   4.389   0.085
 8973SOL    HW227819   1.375   4.438   0.239
 8974SOL     OW27820   0.669   2.889   3.929
 8974SOL    HW127821   0.633   2.981   3.943
 8974SOL    HW227822   0.734   2.866   4.002
 8975SOL     OW27823   3.036   6.891   6.906
 8975SOL    HW127824   3.062   6.851   6.994
 8975SOL    HW227825   3.054   6.990   6.908
 8976SOL     OW27826   0.389   5.222   4.944
 8976SOL    HW127827   0.341   5.171   4.872
 8976SOL    HW227828   0.428   5.305   4.906
 8977SOL     OW27829   5.874   1.043   6.169
 8977SOL    HW127830   5.908   0.964   6.119
 8977SOL    HW227831   5.921   1.051   6.256
 8978SOL     OW27832   5.424   6.100   1.235
 8978SOL    HW127833   5.384   6.102   1.326
 8978SOL    HW227834   5.410   6.188   1.190
 8979SOL     OW27835   1.714   5.151   5.013
 8979SOL    HW127836   1.755   5.213   4.947
 8979SOL    HW227837   1.623   5.185   5.039
 8980SOL     OW27838   3.991   3.195   4.236
 8980SOL    HW127839   3.991   3.097   4.216
 8980SOL    HW227840   3.961   3.210   4.330
 8981SOL     OW27841   3.282   1.071   5.580
 8981SOL    HW127842   3.259   1.073   5.677
 8981SOL    HW227843   3.273   0.977   5.546
 8982SOL     OW27844   4.208   4.450   0.462
 8982SOL    HW127845   4.224   4.494   0.550
 8982SOL    HW227846   4.294   4.415   0.425
 8983SOL     OW27847   4.926   5.272   0.542
 8983SOL    HW127848   4.888   5.277   0.634
 8983SOL    HW227849   4.989   5.195   0.536
 8984SOL     OW27850   1.651   6.439   3.291
 8984SOL    HW127851   1.734   6.475   3.333
 8984SOL    HW227852   1.657   6.340   3.285
 8985SOL     OW27853   3.567   3.313   5.901
 8985SOL    HW127854   3.523   3.383   5.844
 8985SOL    HW227855   3.659   3.295   5.867
 8986SOL     OW27856   3.745   6.151   2.500
 8986SOL    HW127857   3.660   6.126   2.454
 8986SOL    HW227858   3.776   6.240   2.467
 8987SOL     OW27859   5.532   6.503   1.981
 8987SOL    HW127860   5.449   6.560   1.985
 8987SOL    HW227861   5.511   6.412   2.015
 8988SOL     OW27862   0.787   5.458   5.088
 8988SOL    HW127863   0.758   5.406   5.008
 8988SOL    HW227864   0.786   5.399   5.169
 8989SOL     OW27865   3.326   3.111   6.647
 8989SOL    HW127866   3.262   3.094   6.572
 8989SOL    HW227867   3.303   3.053   6.725
 8990SOL     OW27868   0.417   6.482   3.501
 8990SOL    HW127869   0.513   6.483   3.472
 8990SOL    HW227870   0.409   6.517   3.594
 8991SOL     OW27871   0.914   2.068   5.351
 8991SOL    HW127872   0.916   2.158   5.394
 8991SOL    HW227873   0.982   2.009   5.394
 8992SOL     OW27874   6.167   2.862   0.401
 8992SOL    HW127875   6.095   2.793   0.389
 8992SOL    HW227876   6.232   2.832   0.470
 8993SOL     OW27877   4.500   2.840   0.162
 8993SOL    HW127878   4.591   2.881   0.166
 8993SOL    HW227879   4.466   2.825   0.254
 8994SOL     OW27880   1.963   5.575   3.926
 8994SOL    HW127881   1.935   5.480   3.915
 8994SOL    HW227882   1.883   5.634   3.914
 8995SOL     OW27883   0.249   1.364   0.383
 8995SOL    HW127884   0.243   1.264   0.377
 8995SOL    HW227885   0.345   1.391   0.382
 8996SOL     OW27886   4.253   5.338   6.126
 8996SOL    HW127887   4.211   5.410   6.072
 8996SOL    HW227888   4.321   5.378   6.187
 8997SOL     OW27889   6.099   0.880   4.962
 8997SOL    HW127890   6.113   0.828   4.878
 8997SOL    HW227891   6.151   0.966   4.957
 8998SOL     OW27892   6.244   3.159   4.306
 8998SOL    HW127893   6.326   3.175   4.362
 8998SOL    HW227894   6.210   3.067   4.323
 8999SOL     OW27895   3.637   0.125   5.995
 8999SOL    HW127896   3.671   0.180   5.919
 8999SOL    HW227897   3.712   0.071   6.033
 9000SOL     OW27898   1.487   4.089   1.149
 9000SOL    HW127899   1.565   4.147   1.172
 9000SOL    HW227900   1.452   4.045   1.232
 9001SOL     OW27901   1.050   5.649   2.813
 9001SOL    HW127902   0.957   5.652   2.851
 9001SOL    HW227903   1.049   5.603   2.724
 9002SOL     OW27904   1.083   4.386   0.018
 9002SOL    HW127905   1.083   4.293   7.004
 9002SOL    HW227906   1.056   4.385   0.115
 9003SOL     OW27907   5.665   0.125   1.313
 9003SOL    HW127908   5.732   0.179   1.364
 9003SOL    HW227909   5.598   0.186   1.271
 9004SOL     OW27910   4.213   4.593   7.001
 9004SOL    HW127911   4.174   4.669   6.950
 9004SOL    HW227912   4.236   4.624   0.072
 9005SOL     OW27913   5.203   1.129   4.849
 9005SOL    HW127914   5.165   1.037   4.853
 9005SOL    HW227915   5.261   1.145   4.929
 9006SOL     OW27916   3.634   5.704   0.522
 9006SOL    HW127917   3.658   5.685   0.427
 9006SOL    HW227918   3.617   5.618   0.570
 9007SOL     OW27919   2.646   0.921   2.623
 9007SOL    HW127920   2.709   0.997   2.603
 9007SOL    HW227921   2.552   0.955   2.621
 9008SOL     OW27922   0.933   5.917   2.539
 9008SOL    HW127923   1.008   5.942   2.600
 9008SOL    HW227924   0.925   5.817   2.535
 9009SOL     OW27925   3.947   6.186   1.141
 9009SOL    HW127926   3.970   6.089   1.132
 9009SOL    HW227927   3.949   6.229   1.050
 9010SOL     OW27928   1.469   6.130   4.130
 9010SOL    HW127929   1.386   6.178   4.159
 9010SOL    HW227930   1.445   6.062   4.060
 9011SOL     OW27931   2.680   1.969   1.996
 9011SOL    HW127932   2.681   2.058   1.951
 9011SOL    HW227933   2.592   1.924   1.979
 9012SOL     OW27934   1.854   6.209   6.551
 9012SOL    HW127935   1.896   6.128   6.510
 9012SOL    HW227936   1.839   6.278   6.481
 9013SOL     OW27937   2.013   6.575   4.102
 9013SOL    HW127938   1.929   6.613   4.062
 9013SOL    HW227939   1.990   6.494   4.156
 9014SOL     OW27940   5.306   2.780   3.186
 9014SOL    HW127941   5.237   2.799   3.257
 9014SOL    HW227942   5.380   2.847   3.193
 9015SOL     OW27943   5.254   1.423   6.664
 9015SOL    HW127944   5.240   1.516   6.698
 9015SOL    HW227945   5.316   1.425   6.586
 9016SOL     OW27946   5.506   5.588   6.657
 9016SOL    HW127947   5.580   5.567   6.594
 9016SOL    HW227948   5.528   5.553   6.748
 9017SOL     OW27949   4.097   0.339   4.592
 9017SOL    HW127950   4.092   0.338   4.692
 9017SOL    HW227951   4.176   0.285   4.562
 9018SOL     OW27952   3.969   4.066   6.619
 9018SOL    HW127953   3.893   4.002   6.607
 9018SOL    HW227954   3.955   4.145   6.559
 9019SOL     OW27955   0.401   3.835   3.615
 9019SOL    HW127956   0.372   3.870   3.704
 9019SOL    HW227957   0.484   3.882   3.586
 9020SOL     OW27958   5.817   6.152   2.177
 9020SOL    HW127959   5.880   6.151   2.254
 9020SOL    HW227960   5.810   6.245   2.141
 9021SOL     OW27961   0.487   0.748   4.408
 9021SOL    HW127962   0.448   0.656   4.408
 9021SOL    HW227963   0.587   0.742   4.412
 9022SOL     OW27964   4.708   3.389   6.189
 9022SOL    HW127965   4.801   3.366   6.160
 9022SOL    HW227966   4.708   3.413   6.286
 9023SOL     OW27967   5.831   4.150   1.032
 9023SOL    HW127968   5.753   4.213   1.028
 9023SOL    HW227969   5.873   4.143   0.941
 9024SOL     OW27970   2.017   5.769   6.069
 9024SOL    HW127971   2.010   5.748   5.971
 9024SOL    HW227972   1.930   5.807   6.101
 9025SOL     OW27973   1.117   5.501   1.306
 9025SOL    HW127974   1.128   5.597   1.280
 9025SOL    HW227975   1.025   5.486   1.343
 9026SOL     OW27976   4.754   1.827   0.131
 9026SOL    HW127977   4.784   1.738   0.168
 9026SOL    HW227978   4.671   1.856   0.178
 9027SOL     OW27979   0.557   4.119   3.316
 9027SOL    HW127980   0.479   4.093   3.260
 9027SOL    HW227981   0.609   4.038   3.342
 9028SOL     OW27982   3.252   4.919   5.879
 9028SOL    HW127983   3.272   4.993   5.815
 9028SOL    HW227984   3.273   4.949   5.972
 9029SOL     OW27985   4.283   6.600   4.340
 9029SOL    HW127986   4.200   6.652   4.360
 9029SOL    HW227987   4.356   6.662   4.312
 9030SOL     OW27988   2.728   1.469   2.798
 9030SOL    HW127989   2.661   1.533   2.835
 9030SOL    HW227990   2.817   1.486   2.839
 9031SOL     OW27991   4.383   6.868   4.475
 9031SOL    HW127992   4.470   6.865   4.426
 9031SOL    HW227993   4.380   6.793   4.541
 9032SOL     OW27994   4.894   3.740   2.012
 9032SOL    HW127995   4.931   3.701   2.097
 9032SOL    HW227996   4.852   3.828   2.031
 9033SOL     OW27997   0.726   6.987   3.213
 9033SOL    HW127998   0.748   6.891   3.232
 9033SOL    HW227999   0.633   6.993   3.176
 9034SOL     OW28000   4.352   6.461   3.921
 9034SOL    HW128001   4.273   6.443   3.862
 9034SOL    HW228002   4.338   6.549   3.968
 9035SOL     OW28003   2.009   4.637   6.373
 9035SOL    HW128004   2.024   4.702   6.447
 9035SOL    HW228005   1.924   4.660   6.325
 9036SOL     OW28006   1.726   4.098   5.153
 9036SOL    HW128007   1.795   4.068   5.218
 9036SOL    HW228008   1.710   4.027   5.084
 9037SOL     OW28009   1.372   2.104   2.651
 9037SOL    HW128010   1.392   2.069   2.743
 9037SOL    HW228011   1.450   2.087   2.591
 9038SOL     OW28012   4.548   3.236   5.410
 9038SOL    HW128013   4.489   3.307   5.448
 9038SOL    HW228014   4.496   3.151   5.402
 9039SOL     OW28015   4.116   5.590   6.379
 9039SOL    HW128016   4.097   5.688   6.388
 9039SOL    HW228017   4.038   5.545   6.335
 9040SOL     OW28018   2.272   1.678   1.188
 9040SOL    HW128019   2.271   1.633   1.278
 9040SOL    HW228020   2.288   1.776   1.201
 9041SOL     OW28021   6.805   1.926   1.886
 9041SOL    HW128022   6.769   1.939   1.793
 9041SOL    HW228023   6.900   1.894   1.880
 9042SOL     OW28024   3.869   6.107   0.277
 9042SOL    HW128025   3.843   6.025   0.227
 9042SOL    HW228026   3.945   6.153   0.231
 9043SOL     OW28027   3.330   2.106   0.422
 9043SOL    HW128028   3.264   2.085   0.494
 9043SOL    HW228029   3.383   2.187   0.448
 9044SOL     OW28030   1.043   1.168   0.287
 9044SOL    HW128031   1.045   1.197   0.382
 9044SOL    HW228032   1.072   1.243   0.228
 9045SOL     OW28033   4.053   1.772   3.954
 9045SOL    HW128034   4.129   1.708   3.942
 9045SOL    HW228035   3.990   1.764   3.876
 9046SOL     OW28036   3.321   3.489   2.171
 9046SOL    HW128037   3.315   3.551   2.250
 9046SOL    HW228038   3.382   3.413   2.193
 9047SOL     OW28039   1.519   3.658   6.045
 9047SOL    HW128040   1.478   3.749   6.045
 9047SOL    HW228041   1.570   3.645   5.960
 9048SOL     OW28042   6.501   1.883   6.006
 9048SOL    HW128043   6.592   1.880   5.965
 9048SOL    HW228044   6.473   1.978   6.016
 9049SOL     OW28045   3.383   6.764   6.192
 9049SOL    HW128046   3.316   6.695   6.165
 9049SOL    HW228047   3.361   6.796   6.284
 9050SOL     OW28048   0.583   5.257   0.328
 9050SOL    HW128049   0.572   5.344   0.281
 9050SOL    HW228050   0.674   5.253   0.370
 9051SOL     OW28051   2.337   0.812   1.555
 9051SOL    HW128052   2.354   0.804   1.654
 9051SOL    HW228053   2.380   0.736   1.508
 9052SOL     OW28054   1.173   2.273   5.256
 9052SOL    HW128055   1.133   2.283   5.347
 9052SOL    HW228056   1.261   2.321   5.253
 9053SOL     OW28057   1.592   1.043   6.966
 9053SOL    HW128058   1.635   0.957   6.996
 9053SOL    HW228059   1.535   1.026   6.886
 9054SOL     OW28060   2.243   5.868   2.383
 9054SOL    HW128061   2.295   5.900   2.463
 9054SOL    HW228062   2.276   5.915   2.301
 9055SOL     OW28063   0.086   3.945   4.590
 9055SOL    HW128064   0.104   4.038   4.556
 9055SOL    HW228065   0.002   3.945   4.643
 9056SOL     OW28066   6.308   2.902   2.968
 9056SOL    HW128067   6.275   2.810   2.990
 9056SOL    HW228068   6.232   2.959   2.939
 9057SOL     OW28069   4.273   2.001   4.385
 9057SOL    HW128070   4.262   1.977   4.288
 9057SOL    HW228071   4.285   2.099   4.394
 9058SOL     OW28072   2.244   0.740   5.465
 9058SOL    HW128073   2.255   0.811   5.534
 9058SOL    HW228074   2.322   0.676   5.470
 9059SOL     OW28075   0.825   2.059   2.909
 9059SOL    HW128076   0.746   2.094   2.959
 9059SOL    HW228077   0.796   1.986   2.847
 9060SOL     OW28078   5.260   2.895   5.553
 9060SOL    HW128079   5.282   2.822   5.617
 9060SOL    HW228080   5.265   2.984   5.600
 9061SOL     OW28081   3.088   5.758   2.961
 9061SOL    HW128082   3.085   5.802   3.050
 9061SOL    HW228083   3.063   5.824   2.890
 9062SOL     OW28084   1.713   5.505   1.136
 9062SOL    HW128085   1.628   5.558   1.140
 9062SOL    HW228086   1.786   5.556   1.181
 9063SOL     OW28087   3.077   1.273   1.886
 9063SOL    HW128088   3.126   1.330   1.821
 9063SOL    HW228089   2.984   1.308   1.898
 9064SOL     OW28090   5.857   3.679   0.518
 9064SOL    HW128091   5.763   3.647   0.527
 9064SOL    HW228092   5.888   3.718   0.605
 9065SOL     OW28093   2.261   1.080   0.070
 9065SOL    HW128094   2.197   1.057   7.018
 9065SOL    HW228095   2.355   1.073   0.036
 9066SOL     OW28096   5.295   6.346   0.205
 9066SOL    HW128097   5.394   6.348   0.201
 9066SOL    HW228098   5.264   6.395   0.287
 9067SOL     OW28099   1.277   6.569   2.462
 9067SOL    HW128100   1.213   6.545   2.389
 9067SOL    HW228101   1.262   6.508   2.540
 9068SOL     OW28102   1.578   6.180   6.893
 9068SOL    HW128103   1.589   6.085   6.924
 9068SOL    HW228104   1.538   6.234   6.967
 9069SOL     OW28105   1.282   2.685   6.134
 9069SOL    HW128106   1.361   2.745   6.142
 9069SOL    HW228107   1.279   2.646   6.041
 9070SOL     OW28108   1.228   4.415   3.944
 9070SOL    HW128109   1.134   4.427   3.973
 9070SOL    HW228110   1.232   4.401   3.845
 9071SOL     OW28111   4.905   5.799   0.483
 9071SOL    HW128112   4.902   5.819   0.581
 9071SOL    HW228113   4.832   5.735   0.459
 9072SOL     OW28114   5.350   5.393   6.837
 9072SOL    HW128115   5.316   5.482   6.808
 9072SOL    HW228116   5.339   5.327   6.763
 9073SOL     OW28117   2.096   0.215   1.774
 9073SOL    HW128118   2.049   0.127   1.781
 9073SOL    HW228119   2.188   0.207   1.812
 9074SOL     OW28120   0.815   0.245   3.564
 9074SOL    HW128121   0.804   0.241   3.465
 9074SOL    HW228122   0.837   0.339   3.592
 9075SOL     OW28123   1.101   1.004   2.430
 9075SOL    HW128124   1.150   0.926   2.390
 9075SOL    HW228125   1.047   0.973   2.508
 9076SOL     OW28126   6.816   2.024   5.333
 9076SOL    HW128127   6.749   2.005   5.261
 9076SOL    HW228128   6.908   2.023   5.295
 9077SOL     OW28129   5.854   6.144   1.684
 9077SOL    HW128130   5.932   6.154   1.746
 9077SOL    HW228131   5.857   6.216   1.615
 9078SOL     OW28132   3.865   2.994   5.141
 9078SOL    HW128133   3.878   2.990   5.041
 9078SOL    HW228134   3.929   3.061   5.180
 9079SOL     OW28135   3.319   0.558   5.587
 9079SOL    HW128136   3.393   0.521   5.644
 9079SOL    HW228137   3.273   0.483   5.540
 9080SOL     OW28138   4.945   1.732   0.401
 9080SOL    HW128139   4.942   1.673   0.321
 9080SOL    HW228140   4.977   1.823   0.375
 9081SOL     OW28141   5.334   0.519   2.275
 9081SOL    HW128142   5.286   0.513   2.362
 9081SOL    HW228143   5.274   0.563   2.207
 9082SOL     OW28144   3.146   0.492   2.734
 9082SOL    HW128145   3.239   0.473   2.765
 9082SOL    HW228146   3.115   0.417   2.676
 9083SOL     OW28147   4.451   4.842   4.203
 9083SOL    HW128148   4.446   4.940   4.183
 9083SOL    HW228149   4.368   4.813   4.249
 9084SOL     OW28150   3.760   3.762   3.133
 9084SOL    HW128151   3.683   3.807   3.177
 9084SOL    HW228152   3.726   3.688   3.074
 9085SOL     OW28153   1.143   2.251   0.978
 9085SOL    HW128154   1.151   2.234   0.880
 9085SOL    HW228155   1.156   2.165   1.028
 9086SOL     OW28156   0.452   3.822   0.048
 9086SOL    HW128157   0.445   3.723   0.037
 9086SOL    HW228158   0.431   3.847   0.143
 9087SOL     OW28159   5.039   3.418   2.014
 9087SOL    HW128160   5.030   3.501   1.958
 9087SOL    HW228161   4.990   3.343   1.969
 9088SOL     OW28162   5.292   6.654   1.246
 9088SOL    HW128163   5.256   6.578   1.300
 9088SOL    HW228164   5.225   6.681   1.178
 9089SOL     OW28165   4.097   0.171   6.005
 9089SOL    HW128166   4.044   0.227   6.070
 9089SOL    HW228167   4.091   0.212   5.914
 9090SOL     OW28168   5.586   1.610   3.159
 9090SOL    HW128169   5.570   1.641   3.065
 9090SOL    HW228170   5.609   1.513   3.158
 9091SOL     OW28171   2.919   2.165   6.466
 9091SOL    HW128172   2.948   2.259   6.484
 9091SOL    HW228173   2.960   2.104   6.533
 9092SOL     OW28174   0.034   2.958   6.179
 9092SOL    HW128175   0.108   3.009   6.222
 9092SOL    HW228176   6.984   2.940   6.246
 9093SOL     OW28177   1.937   6.139   5.102
 9093SOL    HW128178   2.017   6.080   5.114
 9093SOL    HW228179   1.870   6.093   5.044
 9094SOL     OW28180   1.107   3.757   1.275
 9094SOL    HW128181   1.080   3.812   1.195
 9094SOL    HW228182   1.147   3.671   1.243
 9095SOL     OW28183   7.012   6.694   5.488
 9095SOL    HW128184   6.982   6.773   5.436
 9095SOL    HW228185   7.015   6.614   5.428
 9096SOL     OW28186   6.610   5.246   3.970
 9096SOL    HW128187   6.546   5.309   3.927
 9096SOL    HW228188   6.639   5.283   4.059
 9097SOL     OW28189   0.943   2.462   5.776
 9097SOL    HW128190   0.875   2.525   5.813
 9097SOL    HW228191   0.976   2.402   5.849
 9098SOL     OW28192   2.269   4.670   3.501
 9098SOL    HW128193   2.193   4.648   3.562
 9098SOL    HW228194   2.354   4.636   3.539
 9099SOL     OW28195   2.303   1.718   6.792
 9099SOL    HW128196   2.356   1.674   6.864
 9099SOL    HW228197   2.341   1.809   6.773
 9100SOL     OW28198   1.500   4.417   3.773
 9100SOL    HW128199   1.530   4.322   3.762
 9100SOL    HW228200   1.513   4.467   3.688
 9101SOL     OW28201   0.685   2.490   0.574
 9101SOL    HW128202   0.606   2.428   0.569
 9101SOL    HW228203   0.760   2.444   0.621
 9102SOL     OW28204   4.001   6.789   2.735
 9102SOL    HW128205   4.071   6.720   2.717
 9102SOL    HW228206   3.910   6.746   2.729
 9103SOL     OW28207   6.195   0.941   1.011
 9103SOL    HW128208   6.270   0.875   1.015
 9103SOL    HW228209   6.185   0.986   1.100
 9104SOL     OW28210   6.037   1.833   6.262
 9104SOL    HW128211   6.111   1.768   6.276
 9104SOL    HW228212   5.963   1.814   6.325
 9105SOL     OW28213   2.508   1.387   5.869
 9105SOL    HW128214   2.578   1.317   5.852
 9105SOL    HW228215   2.547   1.459   5.926
 9106SOL     OW28216   1.261   3.860   6.929
 9106SOL    HW128217   1.214   3.813   6.854
 9106SOL    HW228218   1.235   3.957   6.929
 9107SOL     OW28219   3.437   1.791   0.434
 9107SOL    HW128220   3.381   1.722   0.481
 9107SOL    HW228221   3.400   1.882   0.452
 9108SOL     OW28222   6.624   5.527   5.695
 9108SOL    HW128223   6.629   5.487   5.786
 9108SOL    HW228224   6.555   5.601   5.695
 9109SOL     OW28225   5.836   3.852   2.674
 9109SOL    HW128226   5.855   3.782   2.605
 9109SOL    HW228227   5.900   3.928   2.661
 9110SOL     OW28228   1.451   6.081   3.417
 9110SOL    HW128229   1.405   6.168   3.431
 9110SOL    HW228230   1.541   6.097   3.377
 9111SOL     OW28231   4.248   2.288   6.570
 9111SOL    HW128232   4.203   2.350   6.634
 9111SOL    HW228233   4.313   2.230   6.619
 9112SOL     OW28234   1.115   5.267   1.610
 9112SOL    HW128235   1.043   5.335   1.618
 9112SOL    HW228236   1.138   5.231   1.700
 9113SOL     OW28237   5.574   0.228   4.530
 9113SOL    HW128238   5.609   0.135   4.544
 9113SOL    HW228239   5.539   0.264   4.616
 9114SOL     OW28240   1.071   6.523   5.983
 9114SOL    HW128241   1.127   6.459   5.930
 9114SOL    HW228242   1.056   6.606   5.930
 9115SOL     OW28243   4.800   4.166   4.820
 9115SOL    HW128244   4.732   4.226   4.861
 9115SOL    HW228245   4.755   4.090   4.775
 9116SOL     OW28246   1.923   0.441   3.441
 9116SOL    HW128247   1.952   0.537   3.438
 9116SOL    HW228248   1.917   0.404   3.349
 9117SOL     OW28249   2.247   6.433   0.100
 9117SOL    HW128250   2.341   6.463   0.120
 9117SOL    HW228251   2.249   6.362   0.030
 9118SOL     OW28252   6.499   3.859   1.869
 9118SOL    HW128253   6.536   3.847   1.962
 9118SOL    HW228254   6.498   3.956   1.846
 9119SOL     OW28255   2.871   0.788   0.383
 9119SOL    HW128256   2.855   0.887   0.379
 9119SOL    HW228257   2.861   0.756   0.477
 9120SOL     OW28258   6.454   4.003   4.800
 9120SOL    HW128259   6.436   3.916   4.753
 9120SOL    HW228260   6.371   4.058   4.803
 9121SOL     OW28261   3.844   0.490   4.468
 9121SOL    HW128262   3.869   0.499   4.372
 9121SOL    HW228263   3.927   0.480   4.524
 9122SOL     OW28264   0.644   3.165   1.302
 9122SOL    HW128265   0.668   3.212   1.217
 9122SOL    HW228266   0.609   3.074   1.281
 9123SOL     OW28267   0.071   6.044   4.393
 9123SOL    HW128268   0.068   6.111   4.467
 9123SOL    HW228269   0.147   5.981   4.409
 9124SOL     OW28270   3.132   5.049   0.529
 9124SOL    HW128271   3.139   5.148   0.526
 9124SOL    HW228272   3.071   5.018   0.457
 9125SOL     OW28273   5.761   6.499   1.811
 9125SOL    HW128274   5.710   6.511   1.897
 9125SOL    HW228275   5.696   6.485   1.736
 9126SOL     OW28276   4.352   4.781   0.675
 9126SOL    HW128277   4.370   4.840   0.753
 9126SOL    HW228278   4.318   4.836   0.598
 9127SOL     OW28279   6.751   4.977   5.048
 9127SOL    HW128280   6.841   4.950   5.082
 9127SOL    HW228281   6.704   5.031   5.118
 9128SOL     OW28282   5.725   4.116   5.653
 9128SOL    HW128283   5.811   4.094   5.699
 9128SOL    HW228284   5.742   4.131   5.556
 9129SOL     OW28285   0.761   2.841   0.543
 9129SOL    HW128286   0.854   2.866   0.570
 9129SOL    HW228287   0.710   2.923   0.518
 9130SOL     OW28288   2.946   3.475   4.682
 9130SOL    HW128289   3.008   3.417   4.631
 9130SOL    HW228290   2.892   3.531   4.619
 9131SOL     OW28291   5.334   2.593   0.706
 9131SOL    HW128292   5.237   2.598   0.679
 9131SOL    HW228293   5.389   2.638   0.636
 9132SOL     OW28294   0.674   3.999   3.954
 9132SOL    HW128295   0.599   3.941   3.921
 9132SOL    HW228296   0.638   4.063   4.022
 9133SOL     OW28297   6.213   6.958   1.036
 9133SOL    HW128298   6.265   0.023   1.034
 9133SOL    HW228299   6.116   6.978   1.031
 9134SOL     OW28300   4.883   4.807   0.408
 9134SOL    HW128301   4.946   4.884   0.397
 9134SOL    HW228302   4.825   4.823   0.488
 9135SOL     OW28303   6.487   6.051   2.676
 9135SOL    HW128304   6.461   6.075   2.769
 9135SOL    HW228305   6.443   6.114   2.612
 9136SOL     OW28306   6.755   5.059   0.139
 9136SOL    HW128307   6.715   5.146   0.111
 9136SOL    HW228308   6.697   5.016   0.209
 9137SOL     OW28309   5.466   6.654   5.518
 9137SOL    HW128310   5.449   6.711   5.437
 9137SOL    HW228311   5.546   6.688   5.567
 9138SOL     OW28312   2.307   3.741   6.930
 9138SOL    HW128313   2.288   3.656   6.978
 9138SOL    HW228314   2.230   3.804   6.943
 9139SOL     OW28315   6.973   0.198   1.710
 9139SOL    HW128316   0.013   0.262   1.664
 9139SOL    HW228317   6.933   0.136   1.643
 9140SOL     OW28318   1.944   3.776   2.304
 9140SOL    HW128319   1.900   3.694   2.268
 9140SOL    HW228320   1.875   3.848   2.317
 9141SOL     OW28321   0.293   5.986   4.921
 9141SOL    HW128322   0.213   5.966   4.865
 9141SOL    HW228323   0.315   5.907   4.978
 9142SOL     OW28324   0.661   4.800   3.820
 9142SOL    HW128325   0.759   4.815   3.830
 9142SOL    HW228326   0.619   4.880   3.776
 9143SOL     OW28327   6.306   4.365   3.143
 9143SOL    HW128328   6.346   4.278   3.171
 9143SOL    HW228329   6.231   4.388   3.205
 9144SOL     OW28330   3.117   4.168   5.176
 9144SOL    HW128331   3.127   4.181   5.077
 9144SOL    HW228332   3.022   4.147   5.198
 9145SOL     OW28333   1.396   5.906   5.835
 9145SOL    HW128334   1.395   5.924   5.736
 9145SOL    HW228335   1.321   5.956   5.878
 9146SOL     OW28336   6.163   2.653   2.938
 9146SOL    HW128337   6.198   2.610   2.856
 9146SOL    HW228338   6.067   2.677   2.925
 9147SOL     OW28339   3.883   0.140   5.354
 9147SOL    HW128340   3.981   0.159   5.358
 9147SOL    HW228341   3.846   0.171   5.266
 9148SOL     OW28342   4.928   5.773   1.689
 9148SOL    HW128343   4.968   5.735   1.772
 9148SOL    HW228344   4.984   5.748   1.610
 9149SOL     OW28345   0.660   3.652   0.791
 9149SOL    HW128346   0.701   3.562   0.773
 9149SOL    HW228347   0.592   3.673   0.720
 9150SOL     OW28348   2.987   3.330   6.990
 9150SOL    HW128349   3.073   3.380   7.004
 9150SOL    HW228350   2.974   3.316   6.892
 9151SOL     OW28351   2.136   3.263   3.528
 9151SOL    HW128352   2.153   3.344   3.584
 9151SOL    HW228353   2.164   3.182   3.580
 9152SOL     OW28354   2.124   4.037   2.832
 9152SOL    HW128355   2.074   4.079   2.756
 9152SOL    HW228356   2.126   3.938   2.820
 9153SOL     OW28357   0.279   3.003   6.327
 9153SOL    HW128358   0.270   3.103   6.318
 9153SOL    HW228359   0.229   2.973   6.408
 9154SOL     OW28360   4.974   5.096   3.410
 9154SOL    HW128361   5.045   5.095   3.480
 9154SOL    HW228362   4.911   5.020   3.426
 9155SOL     OW28363   1.005   6.205   2.552
 9155SOL    HW128364   1.104   6.209   2.539
 9155SOL    HW228365   0.971   6.117   2.519
 9156SOL     OW28366   6.812   4.224   5.867
 9156SOL    HW128367   6.819   4.271   5.955
 9156SOL    HW228368   6.783   4.290   5.797
 9157SOL     OW28369   1.395   4.081   5.549
 9157SOL    HW128370   1.362   4.175   5.534
 9157SOL    HW228371   1.345   4.019   5.488
 9158SOL     OW28372   6.771   3.534   5.090
 9158SOL    HW128373   6.838   3.592   5.044
 9158SOL    HW228374   6.713   3.589   5.150
 9159SOL     OW28375   2.277   1.616   3.655
 9159SOL    HW128376   2.186   1.589   3.686
 9159SOL    HW228377   2.328   1.535   3.628
 9160SOL     OW28378   0.938   3.241   6.866
 9160SOL    HW128379   0.896   3.252   6.955
 9160SOL    HW228380   1.006   3.167   6.870
 9161SOL     OW28381   6.248   3.273   2.608
 9161SOL    HW128382   6.176   3.211   2.577
 9161SOL    HW228383   6.207   3.357   2.643
 9162SOL     OW28384   3.903   2.346   1.728
 9162SOL    HW128385   3.954   2.363   1.812
 9162SOL    HW228386   3.806   2.367   1.743
 9163SOL     OW28387   2.318   2.360   4.146
 9163SOL    HW128388   2.244   2.293   4.138
 9163SOL    HW228389   2.303   2.416   4.228
 9164SOL     OW28390   1.993   6.905   6.402
 9164SOL    HW128391   1.944   6.827   6.443
 9164SOL    HW228392   1.983   6.985   6.460
 9165SOL     OW28393   5.358   1.586   6.046
 9165SOL    HW128394   5.390   1.492   6.031
 9165SOL    HW228395   5.394   1.645   5.974
 9166SOL     OW28396   4.440   6.470   1.991
 9166SOL    HW128397   4.346   6.485   1.960
 9166SOL    HW228398   4.451   6.509   2.082
 9167SOL     OW28399   1.672   1.616   4.468
 9167SOL    HW128400   1.657   1.712   4.445
 9167SOL    HW228401   1.588   1.578   4.507
 9168SOL     OW28402   6.664   5.800   5.160
 9168SOL    HW128403   6.753   5.769   5.125
 9168SOL    HW228404   6.655   5.898   5.145
 9169SOL     OW28405   6.511   5.824   0.485
 9169SOL    HW128406   6.603   5.784   0.492
 9169SOL    HW228407   6.512   5.899   0.419
 9170SOL     OW28408   1.793   0.923   5.539
 9170SOL    HW128409   1.858   0.968   5.601
 9170SOL    HW228410   1.839   0.898   5.454
 9171SOL     OW28411   3.368   5.695   6.765
 9171SOL    HW128412   3.326   5.649   6.688
 9171SOL    HW228413   3.326   5.663   6.850
 9172SOL     OW28414   4.321   1.940   5.473
 9172SOL    HW128415   4.403   1.963   5.526
 9172SOL    HW228416   4.241   1.985   5.515
 9173SOL     OW28417   6.002   3.785   5.624
 9173SOL    HW128418   6.057   3.825   5.550
 9173SOL    HW228419   5.933   3.725   5.584
 9174SOL     OW28420   6.181   4.538   1.316
 9174SOL    HW128421   6.226   4.503   1.234
 9174SOL    HW228422   6.084   4.517   1.313
 9175SOL     OW28423   2.235   6.829   1.442
 9175SOL    HW128424   2.257   6.848   1.538
 9175SOL    HW228425   2.279   6.896   1.383
 9176SOL     OW28426   1.782   0.768   1.668
 9176SOL    HW128427   1.700   0.825   1.667
 9176SOL    HW228428   1.760   0.679   1.708
 9177SOL     OW28429   0.759   6.618   4.090
 9177SOL    HW128430   0.683   6.567   4.051
 9177SOL    HW228431   0.840   6.606   4.032
 9178SOL     OW28432   1.150   4.578   0.852
 9178SOL    HW128433   1.052   4.564   0.844
 9178SOL    HW228434   1.177   4.573   0.949
 9179SOL     OW28435   3.606   5.145   3.961
 9179SOL    HW128436   3.686   5.188   4.002
 9179SOL    HW228437   3.635   5.073   3.898
 9180SOL     OW28438   0.132   1.110   5.245
 9180SOL    HW128439   0.163   1.167   5.170
 9180SOL    HW228440   0.203   1.105   5.315
 9181SOL     OW28441   2.702   2.234   4.068
 9181SOL    HW128442   2.617   2.229   4.016
 9181SOL    HW228443   2.691   2.297   4.144
 9182SOL     OW28444   0.236   1.917   2.514
 9182SOL    HW128445   0.253   1.980   2.589
 9182SOL    HW228446   0.171   1.847   2.543
 9183SOL     OW28447   1.622   1.796   6.083
 9183SOL    HW128448   1.581   1.778   6.173
 9183SOL    HW228449   1.550   1.813   6.016
 9184SOL     OW28450   2.902   4.324   0.933
 9184SOL    HW128451   2.824   4.340   0.992
 9184SOL    HW228452   2.960   4.253   0.972
 9185SOL     OW28453   1.611   0.485   5.869
 9185SOL    HW128454   1.536   0.550   5.854
 9185SOL    HW228455   1.641   0.491   5.964
 9186SOL     OW28456   5.136   6.800   6.848
 9186SOL    HW128457   5.131   6.851   6.762
 9186SOL    HW228458   5.047   6.804   6.894
 9187SOL     OW28459   5.350   2.916   0.799
 9187SOL    HW128460   5.417   2.842   0.808
 9187SOL    HW228461   5.262   2.878   0.769
 9188SOL     OW28462   1.785   6.978   1.295
 9188SOL    HW128463   1.718   6.904   1.297
 9188SOL    HW228464   1.851   6.966   1.369
 9189SOL     OW28465   3.170   0.378   5.462
 9189SOL    HW128466   3.166   0.283   5.493
 9189SOL    HW228467   3.205   0.381   5.369
 9190SOL     OW28468   4.374   0.819   5.196
 9190SOL    HW128469   4.299   0.779   5.144
 9190SOL    HW228470   4.364   0.793   5.293
 9191SOL     OW28471   5.899   0.028   1.545
 9191SOL    HW128472   5.979   0.005   1.601
 9191SOL    HW228473   5.842   0.094   1.594
 9192SOL     OW28474   4.879   3.536   4.515
 9192SOL    HW128475   4.794   3.531   4.566
 9192SOL    HW228476   4.937   3.458   4.539
 9193SOL     OW28477   4.045   3.580   3.368
 9193SOL    HW128478   3.972   3.513   3.355
 9193SOL    HW228479   4.027   3.659   3.309
 9194SOL     OW28480   3.774   4.841   3.069
 9194SOL    HW128481   3.702   4.865   3.134
 9194SOL    HW228482   3.736   4.841   2.976
 9195SOL     OW28483   0.674   2.674   2.635
 9195SOL    HW128484   0.659   2.625   2.721
 9195SOL    HW228485   0.586   2.700   2.596
 9196SOL     OW28486   5.006   6.442   4.525
 9196SOL    HW128487   4.959   6.355   4.537
 9196SOL    HW228488   4.957   6.513   4.577
 9197SOL     OW28489   4.375   1.392   0.037
 9197SOL    HW128490   4.344   1.387   6.964
 9197SOL    HW228491   4.296   1.399   0.098
 9198SOL     OW28492   5.880   2.426   5.501
 9198SOL    HW128493   5.913   2.498   5.439
 9198SOL    HW228494   5.839   2.467   5.582
 9199SOL     OW28495   1.436   3.498   6.417
 9199SOL    HW128496   1.517   3.466   6.465
 9199SOL    HW228497   1.448   3.485   6.318
 9200SOL     OW28498   4.885   5.653   1.192
 9200SOL    HW128499   4.906   5.695   1.104
 9200SOL    HW228500   4.970   5.631   1.240
 9201SOL     OW28501   0.494   3.376   2.132
 9201SOL    HW128502   0.503   3.292   2.186
 9201SOL    HW228503   0.526   3.359   2.039
 9202SOL     OW28504   2.265   6.198   4.083
 9202SOL    HW128505   2.224   6.275   4.034
 9202SOL    HW228506   2.300   6.230   4.171
 9203SOL     OW28507   5.090   0.889   0.143
 9203SOL    HW128508   5.089   0.806   0.087
 9203SOL    HW228509   5.175   0.891   0.196
 9204SOL     OW28510   5.193   4.638   2.983
 9204SOL    HW128511   5.205   4.656   2.885
 9204SOL    HW228512   5.148   4.716   3.026
 9205SOL     OW28513   4.487   2.356   1.615
 9205SOL    HW128514   4.460   2.378   1.709
 9205SOL    HW228515   4.584   2.379   1.602
 9206SOL     OW28516   6.350   6.130   4.568
 9206SOL    HW128517   6.301   6.050   4.532
 9206SOL    HW228518   6.286   6.207   4.576
 9207SOL     OW28519   3.861   5.902   0.101
 9207SOL    HW128520   3.799   5.929   0.028
 9207SOL    HW228521   3.951   5.880   0.063
 9208SOL     OW28522   4.251   4.045   1.718
 9208SOL    HW128523   4.322   4.105   1.754
 9208SOL    HW228524   4.200   4.094   1.647
 9209SOL     OW28525   4.268   0.209   2.977
 9209SOL    HW128526   4.349   0.209   2.918
 9209SOL    HW228527   4.202   0.142   2.943
 9210SOL     OW28528   0.845   6.751   7.013
 9210SOL    HW128529   0.867   6.795   0.079
 9210SOL    HW228530   0.792   6.814   6.957
 9211SOL     OW28531   4.640   1.387   6.283
 9211SOL    HW128532   4.554   1.374   6.332
 9211SOL    HW228533   4.660   1.484   6.277
 9212SOL     OW28534   5.876   3.887   5.374
 9212SOL    HW128535   5.807   3.959   5.381
 9212SOL    HW228536   5.963   3.926   5.344
 9213SOL     OW28537   6.424   5.815   1.682
 9213SOL    HW128538   6.373   5.899   1.700
 9213SOL    HW228539   6.410   5.752   1.759
 9214SOL     OW28540   2.286   1.402   5.571
 9214SOL    HW128541   2.379   1.414   5.608
 9214SOL    HW228542   2.221   1.449   5.630
 9215SOL     OW28543   0.168   3.666   3.279
 9215SOL    HW128544   0.181   3.567   3.269
 9215SOL    HW228545   0.083   3.682   3.329
 9216SOL     OW28546   2.387   6.371   3.180
 9216SOL    HW128547   2.425   6.284   3.149
 9216SOL    HW228548   2.289   6.361   3.195
 9217SOL     OW28549   4.365   2.085   6.901
 9217SOL    HW128550   4.389   2.018   6.971
 9217SOL    HW228551   4.275   2.065   6.864
 9218SOL     OW28552   5.320   5.770   6.516
 9218SOL    HW128553   5.344   5.859   6.477
 9218SOL    HW228554   5.400   5.730   6.560
 9219SOL     OW28555   3.210   2.253   5.701
 9219SOL    HW128556   3.288   2.192   5.683
 9219SOL    HW228557   3.163   2.223   5.784
 9220SOL     OW28558   0.227   6.618   3.341
 9220SOL    HW128559   0.263   6.542   3.396
 9220SOL    HW228560   0.295   6.691   3.336
 9221SOL     OW28561   2.830   1.564   1.310
 9221SOL    HW128562   2.730   1.558   1.308
 9221SOL    HW228563   2.860   1.585   1.403
 9222SOL     OW28564   1.378   5.297   3.960
 9222SOL    HW128565   1.460   5.261   4.006
 9222SOL    HW228566   1.368   5.394   3.982
 9223SOL     OW28567   6.431   3.155   4.506
 9223SOL    HW128568   6.511   3.212   4.523
 9223SOL    HW228569   6.438   3.070   4.556
 9224SOL     OW28570   1.897   4.463   2.813
 9224SOL    HW128571   1.994   4.459   2.790
 9224SOL    HW228572   1.884   4.518   2.896
 9225SOL     OW28573   6.550   5.424   5.948
 9225SOL    HW128574   6.617   5.466   6.010
 9225SOL    HW228575   6.459   5.429   5.989
 9226SOL     OW28576   1.029   0.832   5.930
 9226SOL    HW128577   0.966   0.906   5.954
 9226SOL    HW228578   1.079   0.857   5.846
 9227SOL     OW28579   3.368   4.259   1.039
 9227SOL    HW128580   3.276   4.228   1.016
 9227SOL    HW228581   3.416   4.287   0.956
 9228SOL     OW28582   3.998   3.243   4.939
 9228SOL    HW128583   4.061   3.320   4.931
 9228SOL    HW228584   3.996   3.211   5.034
 9229SOL     OW28585   6.634   5.287   0.046
 9229SOL    HW128586   6.702   5.350   0.083
 9229SOL    HW228587   6.584   5.332   6.993
 9230SOL     OW28588   4.434   0.480   5.235
 9230SOL    HW128589   4.375   0.510   5.160
 9230SOL    HW228590   4.509   0.546   5.247
 9231SOL     OW28591   6.300   6.050   1.741
 9231SOL    HW128592   6.214   6.031   1.692
 9231SOL    HW228593   6.299   6.146   1.772
 9232SOL     OW28594   1.248   5.598   2.124
 9232SOL    HW128595   1.303   5.664   2.073
 9232SOL    HW228596   1.182   5.555   2.062
 9233SOL     OW28597   1.089   6.735   5.796
 9233SOL    HW128598   1.177   6.771   5.826
 9233SOL    HW228599   1.086   6.732   5.697
 9234SOL     OW28600   3.219   4.492   5.638
 9234SOL    HW128601   3.273   4.415   5.605
 9234SOL    HW228602   3.176   4.468   5.725
 9235SOL     OW28603   2.552   1.622   2.955
 9235SOL    HW128604   2.478   1.672   2.910
 9235SOL    HW228605   2.590   1.677   3.029
 9236SOL     OW28606   1.653   3.308   5.864
 9236SOL    HW128607   1.689   3.378   5.926
 9236SOL    HW228608   1.727   3.251   5.830
 9237SOL     OW28609   6.225   5.332   2.794
 9237SOL    HW128610   6.298   5.272   2.763
 9237SOL    HW228611   6.137   5.284   2.784
 9238SOL     OW28612   1.572   2.875   4.678
 9238SOL    HW128613   1.656   2.875   4.732
 9238SOL    HW228614   1.587   2.924   4.592
 9239SOL     OW28615   1.199   5.147   6.145
 9239SOL    HW128616   1.160   5.179   6.231
 9239SOL    HW228617   1.299   5.152   6.150
 9240SOL     OW28618   3.838   1.921   4.017
 9240SOL    HW128619   3.779   1.843   3.999
 9240SOL    HW228620   3.923   1.891   4.060
 9241SOL     OW28621   5.833   6.635   0.023
 9241SOL    HW128622   5.881   6.695   0.086
 9241SOL    HW228623   5.888   6.553   0.005
 9242SOL     OW28624   1.744   2.666   0.947
 9242SOL    HW128625   1.755   2.569   0.969
 9242SOL    HW228626   1.832   2.713   0.960
 9243SOL     OW28627   2.154   0.068   0.386
 9243SOL    HW128628   2.083   0.137   0.393
 9243SOL    HW228629   2.225   0.100   0.323
 9244SOL     OW28630   2.566   6.150   6.607
 9244SOL    HW128631   2.656   6.113   6.630
 9244SOL    HW228632   2.495   6.091   6.646
 9245SOL     OW28633   0.959   5.034   2.976
 9245SOL    HW128634   0.915   5.124   2.983
 9245SOL    HW228635   0.926   4.974   3.048
 9246SOL     OW28636   5.486   6.789   6.541
 9246SOL    HW128637   5.461   6.870   6.487
 9246SOL    HW228638   5.464   6.707   6.488
 9247SOL     OW28639   3.728   6.393   2.742
 9247SOL    HW128640   3.744   6.300   2.710
 9247SOL    HW228641   3.814   6.444   2.745
 9248SOL     OW28642   2.521   0.519   6.427
 9248SOL    HW128643   2.618   0.532   6.449
 9248SOL    HW228644   2.474   0.482   6.507
 9249SOL     OW28645   2.845   6.669   6.977
 9249SOL    HW128646   2.776   6.697   0.022
 9249SOL    HW228647   2.898   6.749   6.948
 9250SOL     OW28648   0.546   3.533   3.145
 9250SOL    HW128649   0.482   3.604   3.115
 9250SOL    HW228650   0.607   3.570   3.215
 9251SOL     OW28651   3.145   1.694   1.646
 9251SOL    HW128652   3.207   1.750   1.590
 9251SOL    HW228653   3.148   1.726   1.741
 9252SOL     OW28654   5.924   1.215   4.502
 9252SOL    HW128655   5.842   1.162   4.523
 9252SOL    HW228656   5.998   1.188   4.563
 9253SOL     OW28657   2.231   5.620   4.703
 9253SOL    HW128658   2.195   5.557   4.772
 9253SOL    HW228659   2.190   5.599   4.615
 9254SOL     OW28660   0.398   5.218   2.090
 9254SOL    HW128661   0.473   5.266   2.134
 9254SOL    HW228662   0.430   5.175   2.006
 9255SOL     OW28663   6.127   4.155   0.918
 9255SOL    HW128664   6.037   4.162   0.875
 9255SOL    HW228665   6.196   4.200   0.860
 9256SOL     OW28666   2.460   6.777   0.681
 9256SOL    HW128667   2.514   6.735   0.754
 9256SOL    HW228668   2.379   6.821   0.720
 9257SOL     OW28669   6.217   5.948   4.442
 9257SOL    HW128670   6.117   5.951   4.444
 9257SOL    HW228671   6.247   5.924   4.349
 9258SOL     OW28672   4.493   5.424   1.906
 9258SOL    HW128673   4.492   5.489   1.831
 9258SOL    HW228674   4.582   5.377   1.907
 9259SOL     OW28675   0.521   2.396   6.844
 9259SOL    HW128676   0.468   2.383   6.761
 9259SOL    HW228677   0.587   2.470   6.830
 9260SOL     OW28678   4.975   3.808   4.653
 9260SOL    HW128679   4.956   3.851   4.742
 9260SOL    HW228680   4.955   3.710   4.659
 9261SOL     OW28681   1.440   2.661   1.984
 9261SOL    HW128682   1.410   2.570   1.954
 9261SOL    HW228683   1.472   2.713   1.904
 9262SOL     OW28684   6.566   6.344   6.092
 9262SOL    HW128685   6.562   6.321   5.995
 9262SOL    HW228686   6.493   6.297   6.141
 9263SOL     OW28687   2.334   4.524   3.252
 9263SOL    HW128688   2.324   4.532   3.351
 9263SOL    HW228689   2.408   4.584   3.221
 9264SOL     OW28690   5.239   3.912   6.421
 9264SOL    HW128691   5.278   3.853   6.350
 9264SOL    HW228692   5.311   3.970   6.459
 9265SOL     OW28693   4.987   0.920   1.511
 9265SOL    HW128694   4.927   0.948   1.436
 9265SOL    HW228695   5.067   0.981   1.515
 9266SOL     OW28696   2.055   4.430   0.884
 9266SOL    HW128697   2.076   4.432   0.981
 9266SOL    HW228698   2.115   4.364   0.838
 9267SOL     OW28699   0.692   1.556   3.823
 9267SOL    HW128700   0.738   1.641   3.849
 9267SOL    HW228701   0.757   1.493   3.782
 9268SOL     OW28702   0.963   0.838   1.774
 9268SOL    HW128703   1.055   0.802   1.787
 9268SOL    HW228704   0.896   0.775   1.814
 9269SOL     OW28705   4.357   1.050   0.150
 9269SOL    HW128706   4.257   1.047   0.145
 9269SOL    HW228707   4.391   0.959   0.175
 9270SOL     OW28708   2.667   1.166   5.775
 9270SOL    HW128709   2.715   1.125   5.852
 9270SOL    HW228710   2.696   1.261   5.764
 9271SOL     OW28711   1.724   4.856   5.911
 9271SOL    HW128712   1.671   4.841   5.994
 9271SOL    HW228713   1.753   4.767   5.874
 9272SOL     OW28714   6.347   6.155   5.719
 9272SOL    HW128715   6.401   6.073   5.698
 9272SOL    HW228716   6.398   6.236   5.693
 9273SOL     OW28717   5.709   3.106   3.462
 9273SOL    HW128718   5.618   3.105   3.421
 9273SOL    HW228719   5.703   3.137   3.557
 9274SOL     OW28720   0.452   3.397   0.615
 9274SOL    HW128721   0.549   3.403   0.638
 9274SOL    HW228722   0.441   3.397   0.515
 9275SOL     OW28723   5.523   0.845   0.590
 9275SOL    HW128724   5.594   0.803   0.646
 9275SOL    HW228725   5.442   0.862   0.647
 9276SOL     OW28726   2.324   4.618   6.590
 9276SOL    HW128727   2.386   4.618   6.511
 9276SOL    HW228728   2.238   4.661   6.563
 9277SOL     OW28729   4.524   5.113   2.370
 9277SOL    HW128730   4.494   5.035   2.425
 9277SOL    HW228731   4.467   5.120   2.288
 9278SOL     OW28732   0.463   6.753   5.886
 9278SOL    HW128733   0.421   6.844   5.891
 9278SOL    HW228734   0.551   6.754   5.933
 9279SOL     OW28735   2.727   6.005   2.111
 9279SOL    HW128736   2.753   6.098   2.137
 9279SOL    HW228737   2.713   6.000   2.012
 9280SOL     OW28738   1.145   5.891   2.699
 9280SOL    HW128739   1.118   5.838   2.779
 9280SOL    HW228740   1.196   5.833   2.636
 9281SOL     OW28741   1.565   4.780   0.643
 9281SOL    HW128742   1.563   4.825   0.553
 9281SOL    HW228743   1.620   4.836   0.706
 9282SOL     OW28744   2.696   6.697   4.882
 9282SOL    HW128745   2.614   6.643   4.863
 9282SOL    HW228746   2.669   6.783   4.925
 9283SOL     OW28747   4.744   6.212   0.795
 9283SOL    HW128748   4.725   6.310   0.799
 9283SOL    HW228749   4.769   6.186   0.701
 9284SOL     OW28750   4.096   5.256   0.146
 9284SOL    HW128751   4.037   5.248   0.065
 9284SOL    HW228752   4.079   5.344   0.191
 9285SOL     OW28753   0.165   6.266   3.558
 9285SOL    HW128754   0.216   6.180   3.566
 9285SOL    HW228755   0.230   6.341   3.542
 9286SOL     OW28756   5.100   6.563   1.812
 9286SOL    HW128757   5.049   6.490   1.857
 9286SOL    HW228758   5.046   6.647   1.811
 9287SOL     OW28759   4.125   3.729   6.332
 9287SOL    HW128760   4.119   3.828   6.337
 9287SOL    HW228761   4.040   3.688   6.365
 9288SOL     OW28762   3.953   1.908   2.335
 9288SOL    HW128763   3.918   1.891   2.243
 9288SOL    HW228764   3.982   2.003   2.343
 9289SOL     OW28765   4.747   6.109   1.251
 9289SOL    HW128766   4.792   6.039   1.306
 9289SOL    HW228767   4.648   6.098   1.259
 9290SOL     OW28768   6.295   1.383   4.005
 9290SOL    HW128769   6.267   1.467   3.959
 9290SOL    HW228770   6.391   1.364   3.986
 9291SOL     OW28771   0.322   4.076   5.693
 9291SOL    HW128772   0.397   4.040   5.749
 9291SOL    HW228773   0.258   4.124   5.753
 9292SOL     OW28774   0.310   1.616   6.678
 9292SOL    HW128775   0.378   1.555   6.718
 9292SOL    HW228776   0.224   1.566   6.664
 9293SOL     OW28777   4.415   1.934   5.076
 9293SOL    HW128778   4.405   1.947   4.977
 9293SOL    HW228779   4.327   1.949   5.120
 9294SOL     OW28780   4.744   6.788   6.760
 9294SOL    HW128781   4.792   6.786   6.672
 9294SOL    HW228782   4.700   6.877   6.772
 9295SOL     OW28783   5.799   1.178   4.071
 9295SOL    HW128784   5.738   1.099   4.077
 9295SOL    HW228785   5.881   1.161   4.126
 9296SOL     OW28786   2.330   4.669   5.944
 9296SOL    HW128787   2.359   4.574   5.959
 9296SOL    HW228788   2.234   4.670   5.914
 9297SOL     OW28789   6.821   4.957   2.073
 9297SOL    HW128790   6.887   4.898   2.025
 9297SOL    HW228791   6.835   4.949   2.171
 9298SOL     OW28792   1.213   4.120   6.430
 9298SOL    HW128793   1.222   4.146   6.525
 9298SOL    HW228794   1.255   4.189   6.371
 9299SOL     OW28795   2.884   2.295   4.704
 9299SOL    HW128796   2.951   2.226   4.675
 9299SOL    HW228797   2.838   2.262   4.787
 9300SOL     OW28798   2.007   6.628   4.817
 9300SOL    HW128799   1.920   6.619   4.768
 9300SOL    HW228800   2.073   6.562   4.781
 9301SOL     OW28801   0.883   4.296   4.263
 9301SOL    HW128802   0.883   4.202   4.228
 9301SOL    HW228803   0.968   4.313   4.313
 9302SOL     OW28804   2.446   5.076   4.585
 9302SOL    HW128805   2.387   5.156   4.590
 9302SOL    HW228806   2.418   5.009   4.654
 9303SOL     OW28807   2.793   4.174   0.152
 9303SOL    HW128808   2.772   4.146   0.246
 9303SOL    HW228809   2.771   4.271   0.141
 9304SOL     OW28810   5.365   5.270   6.331
 9304SOL    HW128811   5.374   5.358   6.378
 9304SOL    HW228812   5.285   5.273   6.271
 9305SOL     OW28813   1.626   1.661   1.266
 9305SOL    HW128814   1.625   1.754   1.230
 9305SOL    HW228815   1.614   1.596   1.190
 9306SOL     OW28816   6.818   6.291   4.667
 9306SOL    HW128817   6.769   6.205   4.681
 9306SOL    HW228818   6.789   6.357   4.736
 9307SOL     OW28819   1.318   4.070   1.448
 9307SOL    HW128820   1.286   3.985   1.489
 9307SOL    HW228821   1.412   4.088   1.478
 9308SOL     OW28822   2.217   3.386   1.670
 9308SOL    HW128823   2.248   3.450   1.741
 9308SOL    HW228824   2.289   3.375   1.601
 9309SOL     OW28825   5.031   5.437   6.461
 9309SOL    HW128826   4.945   5.487   6.472
 9309SOL    HW228827   5.054   5.392   6.548
 9310SOL     OW28828   5.635   5.896   5.760
 9310SOL    HW128829   5.575   5.954   5.705
 9310SOL    HW228830   5.701   5.952   5.809
 9311SOL     OW28831   5.017   3.919   0.746
 9311SOL    HW128832   5.104   3.872   0.730
 9311SOL    HW228833   4.993   3.973   0.666
 9312SOL     OW28834   0.056   3.022   3.615
 9312SOL    HW128835   0.000   2.996   3.694
 9312SOL    HW228836   0.102   2.940   3.579
 9313SOL     OW28837   0.773   0.808   2.361
 9313SOL    HW128838   0.830   0.775   2.286
 9313SOL    HW228839   0.693   0.749   2.371
 9314SOL     OW28840   5.497   5.091   1.137
 9314SOL    HW128841   5.407   5.116   1.100
 9314SOL    HW228842   5.484   5.036   1.220
 9315SOL     OW28843   5.414   6.032   5.671
 9315SOL    HW128844   5.415   6.116   5.725
 9315SOL    HW228845   5.412   6.054   5.573
 9316SOL     OW28846   5.189   6.973   0.962
 9316SOL    HW128847   5.146   6.883   0.967
 9316SOL    HW228848   5.213   7.003   1.054
 9317SOL     OW28849   2.430   6.148   3.760
 9317SOL    HW128850   2.504   6.091   3.725
 9317SOL    HW228851   2.443   6.163   3.858
 9318SOL     OW28852   3.649   0.032   2.174
 9318SOL    HW128853   3.702   0.115   2.157
 9318SOL    HW228854   3.628   0.025   2.271
 9319SOL     OW28855   4.054   1.895   0.129
 9319SOL    HW128856   4.052   1.972   0.193
 9319SOL    HW228857   3.960   1.864   0.111
 9320SOL     OW28858   6.741   6.540   6.945
 9320SOL    HW128859   6.699   6.566   0.010
 9320SOL    HW228860   6.688   6.577   6.869
 9321SOL     OW28861   0.960   3.501   4.534
 9321SOL    HW128862   0.937   3.587   4.488
 9321SOL    HW228863   1.006   3.521   4.621
 9322SOL     OW28864   5.053   3.086   6.628
 9322SOL    HW128865   5.101   3.173   6.639
 9322SOL    HW228866   5.048   3.062   6.531
 9323SOL     OW28867   0.910   2.431   6.179
 9323SOL    HW128868   0.995   2.470   6.215
 9323SOL    HW228869   0.927   2.396   6.087
 9324SOL     OW28870   0.342   4.482   1.401
 9324SOL    HW128871   0.251   4.481   1.359
 9324SOL    HW228872   0.358   4.572   1.444
 9325SOL     OW28873   0.854   4.866   3.438
 9325SOL    HW128874   0.854   4.892   3.535
 9325SOL    HW228875   0.940   4.820   3.416
 9326SOL     OW28876   4.603   4.665   0.571
 9326SOL    HW128877   4.503   4.667   0.565
 9326SOL    HW228878   4.636   4.753   0.607
 9327SOL     OW28879   3.010   1.379   3.465
 9327SOL    HW128880   2.965   1.307   3.518
 9327SOL    HW228881   2.979   1.375   3.370
 9328SOL     OW28882   1.672   0.633   3.608
 9328SOL    HW128883   1.683   0.664   3.514
 9328SOL    HW228884   1.580   0.596   3.621
 9329SOL     OW28885   1.168   4.739   6.348
 9329SOL    HW128886   1.188   4.795   6.429
 9329SOL    HW228887   1.117   4.658   6.376
 9330SOL     OW28888   1.448   6.546   0.363
 9330SOL    HW128889   1.528   6.487   0.351
 9330SOL    HW228890   1.441   6.609   0.286
 9331SOL     OW28891   2.492   4.431   4.070
 9331SOL    HW128892   2.478   4.405   3.974
 9331SOL    HW228893   2.562   4.502   4.075
 9332SOL     OW28894   6.278   5.116   0.438
 9332SOL    HW128895   6.291   5.138   0.534
 9332SOL    HW228896   6.199   5.056   0.428
 9333SOL     OW28897   2.810   3.914   1.566
 9333SOL    HW128898   2.846   3.823   1.586
 9333SOL    HW228899   2.885   3.978   1.554
 9334SOL     OW28900   6.707   5.785   6.194
 9334SOL    HW128901   6.613   5.754   6.208
 9334SOL    HW228902   6.762   5.764   6.275
 9335SOL     OW28903   0.531   3.782   1.403
 9335SOL    HW128904   0.492   3.710   1.461
 9335SOL    HW228905   0.605   3.827   1.451
 9336SOL     OW28906   5.176   6.840   5.938
 9336SOL    HW128907   5.145   6.889   5.856
 9336SOL    HW228908   5.118   6.760   5.953
 9337SOL     OW28909   2.615   1.665   5.420
 9337SOL    HW128910   2.697   1.637   5.470
 9337SOL    HW228911   2.555   1.585   5.408
 9338SOL     OW28912   5.422   6.068   0.601
 9338SOL    HW128913   5.406   6.072   0.502
 9338SOL    HW228914   5.519   6.085   0.619
 9339SOL     OW28915   7.003   3.924   5.213
 9339SOL    HW128916   0.021   3.934   5.121
 9339SOL    HW228917   6.904   3.908   5.205
 9340SOL     OW28918   2.526   4.788   1.830
 9340SOL    HW128919   2.566   4.696   1.838
 9340SOL    HW228920   2.543   4.839   1.915
 9341SOL     OW28921   5.630   5.278   6.625
 9341SOL    HW128922   5.612   5.340   6.701
 9341SOL    HW228923   5.671   5.329   6.549
 9342SOL     OW28924   3.221   6.914   5.058
 9342SOL    HW128925   3.243   6.816   5.060
 9342SOL    HW228926   3.280   6.960   4.992
 9343SOL     OW28927   4.850   3.415   0.685
 9343SOL    HW128928   4.770   3.376   0.732
 9343SOL    HW228929   4.927   3.421   0.749
 9344SOL     OW28930   5.578   0.480   5.164
 9344SOL    HW128931   5.657   0.530   5.127
 9344SOL    HW228932   5.516   0.544   5.209
 9345SOL     OW28933   0.637   4.914   0.376
 9345SOL    HW128934   0.574   4.837   0.368
 9345SOL    HW228935   0.619   4.980   0.303
 9346SOL     OW28936   5.188   0.535   2.040
 9346SOL    HW128937   5.126   0.612   2.027
 9346SOL    HW228938   5.232   0.512   1.953
 9347SOL     OW28939   4.251   6.323   1.124
 9347SOL    HW128940   4.182   6.361   1.186
 9347SOL    HW228941   4.331   6.384   1.123
 9348SOL     OW28942   2.332   5.290   1.569
 9348SOL    HW128943   2.431   5.280   1.567
 9348SOL    HW228944   2.308   5.387   1.571
 9349SOL     OW28945   0.024   6.075   0.905
 9349SOL    HW128946   0.009   5.989   0.954
 9349SOL    HW228947   0.022   6.151   0.969
 9350SOL     OW28948   6.716   0.744   0.758
 9350SOL    HW128949   6.744   0.683   0.684
 9350SOL    HW228950   6.768   0.722   0.840
 9351SOL     OW28951   4.154   3.425   5.990
 9351SOL    HW128952   4.129   3.332   5.965
 9351SOL    HW228953   4.229   3.456   5.932
 9352SOL     OW28954   2.992   2.281   6.791
 9352SOL    HW128955   3.080   2.257   6.751
 9352SOL    HW228956   2.999   2.369   6.838
 9353SOL     OW28957   0.254   3.024   1.742
 9353SOL    HW128958   0.185   3.086   1.703
 9353SOL    HW228959   0.232   2.930   1.717
 9354SOL     OW28960   5.257   1.760   1.589
 9354SOL    HW128961   5.209   1.737   1.504
 9354SOL    HW228962   5.272   1.859   1.594
 9355SOL     OW28963   0.023   1.359   2.347
 9355SOL    HW128964   0.098   1.424   2.330
 9355SOL    HW228965   7.010   1.373   2.440
 9356SOL     OW28966   5.339   3.436   2.806
 9356SOL    HW128967   5.337   3.495   2.725
 9356SOL    HW228968   5.254   3.448   2.858
 9357SOL     OW28969   3.064   3.843   0.936
 9357SOL    HW128970   3.067   3.942   0.953
 9357SOL    HW228971   3.153   3.813   0.901
 9358SOL     OW28972   5.118   4.289   2.171
 9358SOL    HW128973   5.082   4.203   2.207
 9358SOL    HW228974   5.190   4.270   2.104
 9359SOL     OW28975   5.331   4.705   5.841
 9359SOL    HW128976   5.386   4.732   5.762
 9359SOL    HW228977   5.384   4.641   5.898
 9360SOL     OW28978   1.023   0.940   5.211
 9360SOL    HW128979   1.080   0.959   5.291
 9360SOL    HW228980   1.051   0.853   5.170
 9361SOL     OW28981   2.722   1.202   1.915
 9361SOL    HW128982   2.725   1.236   1.821
 9361SOL    HW228983   2.726   1.279   1.978
 9362SOL     OW28984   1.785   1.775   3.246
 9362SOL    HW128985   1.727   1.808   3.321
 9362SOL    HW228986   1.825   1.853   3.198
 9363SOL     OW28987   1.744   6.347   2.166
 9363SOL    HW128988   1.713   6.409   2.093
 9363SOL    HW228989   1.779   6.401   2.243
 9364SOL     OW28990   5.573   4.549   0.940
 9364SOL    HW128991   5.515   4.563   1.020
 9364SOL    HW228992   5.590   4.452   0.927
 9365SOL     OW28993   2.377   1.295   4.883
 9365SOL    HW128994   2.369   1.202   4.920
 9365SOL    HW228995   2.297   1.315   4.826
 9366SOL     OW28996   3.501   1.290   1.675
 9366SOL    HW128997   3.522   1.318   1.769
 9366SOL    HW228998   3.537   1.198   1.659
 9367SOL     OW28999   6.552   6.206   4.102
 9367SOL    HW129000   6.455   6.218   4.083
 9367SOL    HW229001   6.563   6.156   4.188
 9368SOL     OW29002   4.655   2.636   1.344
 9368SOL    HW129003   4.692   2.558   1.395
 9368SOL    HW229004   4.576   2.673   1.393
 9369SOL     OW29005   6.579   2.309   5.870
 9369SOL    HW129006   6.650   2.249   5.832
 9369SOL    HW229007   6.557   2.380   5.804
 9370SOL     OW29008   6.228   6.417   3.486
 9370SOL    HW129009   6.271   6.491   3.538
 9370SOL    HW229010   6.287   6.336   3.488
 9371SOL     OW29011   1.336   6.741   0.525
 9371SOL    HW129012   1.299   6.818   0.473
 9371SOL    HW229013   1.386   6.680   0.464
 9372SOL     OW29014   5.742   6.132   0.033
 9372SOL    HW129015   5.728   6.123   0.131
 9372SOL    HW229016   5.839   6.123   0.011
 9373SOL     OW29017   4.659   2.625   4.102
 9373SOL    HW129018   4.652   2.670   4.013
 9373SOL    HW229019   4.748   2.581   4.110
 9374SOL     OW29020   5.144   4.436   0.376
 9374SOL    HW129021   5.145   4.353   0.321
 9374SOL    HW229022   5.235   4.450   0.416
 9375SOL     OW29023   0.662   1.621   4.148
 9375SOL    HW129024   0.612   1.557   4.206
 9375SOL    HW229025   0.759   1.596   4.146
 9376SOL     OW29026   1.712   2.676   2.053
 9376SOL    HW129027   1.628   2.628   2.027
 9376SOL    HW229028   1.770   2.687   1.972
 9377SOL     OW29029   6.122   4.989   2.580
 9377SOL    HW129030   6.163   4.911   2.627
 9377SOL    HW229031   6.060   5.037   2.642
 9378SOL     OW29032   3.403   6.392   1.487
 9378SOL    HW129033   3.357   6.326   1.429
 9378SOL    HW229034   3.453   6.344   1.559
 9379SOL     OW29035   5.744   4.921   5.508
 9379SOL    HW129036   5.827   4.865   5.505
 9379SOL    HW229037   5.706   4.920   5.601
 9380SOL     OW29038   5.890   5.860   6.455
 9380SOL    HW129039   5.803   5.814   6.437
 9380SOL    HW229040   5.895   5.884   6.551
 9381SOL     OW29041   1.887   0.897   0.489
 9381SOL    HW129042   1.913   0.950   0.569
 9381SOL    HW229043   1.873   0.958   0.411
 9382SOL     OW29044   5.558   1.946   2.702
 9382SOL    HW129045   5.576   1.987   2.613
 9382SOL    HW229046   5.482   1.882   2.695
 9383SOL     OW29047   5.420   5.709   5.724
 9383SOL    HW129048   5.497   5.770   5.738
 9383SOL    HW229049   5.431   5.627   5.781
 9384SOL     OW29050   4.199   6.535   1.898
 9384SOL    HW129051   4.198   6.621   1.947
 9384SOL    HW229052   4.107   6.515   1.863
 9385SOL     OW29053   3.662   0.774   4.307
 9385SOL    HW129054   3.563   0.787   4.313
 9385SOL    HW229055   3.704   0.792   4.396
 9386SOL     OW29056   3.891   0.153   4.570
 9386SOL    HW129057   3.843   0.142   4.483
 9386SOL    HW229058   3.961   0.224   4.562
 9387SOL     OW29059   4.026   6.367   0.646
 9387SOL    HW129060   3.930   6.342   0.659
 9387SOL    HW229061   4.072   6.371   0.735
 9388SOL     OW29062   6.405   6.591   2.522
 9388SOL    HW129063   6.428   6.685   2.548
 9388SOL    HW229064   6.411   6.581   2.423
 9389SOL     OW29065   3.554   1.347   6.979
 9389SOL    HW129066   3.547   1.272   6.913
 9389SOL    HW229067   3.513   1.319   0.045
 9390SOL     OW29068   2.708   6.778   1.979
 9390SOL    HW129069   2.751   6.867   1.966
 9390SOL    HW229070   2.769   6.719   2.033
 9391SOL     OW29071   0.678   1.283   5.557
 9391SOL    HW129072   0.699   1.207   5.496
 9391SOL    HW229073   0.590   1.323   5.532
 9392SOL     OW29074   1.235   6.263   4.160
 9392SOL    HW129075   1.161   6.197   4.168
 9392SOL    HW229076   1.197   6.355   4.149
 9393SOL     OW29077   3.844   2.170   5.494
 9393SOL    HW129078   3.810   2.216   5.412
 9393SOL    HW229079   3.795   2.204   5.574
 9394SOL     OW29080   5.674   2.839   2.283
 9394SOL    HW129081   5.636   2.875   2.198
 9394SOL    HW229082   5.621   2.760   2.313
 9395SOL     OW29083   1.951   2.376   6.423
 9395SOL    HW129084   1.959   2.463   6.472
 9395SOL    HW229085   1.866   2.375   6.370
 9396SOL     OW29086   6.429   0.286   6.907
 9396SOL    HW129087   6.378   0.274   6.822
 9396SOL    HW229088   6.366   0.312   6.981
 9397SOL     OW29089   3.026   1.342   0.962
 9397SOL    HW129090   2.963   1.268   0.941
 9397SOL    HW229091   3.024   1.361   1.060
 9398SOL     OW29092   2.100   1.344   0.446
 9398SOL    HW129093   2.083   1.248   0.425
 9398SOL    HW229094   2.176   1.351   0.511
 9399SOL     OW29095   6.779   0.751   5.404
 9399SOL    HW129096   6.855   0.815   5.397
 9399SOL    HW229097   6.784   0.703   5.492
 9400SOL     OW29098   4.409   1.959   3.638
 9400SOL    HW129099   4.310   1.954   3.653
 9400SOL    HW229100   4.429   2.034   3.574
 9401SOL     OW29101   4.343   0.426   2.673
 9401SOL    HW129102   4.391   0.393   2.592
 9401SOL    HW229103   4.344   0.355   2.743
 9402SOL     OW29104   1.833   5.037   0.032
 9402SOL    HW129105   1.828   5.120   0.086
 9402SOL    HW229106   1.809   4.958   0.089
 9403SOL     OW29107   5.782   0.828   4.721
 9403SOL    HW129108   5.834   0.786   4.796
 9403SOL    HW229109   5.764   0.924   4.743
 9404SOL     OW29110   0.803   4.059   5.552
 9404SOL    HW129111   0.840   4.130   5.612
 9404SOL    HW229112   0.746   4.100   5.482
 9405SOL     OW29113   6.783   0.441   0.840
 9405SOL    HW129114   6.801   0.451   0.742
 9405SOL    HW229115   6.821   0.519   0.889
 9406SOL     OW29116   0.061   0.953   5.641
 9406SOL    HW129117   7.006   0.917   5.693
 9406SOL    HW229118   0.104   1.028   5.692
 9407SOL     OW29119   3.768   5.973   2.744
 9407SOL    HW129120   3.769   6.041   2.818
 9407SOL    HW229121   3.769   6.021   2.656
 9408SOL     OW29122   3.844   1.691   6.703
 9408SOL    HW129123   3.787   1.672   6.783
 9408SOL    HW229124   3.940   1.698   6.732
 9409SOL     OW29125   5.931   3.807   3.339
 9409SOL    HW129126   5.904   3.866   3.416
 9409SOL    HW229127   5.961   3.719   3.374
 9410SOL     OW29128   4.735   6.377   2.143
 9410SOL    HW129129   4.796   6.377   2.064
 9410SOL    HW229130   4.680   6.293   2.142
 9411SOL     OW29131   4.767   5.260   1.126
 9411SOL    HW129132   4.716   5.342   1.099
 9411SOL    HW229133   4.835   5.238   1.056
 9412SOL     OW29134   6.740   3.322   1.770
 9412SOL    HW129135   6.663   3.272   1.729
 9412SOL    HW229136   6.737   3.311   1.869
 9413SOL     OW29137   3.531   5.569   4.766
 9413SOL    HW129138   3.571   5.558   4.857
 9413SOL    HW229139   3.508   5.479   4.729
 9414SOL     OW29140   2.659   1.587   2.191
 9414SOL    HW129141   2.723   1.510   2.194
 9414SOL    HW229142   2.709   1.671   2.173
 9415SOL     OW29143   2.946   1.051   2.294
 9415SOL    HW129144   2.867   1.049   2.232
 9415SOL    HW229145   3.010   1.122   2.264
 9416SOL     OW29146   1.285   2.056   1.235
 9416SOL    HW129147   1.365   2.114   1.232
 9416SOL    HW229148   1.273   2.019   1.327
 9417SOL     OW29149   2.526   6.992   4.609
 9417SOL    HW129150   2.514   6.899   4.643
 9417SOL    HW229151   2.624   7.011   4.598
 9418SOL     OW29152   4.153   4.257   0.819
 9418SOL    HW129153   4.201   4.172   0.843
 9418SOL    HW229154   4.119   4.300   0.902
 9419SOL     OW29155   3.629   5.409   5.221
 9419SOL    HW129156   3.680   5.395   5.306
 9419SOL    HW229157   3.554   5.343   5.216
 9420SOL     OW29158   0.939   1.510   4.559
 9420SOL    HW129159   0.852   1.548   4.529
 9420SOL    HW229160   0.935   1.410   4.555
 9421SOL     OW29161   1.884   5.306   4.799
 9421SOL    HW129162   1.812   5.351   4.748
 9421SOL    HW229163   1.948   5.263   4.735
 9422SOL     OW29164   3.723   1.355   2.364
 9422SOL    HW129165   3.726   1.258   2.387
 9422SOL    HW229166   3.742   1.366   2.266
 9423SOL     OW29167   4.843   0.682   4.551
 9423SOL    HW129168   4.763   0.672   4.493
 9423SOL    HW229169   4.815   0.690   4.647
 9424SOL     OW29170   3.062   6.593   4.439
 9424SOL    HW129171   3.135   6.661   4.450
 9424SOL    HW229172   3.005   6.620   4.361
 9425SOL     OW29173   1.157   4.812   3.966
 9425SOL    HW129174   1.137   4.715   3.951
 9425SOL    HW229175   1.255   4.824   3.979
 9426SOL     OW29176   4.053   6.479   0.396
 9426SOL    HW129177   4.027   6.458   0.490
 9426SOL    HW229178   4.087   6.397   0.351
 9427SOL     OW29179   2.999   4.854   4.239
 9427SOL    HW129180   3.065   4.899   4.299
 9427SOL    HW229181   2.944   4.790   4.292
 9428SOL     OW29182   4.458   5.956   2.482
 9428SOL    HW129183   4.451   6.018   2.560
 9428SOL    HW229184   4.388   5.978   2.415
 9429SOL     OW29185   6.947   2.902   2.767
 9429SOL    HW129186   7.015   2.973   2.752
 9429SOL    HW229187   6.938   2.884   2.865
 9430SOL     OW29188   6.574   6.771   2.127
 9430SOL    HW129189   6.630   6.736   2.052
 9430SOL    HW229190   6.548   6.696   2.187
 9431SOL     OW29191   6.487   4.417   1.393
 9431SOL    HW129192   6.402   4.371   1.367
 9431SOL    HW229193   6.564   4.355   1.380
 9432SOL     OW29194   6.617   6.549   4.569
 9432SOL    HW129195   6.629   6.511   4.661
 9432SOL    HW229196   6.706   6.566   4.528
 9433SOL     OW29197   2.576   4.603   4.792
 9433SOL    HW129198   2.646   4.598   4.864
 9433SOL    HW229199   2.529   4.516   4.785
 9434SOL     OW29200   5.013   5.269   3.162
 9434SOL    HW129201   4.974   5.250   3.251
 9434SOL    HW229202   5.040   5.366   3.157
 9435SOL     OW29203   1.330   1.401   5.112
 9435SOL    HW129204   1.419   1.355   5.108
 9435SOL    HW229205   1.335   1.480   5.172
 9436SOL     OW29206   1.793   2.593   6.081
 9436SOL    HW129207   1.836   2.672   6.126
 9436SOL    HW229208   1.770   2.617   5.986
 9437SOL     OW29209   0.687   5.330   4.015
 9437SOL    HW129210   0.673   5.365   4.108
 9437SOL    HW229211   0.612   5.360   3.956
 9438SOL     OW29212   1.071   6.750   2.103
 9438SOL    HW129213   1.118   6.769   2.016
 9438SOL    HW229214   0.981   6.710   2.084
 9439SOL     OW29215   0.842   2.703   1.521
 9439SOL    HW129216   0.749   2.734   1.503
 9439SOL    HW229217   0.856   2.694   1.620
 9440SOL     OW29218   4.913   5.767   5.354
 9440SOL    HW129219   5.009   5.751   5.329
 9440SOL    HW229220   4.854   5.710   5.298
 9441SOL     OW29221   1.662   5.344   4.654
 9441SOL    HW129222   1.637   5.248   4.664
 9441SOL    HW229223   1.601   5.389   4.589
 9442SOL     OW29224   0.688   3.507   1.060
 9442SOL    HW129225   0.707   3.555   1.146
 9442SOL    HW229226   0.743   3.547   0.987
 9443SOL     OW29227   1.830   3.381   1.482
 9443SOL    HW129228   1.834   3.282   1.495
 9443SOL    HW229229   1.839   3.427   1.570
 9444SOL     OW29230   0.554   4.003   5.846
 9444SOL    HW129231   0.652   3.987   5.835
 9444SOL    HW229232   0.538   4.060   5.926
 9445SOL     OW29233   5.937   3.544   1.227
 9445SOL    HW129234   5.880   3.616   1.267
 9445SOL    HW229235   6.019   3.585   1.188
 9446SOL     OW29236   5.899   5.010   1.176
 9446SOL    HW129237   5.865   4.933   1.122
 9446SOL    HW229238   5.924   4.978   1.268
 9447SOL     OW29239   6.066   2.493   1.085
 9447SOL    HW129240   6.130   2.427   1.047
 9447SOL    HW229241   6.035   2.463   1.175
 9448SOL     OW29242   5.963   6.116   0.615
 9448SOL    HW129243   5.989   6.142   0.522
 9448SOL    HW229244   6.004   6.180   0.680
 9449SOL     OW29245   0.013   5.364   5.223
 9449SOL    HW129246   0.104   5.325   5.211
 9449SOL    HW229247   6.966   5.294   5.205
 9450SOL     OW29248   2.703   4.974   4.514
 9450SOL    HW129249   2.626   4.999   4.572
 9450SOL    HW229250   2.729   5.053   4.458
 9451SOL     OW29251   4.244   4.157   6.117
 9451SOL    HW129252   4.248   4.073   6.170
 9451SOL    HW229253   4.265   4.137   6.021
 9452SOL     OW29254   2.786   4.165   1.227
 9452SOL    HW129255   2.802   4.239   1.291
 9452SOL    HW229256   2.750   4.202   1.141
 9453SOL     OW29257   3.161   4.853   2.357
 9453SOL    HW129258   3.094   4.835   2.284
 9453SOL    HW229259   3.155   4.782   2.427
 9454SOL     OW29260   2.399   2.485   5.125
 9454SOL    HW129261   2.426   2.543   5.201
 9454SOL    HW229262   2.392   2.390   5.156
 9455SOL     OW29263   3.075   1.861   2.063
 9455SOL    HW129264   3.142   1.924   2.101
 9455SOL    HW229265   3.117   1.809   1.988
 9456SOL     OW29266   1.586   2.984   1.388
 9456SOL    HW129267   1.611   2.964   1.293
 9456SOL    HW229268   1.493   2.953   1.405
 9457SOL     OW29269   0.026   3.316   0.620
 9457SOL    HW129270   0.003   3.283   0.711
 9457SOL    HW229271   0.030   3.416   0.621
 9458SOL     OW29272   0.522   6.002   4.512
 9458SOL    HW129273   0.601   5.994   4.452
 9458SOL    HW229274   0.552   5.996   4.607
 9459SOL     OW29275   4.485   5.978   1.582
 9459SOL    HW129276   4.584   5.964   1.581
 9459SOL    HW229277   4.455   6.003   1.675
 9460SOL     OW29278   0.977   2.277   5.070
 9460SOL    HW129279   0.887   2.272   5.114
 9460SOL    HW229280   1.047   2.287   5.140
 9461SOL     OW29281   1.548   0.409   3.099
 9461SOL    HW129282   1.594   0.361   3.025
 9461SOL    HW229283   1.566   0.507   3.091
 9462SOL     OW29284   0.626   3.705   2.677
 9462SOL    HW129285   0.534   3.708   2.716
 9462SOL    HW229286   0.621   3.674   2.582
 9463SOL     OW29287   5.076   1.584   6.994
 9463SOL    HW129288   5.168   1.619   6.976
 9463SOL    HW229289   5.035   1.553   6.908
 9464SOL     OW29290   4.610   6.752   6.238
 9464SOL    HW129291   4.590   6.823   6.170
 9464SOL    HW229292   4.600   6.662   6.195
 9465SOL     OW29293   5.899   0.296   4.568
 9465SOL    HW129294   5.804   0.326   4.569
 9465SOL    HW229295   5.912   0.228   4.496
 9466SOL     OW29296   2.362   1.997   6.774
 9466SOL    HW129297   2.281   2.051   6.756
 9466SOL    HW229298   2.416   2.040   6.847
 9467SOL     OW29299   1.946   3.549   1.997
 9467SOL    HW129300   2.045   3.557   1.989
 9467SOL    HW229301   1.923   3.472   2.056
 9468SOL     OW29302   0.109   2.116   6.265
 9468SOL    HW129303   0.050   2.121   6.184
 9468SOL    HW229304   0.165   2.034   6.260
 9469SOL     OW29305   6.410   4.111   2.310
 9469SOL    HW129306   6.347   4.185   2.333
 9469SOL    HW229307   6.412   4.045   2.385
 9470SOL     OW29308   5.382   3.669   1.346
 9470SOL    HW129309   5.296   3.668   1.396
 9470SOL    HW229310   5.423   3.760   1.353
 9471SOL     OW29311   6.990   2.095   6.011
 9471SOL    HW129312   6.923   2.119   5.941
 9471SOL    HW229313   0.061   2.108   5.975
 9472SOL     OW29314   6.655   3.282   4.616
 9472SOL    HW129315   6.663   3.375   4.651
 9472SOL    HW229316   6.738   3.258   4.565
 9473SOL     OW29317   3.700   4.916   4.704
 9473SOL    HW129318   3.604   4.887   4.707
 9473SOL    HW229319   3.714   4.990   4.770
 9474SOL     OW29320   4.014   5.163   3.088
 9474SOL    HW129321   4.021   5.071   3.050
 9474SOL    HW229322   3.954   5.218   3.031
 9475SOL     OW29323   1.369   3.680   1.057
 9475SOL    HW129324   1.299   3.678   0.986
 9475SOL    HW229325   1.406   3.588   1.070
 9476SOL     OW29326   3.948   3.656   5.619
 9476SOL    HW129327   3.889   3.668   5.699
 9476SOL    HW229328   3.973   3.745   5.582
 9477SOL     OW29329   1.170   3.094   0.894
 9477SOL    HW129330   1.077   3.059   0.904
 9477SOL    HW229331   1.197   3.089   0.798
 9478SOL     OW29332   5.354   4.765   4.966
 9478SOL    HW129333   5.364   4.670   4.937
 9478SOL    HW229334   5.305   4.817   4.897
 9479SOL     OW29335   6.532   6.125   5.428
 9479SOL    HW129336   6.621   6.169   5.415
 9479SOL    HW229337   6.526   6.090   5.522
 9480SOL     OW29338   6.062   4.590   0.067
 9480SOL    HW129339   6.004   4.640   0.132
 9480SOL    HW229340   6.011   4.574   7.005
 9481SOL     OW29341   6.253   3.737   1.943
 9481SOL    HW129342   6.271   3.639   1.935
 9481SOL    HW229343   6.336   3.788   1.922
 9482SOL     OW29344   3.952   0.356   2.844
 9482SOL    HW129345   3.908   0.268   2.860
 9482SOL    HW229346   3.960   0.405   2.931
 9483SOL     OW29347   1.452   1.590   0.452
 9483SOL    HW129348   1.535   1.560   0.404
 9483SOL    HW229349   1.425   1.520   0.518
 9484SOL     OW29350   6.062   1.196   2.535
 9484SOL    HW129351   6.020   1.152   2.615
 9484SOL    HW229352   6.148   1.239   2.562
 9485SOL     OW29353   0.954   0.533   2.740
 9485SOL    HW129354   0.983   0.438   2.751
 9485SOL    HW229355   0.890   0.557   2.813
 9486SOL     OW29356   3.082   5.983   2.177
 9486SOL    HW129357   3.026   5.987   2.260
 9486SOL    HW229358   3.049   6.050   2.111
 9487SOL     OW29359   3.230   3.089   3.757
 9487SOL    HW129360   3.149   3.121   3.708
 9487SOL    HW229361   3.298   3.162   3.758
 9488SOL     OW29362   1.545   0.209   1.249
 9488SOL    HW129363   1.497   0.242   1.167
 9488SOL    HW229364   1.508   0.120   1.275
 9489SOL     OW29365   3.457   4.146   0.555
 9489SOL    HW129366   3.416   4.093   0.629
 9489SOL    HW229367   3.546   4.108   0.531
 9490SOL     OW29368   5.671   1.268   0.200
 9490SOL    HW129369   5.636   1.186   0.245
 9490SOL    HW229370   5.740   1.242   0.132
 9491SOL     OW29371   6.431   5.184   6.307
 9491SOL    HW129372   6.366   5.204   6.234
 9491SOL    HW229373   6.501   5.122   6.274
 9492SOL     OW29374   3.002   3.941   1.979
 9492SOL    HW129375   3.015   3.919   2.076
 9492SOL    HW229376   2.914   3.903   1.948
 9493SOL     OW29377   5.384   6.610   3.005
 9493SOL    HW129378   5.387   6.511   3.017
 9493SOL    HW229379   5.340   6.632   2.918
 9494SOL     OW29380   4.408   3.426   5.807
 9494SOL    HW129381   4.347   3.421   5.728
 9494SOL    HW229382   4.468   3.346   5.808
 9495SOL     OW29383   6.139   2.717   5.479
 9495SOL    HW129384   6.071   2.773   5.526
 9495SOL    HW229385   6.202   2.776   5.429
 9496SOL     OW29386   5.485   4.072   0.232
 9496SOL    HW129387   5.487   4.161   0.276
 9496SOL    HW229388   5.546   4.009   0.281
 9497SOL     OW29389   6.832   6.564   5.844
 9497SOL    HW129390   6.856   6.533   5.752
 9497SOL    HW229391   6.914   6.596   5.891
 9498SOL     OW29392   4.084   0.249   5.735
 9498SOL    HW129393   4.181   0.252   5.711
 9498SOL    HW229394   4.040   0.174   5.686
 9499SOL     OW29395   4.659   4.308   6.146
 9499SOL    HW129396   4.656   4.211   6.173
 9499SOL    HW229397   4.669   4.314   6.047
 9500SOL     OW29398   4.972   5.718   1.963
 9500SOL    HW129399   4.918   5.678   2.037
 9500SOL    HW229400   5.069   5.700   1.978
 9501SOL     OW29401   3.273   1.628   4.899
 9501SOL    HW129402   3.263   1.533   4.926
 9501SOL    HW229403   3.339   1.636   4.824
 9502SOL     OW29404   5.664   3.287   5.332
 9502SOL    HW129405   5.571   3.270   5.298
 9502SOL    HW229406   5.709   3.201   5.351
 9503SOL     OW29407   1.649   6.323   1.027
 9503SOL    HW129408   1.565   6.322   0.972
 9503SOL    HW229409   1.726   6.293   0.971
 9504SOL     OW29410   0.552   3.091   6.360
 9504SOL    HW129411   0.465   3.042   6.370
 9504SOL    HW229412   0.608   3.046   6.291
 9505SOL     OW29413   5.543   3.673   2.786
 9505SOL    HW129414   5.568   3.661   2.882
 9505SOL    HW229415   5.575   3.762   2.754
 9506SOL     OW29416   6.291   3.103   0.409
 9506SOL    HW129417   6.233   3.022   0.418
 9506SOL    HW229418   6.355   3.090   0.333
 9507SOL     OW29419   0.913   2.199   3.927
 9507SOL    HW129420   0.949   2.123   3.874
 9507SOL    HW229421   0.986   2.263   3.948
 9508SOL     OW29422   4.976   1.961   0.237
 9508SOL    HW129423   4.891   1.927   0.198
 9508SOL    HW229424   4.956   2.013   0.320
 9509SOL     OW29425   2.527   6.709   5.291
 9509SOL    HW129426   2.562   6.688   5.382
 9509SOL    HW229427   2.600   6.700   5.224
 9510SOL     OW29428   6.392   4.605   3.131
 9510SOL    HW129429   6.362   4.512   3.151
 9510SOL    HW229430   6.460   4.634   3.199
 9511SOL     OW29431   1.523   1.760   0.735
 9511SOL    HW129432   1.589   1.835   0.740
 9511SOL    HW229433   1.442   1.791   0.686
 9512SOL     OW29434   1.491   2.745   4.319
 9512SOL    HW129435   1.549   2.688   4.378
 9512SOL    HW229436   1.402   2.758   4.362
 9513SOL     OW29437   2.508   4.508   3.620
 9513SOL    HW129438   2.514   4.590   3.676
 9513SOL    HW229439   2.454   4.438   3.667
 9514SOL     OW29440   2.133   2.810   6.362
 9514SOL    HW129441   2.115   2.907   6.378
 9514SOL    HW229442   2.207   2.779   6.421
 9515SOL     OW29443   2.442   5.974   5.983
 9515SOL    HW129444   2.447   6.047   5.914
 9515SOL    HW229445   2.534   5.939   6.001
 9516SOL     OW29446   5.485   3.998   4.709
 9516SOL    HW129447   5.409   4.061   4.693
 9516SOL    HW229448   5.550   4.004   4.634
 9517SOL     OW29449   0.826   6.015   2.036
 9517SOL    HW129450   0.892   5.940   2.033
 9517SOL    HW229451   0.813   6.045   2.130
 9518SOL     OW29452   0.703   2.731   5.386
 9518SOL    HW129453   0.610   2.716   5.355
 9518SOL    HW229454   0.703   2.766   5.480
 9519SOL     OW29455   3.701   3.219   3.158
 9519SOL    HW129456   3.744   3.132   3.131
 9519SOL    HW229457   3.772   3.287   3.177
 9520SOL     OW29458   5.027   0.204   5.988
 9520SOL    HW129459   4.998   0.298   6.007
 9520SOL    HW229460   5.124   0.193   6.010
 9521SOL     OW29461   3.368   0.712   0.914
 9521SOL    HW129462   3.280   0.744   0.947
 9521SOL    HW229463   3.358   0.680   0.819
 9522SOL     OW29464   3.324   6.339   2.299
 9522SOL    HW129465   3.406   6.394   2.281
 9522SOL    HW229466   3.338   6.246   2.267
 9523SOL     OW29467   3.056   4.844   3.963
 9523SOL    HW129468   3.155   4.840   3.951
 9523SOL    HW229469   3.034   4.829   4.060
 9524SOL     OW29470   2.559   3.746   1.186
 9524SOL    HW129471   2.559   3.813   1.259
 9524SOL    HW229472   2.641   3.758   1.130
 9525SOL     OW29473   2.391   3.261   5.397
 9525SOL    HW129474   2.407   3.199   5.320
 9525SOL    HW229475   2.418   3.215   5.482
 9526SOL     OW29476   5.403   5.223   0.225
 9526SOL    HW129477   5.357   5.294   0.278
 9526SOL    HW229478   5.389   5.134   0.269
 9527SOL     OW29479   4.145   0.407   3.669
 9527SOL    HW129480   4.068   0.360   3.625
 9527SOL    HW229481   4.124   0.422   3.766
 9528SOL     OW29482   5.418   2.126   0.644
 9528SOL    HW129483   5.489   2.133   0.714
 9528SOL    HW229484   5.459   2.140   0.554
 9529SOL     OW29485   6.309   1.193   1.275
 9529SOL    HW129486   6.386   1.155   1.224
 9529SOL    HW229487   6.242   1.121   1.294
 9530SOL     OW29488   1.455   5.566   3.616
 9530SOL    HW129489   1.500   5.612   3.539
 9530SOL    HW229490   1.408   5.635   3.672
 9531SOL     OW29491   3.549   5.516   2.557
 9531SOL    HW129492   3.582   5.517   2.651
 9531SOL    HW229493   3.566   5.426   2.516
 9532SOL     OW29494   6.780   4.948   2.869
 9532SOL    HW129495   6.873   4.922   2.894
 9532SOL    HW229496   6.716   4.919   2.941
 9533SOL     OW29497   1.847   3.833   3.540
 9533SOL    HW129498   1.806   3.765   3.601
 9533SOL    HW229499   1.939   3.802   3.513
 9534SOL     OW29500   5.725   4.996   4.350
 9534SOL    HW129501   5.810   5.000   4.297
 9534SOL    HW229502   5.738   5.042   4.438
 9535SOL     OW29503   0.680   1.611   5.406
 9535SOL    HW129504   0.712   1.517   5.418
 9535SOL    HW229505   0.587   1.619   5.442
 9536SOL     OW29506   3.701   4.242   5.206
 9536SOL    HW129507   3.747   4.291   5.280
 9536SOL    HW229508   3.747   4.262   5.120
 9537SOL     OW29509   0.497   1.688   3.625
 9537SOL    HW129510   0.587   1.677   3.667
 9537SOL    HW229511   0.430   1.631   3.673
 9538SOL     OW29512   4.295   0.439   5.479
 9538SOL    HW129513   4.364   0.439   5.407
 9538SOL    HW229514   4.309   0.360   5.539
 9539SOL     OW29515   3.373   3.577   1.899
 9539SOL    HW129516   3.362   3.544   1.993
 9539SOL    HW229517   3.466   3.557   1.868
 9540SOL     OW29518   4.315   4.808   3.715
 9540SOL    HW129519   4.332   4.888   3.773
 9540SOL    HW229520   4.309   4.726   3.771
 9541SOL     OW29521   2.183   5.983   5.754
 9541SOL    HW129522   2.187   5.898   5.807
 9541SOL    HW229523   2.106   6.038   5.785
 9542SOL     OW29524   6.189   3.850   4.315
 9542SOL    HW129525   6.194   3.768   4.373
 9542SOL    HW229526   6.094   3.864   4.287
 9543SOL     OW29527   2.478   6.811   6.102
 9543SOL    HW129528   2.505   6.750   6.026
 9543SOL    HW229529   2.553   6.875   6.120
 9544SOL     OW29530   6.011   3.427   4.412
 9544SOL    HW129531   6.057   3.405   4.327
 9544SOL    HW229532   6.031   3.356   4.480
 9545SOL     OW29533   0.566   4.683   1.795
 9545SOL    HW129534   0.552   4.594   1.752
 9545SOL    HW229535   0.647   4.679   1.854
 9546SOL     OW29536   2.400   2.795   0.165
 9546SOL    HW129537   2.319   2.753   0.206
 9546SOL    HW229538   2.470   2.726   0.149
 9547SOL     OW29539   4.178   6.749   3.769
 9547SOL    HW129540   4.212   6.660   3.738
 9547SOL    HW229541   4.206   6.764   3.864
 9548SOL     OW29542   1.234   4.520   6.706
 9548SOL    HW129543   1.221   4.617   6.685
 9548SOL    HW229544   1.323   4.508   6.750
 9549SOL     OW29545   5.091   2.211   0.891
 9549SOL    HW129546   5.131   2.203   0.982
 9549SOL    HW229547   5.032   2.292   0.888
 9550SOL     OW29548   5.357   2.946   1.628
 9550SOL    HW129549   5.301   2.959   1.547
 9550SOL    HW229550   5.321   3.001   1.704
 9551SOL     OW29551   6.199   3.670   6.429
 9551SOL    HW129552   6.239   3.699   6.516
 9551SOL    HW229553   6.269   3.626   6.373
 9552SOL     OW29554   3.015   1.938   6.976
 9552SOL    HW129555   2.983   1.941   0.049
 9552SOL    HW229556   2.949   1.888   6.919
 9553SOL     OW29557   5.009   1.624   6.299
 9553SOL    HW129558   4.930   1.614   6.240
 9553SOL    HW229559   5.072   1.692   6.260
 9554SOL     OW29560   2.762   0.424   3.704
 9554SOL    HW129561   2.808   0.480   3.772
 9554SOL    HW229562   2.820   0.345   3.681
 9555SOL     OW29563   6.543   0.527   3.738
 9555SOL    HW129564   6.453   0.571   3.730
 9555SOL    HW229565   6.578   0.540   3.830
 9556SOL     OW29566   1.831   4.628   6.811
 9556SOL    HW129567   1.747   4.665   6.772
 9556SOL    HW229568   1.812   4.540   6.855
 9557SOL     OW29569   4.719   0.778   1.874
 9557SOL    HW129570   4.763   0.845   1.815
 9557SOL    HW229571   4.726   0.807   1.969
 9558SOL     OW29572   4.671   0.040   6.802
 9558SOL    HW129573   4.749   0.055   6.862
 9558SOL    HW229574   4.649   0.125   6.754
 9559SOL     OW29575   1.739   4.176   0.296
 9559SOL    HW129576   1.787   4.194   0.382
 9559SOL    HW229577   1.656   4.123   0.315
 9560SOL     OW29578   3.348   6.735   2.101
 9560SOL    HW129579   3.377   6.725   2.196
 9560SOL    HW229580   3.416   6.787   2.050
 9561SOL     OW29581   0.997   0.497   0.643
 9561SOL    HW129582   0.980   0.437   0.721
 9561SOL    HW229583   1.014   0.590   0.676
 9562SOL     OW29584   2.892   6.056   3.030
 9562SOL    HW129585   2.796   6.037   3.051
 9562SOL    HW229586   2.931   6.117   3.098
 9563SOL     OW29587   0.524   6.109   1.038
 9563SOL    HW129588   0.553   6.018   1.011
 9563SOL    HW229589   0.604   6.164   1.063
 9564SOL     OW29590   1.169   0.807   0.047
 9564SOL    HW129591   1.185   0.763   6.980
 9564SOL    HW229592   1.253   0.803   0.102
 9565SOL     OW29593   3.134   1.435   3.912
 9565SOL    HW129594   3.174   1.439   4.004
 9565SOL    HW229595   3.207   1.426   3.844
 9566SOL     OW29596   3.214   0.474   6.835
 9566SOL    HW129597   3.268   0.540   6.783
 9566SOL    HW229598   3.268   0.440   6.911
 9567SOL     OW29599   6.876   3.691   1.451
 9567SOL    HW129600   6.958   3.749   1.450
 9567SOL    HW229601   6.875   3.636   1.535
 9568SOL     OW29602   5.040   1.216   6.759
 9568SOL    HW129603   5.117   1.211   6.696
 9568SOL    HW229604   5.069   1.186   6.850
 9569SOL     OW29605   5.564   0.935   1.919
 9569SOL    HW129606   5.567   1.028   1.955
 9569SOL    HW229607   5.656   0.907   1.891
 9570SOL     OW29608   0.112   3.205   1.575
 9570SOL    HW129609   0.018   3.220   1.545
 9570SOL    HW229610   0.174   3.263   1.521
 9571SOL     OW29611   2.273   2.458   6.923
 9571SOL    HW129612   2.207   2.426   6.992
 9571SOL    HW229613   2.230   2.527   6.865
 9572SOL     OW29614   2.365   4.340   3.844
 9572SOL    HW129615   2.336   4.257   3.797
 9572SOL    HW229616   2.292   4.370   3.906
 9573SOL     OW29617   6.360   0.907   4.313
 9573SOL    HW129618   6.391   0.969   4.241
 9573SOL    HW229619   6.260   0.907   4.315
 9574SOL     OW29620   3.385   3.136   1.089
 9574SOL    HW129621   3.371   3.101   0.996
 9574SOL    HW229622   3.301   3.125   1.142
 9575SOL     OW29623   6.385   6.343   0.963
 9575SOL    HW129624   6.296   6.314   0.999
 9575SOL    HW229625   6.417   6.276   0.896
 9576SOL     OW29626   1.538   6.733   0.155
 9576SOL    HW129627   1.626   6.771   0.184
 9576SOL    HW229628   1.517   6.764   0.062
 9577SOL     OW29629   6.220   5.169   2.404
 9577SOL    HW129630   6.167   5.253   2.416
 9577SOL    HW229631   6.189   5.099   2.468
 9578SOL     OW29632   2.035   3.090   2.870
 9578SOL    HW129633   2.047   3.163   2.937
 9578SOL    HW229634   1.974   3.120   2.797
 9579SOL     OW29635   5.699   5.688   1.955
 9579SOL    HW129636   5.705   5.774   1.905
 9579SOL    HW229637   5.773   5.682   2.022
 9580SOL     OW29638   5.461   4.771   2.906
 9580SOL    HW129639   5.373   4.745   2.867
 9580SOL    HW229640   5.510   4.688   2.935
 9581SOL     OW29641   6.297   1.091   0.156
 9581SOL    HW129642   6.244   1.116   0.237
 9581SOL    HW229643   6.262   1.141   0.077
 9582SOL     OW29644   4.925   6.115   4.371
 9582SOL    HW129645   4.904   6.154   4.461
 9582SOL    HW229646   4.940   6.189   4.306
 9583SOL     OW29647   3.686   4.549   1.589
 9583SOL    HW129648   3.634   4.564   1.674
 9583SOL    HW229649   3.668   4.625   1.526
 9584SOL     OW29650   2.232   5.812   4.902
 9584SOL    HW129651   2.323   5.844   4.930
 9584SOL    HW229652   2.241   5.749   4.825
 9585SOL     OW29653   4.315   5.785   1.019
 9585SOL    HW129654   4.247   5.739   0.963
 9585SOL    HW229655   4.303   5.884   1.013
 9586SOL     OW29656   4.363   4.880   2.287
 9586SOL    HW129657   4.300   4.931   2.228
 9586SOL    HW229658   4.416   4.815   2.231
 9587SOL     OW29659   2.930   5.793   1.760
 9587SOL    HW129660   2.981   5.879   1.758
 9587SOL    HW229661   2.948   5.746   1.846
 9588SOL     OW29662   6.437   5.572   0.654
 9588SOL    HW129663   6.342   5.555   0.680
 9588SOL    HW229664   6.440   5.636   0.578
 9589SOL     OW29665   1.676   4.010   6.225
 9589SOL    HW129666   1.638   3.921   6.201
 9589SOL    HW229667   1.629   4.082   6.173
 9590SOL     OW29668   5.828   1.421   1.199
 9590SOL    HW129669   5.768   1.378   1.130
 9590SOL    HW229670   5.775   1.438   1.282
 9591SOL     OW29671   3.967   0.596   6.760
 9591SOL    HW129672   3.974   0.511   6.813
 9591SOL    HW229673   3.931   0.576   6.670
 9592SOL     OW29674   2.386   6.170   5.777
 9592SOL    HW129675   2.366   6.256   5.824
 9592SOL    HW229676   2.307   6.108   5.786
 9593SOL     OW29677   1.970   1.700   4.419
 9593SOL    HW129678   1.895   1.641   4.449
 9593SOL    HW229679   2.057   1.660   4.447
 9594SOL     OW29680   0.402   6.660   3.729
 9594SOL    HW129681   0.316   6.709   3.710
 9594SOL    HW229682   0.460   6.718   3.786
 9595SOL     OW29683   0.707   3.632   3.318
 9595SOL    HW129684   0.687   3.580   3.401
 9595SOL    HW229685   0.749   3.719   3.343
 9596SOL     OW29686   0.604   6.831   1.307
 9596SOL    HW129687   0.657   6.758   1.263
 9596SOL    HW229688   0.573   6.896   1.237
 9597SOL     OW29689   0.953   3.244   2.301
 9597SOL    HW129690   1.052   3.240   2.315
 9597SOL    HW229691   0.909   3.279   2.383
 9598SOL     OW29692   1.513   3.956   3.783
 9598SOL    HW129693   1.434   3.923   3.733
 9598SOL    HW229694   1.518   3.909   3.872
 9599SOL     OW29695   4.123   0.089   3.795
 9599SOL    HW129696   4.058   0.062   3.724
 9599SOL    HW229697   4.212   0.107   3.753
 9600SOL     OW29698   3.027   1.134   1.398
 9600SOL    HW129699   3.111   1.154   1.449
 9600SOL    HW229700   2.999   1.040   1.416
 9601SOL     OW29701   0.287   3.942   1.613
 9601SOL    HW129702   0.270   4.040   1.617
 9601SOL    HW229703   0.284   3.904   1.706
 9602SOL     OW29704   4.304   5.165   5.697
 9602SOL    HW129705   4.372   5.165   5.624
 9602SOL    HW229706   4.350   5.167   5.786
 9603SOL     OW29707   5.177   5.682   5.291
 9603SOL    HW129708   5.225   5.604   5.332
 9603SOL    HW229709   5.227   5.766   5.312
 9604SOL     OW29710   5.266   6.625   0.348
 9604SOL    HW129711   5.364   6.633   0.364
 9604SOL    HW229712   5.245   6.651   0.254
 9605SOL     OW29713   6.351   6.205   2.898
 9605SOL    HW129714   6.301   6.283   2.861
 9605SOL    HW229715   6.426   6.239   2.955
 9606SOL     OW29716   1.488   1.699   6.861
 9606SOL    HW129717   1.564   1.764   6.859
 9606SOL    HW229718   1.408   1.740   6.817
 9607SOL     OW29719   3.198   2.923   6.108
 9607SOL    HW129720   3.136   2.998   6.087
 9607SOL    HW229721   3.282   2.959   6.150
 9608SOL     OW29722   6.338   3.830   3.554
 9608SOL    HW129723   6.393   3.805   3.474
 9608SOL    HW229724   6.326   3.929   3.557
 9609SOL     OW29725   4.480   2.786   6.311
 9609SOL    HW129726   4.465   2.691   6.341
 9609SOL    HW229727   4.540   2.786   6.231
 9610SOL     OW29728   1.149   4.165   3.097
 9610SOL    HW129729   1.105   4.154   3.008
 9610SOL    HW229730   1.245   4.191   3.083
 9611SOL     OW29731   1.418   0.224   0.481
 9611SOL    HW129732   1.468   0.254   0.399
 9611SOL    HW229733   1.321   0.218   0.459
 9612SOL     OW29734   0.541   3.257   3.309
 9612SOL    HW129735   0.455   3.259   3.361
 9612SOL    HW229736   0.530   3.312   3.226
 9613SOL     OW29737   5.807   5.733   3.382
 9613SOL    HW129738   5.737   5.669   3.350
 9613SOL    HW229739   5.778   5.776   3.467
 9614SOL     OW29740   4.934   2.480   3.271
 9614SOL    HW129741   4.894   2.532   3.195
 9614SOL    HW229742   5.010   2.531   3.309
 9615SOL     OW29743   2.465   3.113   0.947
 9615SOL    HW129744   2.560   3.144   0.946
 9615SOL    HW229745   2.405   3.188   0.974
 9616SOL     OW29746   3.941   2.803   0.046
 9616SOL    HW129747   3.962   2.800   6.969
 9616SOL    HW229748   3.980   2.722   0.090
 9617SOL     OW29749   2.220   2.310   3.833
 9617SOL    HW129750   2.251   2.342   3.743
 9617SOL    HW229751   2.255   2.371   3.904
 9618SOL     OW29752   2.769   1.276   0.744
 9618SOL    HW129753   2.770   1.264   0.843
 9618SOL    HW229754   2.719   1.200   0.702
 9619SOL     OW29755   2.750   1.091   4.540
 9619SOL    HW129756   2.668   1.101   4.483
 9619SOL    HW229757   2.819   1.157   4.510
 9620SOL     OW29758   5.897   0.282   5.701
 9620SOL    HW129759   5.839   0.329   5.634
 9620SOL    HW229760   5.844   0.262   5.783
 9621SOL     OW29761   1.621   2.853   3.410
 9621SOL    HW129762   1.705   2.858   3.355
 9621SOL    HW229763   1.553   2.797   3.362
 9622SOL     OW29764   5.783   0.305   1.458
 9622SOL    HW129765   5.740   0.285   1.546
 9622SOL    HW229766   5.880   0.280   1.463
 9623SOL     OW29767   3.052   3.711   6.242
 9623SOL    HW129768   3.147   3.742   6.230
 9623SOL    HW229769   3.043   3.664   6.330
 9624SOL     OW29770   6.257   3.551   3.239
 9624SOL    HW129771   6.185   3.483   3.245
 9624SOL    HW229772   6.298   3.565   3.330
 9625SOL     OW29773   6.038   5.933   0.285
 9625SOL    HW129774   5.941   5.949   0.267
 9625SOL    HW229775   6.077   5.875   0.213
 9626SOL     OW29776   3.198   6.765   6.647
 9626SOL    HW129777   3.209   6.808   6.737
 9626SOL    HW229778   3.117   6.706   6.648
 9627SOL     OW29779   1.517   6.505   6.710
 9627SOL    HW129780   1.541   6.409   6.695
 9627SOL    HW229781   1.456   6.512   6.789
 9628SOL     OW29782   4.151   6.035   2.014
 9628SOL    HW129783   4.073   5.972   2.022
 9628SOL    HW229784   4.119   6.129   2.026
 9629SOL     OW29785   2.760   6.709   1.085
 9629SOL    HW129786   2.804   6.729   1.173
 9629SOL    HW229787   2.699   6.784   1.061
 9630SOL     OW29788   6.368   0.834   5.961
 9630SOL    HW129789   6.287   0.890   5.983
 9630SOL    HW229790   6.348   0.777   5.881
 9631SOL     OW29791   5.751   5.924   0.285
 9631SOL    HW129792   5.786   5.848   0.231
 9631SOL    HW229793   5.711   5.890   0.370
 9632SOL     OW29794   1.352   6.189   1.995
 9632SOL    HW129795   1.405   6.134   2.060
 9632SOL    HW229796   1.406   6.204   1.912
 9633SOL     OW29797   6.524   5.511   6.883
 9633SOL    HW129798   6.510   5.571   6.804
 9633SOL    HW229799   6.436   5.475   6.914
 9634SOL     OW29800   0.969   5.944   4.633
 9634SOL    HW129801   0.948   5.935   4.730
 9634SOL    HW229802   1.029   6.024   4.619
 9635SOL     OW29803   1.733   5.500   5.398
 9635SOL    HW129804   1.787   5.485   5.316
 9635SOL    HW229805   1.684   5.416   5.422
 9636SOL     OW29806   4.242   1.284   6.577
 9636SOL    HW129807   4.318   1.247   6.524
 9636SOL    HW229808   4.187   1.344   6.518
 9637SOL     OW29809   2.297   1.384   0.075
 9637SOL    HW129810   2.220   1.397   0.013
 9637SOL    HW229811   2.329   1.289   0.069
 9638SOL     OW29812   6.690   2.434   5.474
 9638SOL    HW129813   6.638   2.348   5.478
 9638SOL    HW229814   6.697   2.465   5.380
 9639SOL     OW29815   4.080   1.015   2.796
 9639SOL    HW129816   4.022   1.049   2.870
 9639SOL    HW229817   4.136   0.940   2.830
 9640SOL     OW29818   2.031   2.344   1.982
 9640SOL    HW129819   2.064   2.298   2.064
 9640SOL    HW229820   2.105   2.351   1.916
 9641SOL     OW29821   6.088   5.740   0.549
 9641SOL    HW129822   6.008   5.778   0.596
 9641SOL    HW229823   6.086   5.766   0.453
 9642SOL     OW29824   3.324   0.312   4.282
 9642SOL    HW129825   3.235   0.345   4.314
 9642SOL    HW229826   3.396   0.361   4.331
 9643SOL     OW29827   4.440   4.795   3.481
 9643SOL    HW129828   4.510   4.866   3.481
 9643SOL    HW229829   4.392   4.796   3.568
 9644SOL     OW29830   2.372   1.610   6.426
 9644SOL    HW129831   2.283   1.656   6.438
 9644SOL    HW229832   2.442   1.678   6.407
 9645SOL     OW29833   2.995   5.180   5.317
 9645SOL    HW129834   3.059   5.211   5.388
 9645SOL    HW229835   2.910   5.150   5.361
 9646SOL     OW29836   4.242   4.968   3.314
 9646SOL    HW129837   4.269   4.909   3.390
 9646SOL    HW229838   4.145   4.989   3.322
 9647SOL     OW29839   6.496   2.714   0.262
 9647SOL    HW129840   6.475   2.793   0.205
 9647SOL    HW229841   6.477   2.630   0.212
 9648SOL     OW29842   4.492   2.875   0.981
 9648SOL    HW129843   4.541   2.933   0.915
 9648SOL    HW229844   4.395   2.871   0.957
 9649SOL     OW29845   2.212   5.638   0.477
 9649SOL    HW129846   2.265   5.570   0.426
 9649SOL    HW229847   2.211   5.724   0.426
 9650SOL     OW29848   6.911   0.028   1.907
 9650SOL    HW129849   6.860   6.976   1.863
 9650SOL    HW229850   6.938   0.096   1.839
 9651SOL     OW29851   0.311   1.988   5.361
 9651SOL    HW129852   0.376   1.943   5.423
 9651SOL    HW229853   0.336   2.084   5.350
 9652SOL     OW29854   0.622   5.526   2.746
 9652SOL    HW129855   0.546   5.464   2.729
 9652SOL    HW229856   0.678   5.491   2.821
 9653SOL     OW29857   6.170   5.042   4.319
 9653SOL    HW129858   6.191   5.110   4.388
 9653SOL    HW229859   6.146   4.955   4.364
 9654SOL     OW29860   2.243   2.817   2.367
 9654SOL    HW129861   2.321   2.842   2.310
 9654SOL    HW229862   2.176   2.767   2.311
 9655SOL     OW29863   5.860   2.811   6.674
 9655SOL    HW129864   5.876   2.838   6.769
 9655SOL    HW229865   5.892   2.718   6.659
 9656SOL     OW29866   3.652   0.707   2.558
 9656SOL    HW129867   3.673   0.624   2.609
 9656SOL    HW229868   3.663   0.787   2.617
 9657SOL     OW29869   0.132   0.110   5.155
 9657SOL    HW129870   0.066   0.175   5.118
 9657SOL    HW229871   0.223   0.152   5.156
 9658SOL     OW29872   6.266   2.497   2.703
 9658SOL    HW129873   6.295   2.586   2.667
 9658SOL    HW229874   6.166   2.489   2.695
 9659SOL     OW29875   0.803   5.396   6.878
 9659SOL    HW129876   0.725   5.334   6.878
 9659SOL    HW229877   0.815   5.435   6.786
 9660SOL     OW29878   0.528   5.499   0.241
 9660SOL    HW129879   0.548   5.592   0.270
 9660SOL    HW229880   0.429   5.484   0.239
 9661SOL     OW29881   4.257   6.694   1.257
 9661SOL    HW129882   4.335   6.665   1.202
 9661SOL    HW229883   4.205   6.614   1.288
 9662SOL     OW29884   4.859   0.817   4.087
 9662SOL    HW129885   4.839   0.740   4.148
 9662SOL    HW229886   4.897   0.893   4.140
 9663SOL     OW29887   2.371   5.675   2.939
 9663SOL    HW129888   2.425   5.752   2.973
 9663SOL    HW229889   2.401   5.591   2.983
 9664SOL     OW29890   2.691   5.847   1.647
 9664SOL    HW129891   2.680   5.756   1.609
 9664SOL    HW229892   2.774   5.850   1.704
 9665SOL     OW29893   5.228   3.878   4.520
 9665SOL    HW129894   5.282   3.940   4.577
 9665SOL    HW229895   5.138   3.863   4.562
 9666SOL     OW29896   6.021   4.801   4.351
 9666SOL    HW129897   5.930   4.797   4.392
 9666SOL    HW229898   6.016   4.777   4.254
 9667SOL     OW29899   4.117   3.584   3.946
 9667SOL    HW129900   4.143   3.576   3.850
 9667SOL    HW229901   4.087   3.677   3.965
 9668SOL     OW29902   0.284   1.208   5.035
 9668SOL    HW129903   0.309   1.143   4.964
 9668SOL    HW229904   0.364   1.233   5.088
 9669SOL     OW29905   1.783   5.541   0.372
 9669SOL    HW129906   1.787   5.499   0.463
 9669SOL    HW229907   1.740   5.631   0.379
 9670SOL     OW29908   5.658   4.714   0.214
 9670SOL    HW129909   5.629   4.790   0.156
 9670SOL    HW229910   5.588   4.642   0.212
 9671SOL     OW29911   0.115   0.091   6.478
 9671SOL    HW129912   0.156   0.007   6.514
 9671SOL    HW229913   0.173   0.169   6.501
 9672SOL     OW29914   0.978   6.761   5.060
 9672SOL    HW129915   1.017   6.844   5.100
 9672SOL    HW229916   1.025   6.740   4.974
 9673SOL     OW29917   2.318   2.774   6.157
 9673SOL    HW129918   2.251   2.780   6.231
 9673SOL    HW229919   2.292   2.836   6.083
 9674SOL     OW29920   2.937   7.002   2.037
 9674SOL    HW129921   2.896   6.983   2.126
 9674SOL    HW229922   3.037   7.004   2.047
 9675SOL     OW29923   0.003   2.991   2.088
 9675SOL    HW129924   0.005   2.970   2.186
 9675SOL    HW229925   0.085   2.953   2.045
 9676SOL     OW29926   0.375   3.807   4.529
 9676SOL    HW129927   0.296   3.869   4.533
 9676SOL    HW229928   0.343   3.714   4.509
 9677SOL     OW29929   2.145   3.667   5.145
 9677SOL    HW129930   2.129   3.573   5.118
 9677SOL    HW229931   2.077   3.727   5.101
 9678SOL     OW29932   3.575   2.859   3.224
 9678SOL    HW129933   3.619   2.845   3.313
 9678SOL    HW229934   3.487   2.812   3.222
 9679SOL     OW29935   0.799   3.073   1.567
 9679SOL    HW129936   0.805   3.062   1.468
 9679SOL    HW229937   0.846   3.157   1.594
 9680SOL     OW29938   5.877   5.077   3.387
 9680SOL    HW129939   5.797   5.019   3.396
 9680SOL    HW229940   5.891   5.128   3.471
 9681SOL     OW29941   0.854   1.264   4.008
 9681SOL    HW129942   0.757   1.289   4.008
 9681SOL    HW229943   0.895   1.292   3.921
 9682SOL     OW29944   6.567   4.588   2.684
 9682SOL    HW129945   6.535   4.648   2.758
 9682SOL    HW229946   6.630   4.520   2.721
 9683SOL     OW29947   4.669   6.055   6.419
 9683SOL    HW129948   4.757   6.027   6.381
 9683SOL    HW229949   4.676   6.062   6.518
 9684SOL     OW29950   1.383   4.625   4.106
 9684SOL    HW129951   1.474   4.629   4.065
 9684SOL    HW229952   1.350   4.530   4.104
 9685SOL     OW29953   2.053   2.137   6.993
 9685SOL    HW129954   2.036   2.121   6.895
 9685SOL    HW229955   2.144   2.104   7.017
 9686SOL     OW29956   5.359   0.519   1.831
 9686SOL    HW129957   5.414   0.468   1.765
 9686SOL    HW229958   5.331   0.606   1.790
 9687SOL     OW29959   3.506   0.084   3.436
 9687SOL    HW129960   3.539   0.131   3.355
 9687SOL    HW229961   3.538   7.010   3.435
 9688SOL     OW29962   0.087   1.394   3.223
 9688SOL    HW129963   0.116   1.480   3.181
 9688SOL    HW229964   0.167   1.336   3.239
 9689SOL     OW29965   2.182   6.169   6.482
 9689SOL    HW129966   2.175   6.256   6.434
 9689SOL    HW229967   2.107   6.109   6.452
 9690SOL     OW29968   6.288   4.388   1.111
 9690SOL    HW129969   6.387   4.376   1.107
 9690SOL    HW229970   6.246   4.305   1.148
 9691SOL     OW29971   1.173   4.308   1.511
 9691SOL    HW129972   1.203   4.377   1.445
 9691SOL    HW229973   1.215   4.220   1.490
 9692SOL     OW29974   2.618   5.560   1.331
 9692SOL    HW129975   2.592   5.655   1.317
 9692SOL    HW229976   2.712   5.556   1.365
 9693SOL     OW29977   5.622   5.679   1.660
 9693SOL    HW129978   5.593   5.743   1.588
 9693SOL    HW229979   5.543   5.628   1.693
 9694SOL     OW29980   2.305   2.069   0.105
 9694SOL    HW129981   2.325   2.037   0.198
 9694SOL    HW229982   2.382   2.123   0.071
 9695SOL     OW29983   6.008   4.305   1.177
 9695SOL    HW129984   6.046   4.262   1.259
 9695SOL    HW229985   5.982   4.235   1.111
 9696SOL     OW29986   4.248   3.369   1.318
 9696SOL    HW129987   4.161   3.330   1.347
 9696SOL    HW229988   4.243   3.469   1.325
 9697SOL     OW29989   0.834   6.008   6.942
 9697SOL    HW129990   0.861   5.912   6.941
 9697SOL    HW229991   0.753   6.020   6.885
 9698SOL     OW29992   5.608   1.862   5.097
 9698SOL    HW129993   5.630   1.861   5.000
 9698SOL    HW229994   5.667   1.928   5.144
 9699SOL     OW29995   1.808   3.306   0.219
 9699SOL    HW129996   1.815   3.299   0.120
 9699SOL    HW229997   1.747   3.235   0.254
 9700SOL     OW29998   3.242   4.052   4.165
 9700SOL    HW129999   3.340   4.061   4.184
 9700SOL    HW230000   3.192   4.123   4.215
 9701SOL     OW30001   5.670   4.118   4.866
 9701SOL    HW130002   5.588   4.080   4.823
 9701SOL    HW230003   5.730   4.043   4.893
 9702SOL     OW30004   4.366   0.617   0.811
 9702SOL    HW130005   4.391   0.654   0.722
 9702SOL    HW230006   4.405   0.674   0.884
 9703SOL     OW30007   2.832   6.421   4.215
 9703SOL    HW130008   2.903   6.484   4.184
 9703SOL    HW230009   2.783   6.385   4.135
 9704SOL     OW30010   2.742   0.422   3.244
 9704SOL    HW130011   2.676   0.439   3.172
 9704SOL    HW230012   2.763   0.508   3.292
 9705SOL     OW30013   3.375   3.957   0.767
 9705SOL    HW130014   3.370   3.858   0.780
 9705SOL    HW230015   3.454   3.993   0.816
 9706SOL     OW30016   5.825   2.564   3.030
 9706SOL    HW130017   5.822   2.490   2.962
 9706SOL    HW230018   5.771   2.538   3.109
 9707SOL     OW30019   2.867   5.088   3.010
 9707SOL    HW130020   2.834   4.993   3.006
 9707SOL    HW230021   2.869   5.127   2.918
 9708SOL     OW30022   2.743   1.345   2.564
 9708SOL    HW130023   2.735   1.404   2.645
 9708SOL    HW230024   2.681   1.377   2.493
 9709SOL     OW30025   1.838   4.857   2.887
 9709SOL    HW130026   1.901   4.926   2.851
 9709SOL    HW230027   1.844   4.774   2.831
 9710SOL     OW30028   0.164   0.443   3.685
 9710SOL    HW130029   0.106   0.437   3.603
 9710SOL    HW230030   0.139   0.526   3.736
 9711SOL     OW30031   1.168   4.327   5.526
 9711SOL    HW130032   1.156   4.330   5.427
 9711SOL    HW230033   1.083   4.298   5.569
 9712SOL     OW30034   4.634   2.607   4.561
 9712SOL    HW130035   4.590   2.556   4.487
 9712SOL    HW230036   4.729   2.577   4.570
 9713SOL     OW30037   6.780   4.829   2.346
 9713SOL    HW130038   6.875   4.860   2.342
 9713SOL    HW230039   6.761   4.791   2.437
 9714SOL     OW30040   1.900   2.260   1.540
 9714SOL    HW130041   1.999   2.259   1.525
 9714SOL    HW230042   1.881   2.231   1.634
 9715SOL     OW30043   5.574   5.443   4.779
 9715SOL    HW130044   5.556   5.362   4.835
 9715SOL    HW230045   5.596   5.415   4.686
 9716SOL     OW30046   4.436   1.776   6.718
 9716SOL    HW130047   4.371   1.827   6.661
 9716SOL    HW230048   4.439   1.681   6.687
 9717SOL     OW30049   5.867   4.697   3.576
 9717SOL    HW130050   5.847   4.694   3.674
 9717SOL    HW230051   5.811   4.769   3.534
 9718SOL     OW30052   4.562   3.431   1.633
 9718SOL    HW130053   4.477   3.390   1.599
 9718SOL    HW230054   4.623   3.359   1.666
 9719SOL     OW30055   0.309   1.772   0.279
 9719SOL    HW130056   0.390   1.826   0.255
 9719SOL    HW230057   0.244   1.773   0.204
 9720SOL     OW30058   0.272   0.472   1.738
 9720SOL    HW130059   0.363   0.510   1.723
 9720SOL    HW230060   0.232   0.446   1.650
 9721SOL     OW30061   6.691   3.645   2.864
 9721SOL    HW130062   6.713   3.582   2.789
 9721SOL    HW230063   6.656   3.592   2.942
 9722SOL     OW30064   6.999   0.109   4.425
 9722SOL    HW130065   6.916   0.109   4.481
 9722SOL    HW230066   0.055   0.078   4.481
 9723SOL     OW30067   0.057   1.448   3.742
 9723SOL    HW130068   0.044   1.351   3.724
 9723SOL    HW230069   6.995   1.485   3.784
 9724SOL     OW30070   3.806   2.871   1.107
 9724SOL    HW130071   3.742   2.913   1.171
 9724SOL    HW230072   3.881   2.828   1.158
 9725SOL     OW30073   4.237   3.090   5.780
 9725SOL    HW130074   4.335   3.101   5.760
 9725SOL    HW230075   4.226   3.032   5.861
 9726SOL     OW30076   5.695   6.655   4.983
 9726SOL    HW130077   5.690   6.731   5.047
 9726SOL    HW230078   5.615   6.597   4.994
 9727SOL     OW30079   1.442   2.176   6.431
 9727SOL    HW130080   1.472   2.120   6.353
 9727SOL    HW230081   1.516   2.186   6.496
 9728SOL     OW30082   3.117   5.382   0.052
 9728SOL    HW130083   3.107   5.285   0.070
 9728SOL    HW230084   3.030   5.428   0.070
 9729SOL     OW30085   3.181   5.376   2.450
 9729SOL    HW130086   3.206   5.444   2.519
 9729SOL    HW230087   3.264   5.349   2.400
 9730SOL     OW30088   6.269   3.875   3.148
 9730SOL    HW130089   6.216   3.800   3.188
 9730SOL    HW230090   6.218   3.960   3.155
 9731SOL     OW30091   4.826   5.319   0.795
 9731SOL    HW130092   4.827   5.419   0.803
 9731SOL    HW230093   4.748   5.283   0.847
 9732SOL     OW30094   6.474   5.494   3.081
 9732SOL    HW130095   6.375   5.502   3.093
 9732SOL    HW230096   6.503   5.555   3.008
 9733SOL     OW30097   5.311   4.454   6.587
 9733SOL    HW130098   5.372   4.384   6.551
 9733SOL    HW230099   5.249   4.485   6.515
 9734SOL     OW30100   5.322   2.468   4.998
 9734SOL    HW130101   5.317   2.473   5.097
 9734SOL    HW230102   5.260   2.398   4.964
 9735SOL     OW30103   1.521   4.054   0.361
 9735SOL    HW130104   1.451   4.087   0.297
 9735SOL    HW230105   1.488   3.973   0.409
 9736SOL     OW30106   3.419   1.326   0.978
 9736SOL    HW130107   3.384   1.344   1.069
 9736SOL    HW230108   3.494   1.260   0.984
 9737SOL     OW30109   4.075   2.201   5.063
 9737SOL    HW130110   4.119   2.129   5.117
 9737SOL    HW230111   4.131   2.285   5.068
 9738SOL     OW30112   2.128   0.730   2.351
 9738SOL    HW130113   2.106   0.826   2.339
 9738SOL    HW230114   2.225   0.715   2.330
 9739SOL     OW30115   5.115   4.952   2.046
 9739SOL    HW130116   5.080   4.971   2.138
 9739SOL    HW230117   5.146   5.038   2.005
 9740SOL     OW30118   6.714   4.025   3.066
 9740SOL    HW130119   6.645   3.976   3.121
 9740SOL    HW230120   6.801   3.977   3.071
 9741SOL     OW30121   4.300   1.931   1.424
 9741SOL    HW130122   4.207   1.961   1.445
 9741SOL    HW230123   4.366   1.986   1.475
 9742SOL     OW30124   4.725   1.838   4.420
 9742SOL    HW130125   4.644   1.857   4.475
 9742SOL    HW230126   4.735   1.739   4.409
 9743SOL     OW30127   1.819   2.304   5.360
 9743SOL    HW130128   1.890   2.372   5.377
 9743SOL    HW230129   1.859   2.213   5.358
 9744SOL     OW30130   1.742   0.515   1.732
 9744SOL    HW130131   1.642   0.523   1.733
 9744SOL    HW230132   1.769   0.434   1.784
 9745SOL     OW30133   0.212   2.212   4.512
 9745SOL    HW130134   0.188   2.291   4.456
 9745SOL    HW230135   0.308   2.220   4.541
 9746SOL     OW30136   5.730   1.427   4.414
 9746SOL    HW130137   5.681   1.393   4.334
 9746SOL    HW230138   5.806   1.366   4.436
 9747SOL     OW30139   0.579   0.071   6.712
 9747SOL    HW130140   0.528   7.014   6.676
 9747SOL    HW230141   0.526   0.154   6.698
 9748SOL     OW30142   0.310   5.728   3.963
 9748SOL    HW130143   0.355   5.766   4.043
 9748SOL    HW230144   0.306   5.628   3.971
 9749SOL     OW30145   0.738   4.383   4.469
 9749SOL    HW130146   0.639   4.370   4.475
 9749SOL    HW230147   0.768   4.364   4.375
 9750SOL     OW30148   3.684   4.982   3.319
 9750SOL    HW130149   3.591   4.956   3.344
 9750SOL    HW230150   3.686   5.078   3.291
 9751SOL     OW30151   1.900   2.449   0.573
 9751SOL    HW130152   1.949   2.479   0.654
 9751SOL    HW230153   1.883   2.350   0.579
 9752SOL     OW30154   3.618   1.963   6.172
 9752SOL    HW130155   3.656   1.870   6.171
 9752SOL    HW230156   3.679   2.024   6.121
 9753SOL     OW30157   6.971   6.250   5.033
 9753SOL    HW130158   6.891   6.218   4.981
 9753SOL    HW230159   6.961   6.347   5.054
 9754SOL     OW30160   6.847   2.198   6.558
 9754SOL    HW130161   6.771   2.164   6.503
 9754SOL    HW230162   6.890   2.122   6.607
 9755SOL     OW30163   4.264   4.790   4.947
 9755SOL    HW130164   4.303   4.699   4.957
 9755SOL    HW230165   4.169   4.783   4.917
 9756SOL     OW30166   5.817   2.176   5.782
 9756SOL    HW130167   5.906   2.173   5.736
 9756SOL    HW230168   5.813   2.256   5.841
 9757SOL     OW30169   6.119   2.381   3.869
 9757SOL    HW130170   6.019   2.379   3.864
 9757SOL    HW230171   6.150   2.308   3.929
 9758SOL     OW30172   2.597   0.751   6.990
 9758SOL    HW130173   2.572   0.662   0.005
 9758SOL    HW230174   2.679   0.743   6.934
 9759SOL     OW30175   3.287   6.254   1.226
 9759SOL    HW130176   3.227   6.222   1.300
 9759SOL    HW230177   3.249   6.337   1.185
 9760SOL     OW30178   5.306   4.620   6.243
 9760SOL    HW130179   5.220   4.585   6.281
 9760SOL    HW230180   5.371   4.545   6.233
 9761SOL     OW30181   5.328   5.877   2.664
 9761SOL    HW130182   5.366   5.831   2.584
 9761SOL    HW230183   5.268   5.952   2.635
 9762SOL     OW30184   2.424   1.509   3.314
 9762SOL    HW130185   2.451   1.459   3.231
 9762SOL    HW230186   2.452   1.605   3.306
 9763SOL     OW30187   1.892   1.620   1.632
 9763SOL    HW130188   1.864   1.526   1.652
 9763SOL    HW230189   1.863   1.680   1.706
 9764SOL     OW30190   0.918   2.634   1.795
 9764SOL    HW130191   0.992   2.596   1.739
 9764SOL    HW230192   0.858   2.560   1.825
 9765SOL     OW30193   0.173   1.697   5.589
 9765SOL    HW130194   0.130   1.757   5.657
 9765SOL    HW230195   0.132   1.714   5.499
 9766SOL     OW30196   3.028   0.497   2.116
 9766SOL    HW130197   3.114   0.546   2.133
 9766SOL    HW230198   2.951   0.561   2.125
 9767SOL     OW30199   4.728   0.332   5.189
 9767SOL    HW130200   4.818   0.363   5.219
 9767SOL    HW230201   4.658   0.396   5.220
 9768SOL     OW30202   5.045   2.915   3.344
 9768SOL    HW130203   5.080   2.902   3.437
 9768SOL    HW230204   4.948   2.890   3.342
 9769SOL     OW30205   0.650   2.214   2.092
 9769SOL    HW130206   0.552   2.226   2.109
 9769SOL    HW230207   0.688   2.151   2.159
 9770SOL     OW30208   6.324   4.414   6.551
 9770SOL    HW130209   6.414   4.436   6.590
 9770SOL    HW230210   6.283   4.338   6.601
 9771SOL     OW30211   3.450   5.745   5.096
 9771SOL    HW130212   3.520   5.703   5.038
 9771SOL    HW230213   3.374   5.680   5.109
 9772SOL     OW30214   6.705   0.243   1.849
 9772SOL    HW130215   6.794   0.210   1.816
 9772SOL    HW230216   6.638   0.237   1.776
 9773SOL     OW30217   5.357   5.623   3.528
 9773SOL    HW130218   5.399   5.547   3.579
 9773SOL    HW230219   5.376   5.709   3.575
 9774SOL     OW30220   0.122   4.829   3.192
 9774SOL    HW130221   0.147   4.919   3.227
 9774SOL    HW230222   0.198   4.765   3.208
 9775SOL     OW30223   2.716   2.183   4.902
 9775SOL    HW130224   2.682   2.225   4.987
 9775SOL    HW230225   2.800   2.133   4.922
 9776SOL     OW30226   0.383   4.980   4.725
 9776SOL    HW130227   0.378   4.881   4.737
 9776SOL    HW230228   0.375   5.002   4.627
 9777SOL     OW30229   5.761   5.131   6.960
 9777SOL    HW130230   5.838   5.182   6.998
 9777SOL    HW230231   5.675   5.167   6.997
 9778SOL     OW30232   4.087   0.819   3.744
 9778SOL    HW130233   4.022   0.894   3.728
 9778SOL    HW230234   4.082   0.754   3.669
 9779SOL     OW30235   2.918   1.927   6.079
 9779SOL    HW130236   2.956   1.841   6.046
 9779SOL    HW230237   2.937   1.936   6.177
 9780SOL     OW30238   3.508   4.426   0.577
 9780SOL    HW130239   3.469   4.334   0.579
 9780SOL    HW230240   3.589   4.427   0.519
 9781SOL     OW30241   1.717   6.254   4.031
 9781SOL    HW130242   1.764   6.313   4.097
 9781SOL    HW230243   1.642   6.207   4.077
 9782SOL     OW30244   6.387   0.514   1.426
 9782SOL    HW130245   6.442   0.577   1.480
 9782SOL    HW230246   6.397   0.421   1.463
 9783SOL     OW30247   5.971   1.500   2.801
 9783SOL    HW130248   6.003   1.510   2.895
 9783SOL    HW230249   5.915   1.578   2.776
 9784SOL     OW30250   5.271   0.756   4.158
 9784SOL    HW130251   5.331   0.829   4.189
 9784SOL    HW230252   5.326   0.676   4.133
 9785SOL     OW30253   0.898   2.993   0.947
 9785SOL    HW130254   0.901   3.058   0.870
 9785SOL    HW230255   0.901   2.900   0.911
 9786SOL     OW30256   2.221   0.077   5.013
 9786SOL    HW130257   2.200   7.006   4.982
 9786SOL    HW230258   2.256   0.073   5.107
 9787SOL     OW30259   6.037   4.675   2.189
 9787SOL    HW130260   6.064   4.715   2.101
 9787SOL    HW230261   6.085   4.589   2.203
 9788SOL     OW30262   0.449   1.376   5.461
 9788SOL    HW130263   0.433   1.373   5.363
 9788SOL    HW230264   0.415   1.463   5.498
 9789SOL     OW30265   1.339   6.031   4.582
 9789SOL    HW130266   1.355   6.102   4.513
 9789SOL    HW230267   1.359   6.067   4.673
 9790SOL     OW30268   6.827   1.429   4.106
 9790SOL    HW130269   6.735   1.411   4.142
 9790SOL    HW230270   6.885   1.465   4.179
 9791SOL     OW30271   0.938   2.446   1.504
 9791SOL    HW130272   0.902   2.537   1.487
 9791SOL    HW230273   0.868   2.390   1.549
 9792SOL     OW30274   3.950   5.765   2.167
 9792SOL    HW130275   3.896   5.842   2.201
 9792SOL    HW230276   4.046   5.780   2.189
 9793SOL     OW30277   5.096   6.649   2.554
 9793SOL    HW130278   5.154   6.568   2.560
 9793SOL    HW230279   5.020   6.632   2.491
 9794SOL     OW30280   2.932   2.807   6.666
 9794SOL    HW130281   3.013   2.842   6.619
 9794SOL    HW230282   2.862   2.784   6.599
 9795SOL     OW30283   2.495   4.688   3.831
 9795SOL    HW130284   2.437   4.723   3.905
 9795SOL    HW230285   2.591   4.705   3.853
 9796SOL     OW30286   3.724   4.536   0.441
 9796SOL    HW130287   3.776   4.535   0.526
 9796SOL    HW230288   3.749   4.457   0.386
 9797SOL     OW30289   5.132   2.573   4.685
 9797SOL    HW130290   5.036   2.556   4.662
 9797SOL    HW230291   5.170   2.494   4.733
 9798SOL     OW30292   2.315   1.911   1.608
 9798SOL    HW130293   2.338   1.835   1.668
 9798SOL    HW230294   2.222   1.941   1.627
 9799SOL     OW30295   3.293   3.860   2.021
 9799SOL    HW130296   3.233   3.928   1.979
 9799SOL    HW230297   3.296   3.778   1.964
 9800SOL     OW30298   3.569   4.760   0.350
 9800SOL    HW130299   3.558   4.824   0.426
 9800SOL    HW230300   3.600   4.671   0.386
 9801SOL     OW30301   4.793   5.416   6.746
 9801SOL    HW130302   4.771   5.412   6.844
 9801SOL    HW230303   4.875   5.360   6.728
 9802SOL     OW30304   0.541   4.947   1.434
 9802SOL    HW130305   0.514   4.899   1.350
 9802SOL    HW230306   0.460   4.970   1.487
 9803SOL     OW30307   5.357   0.899   6.589
 9803SOL    HW130308   5.340   0.991   6.625
 9803SOL    HW230309   5.422   0.851   6.648
 9804SOL     OW30310   5.947   5.077   4.180
 9804SOL    HW130311   6.022   5.069   4.245
 9804SOL    HW230312   5.943   5.170   4.143
 9805SOL     OW30313   3.272   4.368   1.311
 9805SOL    HW130314   3.306   4.324   1.228
 9805SOL    HW230315   3.259   4.299   1.383
 9806SOL     OW30316   6.713   2.360   2.830
 9806SOL    HW130317   6.732   2.428   2.901
 9806SOL    HW230318   6.797   2.339   2.780
 9807SOL     OW30319   3.510   2.575   0.805
 9807SOL    HW130320   3.480   2.650   0.746
 9807SOL    HW230321   3.436   2.510   0.816
 9808SOL     OW30322   1.770   2.033   5.039
 9808SOL    HW130323   1.715   2.103   5.085
 9808SOL    HW230324   1.754   1.944   5.081
 9809SOL     OW30325   0.810   0.661   4.418
 9809SOL    HW130326   0.866   0.743   4.430
 9809SOL    HW230327   0.833   0.595   4.490
 9810SOL     OW30328   4.004   1.291   3.371
 9810SOL    HW130329   3.985   1.303   3.273
 9810SOL    HW230330   4.060   1.367   3.403
 9811SOL     OW30331   1.027   6.917   2.783
 9811SOL    HW130332   0.992   7.003   2.744
 9811SOL    HW230333   1.088   6.874   2.716
 9812SOL     OW30334   5.263   2.728   4.911
 9812SOL    HW130335   5.235   2.726   4.815
 9812SOL    HW230336   5.245   2.639   4.953
 9813SOL     OW30337   6.264   4.591   0.929
 9813SOL    HW130338   6.268   4.515   0.995
 9813SOL    HW230339   6.354   4.634   0.922
 9814SOL     OW30340   6.526   0.892   5.438
 9814SOL    HW130341   6.472   0.886   5.355
 9814SOL    HW230342   6.617   0.852   5.422
 9815SOL     OW30343   6.754   3.899   2.790
 9815SOL    HW130344   6.787   3.939   2.876
 9815SOL    HW230345   6.732   3.802   2.805
 9816SOL     OW30346   6.580   0.772   6.149
 9816SOL    HW130347   6.672   0.791   6.116
 9816SOL    HW230348   6.513   0.815   6.088
 9817SOL     OW30349   2.248   0.563   0.056
 9817SOL    HW130350   2.282   0.636   7.020
 9817SOL    HW230351   2.200   0.602   0.135
 9818SOL     OW30352   0.996   0.033   3.028
 9818SOL    HW130353   0.937   7.007   3.094
 9818SOL    HW230354   1.021   6.991   2.955
 9819SOL     OW30355   0.080   2.692   4.149
 9819SOL    HW130356   0.026   2.740   4.218
 9819SOL    HW230357   0.074   2.740   4.062
 9820SOL     OW30358   3.777   2.574   6.141
 9820SOL    HW130359   3.721   2.656   6.131
 9820SOL    HW230360   3.717   2.496   6.160
 9821SOL     OW30361   3.793   2.539   1.317
 9821SOL    HW130362   3.759   2.541   1.223
 9821SOL    HW230363   3.756   2.617   1.367
 9822SOL     OW30364   3.126   5.964   4.707
 9822SOL    HW130365   3.046   6.024   4.714
 9822SOL    HW230366   3.190   6.002   4.640
 9823SOL     OW30367   3.971   6.531   3.081
 9823SOL    HW130368   3.916   6.470   3.138
 9823SOL    HW230369   4.060   6.547   3.124
 9824SOL     OW30370   0.587   5.865   5.914
 9824SOL    HW130371   0.562   5.816   5.998
 9824SOL    HW230372   0.685   5.854   5.897
 9825SOL     OW30373   0.030   6.551   5.278
 9825SOL    HW130374   6.990   6.552   5.199
 9825SOL    HW230375   0.083   6.467   5.277
 9826SOL     OW30376   2.081   5.734   5.407
 9826SOL    HW130377   2.094   5.825   5.446
 9826SOL    HW230378   2.047   5.672   5.477
 9827SOL     OW30379   1.773   4.452   1.779
 9827SOL    HW130380   1.727   4.473   1.693
 9827SOL    HW230381   1.724   4.379   1.826
 9828SOL     OW30382   3.983   1.704   5.293
 9828SOL    HW130383   3.940   1.774   5.351
 9828SOL    HW230384   3.941   1.615   5.312
 9829SOL     OW30385   4.951   4.839   5.210
 9829SOL    HW130386   5.034   4.879   5.248
 9829SOL    HW230387   4.972   4.750   5.169
 9830SOL     OW30388   5.363   1.699   3.844
 9830SOL    HW130389   5.430   1.651   3.787
 9830SOL    HW230390   5.273   1.656   3.834
 9831SOL     OW30391   0.587   4.389   2.019
 9831SOL    HW130392   0.515   4.323   2.000
 9831SOL    HW230393   0.659   4.380   1.950
 9832SOL     OW30394   4.539   5.800   4.680
 9832SOL    HW130395   4.638   5.812   4.673
 9832SOL    HW230396   4.508   5.737   4.609
 9833SOL     OW30397   3.899   3.535   4.277
 9833SOL    HW130398   3.966   3.601   4.241
 9833SOL    HW230399   3.928   3.442   4.255
 9834SOL     OW30400   2.935   6.162   5.543
 9834SOL    HW130401   2.873   6.126   5.473
 9834SOL    HW230402   2.894   6.149   5.633
 9835SOL     OW30403   4.066   3.859   3.963
 9835SOL    HW130404   3.995   3.900   4.021
 9835SOL    HW230405   4.046   3.877   3.867
 9836SOL     OW30406   6.622   3.557   5.701
 9836SOL    HW130407   6.716   3.523   5.692
 9836SOL    HW230408   6.612   3.605   5.788
 9837SOL     OW30409   5.805   1.877   3.421
 9837SOL    HW130410   5.857   1.962   3.412
 9837SOL    HW230411   5.841   1.809   3.356
 9838SOL     OW30412   1.217   5.921   1.001
 9838SOL    HW130413   1.264   5.959   1.080
 9838SOL    HW230414   1.204   5.993   0.932
 9839SOL     OW30415   5.184   6.465   3.887
 9839SOL    HW130416   5.243   6.387   3.908
 9839SOL    HW230417   5.241   6.541   3.856
 9840SOL     OW30418   6.484   1.842   6.478
 9840SOL    HW130419   6.545   1.839   6.399
 9840SOL    HW230420   6.504   1.764   6.538
 9841SOL     OW30421   6.761   6.121   2.837
 9841SOL    HW130422   6.689   6.055   2.816
 9841SOL    HW230423   6.749   6.155   2.930
 9842SOL     OW30424   3.327   0.214   0.060
 9842SOL    HW130425   3.401   0.281   0.068
 9842SOL    HW230426   3.366   0.127   0.029
 9843SOL     OW30427   0.278   0.752   1.525
 9843SOL    HW130428   0.357   0.717   1.474
 9843SOL    HW230429   0.308   0.782   1.616
 9844SOL     OW30430   4.594   0.401   4.925
 9844SOL    HW130431   4.547   0.320   4.890
 9844SOL    HW230432   4.649   0.376   5.004
 9845SOL     OW30433   1.363   3.929   2.130
 9845SOL    HW130434   1.330   4.010   2.178
 9845SOL    HW230435   1.288   3.886   2.079
 9846SOL     OW30436   5.846   2.233   1.172
 9846SOL    HW130437   5.830   2.144   1.215
 9846SOL    HW230438   5.929   2.274   1.210
 9847SOL     OW30439   3.947   3.986   6.931
 9847SOL    HW130440   3.888   3.908   6.950
 9847SOL    HW230441   3.913   4.066   6.981
 9848SOL     OW30442   3.024   3.495   5.466
 9848SOL    HW130443   3.053   3.447   5.383
 9848SOL    HW230444   3.067   3.585   5.469
 9849SOL     OW30445   1.573   2.484   4.412
 9849SOL    HW130446   1.493   2.487   4.352
 9849SOL    HW230447   1.545   2.497   4.507
 9850SOL     OW30448   2.190   6.771   4.113
 9850SOL    HW130449   2.222   6.806   4.025
 9850SOL    HW230450   2.132   6.691   4.098
 9851SOL     OW30451   3.591   5.570   3.897
 9851SOL    HW130452   3.496   5.578   3.928
 9851SOL    HW230453   3.601   5.487   3.842
 9852SOL     OW30454   1.781   6.606   0.311
 9852SOL    HW130455   1.782   6.513   0.275
 9852SOL    HW230456   1.773   6.603   0.411
 9853SOL     OW30457   0.193   4.509   3.550
 9853SOL    HW130458   0.259   4.457   3.496
 9853SOL    HW230459   0.241   4.574   3.608
 9854SOL     OW30460   0.289   3.622   6.763
 9854SOL    HW130461   0.385   3.615   6.788
 9854SOL    HW230462   0.232   3.620   6.845
 9855SOL     OW30463   0.676   5.799   0.520
 9855SOL    HW130464   0.707   5.718   0.570
 9855SOL    HW230465   0.603   5.774   0.457
 9856SOL     OW30466   5.582   3.327   2.874
 9856SOL    HW130467   5.487   3.347   2.848
 9856SOL    HW230468   5.644   3.359   2.802
 9857SOL     OW30469   4.884   0.006   5.351
 9857SOL    HW130470   4.892   0.072   5.426
 9857SOL    HW230471   4.904   6.936   5.385
 9858SOL     OW30472   6.409   6.262   1.967
 9858SOL    HW130473   6.388   6.338   1.905
 9858SOL    HW230474   6.325   6.230   2.011
 9859SOL     OW30475   0.181   5.494   2.822
 9859SOL    HW130476   0.166   5.569   2.886
 9859SOL    HW230477   0.233   5.527   2.743
 9860SOL     OW30478   1.689   3.353   4.174
 9860SOL    HW130479   1.711   3.449   4.190
 9860SOL    HW230480   1.765   3.296   4.203
 9861SOL     OW30481   3.387   2.006   3.218
 9861SOL    HW130482   3.346   1.915   3.219
 9861SOL    HW230483   3.333   2.067   3.160
 9862SOL     OW30484   1.483   3.787   6.337
 9862SOL    HW130485   1.450   3.696   6.362
 9862SOL    HW230486   1.580   3.783   6.315
 9863SOL     OW30487   3.957   0.078   2.099
 9863SOL    HW130488   3.938   0.001   2.160
 9863SOL    HW230489   3.891   0.151   2.118
 9864SOL     OW30490   1.971   6.105   5.859
 9864SOL    HW130491   1.901   6.034   5.855
 9864SOL    HW230492   1.948   6.170   5.931
 9865SOL     OW30493   1.828   5.676   5.834
 9865SOL    HW130494   1.795   5.703   5.744
 9865SOL    HW230495   1.899   5.606   5.824
 9866SOL     OW30496   6.815   5.299   5.823
 9866SOL    HW130497   6.833   5.269   5.729
 9866SOL    HW230498   6.718   5.284   5.845
 9867SOL     OW30499   4.357   1.319   1.969
 9867SOL    HW130500   4.316   1.356   2.052
 9867SOL    HW230501   4.299   1.340   1.891
 9868SOL     OW30502   2.467   4.913   3.609
 9868SOL    HW130503   2.509   4.895   3.698
 9868SOL    HW230504   2.384   4.858   3.600
 9869SOL     OW30505   0.333   2.139   1.337
 9869SOL    HW130506   0.300   2.151   1.431
 9869SOL    HW230507   0.360   2.044   1.324
 9870SOL     OW30508   2.094   2.466   2.616
 9870SOL    HW130509   2.189   2.491   2.595
 9870SOL    HW230510   2.052   2.537   2.672
 9871SOL     OW30511   5.861   5.718   3.088
 9871SOL    HW130512   5.797   5.737   3.014
 9871SOL    HW230513   5.827   5.759   3.173
 9872SOL     OW30514   0.694   5.350   5.633
 9872SOL    HW130515   0.638   5.275   5.597
 9872SOL    HW230516   0.651   5.386   5.716
 9873SOL     OW30517   1.055   1.336   5.374
 9873SOL    HW130518   0.966   1.368   5.341
 9873SOL    HW230519   1.123   1.409   5.365
 9874SOL     OW30520   0.658   2.070   3.934
 9874SOL    HW130521   0.744   2.114   3.906
 9874SOL    HW230522   0.582   2.115   3.887
 9875SOL     OW30523   6.337   6.177   0.703
 9875SOL    HW130524   6.336   6.077   0.704
 9875SOL    HW230525   6.249   6.211   0.738
 9876SOL     OW30526   6.864   6.814   3.625
 9876SOL    HW130527   6.802   6.789   3.699
 9876SOL    HW230528   6.896   6.732   3.578
 9877SOL     OW30529   0.638   6.103   5.142
 9877SOL    HW130530   0.631   6.169   5.066
 9877SOL    HW230531   0.720   6.047   5.129
 9878SOL     OW30532   3.272   2.906   6.819
 9878SOL    HW130533   3.345   2.851   6.861
 9878SOL    HW230534   3.198   2.846   6.789
 9879SOL     OW30535   6.691   5.432   5.432
 9879SOL    HW130536   6.680   5.493   5.510
 9879SOL    HW230537   6.761   5.364   5.453
 9880SOL     OW30538   2.652   0.950   1.080
 9880SOL    HW130539   2.675   0.875   1.142
 9880SOL    HW230540   2.575   0.924   1.023
 9881SOL     OW30541   6.079   0.747   3.077
 9881SOL    HW130542   6.144   0.818   3.048
 9881SOL    HW230543   5.988   0.786   3.084
 9882SOL     OW30544   3.580   3.217   4.542
 9882SOL    HW130545   3.547   3.214   4.637
 9882SOL    HW230546   3.510   3.256   4.483
 9883SOL     OW30547   2.135   6.285   2.513
 9883SOL    HW130548   2.132   6.192   2.549
 9883SOL    HW230549   2.098   6.348   2.582
 9884SOL     OW30550   3.371   2.725   5.654
 9884SOL    HW130551   3.332   2.635   5.674
 9884SOL    HW230552   3.330   2.761   5.570
 9885SOL     OW30553   4.790   2.339   5.405
 9885SOL    HW130554   4.797   2.306   5.499
 9885SOL    HW230555   4.714   2.403   5.397
 9886SOL     OW30556   3.364   5.923   1.090
 9886SOL    HW130557   3.419   5.983   1.149
 9886SOL    HW230558   3.269   5.953   1.092
 9887SOL     OW30559   2.963   1.774   0.363
 9887SOL    HW130560   2.889   1.778   0.430
 9887SOL    HW230561   2.931   1.725   0.281
 9888SOL     OW30562   6.397   6.584   3.890
 9888SOL    HW130563   6.418   6.560   3.795
 9888SOL    HW230564   6.475   6.560   3.949
 9889SOL     OW30565   0.138   5.280   2.451
 9889SOL    HW130566   0.058   5.297   2.509
 9889SOL    HW230567   0.117   5.310   2.358
 9890SOL     OW30568   0.828   3.360   2.524
 9890SOL    HW130569   0.749   3.298   2.532
 9890SOL    HW230570   0.848   3.401   2.613
 9891SOL     OW30571   4.892   6.774   1.807
 9891SOL    HW130572   4.820   6.715   1.769
 9891SOL    HW230573   4.917   6.844   1.740
 9892SOL     OW30574   1.709   5.670   3.830
 9892SOL    HW130575   1.726   5.747   3.770
 9892SOL    HW230576   1.613   5.671   3.859
 9893SOL     OW30577   5.977   4.656   4.657
 9893SOL    HW130578   5.924   4.679   4.575
 9893SOL    HW230579   6.016   4.564   4.646
 9894SOL     OW30580   4.481   3.717   5.330
 9894SOL    HW130581   4.509   3.687   5.422
 9894SOL    HW230582   4.550   3.687   5.264
 9895SOL     OW30583   5.503   1.790   6.470
 9895SOL    HW130584   5.506   1.754   6.377
 9895SOL    HW230585   5.528   1.887   6.469
 9896SOL     OW30586   3.742   3.516   0.034
 9896SOL    HW130587   3.823   3.553   0.078
 9896SOL    HW230588   3.669   3.507   0.102
 9897SOL     OW30589   0.123   0.814   3.229
 9897SOL    HW130590   0.182   0.774   3.299
 9897SOL    HW230591   0.087   0.902   3.261
 9898SOL     OW30592   1.535   4.708   6.643
 9898SOL    HW130593   1.504   4.695   6.549
 9898SOL    HW230594   1.473   4.771   6.690
 9899SOL     OW30595   4.794   4.770   2.791
 9899SOL    HW130596   4.793   4.862   2.832
 9899SOL    HW230597   4.806   4.702   2.864
 9900SOL     OW30598   1.919   4.441   4.088
 9900SOL    HW130599   1.919   4.394   4.176
 9900SOL    HW230600   1.902   4.538   4.102
 9901SOL     OW30601   2.384   1.807   6.096
 9901SOL    HW130602   2.359   1.841   6.005
 9901SOL    HW230603   2.325   1.850   6.165
 9902SOL     OW30604   4.535   3.700   6.689
 9902SOL    HW130605   4.565   3.613   6.730
 9902SOL    HW230606   4.512   3.685   6.593
 9903SOL     OW30607   3.580   1.640   1.616
 9903SOL    HW130608   3.499   1.590   1.588
 9903SOL    HW230609   3.613   1.695   1.539
 9904SOL     OW30610   0.493   0.303   1.976
 9904SOL    HW130611   0.486   0.270   2.070
 9904SOL    HW230612   0.493   0.226   1.913
 9905SOL     OW30613   1.629   6.676   5.934
 9905SOL    HW130614   1.690   6.660   5.856
 9905SOL    HW230615   1.574   6.594   5.951
 9906SOL     OW30616   3.563   4.091   5.837
 9906SOL    HW130617   3.548   3.997   5.807
 9906SOL    HW230618   3.624   4.091   5.916
 9907SOL     OW30619   1.358   6.642   2.809
 9907SOL    HW130620   1.335   6.558   2.760
 9907SOL    HW230621   1.450   6.633   2.849
 9908SOL     OW30622   6.554   3.692   5.179
 9908SOL    HW130623   6.590   3.662   5.267
 9908SOL    HW230624   6.455   3.680   5.177
 9909SOL     OW30625   3.735   6.655   2.265
 9909SOL    HW130626   3.664   6.618   2.206
 9909SOL    HW230627   3.717   6.628   2.360
 9910SOL     OW30628   0.876   4.530   0.823
 9910SOL    HW130629   0.845   4.493   0.735
 9910SOL    HW230630   0.796   4.553   0.879
 9911SOL     OW30631   3.727   5.237   3.231
 9911SOL    HW130632   3.827   5.223   3.233
 9911SOL    HW230633   3.700   5.267   3.140
 9912SOL     OW30634   4.154   6.896   1.007
 9912SOL    HW130635   4.165   6.955   1.086
 9912SOL    HW230636   4.129   6.951   0.927
 9913SOL     OW30637   4.480   2.451   2.700
 9913SOL    HW130638   4.418   2.474   2.775
 9913SOL    HW230639   4.550   2.522   2.693
 9914SOL     OW30640   2.122   5.438   4.893
 9914SOL    HW130641   2.032   5.398   4.875
 9914SOL    HW230642   2.184   5.367   4.927
 9915SOL     OW30643   5.970   3.673   4.010
 9915SOL    HW130644   5.927   3.752   3.966
 9915SOL    HW230645   5.927   3.656   4.099
 9916SOL     OW30646   2.584   3.354   0.707
 9916SOL    HW130647   2.555   3.294   0.633
 9916SOL    HW230648   2.623   3.438   0.669
 9917SOL     OW30649   2.181   2.992   4.850
 9917SOL    HW130650   2.255   2.998   4.917
 9917SOL    HW230651   2.164   2.896   4.827
 9918SOL     OW30652   2.673   0.723   4.758
 9918SOL    HW130653   2.603   0.792   4.740
 9918SOL    HW230654   2.762   0.767   4.770
 9919SOL     OW30655   0.799   5.526   2.301
 9919SOL    HW130656   0.739   5.589   2.253
 9919SOL    HW230657   0.798   5.437   2.256
 9920SOL     OW30658   4.213   6.620   2.700
 9920SOL    HW130659   4.302   6.624   2.746
 9920SOL    HW230660   4.226   6.599   2.604
 9921SOL     OW30661   5.406   0.096   2.927
 9921SOL    HW130662   5.491   0.075   2.878
 9921SOL    HW230663   5.329   0.097   2.863
 9922SOL     OW30664   5.248   3.076   1.853
 9922SOL    HW130665   5.224   2.983   1.883
 9922SOL    HW230666   5.261   3.134   1.934
 9923SOL     OW30667   6.431   0.719   6.479
 9923SOL    HW130668   6.431   0.619   6.482
 9923SOL    HW230669   6.380   0.750   6.399
 9924SOL     OW30670   5.137   0.930   3.986
 9924SOL    HW130671   5.170   0.888   4.070
 9924SOL    HW230672   5.073   0.868   3.940
 9925SOL     OW30673   3.726   2.144   4.579
 9925SOL    HW130674   3.730   2.183   4.671
 9925SOL    HW230675   3.637   2.103   4.565
 9926SOL     OW30676   1.437   0.667   5.817
 9926SOL    HW130677   1.390   0.679   5.730
 9926SOL    HW230678   1.370   0.674   5.892
 9927SOL     OW30679   1.116   3.174   2.663
 9927SOL    HW130680   1.211   3.153   2.642
 9927SOL    HW230681   1.076   3.099   2.716
 9928SOL     OW30682   0.076   2.922   2.354
 9928SOL    HW130683   0.066   2.869   2.439
 9928SOL    HW230684   0.140   2.875   2.293
 9929SOL     OW30685   0.628   4.521   5.650
 9929SOL    HW130686   0.554   4.485   5.592
 9929SOL    HW230687   0.641   4.618   5.631
 9930SOL     OW30688   6.844   5.613   6.820
 9930SOL    HW130689   6.830   5.677   6.896
 9930SOL    HW230690   6.932   5.632   6.777
 9931SOL     OW30691   2.708   5.160   6.754
 9931SOL    HW130692   2.801   5.134   6.728
 9931SOL    HW230693   2.665   5.207   6.677
 9932SOL     OW30694   2.437   2.495   1.210
 9932SOL    HW130695   2.525   2.540   1.199
 9932SOL    HW230696   2.402   2.510   1.303
 9933SOL     OW30697   0.634   1.894   2.511
 9933SOL    HW130698   0.681   1.953   2.577
 9933SOL    HW230699   0.648   1.798   2.537
 9934SOL     OW30700   5.130   0.493   6.386
 9934SOL    HW130701   5.170   0.542   6.462
 9934SOL    HW230702   5.195   0.487   6.311
 9935SOL     OW30703   2.732   2.610   0.903
 9935SOL    HW130704   2.719   2.555   0.821
 9935SOL    HW230705   2.643   2.642   0.936
 9936SOL     OW30706   5.225   0.029   6.266
 9936SOL    HW130707   5.255   0.071   6.180
 9936SOL    HW230708   5.259   6.957   6.271
 9937SOL     OW30709   1.593   6.594   3.738
 9937SOL    HW130710   1.569   6.649   3.658
 9937SOL    HW230711   1.616   6.501   3.710
 9938SOL     OW30712   0.109   1.092   3.289
 9938SOL    HW130713   0.105   1.101   3.190
 9938SOL    HW230714   0.204   1.102   3.320
 9939SOL     OW30715   2.651   4.110   1.686
 9939SOL    HW130716   2.715   4.036   1.663
 9939SOL    HW230717   2.702   4.188   1.720
 9940SOL     OW30718   6.674   0.813   3.156
 9940SOL    HW130719   6.754   0.862   3.123
 9940SOL    HW230720   6.702   0.727   3.200
 9941SOL     OW30721   5.681   3.888   0.967
 9941SOL    HW130722   5.621   3.825   1.017
 9941SOL    HW230723   5.728   3.947   1.032
 9942SOL     OW30724   6.145   6.041   3.021
 9942SOL    HW130725   6.091   6.014   2.940
 9942SOL    HW230726   6.218   6.103   2.992
 9943SOL     OW30727   1.914   3.983   5.380
 9943SOL    HW130728   1.922   3.888   5.350
 9943SOL    HW230729   2.005   4.020   5.398
 9944SOL     OW30730   2.034   5.883   6.706
 9944SOL    HW130731   1.967   5.901   6.634
 9944SOL    HW230732   1.988   5.880   6.794
 9945SOL     OW30733   6.845   3.503   6.880
 9945SOL    HW130734   6.831   3.455   6.967
 9945SOL    HW230735   6.788   3.586   6.879
 9946SOL     OW30736   4.947   2.359   1.908
 9946SOL    HW130737   4.847   2.360   1.905
 9946SOL    HW230738   4.982   2.386   1.819
 9947SOL     OW30739   1.146   1.539   2.447
 9947SOL    HW130740   1.227   1.556   2.504
 9947SOL    HW230741   1.064   1.560   2.500
 9948SOL     OW30742   6.095   0.560   5.099
 9948SOL    HW130743   6.193   0.554   5.080
 9948SOL    HW230744   6.075   0.649   5.140
 9949SOL     OW30745   6.671   3.784   3.422
 9949SOL    HW130746   6.644   3.693   3.390
 9949SOL    HW230747   6.770   3.793   3.417
 9950SOL     OW30748   4.111   4.266   5.533
 9950SOL    HW130749   4.117   4.282   5.434
 9950SOL    HW230750   4.202   4.240   5.568
 9951SOL     OW30751   7.007   2.023   2.936
 9951SOL    HW130752   0.006   1.937   2.888
 9951SOL    HW230753   0.010   2.100   2.878
 9952SOL     OW30754   1.492   4.502   1.289
 9952SOL    HW130755   1.523   4.409   1.268
 9952SOL    HW230756   1.474   4.551   1.204
 9953SOL     OW30757   6.380   4.105   3.708
 9953SOL    HW130758   6.347   4.186   3.756
 9953SOL    HW230759   6.340   4.023   3.751
 9954SOL     OW30760   3.713   1.331   1.289
 9954SOL    HW130761   3.707   1.430   1.288
 9954SOL    HW230762   3.795   1.302   1.240
 9955SOL     OW30763   5.729   5.332   1.410
 9955SOL    HW130764   5.730   5.250   1.468
 9955SOL    HW230765   5.645   5.383   1.426
 9956SOL     OW30766   1.777   3.441   3.013
 9956SOL    HW130767   1.740   3.524   3.055
 9956SOL    HW230768   1.802   3.375   3.084
 9957SOL     OW30769   5.594   0.466   0.248
 9957SOL    HW130770   5.572   0.555   0.289
 9957SOL    HW230771   5.671   0.425   0.297
 9958SOL     OW30772   6.007   5.593   6.849
 9958SOL    HW130773   6.052   5.534   6.782
 9958SOL    HW230774   5.959   5.537   6.916
 9959SOL     OW30775   5.918   4.706   0.251
 9959SOL    HW130776   5.825   4.691   0.219
 9959SOL    HW230777   5.942   4.636   0.319
 9960SOL     OW30778   6.303   0.383   0.103
 9960SOL    HW130779   6.233   0.407   0.170
 9960SOL    HW230780   6.376   0.332   0.149
 9961SOL     OW30781   3.373   5.590   0.720
 9961SOL    HW130782   3.399   5.678   0.761
 9961SOL    HW230783   3.455   5.534   0.707
 9962SOL     OW30784   3.155   0.854   1.040
 9962SOL    HW130785   3.196   0.929   1.092
 9962SOL    HW230786   3.106   0.793   1.103
 9963SOL     OW30787   1.029   0.284   6.506
 9963SOL    HW130788   0.988   0.210   6.559
 9963SOL    HW230789   0.960   0.352   6.484
 9964SOL     OW30790   4.493   5.100   5.457
 9964SOL    HW130791   4.526   5.008   5.477
 9964SOL    HW230792   4.400   5.095   5.422
 9965SOL     OW30793   2.796   5.008   4.131
 9965SOL    HW130794   2.826   5.023   4.036
 9965SOL    HW230795   2.858   4.943   4.175
 9966SOL     OW30796   3.677   5.611   3.033
 9966SOL    HW130797   3.663   5.709   3.043
 9966SOL    HW230798   3.649   5.565   3.118
 9967SOL     OW30799   0.187   0.454   3.300
 9967SOL    HW130800   0.223   0.361   3.305
 9967SOL    HW230801   0.168   0.477   3.204
 9968SOL     OW30802   4.553   6.920   0.379
 9968SOL    HW130803   4.500   6.835   0.374
 9968SOL    HW230804   4.598   6.936   0.291
 9969SOL     OW30805   0.378   6.065   3.559
 9969SOL    HW130806   0.359   5.978   3.604
 9969SOL    HW230807   0.422   6.049   3.471
 9970SOL     OW30808   6.310   3.335   2.264
 9970SOL    HW130809   6.388   3.344   2.325
 9970SOL    HW230810   6.247   3.411   2.279
 9971SOL     OW30811   0.307   5.296   4.607
 9971SOL    HW130812   0.329   5.325   4.514
 9971SOL    HW230813   0.296   5.197   4.609
 9972SOL     OW30814   2.669   4.542   6.012
 9972SOL    HW130815   2.582   4.501   6.039
 9972SOL    HW230816   2.699   4.503   5.925
 9973SOL     OW30817   2.787   1.652   3.564
 9973SOL    HW130818   2.760   1.705   3.644
 9973SOL    HW230819   2.887   1.648   3.557
 9974SOL     OW30820   1.650   2.676   3.019
 9974SOL    HW130821   1.625   2.773   3.017
 9974SOL    HW230822   1.618   2.632   2.935
 9975SOL     OW30823   2.564   4.371   6.491
 9975SOL    HW130824   2.566   4.460   6.446
 9975SOL    HW230825   2.657   4.337   6.502
 9976SOL     OW30826   4.331   5.899   5.160
 9976SOL    HW130827   4.334   5.980   5.102
 9976SOL    HW230828   4.344   5.817   5.104
 9977SOL     OW30829   4.084   0.609   5.422
 9977SOL    HW130830   3.995   0.568   5.439
 9977SOL    HW230831   4.155   0.539   5.432
 9978SOL     OW30832   0.685   2.543   0.304
 9978SOL    HW130833   0.726   2.529   0.394
 9978SOL    HW230834   0.606   2.483   0.294
 9979SOL     OW30835   3.296   4.172   4.692
 9979SOL    HW130836   3.305   4.265   4.727
 9979SOL    HW230837   3.249   4.115   4.760
 9980SOL     OW30838   1.426   1.125   0.801
 9980SOL    HW130839   1.479   1.063   0.743
 9980SOL    HW230840   1.485   1.161   0.873
 9981SOL     OW30841   5.722   1.419   0.482
 9981SOL    HW130842   5.803   1.361   0.478
 9981SOL    HW230843   5.680   1.423   0.391
 9982SOL     OW30844   2.285   2.274   4.648
 9982SOL    HW130845   2.363   2.322   4.687
 9982SOL    HW230846   2.207   2.281   4.711
 9983SOL     OW30847   1.072   3.734   2.292
 9983SOL    HW130848   1.114   3.648   2.320
 9983SOL    HW230849   1.082   3.801   2.366
 9984SOL     OW30850   0.255   5.101   0.779
 9984SOL    HW130851   0.208   5.088   0.866
 9984SOL    HW230852   0.345   5.058   0.784
 9985SOL     OW30853   4.903   4.276   6.894
 9985SOL    HW130854   4.866   4.284   6.987
 9985SOL    HW230855   4.933   4.366   6.862
 9986SOL     OW30856   5.695   4.943   0.405
 9986SOL    HW130857   5.724   5.018   0.345
 9986SOL    HW230858   5.695   4.857   0.353
 9987SOL     OW30859   5.600   1.919   1.107
 9987SOL    HW130860   5.578   1.868   1.190
 9987SOL    HW230861   5.563   2.012   1.113
 9988SOL     OW30862   6.119   0.109   3.682
 9988SOL    HW130863   6.171   0.024   3.694
 9988SOL    HW230864   6.022   0.091   3.696
 9989SOL     OW30865   6.731   5.892   2.055
 9989SOL    HW130866   6.824   5.879   2.022
 9989SOL    HW230867   6.717   5.837   2.137
 9990SOL     OW30868   6.883   0.231   3.384
 9990SOL    HW130869   6.811   0.256   3.450
 9990SOL    HW230870   6.900   0.133   3.390
 9991SOL     OW30871   2.224   4.494   2.451
 9991SOL    HW130872   2.275   4.533   2.375
 9991SOL    HW230873   2.126   4.495   2.430
 9992SOL     OW30874   2.730   5.260   0.273
 9992SOL    HW130875   2.702   5.241   0.179
 9992SOL    HW230876   2.658   5.231   0.336
 9993SOL     OW30877   3.836   0.248   5.106
 9993SOL    HW130878   3.931   0.234   5.079
 9993SOL    HW230879   3.817   0.346   5.110
 9994SOL     OW30880   6.022   4.886   5.183
 9994SOL    HW130881   6.097   4.950   5.172
 9994SOL    HW230882   5.935   4.935   5.185
 9995SOL     OW30883   3.924   1.880   6.234
 9995SOL    HW130884   3.852   1.813   6.214
 9995SOL    HW230885   3.922   1.953   6.165
 9996SOL     OW30886   3.099   4.570   0.835
 9996SOL    HW130887   3.056   4.597   0.749
 9996SOL    HW230888   3.035   4.514   0.888
 9997SOL     OW30889   6.752   1.993   3.115
 9997SOL    HW130890   6.834   1.988   3.057
 9997SOL    HW230891   6.674   1.953   3.067
 9998SOL     OW30892   5.044   4.045   2.272
 9998SOL    HW130893   4.949   4.023   2.294
 9998SOL    HW230894   5.096   3.960   2.260
 9999SOL     OW30895   0.735   6.973   4.957
 9999SOL    HW130896   0.758   0.014   5.032
 9999SOL    HW230897   0.738   6.879   4.989
10000SOL     OW30898   4.534   2.088   1.514
10000SOL    HW130899   4.522   2.184   1.538
10000SOL    HW230900   4.576   2.040   1.592
10001SOL     OW30901   3.942   6.215   1.424
10001SOL    HW130902   3.924   6.189   1.329
10001SOL    HW230903   3.881   6.290   1.451
10002SOL     OW30904   2.545   0.195   2.062
10002SOL    HW130905   2.617   0.201   2.131
10002SOL    HW230906   2.539   0.282   2.012
10003SOL     OW30907   1.138   1.230   2.616
10003SOL    HW130908   1.131   1.146   2.564
10003SOL    HW230909   1.234   1.258   2.622
10004SOL     OW30910   0.410   4.680   4.194
10004SOL    HW130911   0.488   4.661   4.135
10004SOL    HW230912   0.442   4.726   4.277
10005SOL     OW30913   2.628   5.598   3.515
10005SOL    HW130914   2.546   5.651   3.536
10005SOL    HW230915   2.601   5.511   3.472
10006SOL     OW30916   5.377   1.127   5.330
10006SOL    HW130917   5.278   1.132   5.335
10006SOL    HW230918   5.413   1.098   5.419
10007SOL     OW30919   0.962   5.305   3.920
10007SOL    HW130920   0.877   5.309   3.973
10007SOL    HW230921   1.014   5.223   3.946
10008SOL     OW30922   3.788   1.229   6.086
10008SOL    HW130923   3.710   1.245   6.146
10008SOL    HW230924   3.863   1.191   6.140
10009SOL     OW30925   0.732   4.471   2.266
10009SOL    HW130926   0.735   4.566   2.297
10009SOL    HW230927   0.707   4.470   2.169
10010SOL     OW30928   2.187   4.153   1.260
10010SOL    HW130929   2.172   4.054   1.261
10010SOL    HW230930   2.241   4.179   1.340
10011SOL     OW30931   2.304   2.872   6.922
10011SOL    HW130932   2.327   2.834   7.012
10011SOL    HW230933   2.388   2.895   6.874
10012SOL     OW30934   5.713   1.915   3.038
10012SOL    HW130935   5.674   1.828   3.010
10012SOL    HW230936   5.646   1.988   3.022
10013SOL     OW30937   0.823   6.345   4.516
10013SOL    HW130938   0.903   6.290   4.539
10013SOL    HW230939   0.841   6.397   4.433
10014SOL     OW30940   0.727   0.991   2.544
10014SOL    HW130941   0.739   0.930   2.466
10014SOL    HW230942   0.699   1.082   2.512
10015SOL     OW30943   4.029   6.118   6.220
10015SOL    HW130944   3.941   6.093   6.180
10015SOL    HW230945   4.015   6.191   6.286
10016SOL     OW30946   2.184   0.962   4.167
10016SOL    HW130947   2.103   0.963   4.109
10016SOL    HW230948   2.245   1.037   4.138
10017SOL     OW30949   2.911   2.108   2.696
10017SOL    HW130950   2.858   2.181   2.653
10017SOL    HW230951   2.946   2.046   2.626
10018SOL     OW30952   0.002   3.934   4.918
10018SOL    HW130953   6.929   3.930   4.885
10018SOL    HW230954   0.065   3.943   4.840
10019SOL     OW30955   0.441   2.066   1.669
10019SOL    HW130956   0.527   2.093   1.711
10019SOL    HW230957   0.392   2.147   1.637
10020SOL     OW30958   6.359   1.288   1.801
10020SOL    HW130959   6.320   1.288   1.893
10020SOL    HW230960   6.288   1.316   1.736
10021SOL     OW30961   0.751   3.177   2.119
10021SOL    HW130962   0.725   3.230   2.038
10021SOL    HW230963   0.824   3.225   2.168
10022SOL     OW30964   1.748   5.500   6.057
10022SOL    HW130965   1.651   5.494   6.079
10022SOL    HW230966   1.762   5.574   5.991
10023SOL     OW30967   0.778   0.924   5.714
10023SOL    HW130968   0.841   0.980   5.660
10023SOL    HW230969   0.778   0.957   5.809
10024SOL     OW30970   1.186   4.745   2.503
10024SOL    HW130971   1.214   4.840   2.487
10024SOL    HW230972   1.101   4.744   2.555
10025SOL     OW30973   1.437   3.802   0.716
10025SOL    HW130974   1.372   3.725   0.718
10025SOL    HW230975   1.482   3.809   0.806
10026SOL     OW30976   5.775   1.650   5.119
10026SOL    HW130977   5.743   1.739   5.153
10026SOL    HW230978   5.811   1.660   5.027
10027SOL     OW30979   3.235   1.783   5.440
10027SOL    HW130980   3.223   1.882   5.432
10027SOL    HW230981   3.224   1.741   5.350
10028SOL     OW30982   4.618   6.971   1.591
10028SOL    HW130983   4.554   7.013   1.655
10028SOL    HW230984   4.645   6.881   1.625
10029SOL     OW30985   0.114   4.218   4.598
10029SOL    HW130986   0.172   4.259   4.527
10029SOL    HW230987   0.018   4.233   4.576
10030SOL     OW30988   2.332   0.344   4.453
10030SOL    HW130989   2.372   0.256   4.480
10030SOL    HW230990   2.385   0.419   4.494
10031SOL     OW30991   2.626   5.806   2.511
10031SOL    HW130992   2.621   5.711   2.541
10031SOL    HW230993   2.695   5.814   2.439
10032SOL     OW30994   3.054   6.369   4.625
10032SOL    HW130995   3.045   6.443   4.559
10032SOL    HW230996   2.966   6.353   4.670
10033SOL     OW30997   3.556   1.422   4.576
10033SOL    HW130998   3.576   1.334   4.533
10033SOL    HW230999   3.461   1.446   4.560
10034SOL     OW31000   2.659   0.852   3.192
10034SOL    HW131001   2.607   0.914   3.133
10034SOL    HW231002   2.746   0.894   3.216
10035SOL     OW31003   6.597   2.731   2.790
10035SOL    HW131004   6.649   2.778   2.719
10035SOL    HW231005   6.658   2.703   2.864
10036SOL     OW31006   0.929   0.955   7.013
10036SOL    HW131007   0.950   1.034   6.955
10036SOL    HW231008   1.014   0.911   0.020
10037SOL     OW31009   5.770   6.799   6.568
10037SOL    HW131010   5.672   6.813   6.561
10037SOL    HW231011   5.809   6.865   6.633
10038SOL     OW31012   4.584   6.290   6.327
10038SOL    HW131013   4.626   6.362   6.381
10038SOL    HW231014   4.641   6.208   6.330
10039SOL     OW31015   0.564   5.852   2.480
10039SOL    HW131016   0.575   5.932   2.538
10039SOL    HW231017   0.633   5.783   2.504
10040SOL     OW31018   2.864   6.979   0.901
10040SOL    HW131019   2.792   6.972   0.970
10040SOL    HW231020   2.823   7.002   0.812
10041SOL     OW31021   6.301   5.660   5.096
10041SOL    HW131022   6.380   5.605   5.121
10041SOL    HW231023   6.257   5.619   5.015
10042SOL     OW31024   0.036   0.680   5.177
10042SOL    HW131025   0.057   0.756   5.239
10042SOL    HW231026   6.997   0.712   5.104
10043SOL     OW31027   0.555   0.666   3.424
10043SOL    HW131028   0.542   0.595   3.492
10043SOL    HW231029   0.651   0.696   3.424
10044SOL     OW31030   2.489   1.504   6.663
10044SOL    HW131031   2.532   1.582   6.709
10044SOL    HW231032   2.479   1.524   6.566
10045SOL     OW31033   3.903   6.819   5.058
10045SOL    HW131034   3.886   6.811   5.157
10045SOL    HW231035   3.818   6.844   5.012
10046SOL     OW31036   6.898   2.343   1.195
10046SOL    HW131037   6.966   2.276   1.166
10046SOL    HW231038   6.919   2.373   1.289
10047SOL     OW31039   0.477   1.499   3.380
10047SOL    HW131040   0.572   1.531   3.389
10047SOL    HW231041   0.424   1.530   3.458
10048SOL     OW31042   3.685   2.614   1.730
10048SOL    HW131043   3.592   2.629   1.696
10048SOL    HW231044   3.695   2.519   1.759
10049SOL     OW31045   1.707   6.854   4.084
10049SOL    HW131046   1.661   6.866   3.996
10049SOL    HW231047   1.804   6.876   4.074
10050SOL     OW31048   5.322   1.871   4.269
10050SOL    HW131049   5.343   1.773   4.271
10050SOL    HW231050   5.405   1.923   4.245
10051SOL     OW31051   6.160   2.688   6.342
10051SOL    HW131052   6.226   2.764   6.336
10051SOL    HW231053   6.167   2.632   6.259
10052SOL     OW31054   0.979   4.003   1.617
10052SOL    HW131055   0.970   3.978   1.714
10052SOL    HW231056   1.050   4.073   1.608
10053SOL     OW31057   3.157   6.299   3.834
10053SOL    HW131058   3.107   6.230   3.782
10053SOL    HW231059   3.251   6.305   3.799
10054SOL     OW31060   3.825   5.694   4.101
10054SOL    HW131061   3.848   5.712   4.196
10054SOL    HW231062   3.757   5.760   4.070
10055SOL     OW31063   6.654   3.221   6.191
10055SOL    HW131064   6.701   3.240   6.277
10055SOL    HW231065   6.713   3.249   6.115
10056SOL     OW31066   6.673   5.106   1.879
10056SOL    HW131067   6.696   5.035   1.946
10056SOL    HW231068   6.624   5.180   1.925
10057SOL     OW31069   2.530   2.438   3.782
10057SOL    HW131070   2.590   2.444   3.703
10057SOL    HW231071   2.553   2.356   3.835
10058SOL     OW31072   0.598   5.121   3.563
10058SOL    HW131073   0.666   5.126   3.636
10058SOL    HW231074   0.644   5.119   3.474
10059SOL     OW31075   5.302   7.013   1.193
10059SOL    HW131076   5.334   0.025   1.282
10059SOL    HW231077   5.378   6.974   1.142
10060SOL     OW31078   2.171   3.065   1.979
10060SOL    HW131079   2.216   2.977   1.968
10060SOL    HW231080   2.134   3.073   2.071
10061SOL     OW31081   6.298   1.975   4.870
10061SOL    HW131082   6.372   1.919   4.832
10061SOL    HW231083   6.282   1.949   4.965
10062SOL     OW31084   6.064   5.846   2.811
10062SOL    HW131085   5.978   5.829   2.764
10062SOL    HW231086   6.109   5.759   2.832
10063SOL     OW31087   0.641   3.179   2.643
10063SOL    HW131088   0.670   3.084   2.633
10063SOL    HW231089   0.612   3.195   2.737
10064SOL     OW31090   5.611   6.357   4.489
10064SOL    HW131091   5.597   6.299   4.569
10064SOL    HW231092   5.623   6.299   4.408
10065SOL     OW31093   1.033   6.344   3.231
10065SOL    HW131094   0.952   6.339   3.172
10065SOL    HW231095   1.027   6.273   3.301
10066SOL     OW31096   0.819   0.509   3.691
10066SOL    HW131097   0.744   0.564   3.726
10066SOL    HW231098   0.906   0.554   3.712
10067SOL     OW31099   3.899   5.714   3.409
10067SOL    HW131100   3.876   5.695   3.505
10067SOL    HW231101   3.822   5.688   3.351
10068SOL     OW31102   5.239   3.835   5.171
10068SOL    HW131103   5.233   3.889   5.086
10068SOL    HW231104   5.185   3.752   5.162
10069SOL     OW31105   3.478   0.943   3.549
10069SOL    HW131106   3.461   0.859   3.498
10069SOL    HW231107   3.464   1.022   3.489
10070SOL     OW31108   1.083   6.689   4.807
10070SOL    HW131109   1.174   6.647   4.804
10070SOL    HW231110   1.090   6.785   4.780
10071SOL     OW31111   5.484   5.998   5.100
10071SOL    HW131112   5.531   6.007   5.188
10071SOL    HW231113   5.551   6.002   5.026
10072SOL     OW31114   0.900   6.869   3.413
10072SOL    HW131115   0.928   6.946   3.471
10072SOL    HW231116   0.982   6.822   3.380
10073SOL     OW31117   0.137   5.681   6.372
10073SOL    HW131118   0.152   5.583   6.364
10073SOL    HW231119   0.126   5.721   6.280
10074SOL     OW31120   2.304   6.706   5.656
10074SOL    HW131121   2.229   6.700   5.722
10074SOL    HW231122   2.326   6.802   5.639
10075SOL     OW31123   1.677   2.340   3.959
10075SOL    HW131124   1.661   2.438   3.962
10075SOL    HW231125   1.701   2.307   4.051
10076SOL     OW31126   5.482   0.365   4.746
10076SOL    HW131127   5.428   0.405   4.820
10076SOL    HW231128   5.555   0.427   4.720
10077SOL     OW31129   3.872   1.421   6.688
10077SOL    HW131130   3.947   1.486   6.682
10077SOL    HW231131   3.817   1.441   6.770
10078SOL     OW31132   5.791   6.342   5.878
10078SOL    HW131133   5.720   6.413   5.877
10078SOL    HW231134   5.880   6.383   5.861
10079SOL     OW31135   0.062   4.504   0.055
10079SOL    HW131136   0.039   4.488   0.151
10079SOL    HW231137   0.127   4.434   0.024
10080SOL     OW31138   1.646   3.087   6.181
10080SOL    HW131139   1.609   3.179   6.198
10080SOL    HW231140   1.712   3.064   6.253
10081SOL     OW31141   7.014   0.466   6.546
10081SOL    HW131142   6.944   0.538   6.540
10081SOL    HW231143   6.992   0.393   6.482
10082SOL     OW31144   6.481   0.896   1.373
10082SOL    HW131145   6.394   0.883   1.326
10082SOL    HW231146   6.555   0.900   1.305
10083SOL     OW31147   4.922   1.002   4.276
10083SOL    HW131148   4.978   1.083   4.291
10083SOL    HW231149   4.854   0.994   4.350
10084SOL     OW31150   2.476   0.987   5.728
10084SOL    HW131151   2.538   1.065   5.732
10084SOL    HW231152   2.464   0.949   5.820
10085SOL     OW31153   0.740   5.299   2.914
10085SOL    HW131154   0.773   5.256   2.998
10085SOL    HW231155   0.642   5.317   2.922
10086SOL     OW31156   6.132   3.530   2.340
10086SOL    HW131157   6.076   3.473   2.399
10086SOL    HW231158   6.075   3.601   2.299
10087SOL     OW31159   1.292   0.131   3.996
10087SOL    HW131160   1.278   0.038   4.032
10087SOL    HW231161   1.381   0.135   3.951
10088SOL     OW31162   0.237   0.073   4.539
10088SOL    HW131163   0.209   7.012   4.586
10088SOL    HW231164   0.327   0.059   4.497
10089SOL     OW31165   1.215   3.224   2.345
10089SOL    HW131166   1.299   3.172   2.329
10089SOL    HW231167   1.171   3.191   2.429
10090SOL     OW31168   0.495   5.007   0.611
10090SOL    HW131169   0.561   4.968   0.675
10090SOL    HW231170   0.541   5.023   0.523
10091SOL     OW31171   0.607   2.632   3.979
10091SOL    HW131172   0.693   2.591   4.009
10091SOL    HW231173   0.620   2.730   3.962
10092SOL     OW31174   1.967   3.859   5.081
10092SOL    HW131175   1.997   3.954   5.087
10092SOL    HW231176   1.907   3.837   5.159
10093SOL     OW31177   6.829   4.925   6.404
10093SOL    HW131178   6.856   5.018   6.430
10093SOL    HW231179   6.855   4.861   6.476
10094SOL     OW31180   1.278   1.086   1.868
10094SOL    HW131181   1.220   1.147   1.922
10094SOL    HW231182   1.291   1.000   1.918
10095SOL     OW31183   6.807   0.854   6.031
10095SOL    HW131184   6.818   0.838   5.933
10095SOL    HW231185   6.875   0.801   6.081
10096SOL     OW31186   0.683   4.920   2.455
10096SOL    HW131187   0.646   5.012   2.450
10096SOL    HW231188   0.773   4.922   2.498
10097SOL     OW31189   1.255   1.814   6.739
10097SOL    HW131190   1.267   1.901   6.691
10097SOL    HW231191   1.190   1.826   6.814
10098SOL     OW31192   2.971   4.834   6.396
10098SOL    HW131193   2.972   4.781   6.311
10098SOL    HW231194   2.991   4.930   6.376
10099SOL     OW31195   6.696   4.701   4.732
10099SOL    HW131196   6.625   4.771   4.739
10099SOL    HW231197   6.697   4.663   4.639
10100SOL     OW31198   5.771   1.073   5.563
10100SOL    HW131199   5.779   1.162   5.517
10100SOL    HW231200   5.861   1.029   5.566
10101SOL     OW31201   0.301   4.416   1.835
10101SOL    HW131202   0.297   4.508   1.875
10101SOL    HW231203   0.395   4.396   1.807
10102SOL     OW31204   3.478   1.073   2.933
10102SOL    HW131205   3.555   1.136   2.930
10102SOL    HW231206   3.403   1.115   2.984
10103SOL     OW31207   2.640   1.833   6.938
10103SOL    HW131208   2.723   1.813   6.886
10103SOL    HW231209   2.600   1.919   6.906
10104SOL     OW31210   1.536   6.127   5.069
10104SOL    HW131211   1.537   6.176   5.156
10104SOL    HW231212   1.448   6.082   5.057
10105SOL     OW31213   2.392   0.713   6.163
10105SOL    HW131214   2.401   0.616   6.182
10105SOL    HW231215   2.407   0.766   6.247
10106SOL     OW31216   5.264   5.440   0.402
10106SOL    HW131217   5.226   5.416   0.492
10106SOL    HW231218   5.311   5.528   0.409
10107SOL     OW31219   5.694   1.254   5.795
10107SOL    HW131220   5.759   1.264   5.871
10107SOL    HW231221   5.723   1.179   5.736
10108SOL     OW31222   6.127   6.735   0.448
10108SOL    HW131223   6.113   6.799   0.372
10108SOL    HW231224   6.115   6.784   0.535
10109SOL     OW31225   4.848   5.598   3.115
10109SOL    HW131226   4.928   5.569   3.064
10109SOL    HW231227   4.874   5.672   3.178
10110SOL     OW31228   3.182   0.784   5.616
10110SOL    HW131229   3.246   0.711   5.593
10110SOL    HW231230   3.122   0.801   5.538
10111SOL     OW31231   0.458   2.469   3.057
10111SOL    HW131232   0.462   2.370   3.073
10111SOL    HW231233   0.406   2.512   3.131
10112SOL     OW31234   4.236   4.084   5.841
10112SOL    HW131235   4.251   3.985   5.845
10112SOL    HW231236   4.272   4.119   5.755
10113SOL     OW31237   3.594   6.232   6.805
10113SOL    HW131238   3.543   6.157   6.764
10113SOL    HW231239   3.593   6.311   6.743
10114SOL     OW31240   4.229   1.189   1.129
10114SOL    HW131241   4.223   1.119   1.058
10114SOL    HW231242   4.291   1.159   1.201
10115SOL     OW31243   1.504   2.250   3.765
10115SOL    HW131244   1.524   2.229   3.669
10115SOL    HW231245   1.589   2.272   3.812
10116SOL     OW31246   1.256   0.949   1.334
10116SOL    HW131247   1.246   0.980   1.429
10116SOL    HW231248   1.351   0.923   1.318
10117SOL     OW31249   4.905   0.597   5.818
10117SOL    HW131250   4.805   0.588   5.821
10117SOL    HW231251   4.939   0.620   5.909
10118SOL     OW31252   6.441   5.282   2.349
10118SOL    HW131253   6.359   5.226   2.358
10118SOL    HW231254   6.437   5.358   2.414
10119SOL     OW31255   2.524   0.375   5.645
10119SOL    HW131256   2.500   0.431   5.724
10119SOL    HW231257   2.623   0.357   5.645
10120SOL     OW31258   6.748   3.117   3.631
10120SOL    HW131259   6.732   3.067   3.716
10120SOL    HW231260   6.719   3.061   3.553
10121SOL     OW31261   6.832   4.933   4.797
10121SOL    HW131262   6.809   4.841   4.766
10121SOL    HW231263   6.804   4.944   4.892
10122SOL     OW31264   5.160   2.858   0.232
10122SOL    HW131265   5.179   2.868   0.330
10122SOL    HW231266   5.235   2.809   0.188
10123SOL     OW31267   0.245   6.904   0.186
10123SOL    HW131268   0.294   6.990   0.172
10123SOL    HW231269   0.307   6.827   0.170
10124SOL     OW31270   3.626   4.364   0.828
10124SOL    HW131271   3.604   4.406   0.740
10124SOL    HW231272   3.703   4.301   0.817
10125SOL     OW31273   1.718   6.748   1.634
10125SOL    HW131274   1.764   6.694   1.705
10125SOL    HW231275   1.619   6.743   1.647
10126SOL     OW31276   6.236   4.728   0.459
10126SOL    HW131277   6.261   4.738   0.362
10126SOL    HW231278   6.138   4.707   0.465
10127SOL     OW31279   3.707   4.810   5.260
10127SOL    HW131280   3.611   4.801   5.234
10127SOL    HW231281   3.716   4.875   5.335
10128SOL     OW31282   0.382   1.743   0.975
10128SOL    HW131283   0.385   1.792   1.062
10128SOL    HW231284   0.439   1.661   0.981
10129SOL     OW31285   5.472   2.390   2.950
10129SOL    HW131286   5.458   2.291   2.950
10129SOL    HW231287   5.445   2.427   3.038
10130SOL     OW31288   6.588   5.230   1.621
10130SOL    HW131289   6.503   5.230   1.568
10130SOL    HW231290   6.574   5.179   1.706
10131SOL     OW31291   0.047   0.898   0.760
10131SOL    HW131292   0.050   0.899   0.860
10131SOL    HW231293   0.121   0.953   0.723
10132SOL     OW31294   3.357   6.933   2.766
10132SOL    HW131295   3.440   6.907   2.717
10132SOL    HW231296   3.340   6.869   2.840
10133SOL     OW31297   5.190   5.736   3.326
10133SOL    HW131298   5.219   5.765   3.234
10133SOL    HW231299   5.263   5.756   3.391
10134SOL     OW31300   0.010   1.440   2.636
10134SOL    HW131301   6.977   1.520   2.660
10134SOL    HW231302   0.105   1.454   2.667
10135SOL     OW31303   4.150   5.324   3.270
10135SOL    HW131304   4.129   5.420   3.255
10135SOL    HW231305   4.118   5.270   3.191
10136SOL     OW31306   5.670   6.619   2.459
10136SOL    HW131307   5.718   6.702   2.486
10136SOL    HW231308   5.572   6.629   2.477
10137SOL     OW31309   5.879   4.904   3.982
10137SOL    HW131310   5.804   4.927   3.920
10137SOL    HW231311   5.901   4.984   4.039
10138SOL     OW31312   5.594   2.197   6.256
10138SOL    HW131313   5.601   2.137   6.336
10138SOL    HW231314   5.527   2.269   6.273
10139SOL     OW31315   4.108   3.256   3.408
10139SOL    HW131316   4.167   3.326   3.367
10139SOL    HW231317   4.077   3.286   3.498
10140SOL     OW31318   0.192   4.771   6.132
10140SOL    HW131319   0.107   4.764   6.186
10140SOL    HW231320   0.222   4.679   6.108
10141SOL     OW31321   1.783   0.841   3.741
10141SOL    HW131322   1.790   0.807   3.835
10141SOL    HW231323   1.733   0.775   3.685
10142SOL     OW31324   4.799   5.732   4.654
10142SOL    HW131325   4.894   5.756   4.632
10142SOL    HW231326   4.795   5.699   4.748
10143SOL     OW31327   5.102   6.890   1.458
10143SOL    HW131328   5.162   6.944   1.399
10143SOL    HW231329   5.108   6.794   1.434
10144SOL     OW31330   2.921   5.405   3.593
10144SOL    HW131331   2.885   5.496   3.573
10144SOL    HW231332   2.951   5.361   3.508
10145SOL     OW31333   3.365   6.116   5.942
10145SOL    HW131334   3.461   6.099   5.918
10145SOL    HW231335   3.310   6.121   5.859
10146SOL     OW31336   4.884   5.146   4.282
10146SOL    HW131337   4.897   5.192   4.194
10146SOL    HW231338   4.853   5.052   4.265
10147SOL     OW31339   5.280   5.254   4.897
10147SOL    HW131340   5.212   5.190   4.931
10147SOL    HW231341   5.355   5.262   4.963
10148SOL     OW31342   5.531   5.496   1.056
10148SOL    HW131343   5.472   5.471   1.132
10148SOL    HW231344   5.623   5.459   1.071
10149SOL     OW31345   4.297   2.608   0.836
10149SOL    HW131346   4.270   2.693   0.882
10149SOL    HW231347   4.336   2.629   0.747
10150SOL     OW31348   4.819   4.464   1.270
10150SOL    HW131349   4.764   4.470   1.352
10150SOL    HW231350   4.905   4.514   1.283
10151SOL     OW31351   1.591   0.089   5.559
10151SOL    HW131352   1.635   0.172   5.594
10151SOL    HW231353   1.612   0.013   5.619
10152SOL     OW31354   0.202   5.709   3.468
10152SOL    HW131355   0.197   5.765   3.551
10152SOL    HW231356   0.141   5.630   3.477
10153SOL     OW31357   5.415   6.684   4.174
10153SOL    HW131358   5.433   6.722   4.265
10153SOL    HW231359   5.344   6.738   4.129
10154SOL     OW31360   6.704   4.879   5.927
10154SOL    HW131361   6.677   4.912   6.017
10154SOL    HW231362   6.799   4.905   5.908
10155SOL     OW31363   3.556   1.334   6.493
10155SOL    HW131364   3.649   1.303   6.509
10155SOL    HW231365   3.548   1.430   6.519
10156SOL     OW31366   5.838   0.882   2.080
10156SOL    HW131367   5.906   0.810   2.070
10156SOL    HW231368   5.749   0.842   2.101
10157SOL     OW31369   5.445   0.753   6.017
10157SOL    HW131370   5.486   0.844   6.017
10157SOL    HW231371   5.501   0.691   6.072
10158SOL     OW31372   4.148   3.626   6.999
10158SOL    HW131373   4.213   3.606   0.051
10158SOL    HW231374   4.185   3.593   6.912
10159SOL     OW31375   1.332   1.562   5.927
10159SOL    HW131376   1.371   1.653   5.919
10159SOL    HW231377   1.378   1.500   5.862
10160SOL     OW31378   0.501   6.270   3.754
10160SOL    HW131379   0.427   6.208   3.730
10160SOL    HW231380   0.585   6.240   3.710
10161SOL     OW31381   2.978   5.603   5.902
10161SOL    HW131382   2.945   5.593   5.808
10161SOL    HW231383   2.929   5.540   5.962
10162SOL     OW31384   3.275   1.951   6.848
10162SOL    HW131385   3.339   1.967   6.922
10162SOL    HW231386   3.187   1.921   6.885
10163SOL     OW31387   5.990   3.180   5.608
10163SOL    HW131388   5.929   3.104   5.631
10163SOL    HW231389   6.047   3.202   5.687
10164SOL     OW31390   0.074   2.801   4.784
10164SOL    HW131391   0.140   2.871   4.811
10164SOL    HW231392   0.089   2.718   4.837
10165SOL     OW31393   0.127   1.767   3.502
10165SOL    HW131394   0.083   1.679   3.479
10165SOL    HW231395   0.066   1.842   3.477
10166SOL     OW31396   1.688   0.711   1.967
10166SOL    HW131397   1.749   0.645   1.923
10166SOL    HW231398   1.594   0.676   1.966
10167SOL     OW31399   4.838   0.207   0.387
10167SOL    HW131400   4.840   0.290   0.443
10167SOL    HW231401   4.756   0.208   0.329
10168SOL     OW31402   6.649   4.504   4.196
10168SOL    HW131403   6.674   4.411   4.221
10168SOL    HW231404   6.709   4.537   4.123
10169SOL     OW31405   6.242   3.996   4.092
10169SOL    HW131406   6.219   3.926   4.160
10169SOL    HW231407   6.221   4.087   4.129
10170SOL     OW31408   2.060   4.171   4.871
10170SOL    HW131409   2.142   4.180   4.816
10170SOL    HW231410   2.080   4.195   4.966
10171SOL     OW31411   5.761   4.240   5.978
10171SOL    HW131412   5.708   4.285   5.907
10171SOL    HW231413   5.843   4.200   5.939
10172SOL     OW31414   5.322   1.018   2.997
10172SOL    HW131415   5.239   0.962   2.988
10172SOL    HW231416   5.378   1.007   2.915
10173SOL     OW31417   2.160   1.587   2.196
10173SOL    HW131418   2.159   1.489   2.173
10173SOL    HW231419   2.244   1.628   2.160
10174SOL     OW31420   0.023   4.471   2.081
10174SOL    HW131421   6.958   4.425   2.104
10174SOL    HW231422   0.086   4.463   2.158
10175SOL     OW31423   6.082   2.616   5.833
10175SOL    HW131424   6.088   2.709   5.799
10175SOL    HW231425   6.128   2.554   5.770
10176SOL     OW31426   1.956   4.144   6.853
10176SOL    HW131427   2.019   4.207   6.898
10176SOL    HW231428   1.875   4.132   6.910
10177SOL     OW31429   2.005   6.753   6.912
10177SOL    HW131430   2.049   6.758   7.001
10177SOL    HW231431   1.980   6.658   6.892
10178SOL     OW31432   5.536   2.450   4.799
10178SOL    HW131433   5.464   2.430   4.866
10178SOL    HW231434   5.592   2.525   4.833
10179SOL     OW31435   1.212   3.259   6.559
10179SOL    HW131436   1.251   3.294   6.473
10179SOL    HW231437   1.277   3.194   6.600
10180SOL     OW31438   2.776   6.059   5.757
10180SOL    HW131439   2.689   6.032   5.715
10180SOL    HW231440   2.804   5.988   5.822
10181SOL     OW31441   5.566   3.479   1.404
10181SOL    HW131442   5.544   3.573   1.381
10181SOL    HW231443   5.645   3.449   1.351
10182SOL     OW31444   5.679   1.325   0.988
10182SOL    HW131445   5.666   1.226   0.988
10182SOL    HW231446   5.661   1.360   0.896
10183SOL     OW31447   1.583   1.639   6.551
10183SOL    HW131448   1.629   1.551   6.556
10183SOL    HW231449   1.492   1.630   6.593
10184SOL     OW31450   3.972   1.291   5.699
10184SOL    HW131451   4.022   1.219   5.651
10184SOL    HW231452   3.901   1.249   5.757
10185SOL     OW31453   5.181   6.685   0.968
10185SOL    HW131454   5.235   6.660   0.888
10185SOL    HW231455   5.124   6.607   0.996
10186SOL     OW31456   4.451   1.926   3.089
10186SOL    HW131457   4.431   1.948   3.184
10186SOL    HW231458   4.366   1.928   3.036
10187SOL     OW31459   0.671   2.040   1.397
10187SOL    HW131460   0.716   2.022   1.484
10187SOL    HW231461   0.635   1.954   1.359
10188SOL     OW31462   4.221   6.048   1.015
10188SOL    HW131463   4.135   6.060   0.965
10188SOL    HW231464   4.242   6.131   1.066
10189SOL     OW31465   1.324   6.738   5.431
10189SOL    HW131466   1.391   6.673   5.465
10189SOL    HW231467   1.276   6.699   5.353
10190SOL     OW31468   5.302   2.670   0.055
10190SOL    HW131469   5.205   2.656   0.036
10190SOL    HW231470   5.350   2.690   6.992
10191SOL     OW31471   6.290   4.274   0.397
10191SOL    HW131472   6.303   4.360   0.446
10191SOL    HW231473   6.281   4.292   0.299
10192SOL     OW31474   3.243   1.067   5.854
10192SOL    HW131475   3.216   1.161   5.878
10192SOL    HW231476   3.163   1.007   5.862
10193SOL     OW31477   4.940   3.742   0.365
10193SOL    HW131478   4.898   3.680   0.299
10193SOL    HW231479   4.927   3.706   0.458
10194SOL     OW31480   5.546   3.761   5.028
10194SOL    HW131481   5.573   3.669   4.998
10194SOL    HW231482   5.481   3.799   4.962
10195SOL     OW31483   6.836   4.278   1.730
10195SOL    HW131484   6.835   4.190   1.683
10195SOL    HW231485   6.928   4.318   1.723
10196SOL     OW31486   0.561   1.853   4.538
10196SOL    HW131487   0.572   1.869   4.440
10196SOL    HW231488   0.541   1.939   4.584
10197SOL     OW31489   5.827   0.671   5.865
10197SOL    HW131490   5.824   0.727   5.782
10197SOL    HW231491   5.756   0.601   5.860
10198SOL     OW31492   3.746   6.691   2.762
10198SOL    HW131493   3.685   6.770   2.752
10198SOL    HW231494   3.700   6.620   2.816
10199SOL     OW31495   1.433   2.390   5.265
10199SOL    HW131496   1.528   2.358   5.259
10199SOL    HW231497   1.432   2.485   5.295
10200SOL     OW31498   5.974   3.207   1.466
10200SOL    HW131499   5.952   3.159   1.551
10200SOL    HW231500   6.070   3.191   1.443
10201SOL     OW31501   1.239   3.086   0.638
10201SOL    HW131502   1.230   3.180   0.605
10201SOL    HW231503   1.335   3.057   0.634
10202SOL     OW31504   3.576   0.113   5.286
10202SOL    HW131505   3.581   0.089   5.383
10202SOL    HW231506   3.545   0.208   5.277
10203SOL     OW31507   6.551   2.389   4.646
10203SOL    HW131508   6.473   2.446   4.620
10203SOL    HW231509   6.518   2.308   4.693
10204SOL     OW31510   5.491   6.262   6.626
10204SOL    HW131511   5.537   6.224   6.707
10204SOL    HW231512   5.471   6.359   6.641
10205SOL     OW31513   0.724   0.860   6.337
10205SOL    HW131514   0.653   0.810   6.287
10205SOL    HW231515   0.745   0.944   6.288
10206SOL     OW31516   1.383   0.933   5.304
10206SOL    HW131517   1.346   0.857   5.251
10206SOL    HW231518   1.327   1.014   5.289
10207SOL     OW31519   1.554   1.836   5.146
10207SOL    HW131520   1.494   1.756   5.154
10207SOL    HW231521   1.499   1.919   5.142
10208SOL     OW31522   6.930   4.741   5.653
10208SOL    HW131523   0.008   4.751   5.641
10208SOL    HW231524   6.904   4.779   5.742
10209SOL     OW31525   6.670   6.593   6.071
10209SOL    HW131526   6.641   6.501   6.097
10209SOL    HW231527   6.734   6.587   5.994
10210SOL     OW31528   3.543   6.400   2.170
10210SOL    HW131529   3.547   6.430   2.075
10210SOL    HW231530   3.625   6.347   2.192
10211SOL     OW31531   5.086   6.020   5.524
10211SOL    HW131532   4.992   5.989   5.511
10211SOL    HW231533   5.134   6.019   5.436
10212SOL     OW31534   0.243   0.330   6.495
10212SOL    HW131535   0.171   0.391   6.525
10212SOL    HW231536   0.331   0.360   6.532
10213SOL     OW31537   5.936   1.684   0.882
10213SOL    HW131538   5.876   1.667   0.804
10213SOL    HW231539   5.999   1.608   0.893
10214SOL     OW31540   0.800   2.470   0.840
10214SOL    HW131541   0.785   2.405   0.915
10214SOL    HW231542   0.857   2.428   0.770
10215SOL     OW31543   3.013   3.314   2.031
10215SOL    HW131544   3.108   3.286   2.025
10215SOL    HW231545   3.000   3.375   2.109
10216SOL     OW31546   6.167   6.420   3.068
10216SOL    HW131547   6.188   6.353   3.139
10216SOL    HW231548   6.251   6.468   3.042
10217SOL     OW31549   3.363   0.815   3.976
10217SOL    HW131550   3.432   0.838   3.907
10217SOL    HW231551   3.304   0.894   3.993
10218SOL     OW31552   1.212   2.789   2.689
10218SOL    HW131553   1.125   2.769   2.734
10218SOL    HW231554   1.264   2.855   2.743
10219SOL     OW31555   6.765   6.998   2.954
10219SOL    HW131556   6.834   6.940   2.911
10219SOL    HW231557   6.809   0.057   2.994
10220SOL     OW31558   3.630   2.578   1.105
10220SOL    HW131559   3.639   2.510   1.033
10220SOL    HW231560   3.579   2.657   1.071
10221SOL     OW31561   0.786   5.705   3.796
10221SOL    HW131562   0.758   5.624   3.744
10221SOL    HW231563   0.735   5.785   3.763
10222SOL     OW31564   2.862   3.616   4.114
10222SOL    HW131565   2.774   3.574   4.134
10222SOL    HW231566   2.869   3.703   4.163
10223SOL     OW31567   0.612   6.207   1.956
10223SOL    HW131568   0.637   6.120   2.001
10223SOL    HW231569   0.632   6.201   1.859
10224SOL     OW31570   5.592   4.216   3.412
10224SOL    HW131571   5.519   4.283   3.429
10224SOL    HW231572   5.663   4.258   3.355
10225SOL     OW31573   2.624   3.689   5.976
10225SOL    HW131574   2.690   3.698   6.051
10225SOL    HW231575   2.541   3.740   5.997
10226SOL     OW31576   4.896   2.828   6.973
10226SOL    HW131577   4.829   2.755   6.961
10226SOL    HW231578   4.900   2.855   0.047
10227SOL     OW31579   5.228   3.988   1.360
10227SOL    HW131580   5.327   4.003   1.364
10227SOL    HW231581   5.183   4.044   1.430
10228SOL     OW31582   5.738   0.677   1.129
10228SOL    HW131583   5.734   0.777   1.136
10228SOL    HW231584   5.698   0.648   1.042
10229SOL     OW31585   6.446   3.279   4.826
10229SOL    HW131586   6.480   3.203   4.882
10229SOL    HW231587   6.480   3.268   4.732
10230SOL     OW31588   0.269   6.082   2.391
10230SOL    HW131589   0.347   6.126   2.437
10230SOL    HW231590   0.275   6.098   2.293
10231SOL     OW31591   1.159   5.436   3.016
10231SOL    HW131592   1.081   5.482   3.058
10231SOL    HW231593   1.143   5.427   2.917
10232SOL     OW31594   4.935   4.741   3.743
10232SOL    HW131595   4.957   4.649   3.774
10232SOL    HW231596   4.836   4.754   3.743
10233SOL     OW31597   3.467   4.009   6.346
10233SOL    HW131598   3.378   4.029   6.306
10233SOL    HW231599   3.535   4.075   6.313
10234SOL     OW31600   0.283   1.133   2.229
10234SOL    HW131601   0.352   1.078   2.181
10234SOL    HW231602   0.304   1.230   2.216
10235SOL     OW31603   1.335   0.757   2.744
10235SOL    HW131604   1.363   0.759   2.840
10235SOL    HW231605   1.387   0.825   2.692
10236SOL     OW31606   2.485   6.302   1.986
10236SOL    HW131607   2.468   6.278   1.890
10236SOL    HW231608   2.575   6.268   2.013
10237SOL     OW31609   0.381   3.191   5.556
10237SOL    HW131610   0.452   3.197   5.486
10237SOL    HW231611   0.424   3.179   5.646
10238SOL     OW31612   3.537   6.897   1.984
10238SOL    HW131613   3.534   6.961   1.908
10238SOL    HW231614   3.579   6.941   2.064
10239SOL     OW31615   0.803   2.437   4.067
10239SOL    HW131616   0.846   2.398   3.985
10239SOL    HW231617   0.872   2.447   4.139
10240SOL     OW31618   2.364   6.522   0.609
10240SOL    HW131619   2.395   6.614   0.631
10240SOL    HW231620   2.442   6.460   0.600
10241SOL     OW31621   4.030   2.493   1.533
10241SOL    HW131622   3.974   2.569   1.501
10241SOL    HW231623   3.979   2.438   1.598
10242SOL     OW31624   6.525   2.589   7.019
10242SOL    HW131625   6.531   2.673   6.966
10242SOL    HW231626   6.597   2.588   0.067
10243SOL     OW31627   2.830   5.212   1.405
10243SOL    HW131628   2.875   5.226   1.493
10243SOL    HW231629   2.881   5.144   1.352
10244SOL     OW31630   2.924   4.307   1.446
10244SOL    HW131631   2.979   4.385   1.416
10244SOL    HW231632   2.903   4.315   1.543
10245SOL     OW31633   4.897   3.687   0.622
10245SOL    HW131634   4.972   3.726   0.677
10245SOL    HW231635   4.890   3.589   0.641
10246SOL     OW31636   3.419   2.875   4.150
10246SOL    HW131637   3.484   2.865   4.226
10246SOL    HW231638   3.377   2.965   4.153
10247SOL     OW31639   0.423   3.047   4.329
10247SOL    HW131640   0.428   2.977   4.258
10247SOL    HW231641   0.350   3.026   4.393
10248SOL     OW31642   1.182   0.377   3.663
10248SOL    HW131643   1.243   0.323   3.606
10248SOL    HW231644   1.128   0.317   3.722
10249SOL     OW31645   2.932   5.502   6.170
10249SOL    HW131646   2.836   5.495   6.195
10249SOL    HW231647   2.972   5.583   6.213
10250SOL     OW31648   4.386   2.218   1.126
10250SOL    HW131649   4.401   2.213   1.027
10250SOL    HW231650   4.310   2.280   1.145
10251SOL     OW31651   1.351   0.462   4.195
10251SOL    HW131652   1.280   0.402   4.160
10251SOL    HW231653   1.368   0.442   4.291
10252SOL     OW31654   5.549   4.321   6.450
10252SOL    HW131655   5.606   4.391   6.492
10252SOL    HW231656   5.552   4.331   6.350
10253SOL     OW31657   3.564   6.172   6.442
10253SOL    HW131658   3.622   6.253   6.440
10253SOL    HW231659   3.489   6.181   6.376
10254SOL     OW31660   5.882   1.394   5.566
10254SOL    HW131661   5.869   1.423   5.660
10254SOL    HW231662   5.814   1.439   5.508
10255SOL     OW31663   4.086   4.478   1.377
10255SOL    HW131664   4.076   4.451   1.282
10255SOL    HW231665   4.043   4.410   1.436
10256SOL     OW31666   3.707   1.509   3.419
10256SOL    HW131667   3.748   1.480   3.333
10256SOL    HW231668   3.608   1.511   3.409
10257SOL     OW31669   3.977   5.611   3.033
10257SOL    HW131670   3.879   5.593   3.043
10257SOL    HW231671   3.990   5.702   2.994
10258SOL     OW31672   1.790   1.338   1.945
10258SOL    HW131673   1.866   1.315   2.007
10258SOL    HW231674   1.707   1.352   1.999
10259SOL     OW31675   1.763   4.674   3.755
10259SOL    HW131676   1.704   4.672   3.674
10259SOL    HW231677   1.721   4.622   3.829
10260SOL     OW31678   1.071   0.615   3.648
10260SOL    HW131679   1.132   0.537   3.663
10260SOL    HW231680   1.067   0.635   3.550
10261SOL     OW31681   6.884   3.575   1.186
10261SOL    HW131682   6.890   3.599   1.282
10261SOL    HW231683   6.912   3.481   1.172
10262SOL     OW31684   4.525   1.682   0.874
10262SOL    HW131685   4.434   1.640   0.882
10262SOL    HW231686   4.538   1.747   0.949
10263SOL     OW31687   6.192   0.838   2.106
10263SOL    HW131688   6.171   0.916   2.165
10263SOL    HW231689   6.130   0.763   2.128
10264SOL     OW31690   6.558   6.407   6.560
10264SOL    HW131691   6.565   6.356   6.474
10264SOL    HW231692   6.621   6.369   6.627
10265SOL     OW31693   1.852   1.750   0.955
10265SOL    HW131694   1.757   1.720   0.949
10265SOL    HW231695   1.898   1.699   1.027
10266SOL     OW31696   2.590   3.391   1.746
10266SOL    HW131697   2.504   3.441   1.750
10266SOL    HW231698   2.662   3.450   1.710
10267SOL     OW31699   5.705   0.827   1.490
10267SOL    HW131700   5.739   0.841   1.583
10267SOL    HW231701   5.728   0.734   1.460
10268SOL     OW31702   3.767   6.966   1.358
10268SOL    HW131703   3.712   6.984   1.439
10268SOL    HW231704   3.738   6.879   1.317
10269SOL     OW31705   2.908   2.280   0.698
10269SOL    HW131706   2.905   2.235   0.609
10269SOL    HW231707   2.908   2.210   0.770
10270SOL     OW31708   2.933   0.258   2.656
10270SOL    HW131709   2.879   0.339   2.635
10270SOL    HW231710   3.000   0.242   2.583
10271SOL     OW31711   1.296   2.051   6.603
10271SOL    HW131712   1.372   2.097   6.557
10271SOL    HW231713   1.210   2.089   6.569
10272SOL     OW31714   6.277   0.239   4.595
10272SOL    HW131715   6.330   0.277   4.671
10272SOL    HW231716   6.185   0.215   4.627
10273SOL     OW31717   2.019   5.631   3.246
10273SOL    HW131718   2.018   5.626   3.147
10273SOL    HW231719   2.113   5.643   3.278
10274SOL     OW31720   1.048   5.057   5.338
10274SOL    HW131721   1.051   5.138   5.397
10274SOL    HW231722   0.955   5.019   5.338
10275SOL     OW31723   6.944   0.094   2.431
10275SOL    HW131724   6.860   0.146   2.417
10275SOL    HW231725   6.983   0.069   2.343
10276SOL     OW31726   3.420   5.251   5.433
10276SOL    HW131727   3.453   5.176   5.377
10276SOL    HW231728   3.483   5.266   5.509
10277SOL     OW31729   0.190   6.359   4.332
10277SOL    HW131730   0.282   6.318   4.332
10277SOL    HW231731   0.135   6.316   4.404
10278SOL     OW31732   6.728   0.622   4.945
10278SOL    HW131733   6.693   0.614   5.038
10278SOL    HW231734   6.796   0.694   4.941
10279SOL     OW31735   2.085   6.012   4.186
10279SOL    HW131736   2.138   5.927   4.191
10279SOL    HW231737   2.132   6.077   4.126
10280SOL     OW31738   6.329   4.228   0.757
10280SOL    HW131739   6.296   4.237   0.663
10280SOL    HW231740   6.398   4.299   0.775
10281SOL     OW31741   6.966   1.680   3.233
10281SOL    HW131742   6.969   1.601   3.294
10281SOL    HW231743   0.020   1.674   3.167
10282SOL     OW31744   4.817   3.139   3.497
10282SOL    HW131745   4.768   3.052   3.495
10282SOL    HW231746   4.831   3.172   3.403
10283SOL     OW31747   0.465   2.962   1.233
10283SOL    HW131748   0.409   2.945   1.152
10283SOL    HW231749   0.550   2.909   1.227
10284SOL     OW31750   6.919   3.421   3.933
10284SOL    HW131751   6.984   3.473   3.877
10284SOL    HW231752   6.838   3.475   3.950
10285SOL     OW31753   5.898   5.785   5.559
10285SOL    HW131754   5.903   5.775   5.659
10285SOL    HW231755   5.963   5.855   5.529
10286SOL     OW31756   2.851   1.053   3.293
10286SOL    HW131757   2.855   1.113   3.373
10286SOL    HW231758   2.809   1.101   3.217
10287SOL     OW31759   2.392   5.492   2.734
10287SOL    HW131760   2.421   5.574   2.783
10287SOL    HW231761   2.455   5.473   2.659
10288SOL     OW31762   3.714   6.602   5.544
10288SOL    HW131763   3.646   6.673   5.528
10288SOL    HW231764   3.764   6.623   5.629
10289SOL     OW31765   3.030   5.511   6.703
10289SOL    HW131766   3.093   5.435   6.719
10289SOL    HW231767   2.958   5.483   6.639
10290SOL     OW31768   3.486   2.841   1.930
10290SOL    HW131769   3.571   2.885   1.900
10290SOL    HW231770   3.476   2.754   1.881
10291SOL     OW31771   1.971   1.800   2.250
10291SOL    HW131772   1.876   1.787   2.221
10291SOL    HW231773   2.021   1.714   2.238
10292SOL     OW31774   6.136   6.837   6.624
10292SOL    HW131775   6.135   6.888   6.538
10292SOL    HW231776   6.231   6.814   6.648
10293SOL     OW31777   1.251   4.112   4.561
10293SOL    HW131778   1.192   4.092   4.483
10293SOL    HW231779   1.319   4.040   4.570
10294SOL     OW31780   3.578   1.569   2.410
10294SOL    HW131781   3.627   1.655   2.399
10294SOL    HW231782   3.644   1.493   2.409
10295SOL     OW31783   0.758   2.248   6.804
10295SOL    HW131784   0.670   2.283   6.837
10295SOL    HW231785   0.759   2.252   6.704
10296SOL     OW31786   5.653   0.960   5.965
10296SOL    HW131787   5.726   0.898   5.934
10296SOL    HW231788   5.663   0.976   6.063
10297SOL     OW31789   3.798   1.108   6.802
10297SOL    HW131790   3.818   1.159   6.885
10297SOL    HW231791   3.785   1.171   6.726
10298SOL     OW31792   0.490   2.349   2.437
10298SOL    HW131793   0.464   2.305   2.350
10298SOL    HW231794   0.579   2.392   2.427
10299SOL     OW31795   4.138   6.239   2.980
10299SOL    HW131796   4.151   6.325   3.030
10299SOL    HW231797   4.178   6.248   2.889
10300SOL     OW31798   0.796   3.809   1.547
10300SOL    HW131799   0.842   3.897   1.556
10300SOL    HW231800   0.841   3.741   1.605
10301SOL     OW31801   4.468   0.250   6.248
10301SOL    HW131802   4.411   0.229   6.327
10301SOL    HW231803   4.563   0.223   6.268
10302SOL     OW31804   2.803   5.988   5.191
10302SOL    HW131805   2.779   6.025   5.282
10302SOL    HW231806   2.798   5.889   5.193
10303SOL     OW31807   0.857   5.948   4.889
10303SOL    HW131808   0.759   5.969   4.891
10303SOL    HW231809   0.871   5.857   4.928
10304SOL     OW31810   6.160   6.477   0.536
10304SOL    HW131811   6.111   6.411   0.479
10304SOL    HW231812   6.155   6.568   0.494
10305SOL     OW31813   2.953   4.081   5.931
10305SOL    HW131814   2.881   4.149   5.935
10305SOL    HW231815   2.925   4.006   5.871
10306SOL     OW31816   4.660   0.590   1.082
10306SOL    HW131817   4.652   0.544   0.994
10306SOL    HW231818   4.594   0.665   1.086
10307SOL     OW31819   2.020   0.305   5.013
10307SOL    HW131820   2.062   0.215   5.017
10307SOL    HW231821   2.091   0.375   5.018
10308SOL     OW31822   2.701   5.034   2.504
10308SOL    HW131823   2.682   5.069   2.413
10308SOL    HW231824   2.759   4.953   2.498
10309SOL     OW31825   0.093   1.668   4.920
10309SOL    HW131826   0.102   1.764   4.948
10309SOL    HW231827   0.182   1.623   4.929
10310SOL     OW31828   2.190   4.061   5.778
10310SOL    HW131829   2.184   4.157   5.806
10310SOL    HW231830   2.185   4.054   5.679
10311SOL     OW31831   4.744   5.781   0.183
10311SOL    HW131832   4.774   5.729   0.102
10311SOL    HW231833   4.756   5.725   0.265
10312SOL     OW31834   4.274   0.695   2.363
10312SOL    HW131835   4.284   0.764   2.291
10312SOL    HW231836   4.210   0.625   2.333
10313SOL     OW31837   4.662   0.385   3.164
10313SOL    HW131838   4.761   0.388   3.177
10313SOL    HW231839   4.640   0.324   3.088
10314SOL     OW31840   0.564   0.294   1.260
10314SOL    HW131841   0.518   0.358   1.199
10314SOL    HW231842   0.535   0.312   1.354
10315SOL     OW31843   5.457   5.429   3.672
10315SOL    HW131844   5.534   5.477   3.715
10315SOL    HW231845   5.425   5.356   3.732
10316SOL     OW31846   0.468   1.823   6.641
10316SOL    HW131847   0.411   1.747   6.672
10316SOL    HW231848   0.474   1.891   6.714
10317SOL     OW31849   3.876   5.373   5.419
10317SOL    HW131850   3.923   5.302   5.472
10317SOL    HW231851   3.871   5.457   5.472
10318SOL     OW31852   6.250   7.016   0.322
10318SOL    HW131853   6.244   0.008   0.421
10318SOL    HW231854   6.346   7.008   0.296
10319SOL     OW31855   0.621   4.596   3.983
10319SOL    HW131856   0.673   4.514   3.958
10319SOL    HW231857   0.625   4.662   3.907
10320SOL     OW31858   0.551   6.848   3.821
10320SOL    HW131859   0.645   6.878   3.839
10320SOL    HW231860   0.490   6.927   3.831
10321SOL     OW31861   5.131   2.527   2.421
10321SOL    HW131862   5.220   2.541   2.378
10321SOL    HW231863   5.095   2.437   2.395
10322SOL     OW31864   4.605   4.324   4.941
10322SOL    HW131865   4.552   4.408   4.950
10322SOL    HW231866   4.602   4.274   5.028
10323SOL     OW31867   0.408   4.066   5.353
10323SOL    HW131868   0.366   4.133   5.293
10323SOL    HW231869   0.340   4.029   5.415
10324SOL     OW31870   3.273   3.227   1.959
10324SOL    HW131871   3.359   3.241   2.007
10324SOL    HW231872   3.258   3.129   1.945
10325SOL     OW31873   6.843   5.842   3.213
10325SOL    HW131874   6.841   5.798   3.123
10325SOL    HW231875   6.773   5.913   3.217
10326SOL     OW31876   5.504   3.764   6.755
10326SOL    HW131877   5.534   3.860   6.751
10326SOL    HW231878   5.525   3.719   6.668
10327SOL     OW31879   2.419   4.486   1.590
10327SOL    HW131880   2.517   4.479   1.608
10327SOL    HW231881   2.400   4.577   1.553
10328SOL     OW31882   5.946   2.476   1.843
10328SOL    HW131883   5.906   2.533   1.913
10328SOL    HW231884   5.928   2.515   1.753
10329SOL     OW31885   3.714   1.934   2.661
10329SOL    HW131886   3.769   1.881   2.595
10329SOL    HW231887   3.774   1.997   2.710
10330SOL     OW31888   4.086   1.191   1.448
10330SOL    HW131889   4.184   1.207   1.451
10330SOL    HW231890   4.038   1.277   1.468
10331SOL     OW31891   6.155   5.439   6.676
10331SOL    HW131892   6.089   5.372   6.644
10331SOL    HW231893   6.235   5.391   6.714
10332SOL     OW31894   0.991   1.240   6.928
10332SOL    HW131895   0.930   1.320   6.933
10332SOL    HW231896   1.062   1.248   6.998
10333SOL     OW31897   0.646   5.062   4.770
10333SOL    HW131898   0.558   5.014   4.780
10333SOL    HW231899   0.719   4.995   4.758
10334SOL     OW31900   3.487   6.611   3.495
10334SOL    HW131901   3.450   6.554   3.422
10334SOL    HW231902   3.579   6.581   3.518
10335SOL     OW31903   0.373   2.243   5.431
10335SOL    HW131904   0.348   2.313   5.364
10335SOL    HW231905   0.353   2.276   5.523
10336SOL     OW31906   5.074   6.752   3.634
10336SOL    HW131907   5.106   6.835   3.588
10336SOL    HW231908   5.128   6.673   3.601
10337SOL     OW31909   6.622   5.321   6.715
10337SOL    HW131910   6.594   5.341   6.621
10337SOL    HW231911   6.605   5.401   6.772
10338SOL     OW31912   1.295   6.473   1.666
10338SOL    HW131913   1.208   6.440   1.629
10338SOL    HW231914   1.341   6.399   1.714
10339SOL     OW31915   6.201   1.917   5.371
10339SOL    HW131916   6.151   1.900   5.457
10339SOL    HW231917   6.209   1.831   5.320
10340SOL     OW31918   2.485   3.062   6.598
10340SOL    HW131919   2.547   3.139   6.584
10340SOL    HW231920   2.474   3.012   6.513
10341SOL     OW31921   2.205   2.881   2.822
10341SOL    HW131922   2.280   2.878   2.889
10341SOL    HW231923   2.136   2.946   2.853
10342SOL     OW31924   1.147   1.298   3.133
10342SOL    HW131925   1.220   1.322   3.070
10342SOL    HW231926   1.155   1.201   3.159
10343SOL     OW31927   2.763   5.184   1.792
10343SOL    HW131928   2.706   5.105   1.814
10343SOL    HW231929   2.725   5.265   1.836
10344SOL     OW31930   4.317   5.799   5.602
10344SOL    HW131931   4.331   5.861   5.525
10344SOL    HW231932   4.304   5.852   5.685
10345SOL     OW31933   1.766   3.674   4.245
10345SOL    HW131934   1.685   3.650   4.298
10345SOL    HW231935   1.846   3.674   4.305
10346SOL     OW31936   6.966   5.732   0.800
10346SOL    HW131937   6.892   5.667   0.786
10346SOL    HW231938   0.030   5.683   0.817
10347SOL     OW31939   5.103   1.605   3.785
10347SOL    HW131940   5.062   1.662   3.857
10347SOL    HW231941   5.059   1.516   3.783
10348SOL     OW31942   6.659   4.057   0.706
10348SOL    HW131943   6.618   4.083   0.619
10348SOL    HW231944   6.588   4.053   0.776
10349SOL     OW31945   1.104   6.266   6.592
10349SOL    HW131946   1.075   6.361   6.609
10349SOL    HW231947   1.187   6.266   6.536
10350SOL     OW31948   3.372   0.178   6.040
10350SOL    HW131949   3.467   0.151   6.023
10350SOL    HW231950   3.336   0.126   6.118
10351SOL     OW31951   4.170   5.008   6.309
10351SOL    HW131952   4.088   4.966   6.271
10351SOL    HW231953   4.250   4.951   6.288
10352SOL     OW31954   3.522   3.423   6.156
10352SOL    HW131955   3.528   3.521   6.135
10352SOL    HW231956   3.527   3.370   6.071
10353SOL     OW31957   0.326   2.364   4.972
10353SOL    HW131958   0.401   2.417   4.932
10353SOL    HW231959   0.342   2.267   4.958
10354SOL     OW31960   5.636   1.858   1.729
10354SOL    HW131961   5.587   1.917   1.794
10354SOL    HW231962   5.628   1.763   1.758
10355SOL     OW31963   1.844   4.783   2.101
10355SOL    HW131964   1.853   4.854   2.031
10355SOL    HW231965   1.918   4.716   2.090
10356SOL     OW31966   7.019   3.355   4.481
10356SOL    HW131967   6.947   3.297   4.443
10356SOL    HW231968   6.987   3.450   4.485
10357SOL     OW31969   2.521   1.755   0.589
10357SOL    HW131970   2.465   1.742   0.671
10357SOL    HW231971   2.522   1.670   0.535
10358SOL     OW31972   0.331   1.385   2.194
10358SOL    HW131973   0.315   1.421   2.286
10358SOL    HW231974   0.422   1.413   2.163
10359SOL     OW31975   0.875   1.328   1.603
10359SOL    HW131976   0.923   1.339   1.690
10359SOL    HW231977   0.906   1.398   1.539
10360SOL     OW31978   6.187   5.903   3.868
10360SOL    HW131979   6.174   5.990   3.820
10360SOL    HW231980   6.273   5.907   3.920
10361SOL     OW31981   2.029   4.672   1.183
10361SOL    HW131982   1.964   4.698   1.254
10361SOL    HW231983   1.985   4.673   1.094
10362SOL     OW31984   1.559   5.258   4.193
10362SOL    HW131985   1.584   5.169   4.231
10362SOL    HW231986   1.630   5.325   4.216
10363SOL     OW31987   5.463   0.588   4.050
10363SOL    HW131988   5.531   0.622   4.114
10363SOL    HW231989   5.508   0.542   3.974
10364SOL     OW31990   1.083   4.825   1.391
10364SOL    HW131991   1.064   4.922   1.406
10364SOL    HW231992   1.036   4.795   1.308
10365SOL     OW31993   4.267   5.548   6.944
10365SOL    HW131994   4.261   5.468   6.884
10365SOL    HW231995   4.206   5.536   0.001
10366SOL     OW31996   3.394   6.836   3.863
10366SOL    HW131997   3.429   6.746   3.888
10366SOL    HW231998   3.470   6.895   3.837
10367SOL     OW31999   6.867   2.302   3.431
10367SOL    HW132000   6.811   2.243   3.373
10367SOL    HW232001   6.807   2.360   3.486
10368SOL     OW32002   2.714   0.284   1.319
10368SOL    HW132003   2.717   0.271   1.418
10368SOL    HW232004   2.718   0.382   1.298
10369SOL     OW32005   4.079   2.982   0.235
10369SOL    HW132006   4.032   2.942   0.157
10369SOL    HW232007   4.013   3.002   0.307
10370SOL     OW32008   3.545   0.565   5.007
10370SOL    HW132009   3.470   0.566   5.074
10370SOL    HW232010   3.508   0.545   4.916
10371SOL     OW32011   5.035   6.624   5.908
10371SOL    HW132012   5.025   6.537   5.956
10371SOL    HW232013   4.944   6.657   5.881
10372SOL     OW32014   0.816   0.526   3.017
10372SOL    HW132015   0.822   0.430   2.993
10372SOL    HW232016   0.851   0.540   3.110
10373SOL     OW32017   1.262   5.592   4.898
10373SOL    HW132018   1.274   5.550   4.808
10373SOL    HW232019   1.294   5.687   4.896
10374SOL     OW32020   2.714   2.416   4.284
10374SOL    HW132021   2.691   2.433   4.379
10374SOL    HW232022   2.678   2.490   4.227
10375SOL     OW32023   6.261   2.422   0.324
10375SOL    HW132024   6.354   2.432   0.361
10375SOL    HW232025   6.197   2.407   0.399
10376SOL     OW32026   6.701   1.346   3.574
10376SOL    HW132027   6.774   1.287   3.539
10376SOL    HW232028   6.614   1.315   3.537
10377SOL     OW32029   1.134   6.907   4.626
10377SOL    HW132030   1.171   6.893   4.534
10377SOL    HW232031   1.197   6.963   4.679
10378SOL     OW32032   6.717   6.671   6.717
10378SOL    HW132033   6.632   6.684   6.666
10378SOL    HW232034   6.792   6.718   6.670
10379SOL     OW32035   5.173   1.596   4.692
10379SOL    HW132036   5.076   1.608   4.715
10379SOL    HW232037   5.207   1.679   4.648
10380SOL     OW32038   4.479   0.908   3.125
10380SOL    HW132039   4.381   0.891   3.115
10380SOL    HW232040   4.494   0.999   3.164
10381SOL     OW32041   4.397   5.210   4.712
10381SOL    HW132042   4.367   5.218   4.807
10381SOL    HW232043   4.385   5.116   4.681
10382SOL     OW32044   1.933   5.233   0.486
10382SOL    HW132045   1.924   5.209   0.583
10382SOL    HW232046   2.021   5.277   0.471
10383SOL     OW32047   6.886   2.870   6.384
10383SOL    HW132048   6.848   2.778   6.374
10383SOL    HW232049   6.933   2.877   6.472
10384SOL     OW32050   6.032   0.543   0.268
10384SOL    HW132051   6.105   0.565   0.333
10384SOL    HW232052   6.030   0.612   0.196
10385SOL     OW32053   5.452   2.251   6.743
10385SOL    HW132054   5.356   2.237   6.770
10385SOL    HW232055   5.459   2.333   6.686
10386SOL     OW32056   6.049   2.446   6.446
10386SOL    HW132057   6.106   2.522   6.413
10386SOL    HW232058   5.984   2.481   6.514
10387SOL     OW32059   2.045   3.309   3.010
10387SOL    HW132060   2.060   3.346   3.102
10387SOL    HW232061   2.060   3.381   2.942
10388SOL     OW32062   1.528   4.359   2.460
10388SOL    HW132063   1.540   4.351   2.559
10388SOL    HW232064   1.434   4.335   2.435
10389SOL     OW32065   0.170   5.718   2.980
10389SOL    HW132066   0.210   5.730   3.071
10389SOL    HW232067   0.128   5.804   2.951
10390SOL     OW32068   1.837   3.244   3.203
10390SOL    HW132069   1.840   3.147   3.179
10390SOL    HW232070   1.931   3.280   3.205
10391SOL     OW32071   3.450   6.324   5.234
10391SOL    HW132072   3.418   6.406   5.283
10391SOL    HW232073   3.383   6.299   5.164
10392SOL     OW32074   6.670   5.043   6.706
10392SOL    HW132075   6.614   4.982   6.762
10392SOL    HW232076   6.639   5.137   6.719
10393SOL     OW32077   1.438   1.142   3.952
10393SOL    HW132078   1.537   1.140   3.935
10393SOL    HW232079   1.392   1.083   3.886
10394SOL     OW32080   3.183   6.708   0.093
10394SOL    HW132081   3.162   6.644   0.167
10394SOL    HW232082   3.220   6.657   0.015
10395SOL     OW32083   1.231   1.932   4.982
10395SOL    HW132084   1.290   1.888   4.914
10395SOL    HW232085   1.136   1.909   4.963
10396SOL     OW32086   0.360   0.235   5.185
10396SOL    HW132087   0.429   0.277   5.243
10396SOL    HW232088   0.390   0.237   5.090
10397SOL     OW32089   3.843   2.077   2.863
10397SOL    HW132090   3.751   2.109   2.881
10397SOL    HW232091   3.909   2.145   2.893
10398SOL     OW32092   6.741   2.864   2.588
10398SOL    HW132093   6.761   2.771   2.556
10398SOL    HW232094   6.819   2.899   2.638
10399SOL     OW32095   6.590   2.189   5.420
10399SOL    HW132096   6.651   2.110   5.422
10399SOL    HW232097   6.560   2.205   5.326
10400SOL     OW32098   2.372   4.755   1.470
10400SOL    HW132099   2.346   4.770   1.375
10400SOL    HW232100   2.383   4.843   1.516
10401SOL     OW32101   1.183   5.913   1.533
10401SOL    HW132102   1.147   5.832   1.485
10401SOL    HW232103   1.176   5.993   1.473
10402SOL     OW32104   0.361   2.590   4.189
10402SOL    HW132105   0.442   2.628   4.144
10402SOL    HW232106   0.279   2.635   4.153
10403SOL     OW32107   4.501   1.558   2.266
10403SOL    HW132108   4.437   1.543   2.191
10403SOL    HW232109   4.453   1.606   2.340
10404SOL     OW32110   0.141   6.787   3.825
10404SOL    HW132111   0.061   6.783   3.885
10404SOL    HW232112   0.129   6.861   3.759
10405SOL     OW32113   2.064   6.952   6.735
10405SOL    HW132114   2.150   6.927   6.691
10405SOL    HW232115   2.052   6.899   6.819
10406SOL     OW32116   1.991   5.484   5.530
10406SOL    HW132117   1.897   5.468   5.499
10406SOL    HW232118   1.996   5.467   5.629
10407SOL     OW32119   1.167   1.158   5.730
10407SOL    HW132120   1.252   1.171   5.679
10407SOL    HW232121   1.142   1.061   5.730
10408SOL     OW32122   4.116   5.848   3.346
10408SOL    HW132123   4.115   5.931   3.403
10408SOL    HW232124   4.040   5.788   3.373
10409SOL     OW32125   6.348   4.862   2.133
10409SOL    HW132126   6.383   4.814   2.214
10409SOL    HW232127   6.398   4.947   2.121
10410SOL     OW32128   6.065   6.909   0.704
10410SOL    HW132129   6.160   6.879   0.702
10410SOL    HW232130   6.031   6.906   0.798
10411SOL     OW32131   1.716   3.951   2.667
10411SOL    HW132132   1.746   4.011   2.593
10411SOL    HW232133   1.734   3.995   2.755
10412SOL     OW32134   0.355   2.368   6.588
10412SOL    HW132135   0.383   2.403   6.498
10412SOL    HW232136   0.304   2.283   6.576
10413SOL     OW32137   0.271   2.151   6.004
10413SOL    HW132138   0.281   2.052   5.992
10413SOL    HW232139   0.361   2.190   6.026
10414SOL     OW32140   5.709   0.218   4.859
10414SOL    HW132141   5.618   0.257   4.847
10414SOL    HW232142   5.771   0.254   4.789
10415SOL     OW32143   0.462   5.356   2.912
10415SOL    HW132144   0.441   5.397   3.001
10415SOL    HW232145   0.376   5.332   2.866
10416SOL     OW32146   5.081   0.135   0.229
10416SOL    HW132147   4.997   0.180   0.259
10416SOL    HW232148   5.093   0.049   0.280
10417SOL     OW32149   4.256   4.667   4.426
10417SOL    HW132150   4.180   4.651   4.363
10417SOL    HW232151   4.226   4.725   4.501
10418SOL     OW32152   0.000   3.842   6.889
10418SOL    HW132153   0.018   3.938   6.866
10418SOL    HW232154   6.979   3.837   6.979
10419SOL     OW32155   2.074   1.662   4.003
10419SOL    HW132156   2.063   1.569   4.035
10419SOL    HW232157   2.020   1.724   4.059
10420SOL     OW32158   5.585   3.166   3.949
10420SOL    HW132159   5.667   3.153   3.892
10420SOL    HW232160   5.593   3.109   4.031
10421SOL     OW32161   1.556   4.575   3.570
10421SOL    HW132162   1.574   4.562   3.473
10421SOL    HW232163   1.495   4.654   3.583
10422SOL     OW32164   6.072   3.378   5.423
10422SOL    HW132165   6.025   3.312   5.483
10422SOL    HW232166   6.025   3.466   5.426
10423SOL     OW32167   2.073   5.270   3.698
10423SOL    HW132168   2.143   5.339   3.716
10423SOL    HW232169   1.983   5.313   3.699
10424SOL     OW32170   3.299   1.653   0.826
10424SOL    HW132171   3.246   1.718   0.880
10424SOL    HW232172   3.236   1.597   0.771
10425SOL     OW32173   1.984   3.719   0.575
10425SOL    HW132174   2.042   3.702   0.655
10425SOL    HW232175   1.928   3.638   0.557
10426SOL     OW32176   5.802   2.269   6.065
10426SOL    HW132177   5.766   2.362   6.071
10426SOL    HW232178   5.744   2.206   6.117
10427SOL     OW32179   5.636   0.940   4.042
10427SOL    HW132180   5.550   0.934   3.992
10427SOL    HW232181   5.631   0.884   4.125
10428SOL     OW32182   1.802   6.563   5.227
10428SOL    HW132183   1.882   6.573   5.285
10428SOL    HW232184   1.828   6.520   5.140
10429SOL     OW32185   1.409   3.404   1.505
10429SOL    HW132186   1.469   3.423   1.427
10429SOL    HW232187   1.465   3.379   1.584
10430SOL     OW32188   3.103   0.460   4.312
10430SOL    HW132189   3.168   0.502   4.249
10430SOL    HW232190   3.070   0.528   4.377
10431SOL     OW32191   4.039   1.241   4.206
10431SOL    HW132192   3.963   1.248   4.272
10431SOL    HW232193   4.102   1.317   4.220
10432SOL     OW32194   1.083   5.287   0.109
10432SOL    HW132195   1.104   5.320   0.201
10432SOL    HW232196   1.008   5.221   0.113
10433SOL     OW32197   4.095   6.410   3.815
10433SOL    HW132198   4.002   6.423   3.851
10433SOL    HW232199   4.092   6.352   3.734
10434SOL     OW32200   4.471   0.591   6.227
10434SOL    HW132201   4.564   0.588   6.190
10434SOL    HW232202   4.438   0.497   6.242
10435SOL     OW32203   2.469   1.541   1.049
10435SOL    HW132204   2.391   1.586   1.094
10435SOL    HW232205   2.493   1.458   1.099
10436SOL     OW32206   0.688   3.310   4.877
10436SOL    HW132207   0.775   3.265   4.895
10436SOL    HW232208   0.671   3.379   4.948
10437SOL     OW32209   6.596   6.605   5.389
10437SOL    HW132210   6.561   6.689   5.348
10437SOL    HW232211   6.521   6.541   5.404
10438SOL     OW32212   6.857   6.046   7.003
10438SOL    HW132213   6.873   6.140   0.011
10438SOL    HW232214   6.912   6.026   6.922
10439SOL     OW32215   6.473   5.339   5.045
10439SOL    HW132216   6.527   5.410   5.090
10439SOL    HW232217   6.498   5.334   4.948
10440SOL     OW32218   6.160   2.247   0.745
10440SOL    HW132219   6.099   2.169   0.735
10440SOL    HW232220   6.187   2.257   0.841
10441SOL     OW32221   4.577   1.953   6.423
10441SOL    HW132222   4.550   1.924   6.516
10441SOL    HW232223   4.608   2.048   6.426
10442SOL     OW32224   2.097   1.108   4.813
10442SOL    HW132225   2.171   1.087   4.750
10442SOL    HW232226   2.085   1.207   4.820
10443SOL     OW32227   1.272   0.617   0.909
10443SOL    HW132228   1.342   0.547   0.898
10443SOL    HW232229   1.222   0.601   0.995
10444SOL     OW32230   4.328   4.656   3.942
10444SOL    HW132231   4.338   4.564   3.980
10444SOL    HW232232   4.305   4.720   4.015
10445SOL     OW32233   1.198   3.061   3.990
10445SOL    HW132234   1.113   3.013   3.967
10445SOL    HW232235   1.177   3.138   4.051
10446SOL     OW32236   2.243   4.898   5.444
10446SOL    HW132237   2.262   4.888   5.541
10446SOL    HW232238   2.328   4.891   5.392
10447SOL     OW32239   0.912   1.755   2.819
10447SOL    HW132240   0.922   1.677   2.880
10447SOL    HW232241   0.825   1.801   2.839
10448SOL     OW32242   1.958   5.772   2.359
10448SOL    HW132243   1.973   5.702   2.289
10448SOL    HW232244   2.042   5.824   2.373
10449SOL     OW32245   4.249   5.252   4.424
10449SOL    HW132246   4.195   5.196   4.488
10449SOL    HW232247   4.313   5.309   4.475
10450SOL     OW32248   0.178   0.967   4.372
10450SOL    HW132249   0.147   1.046   4.319
10450SOL    HW232250   0.183   0.993   4.469
10451SOL     OW32251   3.372   1.692   4.251
10451SOL    HW132252   3.432   1.771   4.242
10451SOL    HW232253   3.327   1.695   4.341
10452SOL     OW32254   6.289   2.765   4.633
10452SOL    HW132255   6.364   2.830   4.644
10452SOL    HW232256   6.239   2.757   4.719
10453SOL     OW32257   4.150   6.091   4.193
10453SOL    HW132258   4.200   6.109   4.277
10453SOL    HW232259   4.063   6.141   4.194
10454SOL     OW32260   6.682   1.195   6.898
10454SOL    HW132261   6.682   1.128   6.824
10454SOL    HW232262   6.657   1.151   6.984
10455SOL     OW32263   0.542   6.044   3.345
10455SOL    HW132264   0.562   5.953   3.382
10455SOL    HW232265   0.557   6.043   3.246
10456SOL     OW32266   0.880   5.687   6.430
10456SOL    HW132267   0.848   5.664   6.338
10456SOL    HW232268   0.920   5.779   6.429
10457SOL     OW32269   4.142   1.755   6.360
10457SOL    HW132270   4.200   1.817   6.415
10457SOL    HW232271   4.064   1.806   6.325
10458SOL     OW32272   1.078   6.021   6.728
10458SOL    HW132273   1.005   5.955   6.742
10458SOL    HW232274   1.039   6.113   6.717
10459SOL     OW32275   5.969   5.504   1.565
10459SOL    HW132276   5.937   5.532   1.656
10459SOL    HW232277   5.906   5.539   1.495
10460SOL     OW32278   6.292   0.462   0.801
10460SOL    HW132279   6.238   0.540   0.835
10460SOL    HW232280   6.287   0.458   0.702
10461SOL     OW32281   6.845   4.718   6.606
10461SOL    HW132282   6.778   4.705   6.678
10461SOL    HW232283   6.936   4.690   6.638
10462SOL     OW32284   3.511   3.725   6.355
10462SOL    HW132285   3.572   3.686   6.286
10462SOL    HW232286   3.495   3.822   6.335
10463SOL     OW32287   4.916   2.583   6.679
10463SOL    HW132288   4.940   2.487   6.664
10463SOL    HW232289   4.989   2.629   6.729
10464SOL     OW32290   6.652   4.622   1.878
10464SOL    HW132291   6.667   4.601   1.975
10464SOL    HW232292   6.562   4.664   1.867
10465SOL     OW32293   5.657   4.688   1.298
10465SOL    HW132294   5.756   4.679   1.285
10465SOL    HW232295   5.638   4.773   1.346
10466SOL     OW32296   5.997   4.563   6.309
10466SOL    HW132297   5.995   4.517   6.220
10466SOL    HW232298   5.975   4.660   6.297
10467SOL     OW32299   0.119   2.756   6.867
10467SOL    HW132300   0.182   2.696   6.917
10467SOL    HW232301   0.147   2.851   6.877
10468SOL     OW32302   1.610   4.650   4.317
10468SOL    HW132303   1.534   4.713   4.299
10468SOL    HW232304   1.581   4.557   4.297
10469SOL     OW32305   1.259   1.753   3.939
10469SOL    HW132306   1.311   1.825   3.984
10469SOL    HW232307   1.276   1.666   3.985
10470SOL     OW32308   2.011   3.501   2.842
10470SOL    HW132309   1.996   3.510   2.744
10470SOL    HW232310   1.923   3.487   2.888
10471SOL     OW32311   2.251   5.728   6.631
10471SOL    HW132312   2.299   5.708   6.716
10471SOL    HW232313   2.170   5.783   6.650
10472SOL     OW32314   3.821   4.883   6.663
10472SOL    HW132315   3.919   4.889   6.683
10472SOL    HW232316   3.799   4.938   6.582
10473SOL     OW32317   6.085   4.504   0.747
10473SOL    HW132318   6.174   4.522   0.788
10473SOL    HW232319   6.042   4.590   0.721
10474SOL     OW32320   6.504   0.133   4.972
10474SOL    HW132321   6.499   0.219   4.921
10474SOL    HW232322   6.567   0.070   4.925
10475SOL     OW32323   1.069   5.259   1.111
10475SOL    HW132324   0.977   5.287   1.084
10475SOL    HW232325   1.103   5.320   1.183
10476SOL     OW32326   5.250   6.569   1.580
10476SOL    HW132327   5.208   6.574   1.670
10476SOL    HW232328   5.179   6.576   1.510
10477SOL     OW32329   0.027   5.907   3.372
10477SOL    HW132330   0.105   5.845   3.365
10477SOL    HW232331   6.969   5.865   3.327
10478SOL     OW32332   6.627   0.869   6.617
10478SOL    HW132333   6.576   0.812   6.553
10478SOL    HW232334   6.706   0.817   6.651
10479SOL     OW32335   0.539   2.684   1.833
10479SOL    HW132336   0.572   2.777   1.814
10479SOL    HW232337   0.616   2.627   1.860
10480SOL     OW32338   2.619   0.919   3.631
10480SOL    HW132339   2.575   0.849   3.575
10480SOL    HW232340   2.615   0.893   3.727
10481SOL     OW32341   6.669   1.225   0.905
10481SOL    HW132342   6.716   1.149   0.860
10481SOL    HW232343   6.726   1.307   0.900
10482SOL     OW32344   5.569   2.570   3.693
10482SOL    HW132345   5.543   2.633   3.766
10482SOL    HW232346   5.663   2.591   3.664
10483SOL     OW32347   6.312   6.329   0.239
10483SOL    HW132348   6.403   6.360   0.212
10483SOL    HW232349   6.320   6.246   0.294
10484SOL     OW32350   6.521   0.966   2.298
10484SOL    HW132351   6.619   0.973   2.319
10484SOL    HW232352   6.484   1.058   2.284
10485SOL     OW32353   5.134   3.390   5.241
10485SOL    HW132354   5.180   3.302   5.239
10485SOL    HW232355   5.039   3.379   5.209
10486SOL     OW32356   5.397   2.842   2.399
10486SOL    HW132357   5.398   2.890   2.311
10486SOL    HW232358   5.343   2.895   2.464
10487SOL     OW32359   5.460   6.823   1.758
10487SOL    HW132360   5.473   6.841   1.856
10487SOL    HW232361   5.363   6.825   1.736
10488SOL     OW32362   2.986   3.661   0.041
10488SOL    HW132363   2.929   3.612   0.108
10488SOL    HW232364   3.068   3.608   0.023
10489SOL     OW32365   1.295   6.052   5.058
10489SOL    HW132366   1.270   6.018   5.149
10489SOL    HW232367   1.227   6.119   5.029
10490SOL     OW32368   6.367   0.475   4.440
10490SOL    HW132369   6.309   0.394   4.433
10490SOL    HW232370   6.457   0.455   4.402
10491SOL     OW32371   0.584   5.094   5.329
10491SOL    HW132372   0.637   5.177   5.313
10491SOL    HW232373   0.505   5.116   5.386
10492SOL     OW32374   4.145   4.514   5.794
10492SOL    HW132375   4.144   4.561   5.706
10492SOL    HW232376   4.058   4.467   5.809
10493SOL     OW32377   3.188   1.059   0.587
10493SOL    HW132378   3.194   1.155   0.559
10493SOL    HW232379   3.175   1.054   0.686
10494SOL     OW32380   5.680   2.155   4.837
10494SOL    HW132381   5.754   2.174   4.773
10494SOL    HW232382   5.688   2.215   4.917
10495SOL     OW32383   1.763   6.696   0.597
10495SOL    HW132384   1.731   6.678   0.690
10495SOL    HW232385   1.794   6.791   0.590
10496SOL     OW32386   6.661   0.577   5.212
10496SOL    HW132387   6.676   0.482   5.239
10496SOL    HW232388   6.722   0.637   5.263
10497SOL     OW32389   0.708   1.839   6.976
10497SOL    HW132390   0.720   1.849   6.877
10497SOL    HW232391   0.766   1.905   0.002
10498SOL     OW32392   2.732   4.972   6.248
10498SOL    HW132393   2.799   4.910   6.207
10498SOL    HW232394   2.763   5.066   6.236
10499SOL     OW32395   2.919   5.402   3.089
10499SOL    HW132396   2.913   5.305   3.066
10499SOL    HW232397   2.967   5.451   3.017
10500SOL     OW32398   1.552   2.289   6.886
10500SOL    HW132399   1.649   2.294   6.912
10500SOL    HW232400   1.532   2.361   6.819
10501SOL     OW32401   1.104   2.116   3.347
10501SOL    HW132402   1.011   2.125   3.312
10501SOL    HW232403   1.169   2.119   3.271
10502SOL     OW32404   3.054   6.102   5.096
10502SOL    HW132405   3.131   6.039   5.096
10502SOL    HW232406   2.969   6.053   5.076
10503SOL     OW32407   2.688   3.693   5.449
10503SOL    HW132408   2.632   3.630   5.396
10503SOL    HW232409   2.732   3.644   5.524
10504SOL     OW32410   2.296   3.330   1.016
10504SOL    HW132411   2.202   3.344   0.986
10504SOL    HW232412   2.325   3.407   1.073
10505SOL     OW32413   0.480   0.004   1.176
10505SOL    HW132414   0.548   0.060   1.225
10505SOL    HW232415   0.447   0.054   1.096
10506SOL     OW32416   6.898   4.095   5.386
10506SOL    HW132417   6.802   4.069   5.382
10506SOL    HW232418   6.953   4.032   5.332
10507SOL     OW32419   1.156   0.319   4.622
10507SOL    HW132420   1.186   0.415   4.624
10507SOL    HW232421   1.078   0.307   4.683
10508SOL     OW32422   5.183   3.814   2.215
10508SOL    HW132423   5.270   3.800   2.263
10508SOL    HW232424   5.139   3.725   2.199
10509SOL     OW32425   1.570   0.622   5.412
10509SOL    HW132426   1.584   0.542   5.470
10509SOL    HW232427   1.651   0.639   5.357
10510SOL     OW32428   6.045   6.295   0.368
10510SOL    HW132429   6.015   6.290   0.273
10510SOL    HW232430   6.137   6.258   0.377
10511SOL     OW32431   6.804   2.183   0.516
10511SOL    HW132432   6.731   2.126   0.555
10511SOL    HW232433   6.830   2.146   0.427
10512SOL     OW32434   3.244   6.039   6.525
10512SOL    HW132435   3.237   6.113   6.457
10512SOL    HW232436   3.263   6.079   6.615
10513SOL     OW32437   6.614   2.213   0.247
10513SOL    HW132438   6.558   2.222   0.165
10513SOL    HW232439   6.613   2.118   0.279
10514SOL     OW32440   6.624   3.791   1.423
10514SOL    HW132441   6.716   3.751   1.426
10514SOL    HW232442   6.631   3.891   1.424
10515SOL     OW32443   6.151   2.368   4.644
10515SOL    HW132444   6.213   2.289   4.644
10515SOL    HW232445   6.169   2.424   4.725
10516SOL     OW32446   3.850   0.199   0.115
10516SOL    HW132447   3.859   0.100   0.120
10516SOL    HW232448   3.783   0.224   0.045
10517SOL     OW32449   6.900   2.792   3.028
10517SOL    HW132450   6.986   2.771   3.074
10517SOL    HW232451   6.845   2.709   3.020
10518SOL     OW32452   0.686   6.659   2.432
10518SOL    HW132453   0.634   6.688   2.352
10518SOL    HW232454   0.755   6.591   2.405
10519SOL     OW32455   3.339   3.708   5.258
10519SOL    HW132456   3.319   3.673   5.166
10519SOL    HW232457   3.359   3.632   5.319
10520SOL     OW32458   3.891   4.221   6.384
10520SOL    HW132459   3.791   4.227   6.383
10520SOL    HW232460   3.930   4.308   6.352
10521SOL     OW32461   6.538   5.085   2.190
10521SOL    HW132462   6.511   5.139   2.270
10521SOL    HW232463   6.610   5.020   2.215
10522SOL     OW32464   6.468   7.011   1.927
10522SOL    HW132465   6.473   6.911   1.922
10522SOL    HW232466   6.545   0.023   1.981
10523SOL     OW32467   7.008   6.021   6.770
10523SOL    HW132468   0.011   6.117   6.779
10523SOL    HW232469   0.062   5.964   6.802
10524SOL     OW32470   4.100   0.760   4.432
10524SOL    HW132471   4.129   0.732   4.523
10524SOL    HW232472   4.148   0.706   4.363
10525SOL     OW32473   2.814   6.476   4.772
10525SOL    HW132474   2.773   6.563   4.798
10525SOL    HW232475   2.818   6.416   4.851
10526SOL     OW32476   6.041   6.849   1.930
10526SOL    HW132477   6.063   6.873   1.836
10526SOL    HW232478   5.998   6.927   1.976
10527SOL     OW32479   1.772   2.990   4.390
10527SOL    HW132480   1.789   2.904   4.341
10527SOL    HW232481   1.816   2.987   4.479
10528SOL     OW32482   6.684   4.677   5.552
10528SOL    HW132483   6.780   4.707   5.553
10528SOL    HW232484   6.660   4.648   5.459
10529SOL     OW32485   5.937   6.372   3.826
10529SOL    HW132486   5.851   6.406   3.789
10529SOL    HW232487   5.989   6.326   3.754
10530SOL     OW32488   1.856   1.609   5.564
10530SOL    HW132489   1.914   1.589   5.485
10530SOL    HW232490   1.907   1.593   5.648
10531SOL     OW32491   2.140   2.196   5.818
10531SOL    HW132492   2.225   2.242   5.795
10531SOL    HW232493   2.116   2.131   5.746
10532SOL     OW32494   3.377   3.157   5.263
10532SOL    HW132495   3.440   3.186   5.192
10532SOL    HW232496   3.292   3.125   5.221
10533SOL     OW32497   2.525   0.860   5.992
10533SOL    HW132498   2.478   0.826   6.073
10533SOL    HW232499   2.622   0.838   5.998
10534SOL     OW32500   6.103   6.066   1.555
10534SOL    HW132501   6.020   6.012   1.545
10534SOL    HW232502   6.112   6.128   1.477
10535SOL     OW32503   0.624   1.624   2.552
10535SOL    HW132504   0.615   1.539   2.603
10535SOL    HW232505   0.552   1.629   2.483
10536SOL     OW32506   4.910   6.384   3.960
10536SOL    HW132507   4.829   6.433   3.925
10536SOL    HW232508   4.989   6.404   3.902
10537SOL     OW32509   0.403   5.218   1.209
10537SOL    HW132510   0.452   5.222   1.296
10537SOL    HW232511   0.453   5.160   1.145
10538SOL     OW32512   4.646   3.865   6.886
10538SOL    HW132513   4.585   3.825   6.817
10538SOL    HW232514   4.659   3.801   6.961
10539SOL     OW32515   0.856   3.609   5.665
10539SOL    HW132516   0.955   3.604   5.669
10539SOL    HW232517   0.828   3.674   5.594
10540SOL     OW32518   3.371   0.572   0.054
10540SOL    HW132519   3.463   0.540   0.078
10540SOL    HW232520   3.325   0.607   0.135
10541SOL     OW32521   4.709   2.194   0.656
10541SOL    HW132522   4.717   2.230   0.749
10541SOL    HW232523   4.636   2.243   0.608
10542SOL     OW32524   1.668   2.511   0.019
10542SOL    HW132525   1.728   2.438   0.051
10542SOL    HW232526   1.573   2.485   0.035
10543SOL     OW32527   2.508   0.591   5.500
10543SOL    HW132528   2.572   0.651   5.547
10543SOL    HW232529   2.506   0.502   5.544
10544SOL     OW32530   0.402   2.253   2.164
10544SOL    HW132531   0.336   2.326   2.142
10544SOL    HW232532   0.353   2.168   2.181
10545SOL     OW32533   5.373   0.768   3.372
10545SOL    HW132534   5.404   0.723   3.456
10545SOL    HW232535   5.274   0.755   3.362
10546SOL     OW32536   3.779   0.926   4.921
10546SOL    HW132537   3.862   0.870   4.929
10546SOL    HW232538   3.730   0.900   4.838
10547SOL     OW32539   4.493   1.023   0.874
10547SOL    HW132540   4.394   1.029   0.865
10547SOL    HW232541   4.536   1.093   0.817
10548SOL     OW32542   4.768   4.358   5.241
10548SOL    HW132543   4.731   4.434   5.188
10548SOL    HW232544   4.821   4.394   5.317
10549SOL     OW32545   1.291   1.106   1.600
10549SOL    HW132546   1.288   1.088   1.698
10549SOL    HW232547   1.386   1.110   1.569
10550SOL     OW32548   5.283   0.063   5.264
10550SOL    HW132549   5.319   0.035   5.354
10550SOL    HW232550   5.342   0.134   5.226
10551SOL     OW32551   1.758   2.647   5.817
10551SOL    HW132552   1.835   2.675   5.760
10551SOL    HW232553   1.683   2.712   5.805
10552SOL     OW32554   3.105   2.031   5.173
10552SOL    HW132555   3.140   1.938   5.161
10552SOL    HW232556   3.142   2.090   5.100
10553SOL     OW32557   2.910   4.750   6.118
10553SOL    HW132558   2.879   4.657   6.137
10553SOL    HW232559   2.990   4.747   6.058
10554SOL     OW32560   6.442   4.565   5.414
10554SOL    HW132561   6.359   4.606   5.452
10554SOL    HW232562   6.442   4.576   5.315
10555SOL     OW32563   3.487   2.559   1.348
10555SOL    HW132564   3.522   2.473   1.384
10555SOL    HW232565   3.536   2.582   1.264
10556SOL     OW32566   2.111   3.468   4.234
10556SOL    HW132567   2.169   3.388   4.221
10556SOL    HW232568   2.075   3.469   4.327
10557SOL     OW32569   5.998   1.650   3.697
10557SOL    HW132570   5.946   1.628   3.614
10557SOL    HW232571   6.093   1.669   3.673
10558SOL     OW32572   5.295   6.084   4.895
10558SOL    HW132573   5.300   6.049   4.802
10558SOL    HW232574   5.362   6.038   4.953
10559SOL     OW32575   4.679   2.283   0.928
10559SOL    HW132576   4.618   2.361   0.938
10559SOL    HW232577   4.696   2.241   1.017
10560SOL     OW32578   0.089   3.235   3.998
10560SOL    HW132579   0.012   3.299   3.998
10560SOL    HW232580   0.157   3.265   3.931
10561SOL     OW32581   2.841   4.496   6.232
10561SOL    HW132582   2.794   4.516   6.318
10561SOL    HW232583   2.779   4.514   6.156
10562SOL     OW32584   3.352   1.454   0.574
10562SOL    HW132585   3.263   1.499   0.569
10562SOL    HW232586   3.380   1.425   0.483
10563SOL     OW32587   1.673   1.713   4.026
10563SOL    HW132588   1.755   1.743   4.074
10563SOL    HW232589   1.601   1.691   4.093
10564SOL     OW32590   0.259   2.266   1.590
10564SOL    HW132591   0.174   2.220   1.617
10564SOL    HW232592   0.241   2.364   1.579
10565SOL     OW32593   5.386   1.461   5.092
10565SOL    HW132594   5.482   1.460   5.065
10565SOL    HW232595   5.334   1.516   5.026
10566SOL     OW32596   4.092   4.901   6.574
10566SOL    HW132597   4.031   4.898   6.495
10566SOL    HW232598   4.171   4.960   6.554
10567SOL     OW32599   2.177   5.031   3.841
10567SOL    HW132600   2.131   4.949   3.808
10567SOL    HW232601   2.120   5.111   3.825
10568SOL     OW32602   4.060   1.784   3.232
10568SOL    HW132603   4.044   1.713   3.301
10568SOL    HW232604   4.094   1.741   3.149
10569SOL     OW32605   6.010   2.941   3.170
10569SOL    HW132606   6.033   2.875   3.241
10569SOL    HW232607   5.961   3.018   3.210
10570SOL     OW32608   0.816   4.388   1.840
10570SOL    HW132609   0.890   4.356   1.899
10570SOL    HW232610   0.851   4.409   1.749
10571SOL     OW32611   6.217   6.823   5.065
10571SOL    HW132612   6.301   6.784   5.026
10571SOL    HW232613   6.230   6.921   5.079
10572SOL     OW32614   6.455   2.892   1.585
10572SOL    HW132615   6.433   2.948   1.666
10572SOL    HW232616   6.504   2.810   1.613
10573SOL     OW32617   6.261   4.599   6.353
10573SOL    HW132618   6.168   4.581   6.319
10573SOL    HW232619   6.291   4.523   6.410
10574SOL     OW32620   0.680   2.041   3.308
10574SOL    HW132621   0.741   2.002   3.377
10574SOL    HW232622   0.601   2.083   3.352
10575SOL     OW32623   0.722   6.656   6.012
10575SOL    HW132624   0.673   6.606   6.083
10575SOL    HW232625   0.759   6.591   5.945
10576SOL     OW32626   1.319   4.796   3.264
10576SOL    HW132627   1.249   4.861   3.236
10576SOL    HW232628   1.277   4.723   3.318
10577SOL     OW32629   0.890   3.230   5.561
10577SOL    HW132630   0.862   3.158   5.626
10577SOL    HW232631   0.985   3.216   5.536
10578SOL     OW32632   5.734   0.794   5.634
10578SOL    HW132633   5.751   0.892   5.624
10578SOL    HW232634   5.650   0.780   5.686
10579SOL     OW32635   4.868   0.406   0.560
10579SOL    HW132636   4.794   0.459   0.601
10579SOL    HW232637   4.931   0.376   0.632
10580SOL     OW32638   5.856   5.835   0.701
10580SOL    HW132639   5.807   5.801   0.782
10580SOL    HW232640   5.917   5.910   0.728
10581SOL     OW32641   4.353   1.684   3.544
10581SOL    HW132642   4.432   1.624   3.552
10581SOL    HW232643   4.372   1.770   3.592
10582SOL     OW32644   3.139   4.838   0.239
10582SOL    HW132645   3.052   4.791   0.224
10582SOL    HW232646   3.166   4.828   0.334
10583SOL     OW32647   4.303   1.170   0.602
10583SOL    HW132648   4.232   1.178   0.672
10583SOL    HW232649   4.392   1.191   0.641
10584SOL     OW32650   6.691   0.269   1.471
10584SOL    HW132651   6.656   0.186   1.514
10584SOL    HW232652   6.667   0.269   1.374
10585SOL     OW32653   1.931   4.398   6.446
10585SOL    HW132654   2.003   4.378   6.513
10585SOL    HW232655   1.936   4.495   6.420
10586SOL     OW32656   4.441   1.287   0.312
10586SOL    HW132657   4.423   1.257   0.218
10586SOL    HW232658   4.373   1.248   0.373
10587SOL     OW32659   6.310   3.522   0.742
10587SOL    HW132660   6.408   3.513   0.762
10587SOL    HW232661   6.285   3.459   0.669
10588SOL     OW32662   1.038   5.104   3.578
10588SOL    HW132663   1.042   5.175   3.508
10588SOL    HW232664   1.106   5.033   3.557
10589SOL     OW32665   6.147   1.390   4.373
10589SOL    HW132666   6.083   1.447   4.426
10589SOL    HW232667   6.107   1.371   4.283
10590SOL     OW32668   1.781   0.699   4.626
10590SOL    HW132669   1.836   0.618   4.647
10590SOL    HW232670   1.751   0.742   4.711
10591SOL     OW32671   1.415   2.279   0.679
10591SOL    HW132672   1.457   2.216   0.614
10591SOL    HW232673   1.462   2.272   0.767
10592SOL     OW32674   6.309   1.464   6.795
10592SOL    HW132675   6.223   1.441   6.842
10592SOL    HW232676   6.327   1.562   6.806
10593SOL     OW32677   2.053   4.715   1.611
10593SOL    HW132678   2.027   4.667   1.695
10593SOL    HW232679   2.142   4.682   1.580
10594SOL     OW32680   0.997   2.095   4.412
10594SOL    HW132681   1.026   2.074   4.319
10594SOL    HW232682   1.072   2.075   4.476
10595SOL     OW32683   2.142   6.293   5.534
10595SOL    HW132684   2.084   6.219   5.500
10595SOL    HW232685   2.237   6.262   5.536
10596SOL     OW32686   3.579   0.638   2.092
10596SOL    HW132687   3.638   0.654   2.171
10596SOL    HW232688   3.528   0.721   2.070
10597SOL     OW32689   1.863   0.484   3.774
10597SOL    HW132690   1.822   0.555   3.832
10597SOL    HW232691   1.851   0.509   3.678
10598SOL     OW32692   2.046   1.815   6.938
10598SOL    HW132693   2.121   1.763   6.896
10598SOL    HW232694   2.063   1.822   0.015
10599SOL     OW32695   4.960   0.811   6.562
10599SOL    HW132696   4.866   0.796   6.530
10599SOL    HW232697   5.008   0.724   6.566
10600SOL     OW32698   1.687   2.431   5.577
10600SOL    HW132699   1.717   2.391   5.491
10600SOL    HW232700   1.755   2.412   5.648
10601SOL     OW32701   3.559   5.888   5.887
10601SOL    HW132702   3.528   5.797   5.859
10601SOL    HW232703   3.604   5.933   5.810
10602SOL     OW32704   4.366   1.172   1.478
10602SOL    HW132705   4.426   1.123   1.542
10602SOL    HW232706   4.415   1.187   1.392
10603SOL     OW32707   0.703   4.935   4.165
10603SOL    HW132708   0.742   5.019   4.203
10603SOL    HW232709   0.769   4.861   4.174
10604SOL     OW32710   6.717   3.901   5.163
10604SOL    HW132711   6.700   3.955   5.081
10604SOL    HW232712   6.659   3.820   5.162
10605SOL     OW32713   2.131   5.180   6.133
10605SOL    HW132714   2.074   5.231   6.198
10605SOL    HW232715   2.073   5.147   6.058
10606SOL     OW32716   0.489   0.814   2.940
10606SOL    HW132717   0.507   0.818   3.038
10606SOL    HW232718   0.513   0.723   2.905
10607SOL     OW32719   5.693   4.856   6.932
10607SOL    HW132720   5.718   4.948   6.963
10607SOL    HW232721   5.720   4.844   6.837
10608SOL     OW32722   5.877   0.569   2.622
10608SOL    HW132723   5.975   0.557   2.606
10608SOL    HW232724   5.853   0.527   2.710
10609SOL     OW32725   3.881   6.857   1.750
10609SOL    HW132726   3.970   6.902   1.743
10609SOL    HW232727   3.808   6.925   1.742
10610SOL     OW32728   2.043   3.932   4.782
10610SOL    HW132729   2.025   3.887   4.870
10610SOL    HW232730   2.042   4.031   4.795
10611SOL     OW32731   5.179   2.193   6.155
10611SOL    HW132732   5.138   2.119   6.209
10611SOL    HW232733   5.253   2.157   6.099
10612SOL     OW32734   1.097   6.686   0.644
10612SOL    HW132735   1.096   6.634   0.729
10612SOL    HW232736   1.190   6.690   0.608
10613SOL     OW32737   0.695   6.347   6.857
10613SOL    HW132738   0.795   6.340   6.859
10613SOL    HW232739   0.660   6.301   6.776
10614SOL     OW32740   6.808   0.757   4.099
10614SOL    HW132741   6.732   0.821   4.112
10614SOL    HW232742   6.797   0.679   4.160
10615SOL     OW32743   0.058   5.789   5.411
10615SOL    HW132744   0.015   5.735   5.484
10615SOL    HW232745   0.035   5.885   5.422
10616SOL     OW32746   3.143   6.251   0.580
10616SOL    HW132747   3.218   6.278   0.519
10616SOL    HW232748   3.173   6.177   0.640
10617SOL     OW32749   0.173   2.144   6.550
10617SOL    HW132750   0.248   2.079   6.534
10617SOL    HW232751   0.118   2.152   6.467
10618SOL     OW32752   5.933   3.990   1.492
10618SOL    HW132753   5.997   3.923   1.528
10618SOL    HW232754   5.915   3.970   1.395
10619SOL     OW32755   0.289   4.171   3.680
10619SOL    HW132756   0.213   4.144   3.621
10619SOL    HW232757   0.298   4.106   3.755
10620SOL     OW32758   1.291   5.802   4.407
10620SOL    HW132759   1.191   5.799   4.411
10620SOL    HW232760   1.325   5.876   4.465
10621SOL     OW32761   2.646   6.438   0.635
10621SOL    HW132762   2.740   6.404   0.639
10621SOL    HW232763   2.637   6.518   0.694
10622SOL     OW32764   4.637   1.804   1.686
10622SOL    HW132765   4.674   1.814   1.778
10622SOL    HW232766   4.562   1.738   1.688
10623SOL     OW32767   6.973   0.915   3.951
10623SOL    HW132768   7.002   0.993   4.006
10623SOL    HW232769   6.945   0.840   4.011
10624SOL     OW32770   2.899   2.009   4.408
10624SOL    HW132771   2.800   1.993   4.409
10624SOL    HW232772   2.917   2.105   4.386
10625SOL     OW32773   0.319   3.164   0.247
10625SOL    HW132774   0.280   3.245   0.204
10625SOL    HW232775   0.265   3.140   0.327
10626SOL     OW32776   6.451   1.758   1.549
10626SOL    HW132777   6.472   1.805   1.463
10626SOL    HW232778   6.386   1.684   1.531
10627SOL     OW32779   6.472   5.295   4.536
10627SOL    HW132780   6.473   5.263   4.441
10627SOL    HW232781   6.391   5.259   4.582
10628SOL     OW32782   6.827   6.236   6.090
10628SOL    HW132783   6.741   6.275   6.123
10628SOL    HW232784   6.829   6.239   5.990
10629SOL     OW32785   2.670   5.306   6.183
10629SOL    HW132786   2.679   5.299   6.084
10629SOL    HW232787   2.574   5.320   6.208
10630SOL     OW32788   6.547   0.874   2.894
10630SOL    HW132789   6.580   0.860   2.988
10630SOL    HW232790   6.582   0.801   2.836
10631SOL     OW32791   0.872   0.253   5.262
10631SOL    HW132792   0.967   0.248   5.291
10631SOL    HW232793   0.867   0.248   5.162
10632SOL     OW32794   0.417   3.022   5.151
10632SOL    HW132795   0.483   3.088   5.187
10632SOL    HW232796   0.436   3.006   5.054
10633SOL     OW32797   1.178   4.870   0.273
10633SOL    HW132798   1.126   4.792   0.306
10633SOL    HW232799   1.155   4.887   0.177
10634SOL     OW32800   4.163   6.737   1.521
10634SOL    HW132801   4.068   6.743   1.490
10634SOL    HW232802   4.224   6.767   1.448
10635SOL     OW32803   1.586   0.927   1.337
10635SOL    HW132804   1.574   0.979   1.421
10635SOL    HW232805   1.684   0.911   1.322
10636SOL     OW32806   6.462   1.377   0.738
10636SOL    HW132807   6.439   1.289   0.781
10636SOL    HW232808   6.497   1.440   0.806
10637SOL     OW32809   4.139   4.699   5.568
10637SOL    HW132810   4.145   4.798   5.574
10637SOL    HW232811   4.180   4.668   5.482
10638SOL     OW32812   6.904   0.577   5.597
10638SOL    HW132813   6.847   0.500   5.627
10638SOL    HW232814   6.956   0.549   5.516
10639SOL     OW32815   3.180   1.493   5.440
10639SOL    HW132816   3.111   1.504   5.369
10639SOL    HW232817   3.220   1.582   5.463
10640SOL     OW32818   4.080   6.483   1.286
10640SOL    HW132819   4.070   6.556   1.219
10640SOL    HW232820   3.990   6.459   1.324
10641SOL     OW32821   4.241   0.838   6.393
10641SOL    HW132822   4.229   0.910   6.463
10641SOL    HW232823   4.152   0.815   6.354
10642SOL     OW32824   6.899   4.130   0.596
10642SOL    HW132825   6.891   4.102   0.500
10642SOL    HW232826   6.815   4.108   0.645
10643SOL     OW32827   4.233   3.216   5.399
10643SOL    HW132828   4.158   3.193   5.462
10643SOL    HW232829   4.289   3.135   5.384
10644SOL     OW32830   3.311   1.368   5.001
10644SOL    HW132831   3.323   1.334   5.094
10644SOL    HW232832   3.388   1.338   4.944
10645SOL     OW32833   2.207   6.830   5.377
10645SOL    HW132834   2.214   6.927   5.352
10645SOL    HW232835   2.114   6.798   5.363
10646SOL     OW32836   0.810   4.277   6.599
10646SOL    HW132837   0.714   4.269   6.627
10646SOL    HW232838   0.828   4.212   6.525
10647SOL     OW32839   0.551   5.322   0.634
10647SOL    HW132840   0.474   5.267   0.604
10647SOL    HW232841   0.635   5.269   0.627
10648SOL     OW32842   4.706   4.933   6.259
10648SOL    HW132843   4.773   4.976   6.199
10648SOL    HW232844   4.619   4.983   6.251
10649SOL     OW32845   0.272   4.316   6.163
10649SOL    HW132846   0.265   4.247   6.234
10649SOL    HW232847   0.320   4.396   6.199
10650SOL     OW32848   2.970   1.125   4.273
10650SOL    HW132849   3.033   1.050   4.295
10650SOL    HW232850   2.941   1.170   4.358
10651SOL     OW32851   2.770   6.923   5.262
10651SOL    HW132852   2.822   6.967   5.189
10651SOL    HW232853   2.816   6.937   5.350
10652SOL     OW32854   4.037   0.774   0.376
10652SOL    HW132855   4.002   0.859   0.414
10652SOL    HW232856   4.011   0.698   0.435
10653SOL     OW32857   5.713   2.472   3.977
10653SOL    HW132858   5.614   2.481   3.987
10653SOL    HW232859   5.755   2.562   3.988
10654SOL     OW32860   4.579   0.880   1.310
10654SOL    HW132861   4.615   0.802   1.360
10654SOL    HW232862   4.483   0.864   1.286
10655SOL     OW32863   3.246   5.777   1.433
10655SOL    HW132864   3.182   5.754   1.506
10655SOL    HW232865   3.335   5.800   1.472
10656SOL     OW32866   6.475   2.756   6.014
10656SOL    HW132867   6.574   2.768   6.018
10656SOL    HW232868   6.429   2.836   6.054
10657SOL     OW32869   6.341   0.262   1.613
10657SOL    HW132870   6.402   0.186   1.630
10657SOL    HW232871   6.343   0.325   1.690
10658SOL     OW32872   0.509   6.703   4.951
10658SOL    HW132873   0.441   6.726   5.021
10658SOL    HW232874   0.587   6.659   4.994
10659SOL     OW32875   5.069   0.710   0.642
10659SOL    HW132876   5.040   0.740   0.551
10659SOL    HW232877   4.989   0.688   0.698
10660SOL     OW32878   5.434   5.183   5.427
10660SOL    HW132879   5.334   5.176   5.429
10660SOL    HW232880   5.474   5.093   5.412
10661SOL     OW32881   0.982   0.165   2.237
10661SOL    HW132882   0.892   0.208   2.238
10661SOL    HW232883   0.988   0.101   2.161
10662SOL     OW32884   5.406   1.615   0.701
10662SOL    HW132885   5.403   1.671   0.784
10662SOL    HW232886   5.313   1.588   0.676
10663SOL     OW32887   0.704   1.045   0.431
10663SOL    HW132888   0.797   1.012   0.413
10663SOL    HW232889   0.689   1.130   0.381
10664SOL     OW32890   2.038   4.973   6.389
10664SOL    HW132891   1.948   4.993   6.351
10664SOL    HW232892   2.108   4.998   6.322
10665SOL     OW32893   6.197   1.178   6.732
10665SOL    HW132894   6.283   1.127   6.730
10665SOL    HW232895   6.184   1.219   6.822
10666SOL     OW32896   0.687   0.171   0.433
10666SOL    HW132897   0.760   0.239   0.442
10666SOL    HW232898   0.653   0.169   0.339
10667SOL     OW32899   3.383   2.308   5.376
10667SOL    HW132900   3.336   2.331   5.290
10667SOL    HW232901   3.374   2.210   5.394
10668SOL     OW32902   2.326   0.698   6.647
10668SOL    HW132903   2.380   0.715   6.565
10668SOL    HW232904   2.366   0.621   6.697
10669SOL     OW32905   1.302   6.445   6.893
10669SOL    HW132906   1.271   6.349   6.896
10669SOL    HW232907   1.222   6.505   6.885
10670SOL     OW32908   6.991   4.910   5.149
10670SOL    HW132909   0.039   4.923   5.077
10670SOL    HW232910   7.013   4.830   5.204
10671SOL     OW32911   1.753   2.086   3.601
10671SOL    HW132912   1.776   2.180   3.574
10671SOL    HW232913   1.786   2.069   3.694
10672SOL     OW32914   0.204   2.374   0.982
10672SOL    HW132915   0.158   2.331   1.059
10672SOL    HW232916   0.288   2.324   0.961
10673SOL     OW32917   3.365   3.289   4.727
10673SOL    HW132918   3.353   3.250   4.818
10673SOL    HW232919   3.381   3.387   4.735
10674SOL     OW32920   3.913   1.739   2.556
10674SOL    HW132921   3.943   1.645   2.574
10674SOL    HW232922   3.929   1.760   2.460
10675SOL     OW32923   0.199   0.862   6.464
10675SOL    HW132924   0.197   0.864   6.364
10675SOL    HW232925   0.248   0.943   6.498
10676SOL     OW32926   6.507   6.967   0.223
10676SOL    HW132927   6.472   6.931   0.136
10676SOL    HW232928   6.605   6.946   0.231
10677SOL     OW32929   6.510   1.329   0.479
10677SOL    HW132930   6.482   1.363   0.569
10677SOL    HW232931   6.576   1.255   0.490
10678SOL     OW32932   1.921   5.331   3.235
10678SOL    HW132933   1.940   5.390   3.157
10678SOL    HW232934   1.825   5.305   3.235
10679SOL     OW32935   5.112   5.493   3.323
10679SOL    HW132936   5.158   5.581   3.334
10679SOL    HW232937   5.034   5.488   3.386
10680SOL     OW32938   1.352   2.536   3.650
10680SOL    HW132939   1.355   2.633   3.673
10680SOL    HW232940   1.293   2.488   3.716
10681SOL     OW32941   0.369   1.977   6.429
10681SOL    HW132942   0.309   1.904   6.395
10681SOL    HW232943   0.432   1.940   6.497
10682SOL     OW32944   6.171   1.790   2.612
10682SOL    HW132945   6.264   1.752   2.617
10682SOL    HW232946   6.134   1.798   2.704
10683SOL     OW32947   1.819   0.686   3.958
10683SOL    HW132948   1.910   0.669   3.995
10683SOL    HW232949   1.768   0.745   4.020
10684SOL     OW32950   5.687   6.102   0.633
10684SOL    HW132951   5.781   6.097   0.600
10684SOL    HW232952   5.684   6.070   0.728
10685SOL     OW32953   6.429   2.673   2.141
10685SOL    HW132954   6.419   2.580   2.176
10685SOL    HW232955   6.489   2.725   2.202
10686SOL     OW32956   4.501   4.307   0.730
10686SOL    HW132957   4.475   4.272   0.639
10686SOL    HW232958   4.439   4.381   0.756
10687SOL     OW32959   6.887   5.340   1.118
10687SOL    HW132960   6.801   5.311   1.075
10687SOL    HW232961   6.912   5.275   1.190
10688SOL     OW32962   6.816   5.629   1.019
10688SOL    HW132963   6.846   5.545   1.063
10688SOL    HW232964   6.758   5.681   1.082
10689SOL     OW32965   0.878   0.457   1.582
10689SOL    HW132966   0.839   0.518   1.513
10689SOL    HW232967   0.888   0.365   1.544
10690SOL     OW32968   4.891   6.393   2.742
10690SOL    HW132969   4.831   6.355   2.672
10690SOL    HW232970   4.986   6.383   2.713
10691SOL     OW32971   6.287   1.545   1.476
10691SOL    HW132972   6.346   1.516   1.401
10691SOL    HW232973   6.213   1.602   1.441
10692SOL     OW32974   5.665   6.138   4.276
10692SOL    HW132975   5.716   6.185   4.204
10692SOL    HW232976   5.724   6.123   4.355
10693SOL     OW32977   4.683   2.715   3.523
10693SOL    HW132978   4.693   2.727   3.621
10693SOL    HW232979   4.602   2.659   3.504
10694SOL     OW32980   3.404   6.659   0.887
10694SOL    HW132981   3.460   6.704   0.817
10694SOL    HW232982   3.345   6.591   0.844
10695SOL     OW32983   5.991   2.577   5.293
10695SOL    HW132984   5.935   2.615   5.220
10695SOL    HW232985   6.035   2.651   5.344
10696SOL     OW32986   7.002   6.727   1.875
10696SOL    HW132987   6.947   6.769   1.802
10696SOL    HW232988   6.969   6.757   1.964
10697SOL     OW32989   2.475   6.813   3.056
10697SOL    HW132990   2.529   6.860   2.986
10697SOL    HW232991   2.535   6.756   3.113
10698SOL     OW32992   3.139   0.425   3.366
10698SOL    HW132993   3.087   0.474   3.296
10698SOL    HW232994   3.111   0.456   3.457
10699SOL     OW32995   2.328   2.761   3.070
10699SOL    HW132996   2.406   2.725   3.122
10699SOL    HW232997   2.268   2.812   3.132
10700SOL     OW32998   0.295   1.208   1.933
10700SOL    HW132999   0.265   1.139   1.998
10700SOL    HW233000   0.391   1.230   1.948
10701SOL     OW33001   3.203   0.063   1.160
10701SOL    HW133002   3.219   0.013   1.075
10701SOL    HW233003   3.209   7.021   1.238
10702SOL     OW33004   4.898   2.434   0.838
10702SOL    HW133005   4.810   2.396   0.867
10702SOL    HW233006   4.945   2.472   0.918
10703SOL     OW33007   3.939   3.030   3.957
10703SOL    HW133008   3.956   2.999   3.864
10703SOL    HW233009   3.974   3.123   3.969
10704SOL     OW33010   6.066   6.114   1.998
10704SOL    HW133011   6.019   6.056   2.065
10704SOL    HW233012   6.033   6.208   2.009
10705SOL     OW33013   1.511   3.334   6.170
10705SOL    HW133014   1.592   3.340   6.111
10705SOL    HW233015   1.428   3.343   6.115
10706SOL     OW33016   3.439   2.098   1.137
10706SOL    HW133017   3.481   2.090   1.047
10706SOL    HW233018   3.413   2.194   1.153
10707SOL     OW33019   6.166   6.903   6.370
10707SOL    HW133020   6.078   6.937   6.338
10707SOL    HW233021   6.238   6.966   6.342
10708SOL     OW33022   4.521   1.249   1.274
10708SOL    HW133023   4.490   1.344   1.283
10708SOL    HW233024   4.608   1.237   1.321
10709SOL     OW33025   0.864   0.084   6.191
10709SOL    HW133026   0.944   0.121   6.238
10709SOL    HW233027   0.781   0.126   6.227
10710SOL     OW33028   6.809   5.871   4.045
10710SOL    HW133029   6.876   5.831   3.983
10710SOL    HW233030   6.851   5.886   4.135
10711SOL     OW33031   2.354   5.603   5.402
10711SOL    HW133032   2.338   5.526   5.341
10711SOL    HW233033   2.270   5.658   5.409
10712SOL     OW33034   4.165   1.781   6.057
10712SOL    HW133035   4.161   1.729   6.143
10712SOL    HW233036   4.095   1.748   5.995
10713SOL     OW33037   2.150   6.109   0.662
10713SOL    HW133038   2.072   6.089   0.722
10713SOL    HW233039   2.124   6.179   0.595
10714SOL     OW33040   6.581   5.531   5.199
10714SOL    HW133041   6.625   5.618   5.176
10714SOL    HW233042   6.612   5.502   5.290
10715SOL     OW33043   5.963   1.182   3.491
10715SOL    HW133044   6.051   1.138   3.471
10715SOL    HW233045   5.944   1.176   3.589
10716SOL     OW33046   0.170   0.855   2.633
10716SOL    HW133047   0.169   0.878   2.536
10716SOL    HW233048   0.171   0.939   2.688
10717SOL     OW33049   0.164   6.719   2.233
10717SOL    HW133050   0.187   6.667   2.151
10717SOL    HW233051   0.141   6.656   2.307
10718SOL     OW33052   1.044   4.045   5.727
10718SOL    HW133053   1.084   4.131   5.760
10718SOL    HW233054   1.089   4.018   5.642
10719SOL     OW33055   3.782   6.283   2.204
10719SOL    HW133056   3.798   6.336   2.288
10719SOL    HW233057   3.810   6.337   2.125
10720SOL     OW33058   0.260   3.284   6.314
10720SOL    HW133059   0.183   3.294   6.377
10720SOL    HW233060   0.340   3.328   6.353
10721SOL     OW33061   5.269   1.921   4.994
10721SOL    HW133062   5.222   1.969   5.068
10721SOL    HW233063   5.322   1.986   4.939
10722SOL     OW33064   6.966   4.899   0.598
10722SOL    HW133065   6.969   4.947   0.510
10722SOL    HW233066   0.007   4.945   0.662
10723SOL     OW33067   6.235   4.353   0.102
10723SOL    HW133068   6.172   4.427   0.129
10723SOL    HW233069   6.327   4.391   0.090
10724SOL     OW33070   3.072   0.168   5.647
10724SOL    HW133071   2.978   0.153   5.678
10724SOL    HW233072   3.132   0.180   5.725
10725SOL     OW33073   6.995   0.484   5.360
10725SOL    HW133074   7.006   0.565   5.304
10725SOL    HW233075   6.919   0.429   5.325
10726SOL     OW33076   6.231   1.057   3.774
10726SOL    HW133077   6.176   1.112   3.837
10726SOL    HW233078   6.325   1.090   3.773
10727SOL     OW33079   3.690   6.581   6.456
10727SOL    HW133080   3.658   6.661   6.507
10727SOL    HW233081   3.789   6.572   6.466
10728SOL     OW33082   5.924   5.447   3.823
10728SOL    HW133083   5.993   5.519   3.818
10728SOL    HW233084   5.935   5.395   3.907
10729SOL     OW33085   5.785   3.166   3.742
10729SOL    HW133086   5.816   3.072   3.727
10729SOL    HW233087   5.861   3.222   3.773
10730SOL     OW33088   1.450   5.778   3.832
10730SOL    HW133089   1.482   5.865   3.794
10730SOL    HW233090   1.422   5.792   3.927
10731SOL     OW33091   4.868   5.645   6.559
10731SOL    HW133092   4.783   5.681   6.518
10731SOL    HW233093   4.862   5.651   6.658
10732SOL     OW33094   6.559   6.098   2.194
10732SOL    HW133095   6.603   6.050   2.119
10732SOL    HW233096   6.596   6.190   2.202
10733SOL     OW33097   0.423   1.721   6.241
10733SOL    HW133098   0.509   1.763   6.271
10733SOL    HW233099   0.443   1.650   6.174
10734SOL     OW33100   1.011   0.768   4.692
10734SOL    HW133101   1.049   0.756   4.601
10734SOL    HW233102   1.027   0.686   4.746
10735SOL     OW33103   0.463   0.177   2.218
10735SOL    HW133104   0.384   0.117   2.216
10735SOL    HW233105   0.533   0.138   2.279
10736SOL     OW33106   5.550   5.740   3.197
10736SOL    HW133107   5.474   5.764   3.135
10736SOL    HW233108   5.524   5.761   3.291
10737SOL     OW33109   6.517   0.816   1.832
10737SOL    HW133110   6.504   0.762   1.915
10737SOL    HW233111   6.578   0.893   1.851
10738SOL     OW33112   2.548   6.864   1.753
10738SOL    HW133113   2.609   6.788   1.729
10738SOL    HW233114   2.554   6.882   1.851
10739SOL     OW33115   5.337   3.100   4.225
10739SOL    HW133116   5.316   3.149   4.310
10739SOL    HW233117   5.288   3.144   4.149
10740SOL     OW33118   2.914   0.042   5.934
10740SOL    HW133119   2.978   0.112   5.902
10740SOL    HW233120   2.956   6.973   5.925
10741SOL     OW33121   1.480   2.375   3.470
10741SOL    HW133122   1.409   2.368   3.400
10741SOL    HW233123   1.446   2.428   3.548
10742SOL     OW33124   6.701   6.714   1.885
10742SOL    HW133125   6.728   6.622   1.857
10742SOL    HW233126   6.725   6.779   1.813
10743SOL     OW33127   3.626   1.963   5.849
10743SOL    HW133128   3.618   1.868   5.877
10743SOL    HW233129   3.648   1.967   5.751
10744SOL     OW33130   2.537   1.660   1.353
10744SOL    HW133131   2.555   1.708   1.266
10744SOL    HW233132   2.444   1.681   1.384
10745SOL     OW33133   2.785   4.959   1.121
10745SOL    HW133134   2.709   4.901   1.091
10745SOL    HW233135   2.772   5.052   1.087
10746SOL     OW33136   2.448   5.450   6.494
10746SOL    HW133137   2.492   5.534   6.462
10746SOL    HW233138   2.479   5.430   6.587
10747SOL     OW33139   6.955   1.320   4.520
10747SOL    HW133140   6.943   1.260   4.599
10747SOL    HW233141   6.978   1.412   4.552
10748SOL     OW33142   3.027   6.338   2.554
10748SOL    HW133143   2.960   6.378   2.617
10748SOL    HW233144   3.109   6.312   2.606
10749SOL     OW33145   6.167   4.419   2.060
10749SOL    HW133146   6.073   4.405   2.027
10749SOL    HW233147   6.208   4.497   2.012
10750SOL     OW33148   4.134   2.229   4.459
10750SOL    HW133149   4.119   2.234   4.558
10750SOL    HW233150   4.047   2.208   4.413
10751SOL     OW33151   6.562   6.079   4.350
10751SOL    HW133152   6.582   5.981   4.360
10751SOL    HW233153   6.482   6.102   4.406
10752SOL     OW33154   6.569   6.392   0.178
10752SOL    HW133155   6.580   6.491   0.183
10752SOL    HW233156   6.660   6.349   0.182
10753SOL     OW33157   5.409   6.780   5.276
10753SOL    HW133158   5.496   6.804   5.233
10753SOL    HW233159   5.357   6.863   5.296
10754SOL     OW33160   1.181   5.227   1.880
10754SOL    HW133161   1.142   5.160   1.943
10754SOL    HW233162   1.279   5.238   1.899
10755SOL     OW33163   0.803   1.903   1.596
10755SOL    HW133164   0.873   1.964   1.634
10755SOL    HW233165   0.764   1.848   1.669
10756SOL     OW33166   1.197   0.346   6.893
10756SOL    HW133167   1.118   0.286   6.882
10756SOL    HW233168   1.238   0.331   6.983
10757SOL     OW33169   0.424   2.765   2.533
10757SOL    HW133170   0.439   2.850   2.585
10757SOL    HW233171   0.366   2.703   2.586
10758SOL     OW33172   1.035   0.662   0.229
10758SOL    HW133173   1.075   0.723   0.160
10758SOL    HW233174   1.102   0.646   0.302
10759SOL     OW33175   3.369   3.057   4.884
10759SOL    HW133176   3.383   2.979   4.946
10759SOL    HW233177   3.373   3.026   4.789
10760SOL     OW33178   0.678   5.140   6.973
10760SOL    HW133179   0.608   5.108   0.014
10760SOL    HW233180   0.681   5.080   6.893
10761SOL     OW33181   1.140   1.909   5.956
10761SOL    HW133182   1.144   1.985   6.021
10761SOL    HW233183   1.116   1.944   5.865
10762SOL     OW33184   1.999   5.703   0.308
10762SOL    HW133185   2.060   5.684   0.385
10762SOL    HW233186   1.933   5.629   0.299
10763SOL     OW33187   4.682   0.919   3.338
10763SOL    HW133188   4.724   0.832   3.362
10763SOL    HW233189   4.584   0.905   3.320
10764SOL     OW33190   4.857   6.220   4.611
10764SOL    HW133191   4.900   6.215   4.702
10764SOL    HW233192   4.759   6.237   4.622
10765SOL     OW33193   1.017   2.372   1.200
10765SOL    HW133194   1.054   2.347   1.111
10765SOL    HW233195   1.091   2.405   1.259
10766SOL     OW33196   2.645   5.228   6.454
10766SOL    HW133197   2.664   5.267   6.363
10766SOL    HW233198   2.554   5.189   6.455
10767SOL     OW33199   1.516   4.495   6.846
10767SOL    HW133200   1.527   4.565   6.776
10767SOL    HW233201   1.606   4.466   6.880
10768SOL     OW33202   5.338   6.644   6.951
10768SOL    HW133203   5.280   6.720   6.920
10768SOL    HW233204   5.300   6.557   6.919
10769SOL     OW33205   3.023   3.134   4.887
10769SOL    HW133206   3.056   3.061   4.828
10769SOL    HW233207   2.929   3.157   4.862
10770SOL     OW33208   5.776   0.200   3.222
10770SOL    HW133209   5.697   0.172   3.278
10770SOL    HW233210   5.829   0.269   3.271
10771SOL     OW33211   5.020   6.174   5.911
10771SOL    HW133212   5.067   6.218   5.834
10771SOL    HW233213   4.991   6.082   5.884
10772SOL     OW33214   5.550   4.790   2.638
10772SOL    HW133215   5.526   4.793   2.735
10772SOL    HW233216   5.531   4.879   2.596
10773SOL     OW33217   0.967   3.555   0.614
10773SOL    HW133218   0.986   3.620   0.688
10773SOL    HW233219   0.957   3.604   0.528
10774SOL     OW33220   0.960   3.174   0.724
10774SOL    HW133221   0.965   3.086   0.678
10774SOL    HW233222   1.036   3.232   0.694
10775SOL     OW33223   2.286   3.518   0.083
10775SOL    HW133224   2.355   3.448   0.064
10775SOL    HW233225   2.203   3.473   0.115
10776SOL     OW33226   0.985   3.210   3.336
10776SOL    HW133227   0.934   3.189   3.419
10776SOL    HW233228   0.928   3.191   3.256
10777SOL     OW33229   1.418   6.923   0.837
10777SOL    HW133230   1.431   6.825   0.822
10777SOL    HW233231   1.477   6.953   0.912
10778SOL     OW33232   4.438   0.486   3.358
10778SOL    HW133233   4.511   0.506   3.293
10778SOL    HW233234   4.351   0.476   3.309
10779SOL     OW33235   5.893   3.279   6.149
10779SOL    HW133236   5.872   3.349   6.081
10779SOL    HW233237   5.811   3.257   6.201
10780SOL     OW33238   2.072   5.079   4.818
10780SOL    HW133239   2.126   5.040   4.743
10780SOL    HW233240   2.029   5.005   4.870
10781SOL     OW33241   5.474   1.902   5.469
10781SOL    HW133242   5.524   1.860   5.545
10781SOL    HW233243   5.481   1.843   5.388
10782SOL     OW33244   1.056   2.639   5.301
10782SOL    HW133245   1.036   2.568   5.234
10782SOL    HW233246   0.977   2.651   5.361
10783SOL     OW33247   1.705   3.349   3.426
10783SOL    HW133248   1.757   3.331   3.342
10783SOL    HW233249   1.646   3.429   3.412
10784SOL     OW33250   4.395   5.667   3.876
10784SOL    HW133251   4.296   5.655   3.881
10784SOL    HW233252   4.423   5.738   3.942
10785SOL     OW33253   2.201   5.344   1.795
10785SOL    HW133254   2.266   5.417   1.815
10785SOL    HW233255   2.233   5.292   1.715
10786SOL     OW33256   4.772   1.559   2.293
10786SOL    HW133257   4.675   1.564   2.267
10786SOL    HW233258   4.825   1.623   2.238
10787SOL     OW33259   3.836   2.145   3.858
10787SOL    HW133260   3.839   2.063   3.916
10787SOL    HW233261   3.927   2.188   3.857
10788SOL     OW33262   2.092   3.438   0.255
10788SOL    HW133263   2.136   3.383   0.326
10788SOL    HW233264   2.002   3.399   0.234
10789SOL     OW33265   6.808   1.237   2.222
10789SOL    HW133266   6.891   1.287   2.246
10789SOL    HW233267   6.811   1.213   2.125
10790SOL     OW33268   6.868   2.203   5.536
10790SOL    HW133269   6.846   2.134   5.467
10790SOL    HW233270   6.824   2.290   5.511
10791SOL     OW33271   1.735   2.361   3.572
10791SOL    HW133272   1.640   2.367   3.542
10791SOL    HW233273   1.759   2.442   3.625
10792SOL     OW33274   3.638   1.846   2.348
10792SOL    HW133275   3.685   1.926   2.311
10792SOL    HW233276   3.568   1.876   2.414
10793SOL     OW33277   3.463   2.084   4.523
10793SOL    HW133278   3.379   2.135   4.540
10793SOL    HW233279   3.478   2.018   4.597
10794SOL     OW33280   5.023   2.292   6.713
10794SOL    HW133281   5.098   2.247   6.761
10794SOL    HW233282   5.015   2.255   6.620
10795SOL     OW33283   6.737   3.516   3.360
10795SOL    HW133284   6.814   3.517   3.424
10795SOL    HW233285   6.733   3.427   3.314
10796SOL     OW33286   0.251   1.574   5.991
10796SOL    HW133287   0.304   1.524   6.059
10796SOL    HW233288   0.212   1.510   5.925
10797SOL     OW33289   4.753   4.316   0.162
10797SOL    HW133290   4.782   4.358   0.247
10797SOL    HW233291   4.731   4.387   0.095
10798SOL     OW33292   2.326   6.076   0.175
10798SOL    HW133293   2.347   6.136   0.251
10798SOL    HW233294   2.343   6.124   0.088
10799SOL     OW33295   3.444   0.503   2.748
10799SOL    HW133296   3.514   0.553   2.799
10799SOL    HW233297   3.487   0.429   2.696
10800SOL     OW33298   1.812   6.835   5.516
10800SOL    HW133299   1.806   6.885   5.430
10800SOL    HW233300   1.722   6.799   5.540
10801SOL     OW33301   2.516   6.439   6.919
10801SOL    HW133302   2.523   6.508   6.991
10801SOL    HW233303   2.465   6.476   6.842
10802SOL     OW33304   0.599   4.862   4.407
10802SOL    HW133305   0.671   4.799   4.435
10802SOL    HW233306   0.619   4.897   4.316
10803SOL     OW33307   6.877   4.505   4.008
10803SOL    HW133308   6.888   4.450   3.925
10803SOL    HW233309   6.947   4.576   4.010
10804SOL     OW33310   4.748   4.528   1.009
10804SOL    HW133311   4.827   4.531   0.948
10804SOL    HW233312   4.778   4.511   1.102
10805SOL     OW33313   3.960   6.103   0.866
10805SOL    HW133314   3.917   6.041   0.932
10805SOL    HW233315   3.901   6.111   0.785
10806SOL     OW33316   5.568   3.965   6.280
10806SOL    HW133317   5.484   3.919   6.251
10806SOL    HW233318   5.630   3.974   6.202
10807SOL     OW33319   4.651   2.220   4.268
10807SOL    HW133320   4.623   2.312   4.293
10807SOL    HW233321   4.606   2.194   4.182
10808SOL     OW33322   0.624   1.624   0.107
10808SOL    HW133323   0.600   1.671   0.192
10808SOL    HW233324   0.635   1.692   0.034
10809SOL     OW33325   2.564   1.024   2.301
10809SOL    HW133326   2.498   0.968   2.351
10809SOL    HW233327   2.629   1.064   2.365
10810SOL     OW33328   1.974   1.062   6.552
10810SOL    HW133329   1.974   1.154   6.512
10810SOL    HW233330   1.882   1.024   6.547
10811SOL     OW33331   4.563   5.150   6.498
10811SOL    HW133332   4.587   5.245   6.520
10811SOL    HW233333   4.642   5.091   6.513
10812SOL     OW33334   6.194   2.646   1.997
10812SOL    HW133335   6.285   2.660   2.036
10812SOL    HW233336   6.194   2.564   1.941
10813SOL     OW33337   3.583   5.784   2.511
10813SOL    HW133338   3.671   5.762   2.554
10813SOL    HW233339   3.521   5.707   2.524
10814SOL     OW33340   1.850   5.922   4.290
10814SOL    HW133341   1.942   5.952   4.267
10814SOL    HW233342   1.788   6.001   4.290
10815SOL     OW33343   4.625   1.705   4.685
10815SOL    HW133344   4.605   1.638   4.756
10815SOL    HW233345   4.539   1.733   4.642
10816SOL     OW33346   2.433   2.131   1.484
10816SOL    HW133347   2.530   2.149   1.499
10816SOL    HW233348   2.401   2.062   1.549
10817SOL     OW33349   4.201   0.853   1.764
10817SOL    HW133350   4.262   0.867   1.842
10817SOL    HW233351   4.254   0.819   1.686
10818SOL     OW33352   4.064   2.880   6.826
10818SOL    HW133353   3.968   2.890   6.803
10818SOL    HW233354   4.111   2.968   6.814
10819SOL     OW33355   1.183   3.588   5.376
10819SOL    HW133356   1.187   3.488   5.375
10819SOL    HW233357   1.194   3.621   5.470
10820SOL     OW33358   0.576   6.651   4.688
10820SOL    HW133359   0.672   6.625   4.696
10820SOL    HW233360   0.543   6.686   4.775
10821SOL     OW33361   0.602   0.459   0.500
10821SOL    HW133362   0.622   0.557   0.491
10821SOL    HW233363   0.683   0.406   0.473
10822SOL     OW33364   0.569   4.284   6.740
10822SOL    HW133365   0.540   4.302   6.834
10822SOL    HW233366   0.493   4.244   6.689
10823SOL     OW33367   2.052   2.418   1.268
10823SOL    HW133368   2.090   2.409   1.360
10823SOL    HW233369   2.026   2.328   1.234
10824SOL     OW33370   5.058   0.940   3.675
10824SOL    HW133371   5.041   0.866   3.739
10824SOL    HW233372   4.973   0.969   3.632
10825SOL     OW33373   3.174   1.073   2.624
10825SOL    HW133374   3.234   1.100   2.699
10825SOL    HW233375   3.115   1.150   2.600
10826SOL     OW33376   6.760   2.977   1.167
10826SOL    HW133377   6.840   3.022   1.128
10826SOL    HW233378   6.783   2.882   1.190
10827SOL     OW33379   0.911   3.084   4.119
10827SOL    HW133380   0.901   3.127   4.029
10827SOL    HW233381   0.903   3.153   4.190
10828SOL     OW33382   2.374   5.445   0.337
10828SOL    HW133383   2.343   5.363   0.289
10828SOL    HW233384   2.421   5.419   0.422
10829SOL     OW33385   2.088   3.556   1.514
10829SOL    HW133386   2.132   3.469   1.534
10829SOL    HW233387   2.082   3.611   1.597
10830SOL     OW33388   5.713   0.976   3.784
10830SOL    HW133389   5.690   0.965   3.881
10830SOL    HW233390   5.632   0.955   3.728
10831SOL     OW33391   5.402   3.024   2.173
10831SOL    HW133392   5.365   3.113   2.146
10831SOL    HW233393   5.471   2.995   2.107
10832SOL     OW33394   0.743   3.931   2.749
10832SOL    HW133395   0.695   3.846   2.728
10832SOL    HW233396   0.832   3.931   2.703
10833SOL     OW33397   2.966   6.612   4.049
10833SOL    HW133398   3.015   6.577   3.969
10833SOL    HW233399   2.937   6.706   4.032
10834SOL     OW33400   6.809   1.320   5.557
10834SOL    HW133401   6.817   1.419   5.545
10834SOL    HW233402   6.720   1.290   5.523
10835SOL     OW33403   0.438   2.279   0.936
10835SOL    HW133404   0.506   2.218   0.895
10835SOL    HW233405   0.443   2.369   0.892
10836SOL     OW33406   1.491   3.000   0.543
10836SOL    HW133407   1.463   2.912   0.507
10836SOL    HW233408   1.560   2.987   0.614
10837SOL     OW33409   1.119   5.759   1.261
10837SOL    HW133410   1.020   5.763   1.268
10837SOL    HW233411   1.148   5.793   1.171
10838SOL     OW33412   6.465   6.740   0.470
10838SOL    HW133413   6.544   6.691   0.504
10838SOL    HW233414   6.441   6.707   0.378
10839SOL     OW33415   1.287   1.459   6.914
10839SOL    HW133416   1.201   1.500   6.885
10839SOL    HW233417   1.363   1.517   6.887
10840SOL     OW33418   2.759   7.006   2.463
10840SOL    HW133419   2.854   0.011   2.481
10840SOL    HW233420   2.755   6.949   2.381
10841SOL     OW33421   4.415   3.315   0.556
10841SOL    HW133422   4.446   3.405   0.588
10841SOL    HW233423   4.357   3.327   0.475
10842SOL     OW33424   5.837   2.763   1.384
10842SOL    HW133425   5.788   2.686   1.343
10842SOL    HW233426   5.896   2.806   1.317
10843SOL     OW33427   0.432   1.577   1.427
10843SOL    HW133428   0.463   1.527   1.508
10843SOL    HW233429   0.334   1.593   1.433
10844SOL     OW33430   4.346   0.711   3.480
10844SOL    HW133431   4.384   0.625   3.445
10844SOL    HW233432   4.371   0.786   3.419
10845SOL     OW33433   2.473   3.221   0.511
10845SOL    HW133434   2.463   3.295   0.445
10845SOL    HW233435   2.493   3.135   0.462
10846SOL     OW33436   3.075   2.249   1.540
10846SOL    HW133437   3.079   2.162   1.590
10846SOL    HW233438   3.163   2.295   1.546
10847SOL     OW33439   4.975   2.615   5.207
10847SOL    HW133440   4.906   2.649   5.143
10847SOL    HW233441   4.986   2.680   5.282
10848SOL     OW33442   1.411   0.691   6.746
10848SOL    HW133443   1.453   0.702   6.656
10848SOL    HW233444   1.482   0.667   6.813
10849SOL     OW33445   1.917   4.987   4.044
10849SOL    HW133446   1.849   4.914   4.044
10849SOL    HW233447   2.003   4.953   4.006
10850SOL     OW33448   5.658   0.619   1.919
10850SOL    HW133449   5.628   0.675   1.842
10850SOL    HW233450   5.614   0.650   2.003
10851SOL     OW33451   4.506   2.284   6.988
10851SOL    HW133452   4.423   2.230   6.969
10851SOL    HW233453   4.587   2.226   6.977
10852SOL     OW33454   6.601   0.487   6.093
10852SOL    HW133455   6.581   0.582   6.118
10852SOL    HW233456   6.546   0.462   6.013
10853SOL     OW33457   2.572   0.853   4.356
10853SOL    HW133458   2.550   0.943   4.394
10853SOL    HW233459   2.489   0.811   4.318
10854SOL     OW33460   0.126   0.484   0.917
10854SOL    HW133461   0.162   0.460   1.007
10854SOL    HW233462   0.199   0.521   0.860
10855SOL     OW33463   0.010   5.853   1.066
10855SOL    HW133464   6.975   5.794   1.009
10855SOL    HW233465   0.100   5.813   1.078
10856SOL     OW33466   5.488   0.292   6.418
10856SOL    HW133467   5.440   0.204   6.416
10856SOL    HW233468   5.537   0.301   6.505
10857SOL     OW33469   6.422   0.340   4.806
10857SOL    HW133470   6.371   0.377   4.884
10857SOL    HW233471   6.516   0.373   4.810
10858SOL     OW33472   1.950   1.937   0.450
10858SOL    HW133473   1.954   1.855   0.506
10858SOL    HW233474   2.033   1.991   0.463
10859SOL     OW33475   1.596   5.211   2.482
10859SOL    HW133476   1.517   5.254   2.439
10859SOL    HW233477   1.616   5.125   2.437
10860SOL     OW33478   5.668   2.585   1.589
10860SOL    HW133479   5.747   2.582   1.528
10860SOL    HW233480   5.600   2.650   1.553
10861SOL     OW33481   1.411   3.965   1.768
10861SOL    HW133482   1.386   4.035   1.835
10861SOL    HW233483   1.500   3.988   1.727
10862SOL     OW33484   3.499   4.351   5.435
10862SOL    HW133485   3.544   4.327   5.349
10862SOL    HW233486   3.524   4.444   5.461
10863SOL     OW33487   1.765   0.231   3.532
10863SOL    HW133488   1.775   0.217   3.630
10863SOL    HW233489   1.811   0.316   3.505
10864SOL     OW33490   2.881   3.661   1.912
10864SOL    HW133491   2.965   3.608   1.900
10864SOL    HW233492   2.875   3.691   2.007
10865SOL     OW33493   3.436   1.791   2.664
10865SOL    HW133494   3.532   1.800   2.693
10865SOL    HW233495   3.378   1.785   2.745
10866SOL     OW33496   0.830   3.755   3.964
10866SOL    HW133497   0.809   3.724   3.871
10866SOL    HW233498   0.767   3.828   3.989
10867SOL     OW33499   4.252   3.340   0.342
10867SOL    HW133500   4.236   3.396   0.260
10867SOL    HW233501   4.255   3.243   0.316
10868SOL     OW33502   1.389   6.574   5.153
10868SOL    HW133503   1.437   6.661   5.157
10868SOL    HW233504   1.292   6.588   5.173
10869NA      NA33505   6.788   1.086   6.399
10870NA      NA33506   4.577   4.703   5.333
10871NA      NA33507   0.948   4.863   2.775
10872NA      NA33508   5.793   3.705   3.157
10873NA      NA33509   3.809   2.731   5.531
10874NA      NA33510   2.416   4.614   6.824
10875NA      NA33511   1.491   5.481   6.937
10876NA      NA33512   4.314   4.855   1.563
10877NA      NA33513   4.978   4.356   0.774
10878NA      NA33514   3.469   1.498   0.787
10879NA      NA33515   5.747   6.913   1.432
10880NA      NA33516   2.306   6.675   5.202
10881NA      NA33517   4.249   4.862   2.929
10882NA      NA33518   4.127   3.999   6.780
   7.02144   7.02144   7.02144
