Generated by trjconv : CNT in water t= 284.00000
33518
    1C        C    1   2.845   2.770   4.744
    1C        C    2   2.897   2.717   4.864
    1C        C    3   2.841   2.773   4.980
    1C        C    4   2.847   2.770   4.259
    1C        C    5   2.902   2.726   4.382
    1C        C    6   2.844   2.769   4.503
    1C        C    7   3.013   2.636   4.626
    1C        C    8   2.898   2.718   4.623
    1C        C    9   3.074   2.596   4.747
    1C        C   10   3.006   2.627   4.866
    1C        C   11   3.186   2.498   4.982
    1C        C   12   3.062   2.564   4.977
    1C        C   13   2.849   2.768   3.771
    1C        C   14   2.899   2.719   3.894
    1C        C   15   2.848   2.770   4.015
    1C        C   16   3.016   2.642   4.139
    1C        C   17   2.902   2.725   4.137
    1C        C   18   3.080   2.610   4.261
    1C        C   19   3.017   2.645   4.382
    1C        C   20   3.211   2.557   4.505
    1C        C   21   3.078   2.607   4.504
    1C        C   22   3.280   2.537   4.627
    1C        C   23   3.207   2.544   4.747
    1C        C   24   3.413   2.478   4.864
    1C        C   25   3.272   2.503   4.867
    1C        C   26   3.492   2.471   4.980
    1C        C   27   2.848   2.767   3.279
    1C        C   28   2.901   2.724   3.403
    1C        C   29   2.850   2.771   3.526
    1C        C   30   3.016   2.638   3.649
    1C        C   31   2.904   2.725   3.648
    1C        C   32   3.078   2.602   3.771
    1C        C   33   3.015   2.638   3.892
    1C        C   34   3.205   2.550   4.017
    1C        C   35   3.074   2.603   4.016
    1C        C   36   3.277   2.530   4.137
    1C        C   37   3.212   2.559   4.259
    1C        C   38   3.418   2.518   4.381
    1C        C   39   3.278   2.543   4.382
    1C        C   40   3.486   2.510   4.504
    1C        C   41   3.418   2.505   4.627
    1C        C   42   3.631   2.475   4.743
    1C        C   43   3.489   2.473   4.745
    1C        C   44   3.705   2.486   4.863
    1C        C   45   3.631   2.476   4.982
    1C        C   46   2.832   2.750   2.793
    1C        C   47   2.892   2.707   2.913
    1C        C   48   2.844   2.759   3.035
    1C        C   49   3.017   2.637   3.160
    1C        C   50   2.900   2.717   3.158
    1C        C   51   3.077   2.602   3.283
    1C        C   52   3.015   2.639   3.404
    1C        C   53   3.205   2.548   3.528
    1C        C   54   3.075   2.601   3.526
    1C        C   55   3.277   2.532   3.649
    1C        C   56   3.211   2.554   3.772
    1C        C   57   3.414   2.510   3.893
    1C        C   58   3.274   2.529   3.896
    1C        C   59   3.486   2.503   4.014
    1C        C   60   3.416   2.505   4.137
    1C        C   61   3.629   2.507   4.258
    1C        C   62   3.488   2.505   4.259
    1C        C   63   3.699   2.508   4.381
    1C        C   64   3.628   2.506   4.503
    1C        C   65   3.837   2.540   4.621
    1C        C   66   3.701   2.499   4.623
    1C        C   67   3.906   2.559   4.743
    1C        C   68   3.841   2.523   4.863
    1C        C   69   4.051   2.587   4.981
    1C        C   70   3.922   2.533   4.977
    1C        C   71   2.820   2.732   2.307
    1C        C   72   2.879   2.689   2.428
    1C        C   73   2.830   2.743   2.549
    1C        C   74   3.002   2.624   2.671
    1C        C   75   2.881   2.695   2.672
    1C        C   76   3.068   2.592   2.793
    1C        C   77   3.012   2.632   2.916
    1C        C   78   3.207   2.546   3.037
    1C        C   79   3.076   2.600   3.038
    1C        C   80   3.275   2.528   3.159
    1C        C   81   3.207   2.546   3.282
    1C        C   82   3.411   2.501   3.403
    1C        C   83   3.272   2.525   3.406
    1C        C   84   3.485   2.497   3.524
    1C        C   85   3.416   2.504   3.647
    1C        C   86   3.626   2.499   3.770
    1C        C   87   3.484   2.500   3.770
    1C        C   88   3.698   2.508   3.891
    1C        C   89   3.627   2.503   4.013
    1C        C   90   3.836   2.544   4.134
    1C        C   91   3.698   2.510   4.135
    1C        C   92   3.904   2.564   4.256
    1C        C   93   3.836   2.544   4.378
    1C        C   94   4.031   2.628   4.498
    1C        C   95   3.903   2.567   4.499
    1C        C   96   4.090   2.669   4.619
    1C        C   97   4.031   2.626   4.740
    1C        C   98   4.191   2.760   4.861
    1C        C   99   4.099   2.650   4.862
    1C        C  100   4.215   2.839   4.974
    1C        C  101   2.825   2.735   2.070
    1C        C  102   2.986   2.588   2.188
    1C        C  103   2.871   2.675   2.188
    1C        C  104   3.058   2.568   2.309
    1C        C  105   2.999   2.614   2.429
    1C        C  106   3.199   2.542   2.548
    1C        C  107   3.066   2.588   2.550
    1C        C  108   3.266   2.523   2.671
    1C        C  109   3.198   2.538   2.794
    1C        C  110   3.409   2.493   2.915
    1C        C  111   3.270   2.517   2.914
    1C        C  112   3.482   2.492   3.035
    1C        C  113   3.414   2.502   3.159
    1C        C  114   3.624   2.509   3.279
    1C        C  115   3.483   2.500   3.282
    1C        C  116   3.695   2.514   3.401
    1C        C  117   3.626   2.505   3.524
    1C        C  118   3.832   2.543   3.642
    1C        C  119   3.695   2.511   3.647
    1C        C  120   3.898   2.564   3.765
    1C        C  121   3.834   2.543   3.890
    1C        C  122   4.026   2.635   4.010
    1C        C  123   3.902   2.569   4.012
    1C        C  124   4.085   2.672   4.133
    1C        C  125   4.028   2.633   4.256
    1C        C  126   4.196   2.764   4.376
    1C        C  127   4.090   2.671   4.377
    1C        C  128   4.245   2.817   4.497
    1C        C  129   4.193   2.766   4.618
    1C        C  130   4.326   2.931   4.740
    1C        C  131   4.241   2.817   4.740
    1C        C  132   4.365   2.995   4.860
    1C        C  133   4.286   2.958   4.970
    1C        C  134   3.171   2.466   2.079
    1C        C  135   3.038   2.508   2.082
    1C        C  136   3.259   2.481   2.187
    1C        C  137   3.191   2.518   2.306
    1C        C  138   3.403   2.489   2.425
    1C        C  139   3.263   2.506   2.427
    1C        C  140   3.473   2.492   2.547
    1C        C  141   3.405   2.496   2.671
    1C        C  142   3.619   2.499   2.789
    1C        C  143   3.478   2.493   2.791
    1C        C  144   3.691   2.509   2.910
    1C        C  145   3.624   2.495   3.033
    1C        C  146   3.831   2.535   3.153
    1C        C  147   3.693   2.503   3.156
    1C        C  148   3.899   2.562   3.274
    1C        C  149   3.832   2.545   3.397
    1C        C  150   4.027   2.627   3.521
    1C        C  151   3.900   2.566   3.520
    1C        C  152   4.083   2.669   3.644
    1C        C  153   4.020   2.634   3.766
    1C        C  154   4.195   2.760   3.888
    1C        C  155   4.082   2.675   3.886
    1C        C  156   4.244   2.808   4.011
    1C        C  157   4.197   2.759   4.135
    1C        C  158   4.339   2.923   4.253
    1C        C  159   4.248   2.815   4.254
    1C        C  160   4.379   2.982   4.375
    1C        C  161   4.334   2.927   4.497
    1C        C  162   4.433   3.115   4.617
    1C        C  163   4.370   2.988   4.619
    1C        C  164   4.468   3.182   4.737
    1C        C  165   4.439   3.115   4.858
    1C        C  166   4.510   3.318   4.969
    1C        C  167   4.481   3.182   4.973
    1C        C  168   3.473   2.425   2.071
    1C        C  169   3.398   2.459   2.184
    1C        C  170   3.615   2.472   2.305
    1C        C  171   3.473   2.467   2.304
    1C        C  172   3.688   2.490   2.424
    1C        C  173   3.614   2.496   2.545
    1C        C  174   3.824   2.544   2.664
    1C        C  175   3.687   2.510   2.665
    1C        C  176   3.892   2.564   2.786
    1C        C  177   3.829   2.538   2.911
    1C        C  178   4.024   2.626   3.034
    1C        C  179   3.898   2.561   3.032
    1C        C  180   4.089   2.660   3.155
    1C        C  181   4.027   2.622   3.276
    1C        C  182   4.198   2.749   3.397
    1C        C  183   4.086   2.664   3.398
    1C        C  184   4.246   2.800   3.520
    1C        C  185   4.192   2.758   3.644
    1C        C  186   4.336   2.916   3.765
    1C        C  187   4.246   2.807   3.765
    1C        C  188   4.374   2.975   3.888
    1C        C  189   4.333   2.917   4.010
    1C        C  190   4.448   3.101   4.126
    1C        C  191   4.378   2.979   4.129
    1C        C  192   4.470   3.167   4.249
    1C        C  193   4.443   3.108   4.375
    1C        C  194   4.507   3.314   4.491
    1C        C  195   4.463   3.179   4.495
    1C        C  196   4.523   3.384   4.612
    1C        C  197   4.514   3.316   4.736
    1C        C  198   4.559   3.534   4.850
    1C        C  199   4.535   3.393   4.853
    1C        C  200   4.584   3.617   4.964
    1C        C  201   3.613   2.416   2.075
    1C        C  202   3.826   2.509   2.182
    1C        C  203   3.689   2.467   2.184
    1C        C  204   3.896   2.539   2.302
    1C        C  205   3.826   2.522   2.423
    1C        C  206   4.021   2.620   2.543
    1C        C  207   3.893   2.559   2.542
    1C        C  208   4.079   2.661   2.665
    1C        C  209   4.018   2.627   2.788
    1C        C  210   4.195   2.745   2.907
    1C        C  211   4.079   2.665   2.910
    1C        C  212   4.255   2.791   3.027
    1C        C  213   4.202   2.744   3.149
    1C        C  214   4.335   2.906   3.271
    1C        C  215   4.250   2.793   3.273
    1C        C  216   4.363   2.970   3.394
    1C        C  217   4.330   2.913   3.519
    1C        C  218   4.435   3.099   3.638
    1C        C  219   4.373   2.972   3.641
    1C        C  220   4.460   3.167   3.760
    1C        C  221   4.435   3.102   3.883
    1C        C  222   4.502   3.305   4.002
    1C        C  223   4.470   3.168   4.003
    1C        C  224   4.513   3.375   4.125
    1C        C  225   4.501   3.305   4.247
    1C        C  226   4.514   3.522   4.365
    1C        C  227   4.508   3.380   4.366
    1C        C  228   4.511   3.593   4.487
    1C        C  229   4.521   3.525   4.610
    1C        C  230   4.504   3.741   4.724
    1C        C  231   4.535   3.603   4.728
    1C        C  232   4.494   3.816   4.843
    1C        C  233   4.543   3.751   4.957
    1C        C  234   4.014   2.610   2.061
    1C        C  235   3.893   2.540   2.063
    1C        C  236   4.083   2.648   2.177
    1C        C  237   4.023   2.604   2.297
    1C        C  238   4.199   2.728   2.421
    1C        C  239   4.082   2.647   2.418
    1C        C  240   4.252   2.782   2.540
    1C        C  241   4.195   2.741   2.663
    1C        C  242   4.333   2.904   2.784
    1C        C  243   4.247   2.792   2.784
    1C        C  244   4.379   2.961   2.905
    1C        C  245   4.344   2.900   3.028
    1C        C  246   4.431   3.094   3.147
    1C        C  247   4.378   2.963   3.150
    1C        C  248   4.449   3.162   3.270
    1C        C  249   4.426   3.096   3.393
    1C        C  250   4.489   3.300   3.513
    1C        C  251   4.456   3.162   3.514
    1C        C  252   4.502   3.370   3.635
    1C        C  253   4.496   3.304   3.759
    1C        C  254   4.516   3.517   3.877
    1C        C  255   4.509   3.376   3.880
    1C        C  256   4.514   3.586   4.000
    1C        C  257   4.512   3.516   4.122
    1C        C  258   4.484   3.730   4.238
    1C        C  259   4.509   3.591   4.242
    1C        C  260   4.461   3.798   4.360
    1C        C  261   4.482   3.731   4.483
    1C        C  262   4.422   3.938   4.603
    1C        C  263   4.473   3.806   4.602
    1C        C  264   4.394   4.006   4.724
    1C        C  265   4.429   3.941   4.845
    1C        C  266   4.318   4.129   4.955
    1C        C  267   4.389   4.010   4.961
    1C        C  268   4.266   2.771   2.063
    1C        C  269   4.201   2.726   2.179
    1C        C  270   4.341   2.888   2.297
    1C        C  271   4.251   2.778   2.300
    1C        C  272   4.378   2.951   2.418
    1C        C  273   4.340   2.892   2.540
    1C        C  274   4.446   3.080   2.658
    1C        C  275   4.379   2.956   2.661
    1C        C  276   4.473   3.149   2.778
    1C        C  277   4.443   3.087   2.901
    1C        C  278   4.504   3.290   3.025
    1C        C  279   4.462   3.155   3.023
    1C        C  280   4.508   3.362   3.146
    1C        C  281   4.492   3.296   3.270
    1C        C  282   4.511   3.510   3.389
    1C        C  283   4.506   3.368   3.391
    1C        C  284   4.507   3.580   3.511
    1C        C  285   4.513   3.511   3.635
    1C        C  286   4.489   3.726   3.751
    1C        C  287   4.512   3.587   3.754
    1C        C  288   4.471   3.793   3.874
    1C        C  289   4.490   3.726   3.997
    1C        C  290   4.426   3.933   4.115
    1C        C  291   4.473   3.800   4.116
    1C        C  292   4.395   3.998   4.237
    1C        C  293   4.421   3.934   4.360
    1C        C  294   4.321   4.122   4.476
    1C        C  295   4.398   4.003   4.481
    1C        C  296   4.280   4.184   4.596
    1C        C  297   4.322   4.128   4.719
    1C        C  298   4.195   4.310   4.835
    1C        C  299   4.283   4.196   4.837
    1C        C  300   4.172   4.403   4.941
    1C        C  301   4.352   2.880   2.059
    1C        C  302   4.471   3.063   2.177
    1C        C  303   4.397   2.940   2.177
    1C        C  304   4.481   3.139   2.297
    1C        C  305   4.450   3.072   2.417
    1C        C  306   4.510   3.281   2.534
    1C        C  307   4.478   3.143   2.536
    1C        C  308   4.514   3.354   2.655
    1C        C  309   4.507   3.287   2.779
    1C        C  310   4.521   3.497   2.897
    1C        C  311   4.521   3.356   2.901
    1C        C  312   4.513   3.570   3.018
    1C        C  313   4.509   3.503   3.142
    1C        C  314   4.487   3.715   3.261
    1C        C  315   4.511   3.576   3.264
    1C        C  316   4.470   3.786   3.382
    1C        C  317   4.485   3.719   3.506
    1C        C  318   4.428   3.926   3.627
    1C        C  319   4.467   3.790   3.626
    1C        C  320   4.398   3.991   3.749
    1C        C  321   4.421   3.925   3.871
    1C        C  322   4.315   4.112   3.990
    1C        C  323   4.392   3.993   3.992
    1C        C  324   4.281   4.174   4.112
    1C        C  325   4.328   4.122   4.234
    1C        C  326   4.189   4.287   4.351
    1C        C  327   4.283   4.181   4.354
    1C        C  328   4.136   4.339   4.471
    1C        C  329   4.193   4.295   4.593
    1C        C  330   4.027   4.437   4.711
    1C        C  331   4.140   4.351   4.711
    1C        C  332   3.973   4.493   4.829
    1C        C  333   4.053   4.477   4.942
    1C        C  334   4.547   3.267   2.062
    1C        C  335   4.530   3.128   2.064
    1C        C  336   4.535   3.349   2.175
    1C        C  337   4.517   3.277   2.295
    1C        C  338   4.528   3.494   2.409
    1C        C  339   4.524   3.353   2.413
    1C        C  340   4.521   3.567   2.529
    1C        C  341   4.513   3.495   2.651
    1C        C  342   4.487   3.704   2.775
    1C        C  343   4.509   3.565   2.773
    1C        C  344   4.469   3.778   2.895
    1C        C  345   4.490   3.709   3.017
    1C        C  346   4.417   3.910   3.137
    1C        C  347   4.476   3.782   3.137
    1C        C  348   4.390   3.980   3.257
    1C        C  349   4.425   3.920   3.380
    1C        C  350   4.318   4.102   3.501
    1C        C  351   4.396   3.985   3.502
    1C        C  352   4.279   4.164   3.622
    1C        C  353   4.325   4.112   3.745
    1C        C  354   4.181   4.271   3.862
    1C        C  355   4.277   4.167   3.866
    1C        C  356   4.130   4.321   3.984
    1C        C  357   4.178   4.271   4.107
    1C        C  358   4.011   4.402   4.229
    1C        C  359   4.127   4.322   4.229
    1C        C  360   3.953   4.448   4.349
    1C        C  361   4.022   4.423   4.470
    1C        C  362   3.827   4.513   4.593
    1C        C  363   3.958   4.461   4.590
    1C        C  364   3.762   4.548   4.713
    1C        C  365   3.840   4.542   4.831
    1C        C  366   3.628   4.589   4.949
    1C        C  367   3.765   4.567   4.946
    1C        C  368   4.519   3.564   2.049
    1C        C  369   4.530   3.490   2.167
    1C        C  370   4.497   3.704   2.287
    1C        C  371   4.521   3.565   2.287
    1C        C  372   4.484   3.776   2.408
    1C        C  373   4.495   3.706   2.530
    1C        C  374   4.432   3.908   2.648
    1C        C  375   4.477   3.774   2.653
    1C        C  376   4.402   3.975   2.768
    1C        C  377   4.420   3.910   2.893
    1C        C  378   4.319   4.097   3.010
    1C        C  379   4.390   3.975   3.015
    1C        C  380   4.276   4.155   3.131
    1C        C  381   4.318   4.101   3.255
    1C        C  382   4.174   4.255   3.374
    1C        C  383   4.276   4.157   3.378
    1C        C  384   4.118   4.300   3.496
    1C        C  385   4.178   4.263   3.618
    1C        C  386   4.008   4.391   3.739
    1C        C  387   4.128   4.316   3.739
    1C        C  388   3.947   4.427   3.861
    1C        C  389   4.010   4.395   3.984
    1C        C  390   3.817   4.484   4.106
    1C        C  391   3.949   4.433   4.106
    1C        C  392   3.750   4.514   4.228
    1C        C  393   3.823   4.504   4.348
    1C        C  394   3.618   4.548   4.473
    1C        C  395   3.758   4.530   4.471
    1C        C  396   3.546   4.561   4.594
    1C        C  397   3.622   4.563   4.713
    1C        C  398   3.410   4.552   4.838
    1C        C  399   3.549   4.573   4.834
    1C        C  400   3.344   4.517   4.957
    1C        C  401   4.508   3.702   2.051
    1C        C  402   4.447   3.913   2.165
    1C        C  403   4.488   3.778   2.167
    1C        C  404   4.408   3.977   2.285
    1C        C  405   4.435   3.908   2.405
    1C        C  406   4.326   4.093   2.523
    1C        C  407   4.400   3.972   2.526
    1C        C  408   4.280   4.147   2.644
    1C        C  409   4.327   4.094   2.767
    1C        C  410   4.176   4.249   2.885
    1C        C  411   4.281   4.154   2.886
    1C        C  412   4.124   4.298   3.007
    1C        C  413   4.177   4.256   3.131
    1C        C  414   4.003   4.379   3.250
    1C        C  415   4.122   4.303   3.252
    1C        C  416   3.944   4.416   3.373
    1C        C  417   4.003   4.383   3.497
    1C        C  418   3.813   4.477   3.619
    1C        C  419   3.944   4.424   3.618
    1C        C  420   3.748   4.504   3.741
    1C        C  421   3.814   4.475   3.863
    1C        C  422   3.609   4.529   3.984
    1C        C  423   3.748   4.502   3.984
    1C        C  424   3.540   4.536   4.107
    1C        C  425   3.611   4.538   4.229
    1C        C  426   3.403   4.544   4.355
    1C        C  427   3.544   4.548   4.352
    1C        C  428   3.330   4.539   4.477
    1C        C  429   3.405   4.548   4.596
    1C        C  430   3.196   4.517   4.721
    1C        C  431   3.336   4.543   4.718
    1C        C  432   3.127   4.491   4.843
    1C        C  433   3.207   4.495   4.958
    1C        C  434   4.385   4.123   2.053
    1C        C  435   4.441   3.995   2.052
    1C        C  436   4.303   4.166   2.162
    1C        C  437   4.332   4.097   2.283
    1C        C  438   4.181   4.252   2.400
    1C        C  439   4.284   4.155   2.403
    1C        C  440   4.125   4.295   2.522
    1C        C  441   4.177   4.245   2.643
    1C        C  442   4.006   4.376   2.763
    1C        C  443   4.122   4.295   2.763
    1C        C  444   3.942   4.410   2.885
    1C        C  445   4.005   4.374   3.006
    1C        C  446   3.812   4.467   3.129
    1C        C  447   3.941   4.410   3.127
    1C        C  448   3.743   4.486   3.251
    1C        C  449   3.812   4.467   3.373
    1C        C  450   3.607   4.522   3.492
    1C        C  451   3.745   4.491   3.495
    1C        C  452   3.541   4.534   3.616
    1C        C  453   3.610   4.534   3.740
    1C        C  454   3.398   4.537   3.865
    1C        C  455   3.539   4.535   3.862
    1C        C  456   3.329   4.528   3.988
    1C        C  457   3.398   4.533   4.111
    1C        C  458   3.194   4.496   4.235
    1C        C  459   3.331   4.531   4.235
    1C        C  460   3.125   4.485   4.358
    1C        C  461   3.193   4.506   4.480
    1C        C  462   2.995   4.435   4.600
    1C        C  463   3.126   4.487   4.603
    1C        C  464   2.927   4.402   4.720
    1C        C  465   2.993   4.440   4.840
    1C        C  466   2.806   4.333   4.959
    1C        C  467   2.907   4.429   4.954
    1C        C  468   4.116   4.281   2.041
    1C        C  469   4.188   4.250   2.157
    1C        C  470   4.005   4.369   2.275
    1C        C  471   4.127   4.296   2.277
    1C        C  472   3.940   4.397   2.397
    1C        C  473   4.005   4.370   2.519
    1C        C  474   3.811   4.458   2.640
    1C        C  475   3.942   4.405   2.641
    1C        C  476   3.743   4.481   2.761
    1C        C  477   3.812   4.465   2.883
    1C        C  478   3.607   4.513   3.006
    1C        C  479   3.746   4.488   3.006
    1C        C  480   3.534   4.521   3.127
    1C        C  481   3.605   4.515   3.249
    1C        C  482   3.393   4.528   3.376
    1C        C  483   3.534   4.528   3.371
    1C        C  484   3.325   4.527   3.500
    1C        C  485   3.400   4.532   3.620
    1C        C  486   3.190   4.499   3.743
    1C        C  487   3.329   4.529   3.742
    1C        C  488   3.127   4.470   3.865
    1C        C  489   3.191   4.495   3.989
    1C        C  490   2.998   4.418   4.113
    1C        C  491   3.125   4.481   4.112
    1C        C  492   2.936   4.385   4.236
    1C        C  493   2.997   4.426   4.357
    1C        C  494   2.823   4.307   4.482
    1C        C  495   2.934   4.393   4.479
    1C        C  496   2.773   4.252   4.602
    1C        C  497   2.823   4.306   4.723
    1C        C  498   2.668   4.161   4.846
    1C        C  499   2.760   4.268   4.844
    1C        C  500   2.597   4.115   4.957
    1C        C  501   3.992   4.344   2.034
    1C        C  502   3.809   4.452   2.153
    1C        C  503   3.938   4.395   2.153
    1C        C  504   3.741   4.474   2.274
    1C        C  505   3.807   4.447   2.395
    1C        C  506   3.603   4.500   2.517
    1C        C  507   3.742   4.474   2.517
    1C        C  508   3.533   4.512   2.639
    1C        C  509   3.604   4.509   2.762
    1C        C  510   3.394   4.522   2.885
    1C        C  511   3.535   4.512   2.885
    1C        C  512   3.323   4.520   3.007
    1C        C  513   3.393   4.526   3.130
    1C        C  514   3.187   4.489   3.254
    1C        C  515   3.324   4.522   3.253
    1C        C  516   3.119   4.470   3.376
    1C        C  517   3.188   4.494   3.497
    1C        C  518   2.997   4.411   3.624
    1C        C  519   3.123   4.475   3.621
    1C        C  520   2.936   4.374   3.746
    1C        C  521   2.998   4.412   3.867
    1C        C  522   2.835   4.282   3.994
    1C        C  523   2.941   4.376   3.991
    1C        C  524   2.782   4.239   4.118
    1C        C  525   2.829   4.293   4.240
    1C        C  526   2.695   4.131   4.362
    1C        C  527   2.777   4.246   4.363
    1C        C  528   2.651   4.075   4.484
    1C        C  529   2.688   4.140   4.604
    1C        C  530   2.582   3.960   4.731
    1C        C  531   2.641   4.089   4.728
    1C        C  532   2.540   3.900   4.853
    1C        C  533   2.530   3.992   4.963
    1C        C  534   3.614   4.552   2.039
    1C        C  535   3.748   4.510   2.041
    1C        C  536   3.532   4.530   2.154
    1C        C  537   3.602   4.504   2.275
    1C        C  538   3.390   4.522   2.400
    1C        C  539   3.531   4.514   2.397
    1C        C  540   3.318   4.518   2.521
    1C        C  541   3.392   4.519   2.641
    1C        C  542   3.185   4.487   2.763
    1C        C  543   3.322   4.520   2.764
    1C        C  544   3.121   4.463   2.887
    1C        C  545   3.186   4.485   3.010
    1C        C  546   2.988   4.411   3.133
    1C        C  547   3.118   4.468   3.132
    1C        C  548   2.931   4.371   3.256
    1C        C  549   2.990   4.412   3.377
    1C        C  550   2.830   4.281   3.504
    1C        C  551   2.936   4.374   3.502
    1C        C  552   2.780   4.230   3.626
    1C        C  553   2.829   4.282   3.748
    1C        C  554   2.694   4.124   3.874
    1C        C  555   2.784   4.233   3.872
    1C        C  556   2.655   4.064   3.996
    1C        C  557   2.697   4.126   4.116
    1C        C  558   2.606   3.939   4.247
    1C        C  559   2.660   4.070   4.239
    1C        C  560   2.564   3.879   4.368
    1C        C  561   2.584   3.951   4.487
    1C        C  562   2.532   3.749   4.614
    1C        C  563   2.562   3.887   4.612
    1C        C  564   2.519   3.681   4.736
    1C        C  565   2.518   3.759   4.855
    1C        C  566   2.515   3.548   4.973
    1C        C  567   2.525   3.686   4.975
    1C        C  568   3.324   4.467   2.040
    1C        C  569   3.392   4.506   2.157
    1C        C  570   3.181   4.474   2.280
    1C        C  571   3.319   4.509   2.279
    1C        C  572   3.113   4.459   2.403
    1C        C  573   3.180   4.488   2.525
    1C        C  574   2.983   4.404   2.645
    1C        C  575   3.109   4.467   2.645
    1C        C  576   2.928   4.365   2.769
    1C        C  577   2.993   4.403   2.889
    1C        C  578   2.824   4.275   3.015
    1C        C  579   2.932   4.367   3.011
    1C        C  580   2.772   4.227   3.138
    1C        C  581   2.824   4.279   3.259
    1C        C  582   2.697   4.113   3.383
    1C        C  583   2.782   4.226   3.383
    1C        C  584   2.659   4.056   3.506
    1C        C  585   2.696   4.116   3.629
    1C        C  586   2.595   3.934   3.754
    1C        C  587   2.655   4.062   3.753
    1C        C  588   2.577   3.869   3.878
    1C        C  589   2.602   3.933   4.002
    1C        C  590   2.544   3.734   4.128
    1C        C  591   2.579   3.871   4.126
    1C        C  592   2.529   3.668   4.252
    1C        C  593   2.535   3.741   4.373
    1C        C  594   2.515   3.532   4.495
    1C        C  595   2.519   3.673   4.496
    1C        C  596   2.521   3.464   4.619
    1C        C  597   2.517   3.538   4.739
    1C        C  598   2.531   3.325   4.860
    1C        C  599   2.517   3.465   4.860
    1C        C  600   2.533   3.245   4.975
    1C        C  601   3.190   4.434   2.043
    1C        C  602   2.978   4.396   2.156
    1C        C  603   3.112   4.445   2.159
    1C        C  604   2.925   4.360   2.283
    1C        C  605   2.984   4.402   2.404
    1C        C  606   2.817   4.268   2.526
    1C        C  607   2.923   4.362   2.525
    1C        C  608   2.772   4.218   2.650
    1C        C  609   2.821   4.273   2.770
    1C        C  610   2.689   4.110   2.894
    1C        C  611   2.774   4.223   2.894
    1C        C  612   2.652   4.052   3.018
    1C        C  613   2.687   4.114   3.140
    1C        C  614   2.589   3.927   3.263
    1C        C  615   2.654   4.052   3.263
    1C        C  616   2.567   3.865   3.388
    1C        C  617   2.595   3.930   3.510
    1C        C  618   2.531   3.731   3.637
    1C        C  619   2.563   3.869   3.633
    1C        C  620   2.519   3.664   3.760
    1C        C  621   2.534   3.734   3.882
    1C        C  622   2.514   3.525   4.007
    1C        C  623   2.528   3.665   4.005
    1C        C  624   2.513   3.455   4.130
    1C        C  625   2.518   3.528   4.252
    1C        C  626   2.543   3.319   4.379
    1C        C  627   2.519   3.458   4.375
    1C        C  628   2.559   3.250   4.502
    1C        C  629   2.544   3.325   4.621
    1C        C  630   2.591   3.115   4.741
    1C        C  631   2.549   3.251   4.741
    1C        C  632   2.612   3.046   4.864
    1C        C  633   2.557   3.107   4.982
    1C        C  634   2.784   4.301   2.054
    1C        C  635   2.889   4.394   2.044
    1C        C  636   2.749   4.227   2.168
    1C        C  637   2.812   4.273   2.286
    1C        C  638   2.674   4.108   2.410
    1C        C  639   2.762   4.218   2.406
    1C        C  640   2.637   4.047   2.532
    1C        C  641   2.686   4.105   2.652
    1C        C  642   2.586   3.921   2.777
    1C        C  643   2.644   4.050   2.775
    1C        C  644   2.561   3.856   2.900
    1C        C  645   2.589   3.926   3.020
    1C        C  646   2.532   3.721   3.147
    1C        C  647   2.566   3.858   3.142
    1C        C  648   2.520   3.655   3.271
    1C        C  649   2.530   3.728   3.392
    1C        C  650   2.509   3.520   3.517
    1C        C  651   2.517   3.661   3.515
    1C        C  652   2.512   3.452   3.641
    1C        C  653   2.508   3.523   3.763
    1C        C  654   2.536   3.314   3.890
    1C        C  655   2.512   3.453   3.886
    1C        C  656   2.555   3.248   4.013
    1C        C  657   2.539   3.316   4.136
    1C        C  658   2.602   3.115   4.257
    1C        C  659   2.554   3.247   4.258
    1C        C  660   2.630   3.049   4.379
    1C        C  661   2.596   3.114   4.500
    1C        C  662   2.709   2.934   4.624
    1C        C  663   2.628   3.050   4.621
    1C        C  664   2.752   2.877   4.746
    1C        C  665   2.694   2.929   4.865
    1C        C  666   2.745   2.873   4.983
    1C        C  667   2.681   4.022   2.050
    1C        C  668   2.683   4.102   2.165
    1C        C  669   2.588   3.913   2.292
    1C        C  670   2.647   4.042   2.288
    1C        C  671   2.555   3.850   2.413
    1C        C  672   2.575   3.920   2.534
    1C        C  673   2.521   3.717   2.659
    1C        C  674   2.557   3.853   2.657
    1C        C  675   2.514   3.648   2.782
    1C        C  676   2.527   3.719   2.903
    1C        C  677   2.505   3.509   3.032
    1C        C  678   2.514   3.650   3.026
    1C        C  679   2.511   3.441   3.155
    1C        C  680   2.505   3.515   3.275
    1C        C  681   2.531   3.305   3.400
    1C        C  682   2.505   3.444   3.398
    1C        C  683   2.555   3.241   3.523
    1C        C  684   2.539   3.313   3.644
    1C        C  685   2.607   3.114   3.769
    1C        C  686   2.554   3.245   3.767
    1C        C  687   2.639   3.051   3.891
    1C        C  688   2.606   3.116   4.012
    1C        C  689   2.710   2.933   4.136
    1C        C  690   2.634   3.052   4.135
    1C        C  691   2.756   2.878   4.258
    1C        C  692   2.708   2.931   4.380
    1C        C  693   2.753   2.877   4.503
    1C        C  694   2.629   3.892   2.056
    1C        C  695   2.527   3.704   2.177
    1C        C  696   2.578   3.836   2.174
    1C        C  697   2.506   3.638   2.300
    1C        C  698   2.517   3.714   2.418
    1C        C  699   2.490   3.502   2.544
    1C        C  700   2.505   3.642   2.540
    1C        C  701   2.504   3.435   2.668
    1C        C  702   2.496   3.508   2.789
    1C        C  703   2.514   3.295   2.913
    1C        C  704   2.499   3.436   2.911
    1C        C  705   2.528   3.225   3.035
    1C        C  706   2.522   3.300   3.155
    1C        C  707   2.582   3.099   3.277
    1C        C  708   2.540   3.234   3.278
    1C        C  709   2.632   3.046   3.399
    1C        C  710   2.607   3.110   3.522
    1C        C  711   2.712   2.930   3.648
    1C        C  712   2.637   3.050   3.647
    1C        C  713   2.751   2.869   3.769
    1C        C  714   2.713   2.931   3.891
    1C        C  715   2.753   2.875   4.015
    1C        C  716   2.449   3.502   2.065
    1C        C  717   2.499   3.633   2.060
    1C        C  718   2.468   3.422   2.182
    1C        C  719   2.486   3.497   2.302
    1C        C  720   2.507   3.288   2.428
    1C        C  721   2.484   3.427   2.425
    1C        C  722   2.532   3.221   2.550
    1C        C  723   2.518   3.295   2.670
    1C        C  724   2.589   3.094   2.793
    1C        C  725   2.540   3.227   2.792
    1C        C  726   2.615   3.030   2.916
    1C        C  727   2.582   3.095   3.037
    1C        C  728   2.705   2.921   3.157
    1C        C  729   2.616   3.031   3.158
    1C        C  730   2.750   2.869   3.280
    1C        C  731   2.709   2.928   3.402
    1C        C  732   2.755   2.875   3.525
    1C        C  733   2.496   3.199   2.072
    1C        C  734   2.492   3.281   2.186
    1C        C  735   2.580   3.085   2.308
    1C        C  736   2.524   3.216   2.308
    1C        C  737   2.611   3.018   2.429
    1C        C  738   2.584   3.090   2.548
    1C        C  739   2.698   2.912   2.669
    1C        C  740   2.623   3.032   2.671
    1C        C  741   2.738   2.856   2.792
    1C        C  742   2.697   2.915   2.914
    1C        C  743   2.747   2.862   3.035
    1C        C  744   2.546   3.069   2.072
    1C        C  745   2.681   2.897   2.184
    1C        C  746   2.601   3.013   2.188
    1C        C  747   2.727   2.840   2.305
    1C        C  748   2.689   2.901   2.426
    1C        C  749   2.736   2.848   2.549
    1C        C  750   2.733   2.839   2.067
    1C        C  751   3.668   2.309   1.988
    1C        O  752   3.699   2.190   2.019
    1C        O  753   3.665   2.320   1.849
    1C        C  754   4.630   3.058   1.979
    1C        O  755   4.608   3.023   1.860
    1C        O  756   4.733   2.987   2.043
    1C        C  757   4.473   4.225   1.991
    1C        O  758   4.591   4.245   2.028
    1C        O  759   4.458   4.230   1.851
    1C        C  760   3.597   4.686   1.978
    1C        O  761   3.610   4.798   2.034
    1C        O  762   3.589   4.711   1.841
    1C        C  763   2.871   4.520   1.970
    1C        O  764   2.952   4.543   1.877
    1C        O  765   2.757   4.600   1.991
    1C        C  766   2.324   3.482   1.987
    1C        O  767   2.331   3.473   1.862
    1C        O  768   2.192   3.516   2.018
    1C        C  769   4.699   3.584   5.051
    1C        O  770   4.690   3.589   5.176
    1C        O  771   4.828   3.618   5.008
    1C        C  772   4.282   4.480   5.003
    1C        O  773   4.351   4.417   5.089
    1C        O  774   4.355   4.592   4.961
    1C        C  775   4.130   2.529   5.093
    1C        O  776   4.167   2.409   5.094
    1C        O  777   4.123   2.586   5.221
    1C        C  778   2.880   4.550   5.035
    1C        O  779   2.779   4.625   5.022
    1C        O  780   2.951   4.576   5.152
    1C        C  781   2.472   3.031   5.076
    1C        O  782   2.367   2.973   5.036
    1C        O  783   2.471   3.053   5.213
    1C        C  784   2.416   3.983   5.057
    1C        O  785   2.299   4.021   5.030
    1C        O  786   2.442   4.011   5.192
    1C        C  787   2.966   2.460   1.961
    1C        O  788   3.005   2.496   1.846
    1C        O  789   2.883   2.349   1.962
    1C        C  790   3.185   2.386   5.078
    1C        O  791   3.147   2.272   5.039
    1C        O  792   3.196   2.393   5.218
    1C        H  793   4.239   3.039   5.022
    1C        H  794   4.167   2.811   5.066
    1C        H  795   4.528   3.127   5.052
    1C        H  796   4.522   3.362   5.066
    1C        H  797   4.565   3.810   5.044
    1C        H  798   4.365   3.945   5.042
    1C        H  799   4.316   4.184   5.047
    1C        H  800   3.999   4.484   5.035
    1C        H  801   3.818   4.585   5.038
    1C        H  802   3.584   4.611   5.044
    1C        H  803   3.397   4.476   5.041
    1C        H  804   3.158   4.502   5.052
    1C        H  805   3.868   2.549   5.068
    1C        H  806   3.672   2.511   5.074
    1C        H  807   2.999   2.552   5.063
    1C        H  808   3.449   2.445   5.074
    1C        H  809   2.850   2.716   5.071
    1C        H  810   2.727   2.925   5.075
    1C        H  811   2.497   3.282   5.069
    1C        H  812   2.506   3.501   5.069
    1C        H  813   2.490   3.730   5.066
    1C        H  814   2.553   4.188   5.021
    1C        H  815   2.787   4.291   5.056
    1C        H  816   2.669   2.843   1.982
    1C        H  817   2.832   2.678   1.980
    1C        H  818   3.190   2.374   2.028
    1C        H  819   3.426   2.397   1.979
    1C        H  820   3.891   2.461   1.991
    1C        H  821   4.062   2.621   1.966
    1C        H  822   4.242   2.724   1.970
    1C        H  823   4.380   2.922   1.965
    1C        H  824   4.593   3.303   1.972
    1C        H  825   4.573   3.522   1.966
    1C        H  826   4.549   3.751   1.965
    1C        H  827   3.814   4.534   1.960
    1C        H  828   3.926   4.315   1.955
    1C        H  829   4.172   4.266   1.951
    1C        H  830   4.464   3.946   1.959
    1C        H  831   2.659   3.826   1.977
    1C        H  832   2.668   4.071   1.956
    1C        H  833   2.724   4.292   1.966
    1C        H  834   3.382   4.401   1.978
    1C        H  835   3.144   4.385   1.960
    1C        H  836   2.522   3.003   1.992
    1C        H  837   2.477   3.239   1.975
    1C        H  838   2.511   3.679   1.965
    2V3OU   H29  839   2.802   3.547   2.757
    2V3OU   C27  840   2.788   3.499   2.858
    2V3OU   H27  841   2.727   3.572   2.917
    2V3OU   H28  842   2.736   3.401   2.847
    2V3OU   O11  843   2.913   3.477   2.924
    2V3OU   C15  844   2.928   3.398   3.036
    2V3OU   C13  845   3.050   3.373   3.102
    2V3OU   C14  846   3.078   3.265   3.187
    2V3OU   C16  847   2.976   3.180   3.226
    2V3OU    H6  848   2.987   3.104   3.305
    2V3OU   C12  849   3.213   3.231   3.238
    2V3OU    O2  850   3.237   3.125   3.300
    2V3OU   C10  851   3.329   3.309   3.193
    2V3OU    C8  852   3.459   3.268   3.220
    2V3OU   O10  853   3.485   3.162   3.300
    2V3OU   H26  854   3.401   3.116   3.316
    2V3OU    C6  855   3.566   3.346   3.167
    2V3OU    C5  856   3.535   3.465   3.101
    2V3OU    C4  857   3.705   3.292   3.173
    2V3OU    H4  858   3.725   3.227   3.263
    2V3OU    H5  859   3.711   3.225   3.083
    2V3OU    C2  860   3.816   3.397   3.168
    2V3OU    O6  861   3.809   3.472   3.289
    2V3OU   H21  862   3.765   3.555   3.264
    2V3OU    C3  863   3.780   3.494   3.054
    2V3OU    H2  864   3.863   3.569   3.055
    2V3OU    H3  865   3.779   3.435   2.959
    2V3OU   C25  866   3.953   3.330   3.156
    2V3OU    O7  867   4.000   3.300   3.046
    2V3OU   C26  868   4.028   3.291   3.282
    2V3OU   H22  869   4.062   3.381   3.341
    2V3OU   H23  870   4.115   3.226   3.256
    2V3OU    O8  871   3.959   3.212   3.377
    2V3OU   H24  872   3.925   3.262   3.453
    2V3OU    C1  873   3.645   3.563   3.071
    2V3OU    H1  874   3.621   3.614   2.973
    2V3OU    O3  875   3.658   3.655   3.179
    2V3OU   C19  876   3.618   3.791   3.158
    2V3OU    H9  877   3.519   3.803   3.105
    2V3OU    O4  878   3.716   3.842   3.070
    2V3OU   C20  879   3.845   3.872   3.123
    2V3OU   H10  880   3.896   3.773   3.143
    2V3OU   C24  881   3.613   3.853   3.297
    2V3OU   H16  882   3.543   3.794   3.361
    2V3OU   H17  883   3.569   3.955   3.282
    2V3OU   C23  884   3.754   3.872   3.355
    2V3OU   H15  885   3.794   3.767   3.376
    2V3OU    N1  886   3.739   3.952   3.475
    2V3OU   H19  887   3.802   3.921   3.547
    2V3OU   H20  888   3.648   3.926   3.509
    2V3OU   C21  889   3.852   3.944   3.258
    2V3OU   H11  890   3.958   3.930   3.294
    2V3OU    O5  891   3.830   4.084   3.251
    2V3OU   H18  892   3.780   4.105   3.332
    2V3OU   C22  893   3.913   3.944   3.007
    2V3OU   H12  894   3.860   4.040   2.984
    2V3OU   H13  895   3.911   3.880   2.916
    2V3OU   H14  896   4.022   3.956   3.031
    2V3OU   C11  897   3.159   3.471   3.093
    2V3OU    O1  898   3.135   3.588   3.055
    2V3OU    C9  899   3.298   3.425   3.117
    2V3OU    C7  900   3.402   3.502   3.067
    2V3OU    O9  901   3.387   3.619   2.996
    2V3OU   H25  902   3.291   3.626   3.010
    2V3OU   C17  903   2.826   3.311   3.080
    2V3OU    H7  904   2.730   3.341   3.039
    2V3OU   C18  905   2.851   3.210   3.173
    2V3OU    H8  906   2.781   3.172   3.248
    3SOL     OW  907   2.480   5.359   6.290
    3SOL    HW1  908   2.488   5.282   6.353
    3SOL    HW2  909   2.472   5.444   6.342
    4SOL     OW  910   6.826   0.768   1.303
    4SOL    HW1  911   6.733   0.776   1.267
    4SOL    HW2  912   6.824   0.770   1.403
    5SOL     OW  913   4.316   2.311   2.156
    5SOL    HW1  914   4.361   2.369   2.087
    5SOL    HW2  915   4.231   2.274   2.119
    6SOL     OW  916   4.374   1.515   1.249
    6SOL    HW1  917   4.322   1.555   1.174
    6SOL    HW2  918   4.470   1.542   1.240
    7SOL     OW  919   0.827   4.137   4.017
    7SOL    HW1  920   0.927   4.143   4.024
    7SOL    HW2  921   0.786   4.175   4.100
    8SOL     OW  922   3.051   1.639   5.673
    8SOL    HW1  923   3.087   1.564   5.618
    8SOL    HW2  924   2.953   1.647   5.658
    9SOL     OW  925   4.502   1.343   5.735
    9SOL    HW1  926   4.480   1.432   5.696
    9SOL    HW2  927   4.505   1.350   5.835
   10SOL     OW  928   2.011   5.221   4.829
   10SOL    HW1  929   2.083   5.152   4.832
   10SOL    HW2  930   1.957   5.217   4.913
   11SOL     OW  931   2.410   0.956   5.885
   11SOL    HW1  932   2.328   0.999   5.847
   11SOL    HW2  933   2.490   1.010   5.861
   12SOL     OW  934   2.975   4.991   3.665
   12SOL    HW1  935   3.025   4.983   3.579
   12SOL    HW2  936   2.930   5.080   3.670
   13SOL     OW  937   3.525   6.760   4.337
   13SOL    HW1  938   3.500   6.751   4.240
   13SOL    HW2  939   3.467   6.701   4.392
   14SOL     OW  940   3.742   5.653   6.285
   14SOL    HW1  941   3.786   5.702   6.210
   14SOL    HW2  942   3.742   5.710   6.367
   15SOL     OW  943   0.798   6.903   0.866
   15SOL    HW1  944   0.832   6.809   0.870
   15SOL    HW2  945   0.811   6.946   0.956
   16SOL     OW  946   5.494   2.905   6.434
   16SOL    HW1  947   5.432   2.963   6.485
   16SOL    HW2  948   5.553   2.962   6.375
   17SOL     OW  949   5.909   5.737   6.957
   17SOL    HW1  950   6.006   5.729   6.979
   17SOL    HW2  951   5.879   5.832   6.971
   18SOL     OW  952   2.633   1.000   5.654
   18SOL    HW1  953   2.597   0.951   5.574
   18SOL    HW2  954   2.724   0.965   5.675
   19SOL     OW  955   0.419   2.014   3.182
   19SOL    HW1  956   0.341   1.983   3.127
   19SOL    HW2  957   0.502   1.970   3.150
   20SOL     OW  958   4.491   1.762   4.735
   20SOL    HW1  959   4.506   1.687   4.799
   20SOL    HW2  960   4.415   1.819   4.767
   21SOL     OW  961   3.122   0.968   2.078
   21SOL    HW1  962   3.074   1.015   2.152
   21SOL    HW2  963   3.165   0.885   2.113
   22SOL     OW  964   1.561   6.380   6.732
   22SOL    HW1  965   1.473   6.377   6.780
   22SOL    HW2  966   1.634   6.401   6.798
   23SOL     OW  967   4.749   5.367   2.422
   23SOL    HW1  968   4.715   5.434   2.487
   23SOL    HW2  969   4.719   5.276   2.449
   24SOL     OW  970   3.429   0.591   2.547
   24SOL    HW1  971   3.343   0.626   2.510
   24SOL    HW2  972   3.410   0.521   2.615
   25SOL     OW  973   3.651   6.853   3.439
   25SOL    HW1  974   3.608   6.859   3.349
   25SOL    HW2  975   3.598   6.907   3.504
   26SOL     OW  976   6.704   1.475   0.586
   26SOL    HW1  977   6.636   1.545   0.608
   26SOL    HW2  978   6.796   1.514   0.594
   27SOL     OW  979   1.777   1.360   2.255
   27SOL    HW1  980   1.782   1.452   2.296
   27SOL    HW2  981   1.723   1.301   2.314
   28SOL     OW  982   1.732   6.850   5.100
   28SOL    HW1  983   1.758   6.760   5.065
   28SOL    HW2  984   1.727   6.847   5.200
   29SOL     OW  985   6.337   1.971   1.933
   29SOL    HW1  986   6.288   2.029   1.868
   29SOL    HW2  987   6.431   1.958   1.902
   30SOL     OW  988   4.460   0.086   3.375
   30SOL    HW1  989   4.438   0.074   3.472
   30SOL    HW2  990   4.541   0.032   3.352
   31SOL     OW  991   0.215   2.634   6.815
   31SOL    HW1  992   0.159   2.571   6.761
   31SOL    HW2  993   0.297   2.587   6.848
   32SOL     OW  994   0.635   1.875   3.091
   32SOL    HW1  995   0.697   1.928   3.149
   32SOL    HW2  996   0.685   1.803   3.044
   33SOL     OW  997   1.571   4.465   4.861
   33SOL    HW1  998   1.596   4.454   4.958
   33SOL    HW2  999   1.506   4.541   4.852
   34SOL     OW 1000   2.660   6.628   5.000
   34SOL    HW1 1001   2.674   6.710   4.944
   34SOL    HW2 1002   2.740   6.614   5.059
   35SOL     OW 1003   4.477   3.080   6.197
   35SOL    HW1 1004   4.528   2.999   6.169
   35SOL    HW2 1005   4.538   3.143   6.246
   36SOL     OW 1006   4.861   1.933   4.240
   36SOL    HW1 1007   4.778   1.910   4.189
   36SOL    HW2 1008   4.927   1.858   4.233
   37SOL     OW 1009   1.629   1.562   5.620
   37SOL    HW1 1010   1.677   1.586   5.704
   37SOL    HW2 1011   1.574   1.639   5.589
   38SOL     OW 1012   0.968   5.277   2.199
   38SOL    HW1 1013   1.031   5.230   2.138
   38SOL    HW2 1014   0.929   5.212   2.264
   39SOL     OW 1015   6.208   4.210   6.552
   39SOL    HW1 1016   6.136   4.268   6.514
   39SOL    HW2 1017   6.279   4.268   6.592
   40SOL     OW 1018   4.560   1.745   0.629
   40SOL    HW1 1019   4.560   1.840   0.661
   40SOL    HW2 1020   4.592   1.741   0.534
   41SOL     OW 1021   6.260   3.643   3.991
   41SOL    HW1 1022   6.314   3.596   3.921
   41SOL    HW2 1023   6.214   3.722   3.951
   42SOL     OW 1024   3.281   5.609   4.021
   42SOL    HW1 1025   3.185   5.585   4.005
   42SOL    HW2 1026   3.333   5.526   4.041
   43SOL     OW 1027   4.977   6.953   5.485
   43SOL    HW1 1028   4.990   0.026   5.453
   43SOL    HW2 1029   5.000   6.889   5.412
   44SOL     OW 1030   4.700   1.982   6.093
   44SOL    HW1 1031   4.688   2.076   6.126
   44SOL    HW2 1032   4.731   1.985   5.998
   45SOL     OW 1033   4.676   4.723   1.404
   45SOL    HW1 1034   4.774   4.712   1.387
   45SOL    HW2 1035   4.624   4.677   1.332
   46SOL     OW 1036   0.327   3.087   3.839
   46SOL    HW1 1037   0.344   3.081   3.937
   46SOL    HW2 1038   0.410   3.064   3.788
   47SOL     OW 1039   4.610   3.916   0.791
   47SOL    HW1 1040   4.525   3.896   0.742
   47SOL    HW2 1041   4.608   4.009   0.826
   48SOL     OW 1042   6.487   2.780   5.995
   48SOL    HW1 1043   6.577   2.772   5.951
   48SOL    HW2 1044   6.466   2.696   6.043
   49SOL     OW 1045   5.741   3.096   2.587
   49SOL    HW1 1046   5.660   3.061   2.636
   49SOL    HW2 1047   5.757   3.040   2.506
   50SOL     OW 1048   5.656   1.078   4.776
   50SOL    HW1 1049   5.566   1.092   4.735
   50SOL    HW2 1050   5.688   0.986   4.752
   51SOL     OW 1051   2.442   6.636   3.060
   51SOL    HW1 1052   2.359   6.589   3.032
   51SOL    HW2 1053   2.486   6.678   2.981
   52SOL     OW 1054   6.204   3.056   1.967
   52SOL    HW1 1055   6.126   3.073   2.028
   52SOL    HW2 1056   6.174   2.999   1.890
   53SOL     OW 1057   5.043   1.293   3.762
   53SOL    HW1 1058   5.127   1.242   3.739
   53SOL    HW2 1059   4.987   1.304   3.680
   54SOL     OW 1060   5.440   5.620   0.914
   54SOL    HW1 1061   5.421   5.571   0.999
   54SOL    HW2 1062   5.353   5.646   0.871
   55SOL     OW 1063   1.988   2.441   5.396
   55SOL    HW1 1064   2.010   2.527   5.443
   55SOL    HW2 1065   1.987   2.457   5.297
   56SOL     OW 1066   0.675   0.946   1.204
   56SOL    HW1 1067   0.710   0.934   1.297
   56SOL    HW2 1068   0.593   1.003   1.206
   57SOL     OW 1069   4.111   0.826   1.412
   57SOL    HW1 1070   4.073   0.914   1.438
   57SOL    HW2 1071   4.141   0.829   1.316
   58SOL     OW 1072   0.732   0.087   5.350
   58SOL    HW1 1073   0.749   0.081   5.252
   58SOL    HW2 1074   0.797   0.030   5.399
   59SOL     OW 1075   0.125   2.975   6.527
   59SOL    HW1 1076   0.130   2.980   6.627
   59SOL    HW2 1077   0.207   3.017   6.487
   60SOL     OW 1078   5.086   2.724   4.651
   60SOL    HW1 1079   4.994   2.749   4.618
   60SOL    HW2 1080   5.093   2.625   4.657
   61SOL     OW 1081   6.329   1.777   4.083
   61SOL    HW1 1082   6.427   1.792   4.094
   61SOL    HW2 1083   6.313   1.712   4.009
   62SOL     OW 1084   1.816   1.032   1.936
   62SOL    HW1 1085   1.912   1.028   1.910
   62SOL    HW2 1086   1.759   1.010   1.857
   63SOL     OW 1087   4.716   0.741   4.232
   63SOL    HW1 1088   4.776   0.671   4.193
   63SOL    HW2 1089   4.771   0.820   4.260
   64SOL     OW 1090   6.716   2.759   5.859
   64SOL    HW1 1091   6.707   2.815   5.777
   64SOL    HW2 1092   6.811   2.761   5.890
   65SOL     OW 1093   0.485   4.288   6.800
   65SOL    HW1 1094   0.422   4.238   6.859
   65SOL    HW2 1095   0.441   4.372   6.768
   66SOL     OW 1096   3.388   0.706   3.946
   66SOL    HW1 1097   3.454   0.742   4.012
   66SOL    HW2 1098   3.429   0.706   3.855
   67SOL     OW 1099   6.604   2.521   5.808
   67SOL    HW1 1100   6.634   2.611   5.841
   67SOL    HW2 1101   6.578   2.464   5.886
   68SOL     OW 1102   0.205   1.261   6.781
   68SOL    HW1 1103   0.106   1.251   6.785
   68SOL    HW2 1104   0.248   1.171   6.777
   69SOL     OW 1105   1.366   2.735   5.678
   69SOL    HW1 1106   1.444   2.730   5.614
   69SOL    HW2 1107   1.322   2.824   5.668
   70SOL     OW 1108   5.077   4.438   4.177
   70SOL    HW1 1109   5.047   4.343   4.187
   70SOL    HW2 1110   5.034   4.495   4.246
   71SOL     OW 1111   4.092   1.960   3.676
   71SOL    HW1 1112   4.153   1.966   3.598
   71SOL    HW2 1113   4.109   2.036   3.738
   72SOL     OW 1114   1.177   1.174   3.561
   72SOL    HW1 1115   1.254   1.211   3.613
   72SOL    HW2 1116   1.186   1.075   3.554
   73SOL     OW 1117   3.590   6.996   0.827
   73SOL    HW1 1118   3.664   6.970   0.889
   73SOL    HW2 1119   3.533   0.044   0.872
   74SOL     OW 1120   3.976   0.522   0.355
   74SOL    HW1 1121   3.918   0.587   0.405
   74SOL    HW2 1122   4.052   0.493   0.412
   75SOL     OW 1123   4.298   0.521   1.186
   75SOL    HW1 1124   4.257   0.490   1.100
   75SOL    HW2 1125   4.387   0.478   1.198
   76SOL     OW 1126   2.911   3.661   0.663
   76SOL    HW1 1127   2.861   3.712   0.733
   76SOL    HW2 1128   2.846   3.616   0.602
   77SOL     OW 1129   1.256   0.468   3.633
   77SOL    HW1 1130   1.351   0.481   3.663
   77SOL    HW2 1131   1.207   0.413   3.700
   78SOL     OW 1132   4.999   1.494   0.751
   78SOL    HW1 1133   4.919   1.554   0.757
   78SOL    HW2 1134   5.082   1.548   0.761
   79SOL     OW 1135   3.150   5.909   1.408
   79SOL    HW1 1136   3.099   5.952   1.482
   79SOL    HW2 1137   3.241   5.950   1.402
   80SOL     OW 1138   4.593   1.271   3.880
   80SOL    HW1 1139   4.670   1.208   3.873
   80SOL    HW2 1140   4.589   1.309   3.972
   81SOL     OW 1141   2.001   0.258   2.226
   81SOL    HW1 1142   1.940   0.260   2.305
   81SOL    HW2 1143   2.096   0.257   2.258
   82SOL     OW 1144   5.683   4.941   0.938
   82SOL    HW1 1145   5.758   4.879   0.958
   82SOL    HW2 1146   5.621   4.898   0.871
   83SOL     OW 1147   0.230   0.539   0.165
   83SOL    HW1 1148   0.143   0.490   0.165
   83SOL    HW2 1149   0.213   0.638   0.169
   84SOL     OW 1150   6.379   3.540   2.677
   84SOL    HW1 1151   6.307   3.530   2.747
   84SOL    HW2 1152   6.463   3.572   2.720
   85SOL     OW 1153   1.698   1.337   2.830
   85SOL    HW1 1154   1.604   1.362   2.805
   85SOL    HW2 1155   1.734   1.404   2.895
   86SOL     OW 1156   0.162   1.386   6.441
   86SOL    HW1 1157   0.176   1.395   6.540
   86SOL    HW2 1158   0.126   1.472   6.404
   87SOL     OW 1159   5.076   4.359   0.982
   87SOL    HW1 1160   5.025   4.301   0.919
   87SOL    HW2 1161   5.164   4.316   1.005
   88SOL     OW 1162   3.036   1.905   6.013
   88SOL    HW1 1163   2.947   1.904   6.058
   88SOL    HW2 1164   3.079   1.995   6.027
   89SOL     OW 1165   2.514   3.186   0.199
   89SOL    HW1 1166   2.551   3.099   0.166
   89SOL    HW2 1167   2.421   3.173   0.231
   90SOL     OW 1168   4.249   5.360   2.261
   90SOL    HW1 1169   4.201   5.298   2.323
   90SOL    HW2 1170   4.191   5.438   2.240
   91SOL     OW 1171   6.836   4.073   6.354
   91SOL    HW1 1172   6.880   3.999   6.405
   91SOL    HW2 1173   6.740   4.079   6.380
   92SOL     OW 1174   4.972   4.246   1.314
   92SOL    HW1 1175   4.887   4.298   1.308
   92SOL    HW2 1176   5.037   4.295   1.373
   93SOL     OW 1177   3.274   3.611   0.100
   93SOL    HW1 1178   3.308   3.638   0.010
   93SOL    HW2 1179   3.174   3.604   0.097
   94SOL     OW 1180   3.162   5.798   6.790
   94SOL    HW1 1181   3.117   5.886   6.802
   94SOL    HW2 1182   3.223   5.781   6.868
   95SOL     OW 1183   1.871   1.138   2.848
   95SOL    HW1 1184   1.806   1.213   2.837
   95SOL    HW2 1185   1.957   1.160   2.801
   96SOL     OW 1186   3.999   6.099   5.389
   96SOL    HW1 1187   3.991   6.149   5.475
   96SOL    HW2 1188   3.969   6.004   5.402
   97SOL     OW 1189   2.446   3.475   6.071
   97SOL    HW1 1190   2.446   3.377   6.055
   97SOL    HW2 1191   2.393   3.521   5.999
   98SOL     OW 1192   1.236   2.406   0.170
   98SOL    HW1 1193   1.322   2.355   0.178
   98SOL    HW2 1194   1.179   2.364   0.099
   99SOL     OW 1195   4.502   3.479   1.338
   99SOL    HW1 1196   4.559   3.402   1.307
   99SOL    HW2 1197   4.413   3.444   1.368
  100SOL     OW 1198   0.715   6.582   3.876
  100SOL    HW1 1199   0.799   6.551   3.922
  100SOL    HW2 1200   0.664   6.643   3.937
  101SOL     OW 1201   1.174   4.418   2.295
  101SOL    HW1 1202   1.270   4.445   2.308
  101SOL    HW2 1203   1.138   4.462   2.213
  102SOL     OW 1204   3.973   5.335   2.078
  102SOL    HW1 1205   3.961   5.247   2.125
  102SOL    HW2 1206   3.891   5.356   2.026
  103SOL     OW 1207   2.284   2.128   2.125
  103SOL    HW1 1208   2.234   2.214   2.113
  103SOL    HW2 1209   2.321   2.098   2.037
  104SOL     OW 1210   1.198   6.029   2.654
  104SOL    HW1 1211   1.183   6.107   2.714
  104SOL    HW2 1212   1.120   5.967   2.659
  105SOL     OW 1213   5.740   0.912   6.144
  105SOL    HW1 1214   5.655   0.959   6.117
  105SOL    HW2 1215   5.805   0.978   6.181
  106SOL     OW 1216   3.481   6.039   3.614
  106SOL    HW1 1217   3.574   6.021   3.648
  106SOL    HW2 1218   3.415   5.991   3.670
  107SOL     OW 1219   0.533   0.944   6.638
  107SOL    HW1 1220   0.542   1.000   6.721
  107SOL    HW2 1221   0.439   0.912   6.630
  108SOL     OW 1222   3.914   6.641   6.359
  108SOL    HW1 1223   4.000   6.685   6.383
  108SOL    HW2 1224   3.931   6.547   6.329
  109SOL     OW 1225   3.029   1.784   3.116
  109SOL    HW1 1226   3.063   1.796   3.022
  109SOL    HW2 1227   2.942   1.737   3.113
  110SOL     OW 1228   3.139   4.862   4.232
  110SOL    HW1 1229   3.074   4.786   4.231
  110SOL    HW2 1230   3.134   4.911   4.145
  111SOL     OW 1231   2.265   1.742   4.217
  111SOL    HW1 1232   2.212   1.658   4.204
  111SOL    HW2 1233   2.340   1.724   4.281
  112SOL     OW 1234   3.682   5.982   0.327
  112SOL    HW1 1235   3.675   5.953   0.231
  112SOL    HW2 1236   3.695   5.902   0.385
  113SOL     OW 1237   0.962   6.605   2.775
  113SOL    HW1 1238   1.022   6.600   2.695
  113SOL    HW2 1239   0.870   6.573   2.751
  114SOL     OW 1240   0.723   6.269   1.160
  114SOL    HW1 1241   0.654   6.204   1.129
  114SOL    HW2 1242   0.812   6.244   1.124
  115SOL     OW 1243   5.168   0.508   2.804
  115SOL    HW1 1244   5.082   0.506   2.753
  115SOL    HW2 1245   5.213   0.419   2.799
  116SOL     OW 1246   6.747   6.595   1.477
  116SOL    HW1 1247   6.679   6.658   1.515
  116SOL    HW2 1248   6.718   6.501   1.494
  117SOL     OW 1249   0.273   1.264   0.593
  117SOL    HW1 1250   0.344   1.301   0.533
  117SOL    HW2 1251   0.196   1.232   0.537
  118SOL     OW 1252   1.418   1.590   2.137
  118SOL    HW1 1253   1.452   1.647   2.211
  118SOL    HW2 1254   1.402   1.646   2.056
  119SOL     OW 1255   0.642   0.325   0.247
  119SOL    HW1 1256   0.564   0.341   0.187
  119SOL    HW2 1257   0.633   0.381   0.330
  120SOL     OW 1258   5.010   1.089   5.318
  120SOL    HW1 1259   4.937   1.147   5.353
  120SOL    HW2 1260   4.971   1.016   5.262
  121SOL     OW 1261   1.209   3.284   0.368
  121SOL    HW1 1262   1.306   3.275   0.347
  121SOL    HW2 1263   1.160   3.203   0.335
  122SOL     OW 1264   1.641   3.884   0.275
  122SOL    HW1 1265   1.582   3.805   0.256
  122SOL    HW2 1266   1.594   3.945   0.339
  123SOL     OW 1267   1.215   2.010   2.579
  123SOL    HW1 1268   1.133   1.982   2.630
  123SOL    HW2 1269   1.192   2.084   2.516
  124SOL     OW 1270   3.570   2.914   0.803
  124SOL    HW1 1271   3.481   2.942   0.767
  124SOL    HW2 1272   3.629   2.995   0.811
  125SOL     OW 1273   4.331   2.437   0.503
  125SOL    HW1 1274   4.245   2.475   0.538
  125SOL    HW2 1275   4.405   2.460   0.567
  126SOL     OW 1276   3.490   3.396   1.943
  126SOL    HW1 1277   3.404   3.345   1.940
  126SOL    HW2 1278   3.559   3.342   1.991
  127SOL     OW 1279   0.629   4.999   6.435
  127SOL    HW1 1280   0.577   4.933   6.380
  127SOL    HW2 1281   0.676   5.063   6.375
  128SOL     OW 1282   5.002   3.241   1.306
  128SOL    HW1 1283   4.974   3.336   1.292
  128SOL    HW2 1284   4.929   3.192   1.352
  129SOL     OW 1285   2.706   3.396   6.783
  129SOL    HW1 1286   2.612   3.385   6.816
  129SOL    HW2 1287   2.722   3.491   6.759
  130SOL     OW 1288   0.493   0.600   4.366
  130SOL    HW1 1289   0.502   0.595   4.267
  130SOL    HW2 1290   0.460   0.512   4.401
  131SOL     OW 1291   5.000   0.631   3.677
  131SOL    HW1 1292   5.054   0.555   3.713
  131SOL    HW2 1293   4.942   0.668   3.749
  132SOL     OW 1294   3.174   2.452   1.641
  132SOL    HW1 1295   3.132   2.504   1.567
  132SOL    HW2 1296   3.125   2.469   1.726
  133SOL     OW 1297   5.543   0.365   4.151
  133SOL    HW1 1298   5.574   0.319   4.234
  133SOL    HW2 1299   5.447   0.342   4.133
  134SOL     OW 1300   0.646   0.849   2.669
  134SOL    HW1 1301   0.570   0.914   2.662
  134SOL    HW2 1302   0.695   0.864   2.755
  135SOL     OW 1303   5.438   3.689   4.384
  135SOL    HW1 1304   5.532   3.700   4.416
  135SOL    HW2 1305   5.387   3.773   4.399
  136SOL     OW 1306   1.446   4.932   5.288
  136SOL    HW1 1307   1.409   4.947   5.380
  136SOL    HW2 1308   1.371   4.911   5.226
  137SOL     OW 1309   4.560   1.848   3.594
  137SOL    HW1 1310   4.470   1.859   3.636
  137SOL    HW2 1311   4.550   1.830   3.497
  138SOL     OW 1312   1.289   3.665   2.784
  138SOL    HW1 1313   1.360   3.616   2.732
  138SOL    HW2 1314   1.219   3.698   2.721
  139SOL     OW 1315   2.005   6.114   5.305
  139SOL    HW1 1316   2.023   6.068   5.392
  139SOL    HW2 1317   2.020   6.051   5.229
  140SOL     OW 1318   1.997   6.391   3.712
  140SOL    HW1 1319   2.057   6.425   3.640
  140SOL    HW2 1320   2.019   6.438   3.798
  141SOL     OW 1321   0.241   2.830   4.827
  141SOL    HW1 1322   0.196   2.753   4.782
  141SOL    HW2 1323   0.171   2.888   4.871
  142SOL     OW 1324   2.076   3.458   2.255
  142SOL    HW1 1325   2.027   3.541   2.282
  142SOL    HW2 1326   2.120   3.472   2.166
  143SOL     OW 1327   5.490   4.892   0.747
  143SOL    HW1 1328   5.527   4.805   0.714
  143SOL    HW2 1329   5.528   4.967   0.693
  144SOL     OW 1330   1.870   4.685   5.877
  144SOL    HW1 1331   1.828   4.612   5.930
  144SOL    HW2 1332   1.908   4.648   5.793
  145SOL     OW 1333   2.363   5.355   1.699
  145SOL    HW1 1334   2.301   5.317   1.630
  145SOL    HW2 1335   2.433   5.410   1.653
  146SOL     OW 1336   5.386   0.477   6.601
  146SOL    HW1 1337   5.448   0.497   6.525
  146SOL    HW2 1338   5.292   0.498   6.575
  147SOL     OW 1339   5.455   1.375   5.934
  147SOL    HW1 1340   5.375   1.317   5.944
  147SOL    HW2 1341   5.449   1.426   5.848
  148SOL     OW 1342   6.815   5.453   1.436
  148SOL    HW1 1343   6.763   5.387   1.491
  148SOL    HW2 1344   6.776   5.459   1.345
  149SOL     OW 1345   3.781   2.123   5.111
  149SOL    HW1 1346   3.815   2.168   5.194
  149SOL    HW2 1347   3.853   2.124   5.042
  150SOL     OW 1348   5.683   6.936   6.584
  150SOL    HW1 1349   5.735   6.995   6.646
  150SOL    HW2 1350   5.585   6.942   6.607
  151SOL     OW 1351   3.595   0.755   1.584
  151SOL    HW1 1352   3.518   0.695   1.607
  151SOL    HW2 1353   3.615   0.748   1.486
  152SOL     OW 1354   0.164   1.726   0.648
  152SOL    HW1 1355   0.193   1.750   0.555
  152SOL    HW2 1356   0.243   1.692   0.699
  153SOL     OW 1357   2.699   6.756   3.204
  153SOL    HW1 1358   2.600   6.755   3.212
  153SOL    HW2 1359   2.733   6.662   3.195
  154SOL     OW 1360   0.535   3.137   0.605
  154SOL    HW1 1361   0.482   3.132   0.690
  154SOL    HW2 1362   0.508   3.219   0.555
  155SOL     OW 1363   1.216   1.318   3.871
  155SOL    HW1 1364   1.298   1.336   3.816
  155SOL    HW2 1365   1.175   1.404   3.898
  156SOL     OW 1366   6.759   0.540   6.991
  156SOL    HW1 1367   6.733   0.570   0.062
  156SOL    HW2 1368   6.729   0.607   6.924
  157SOL     OW 1369   5.540   3.692   0.547
  157SOL    HW1 1370   5.617   3.648   0.500
  157SOL    HW2 1371   5.563   3.788   0.565
  158SOL     OW 1372   1.546   2.989   1.623
  158SOL    HW1 1373   1.602   3.055   1.573
  158SOL    HW2 1374   1.543   2.903   1.572
  159SOL     OW 1375   4.348   4.919   1.568
  159SOL    HW1 1376   4.439   4.948   1.538
  159SOL    HW2 1377   4.300   4.876   1.491
  160SOL     OW 1378   5.791   0.103   0.679
  160SOL    HW1 1379   5.850   0.066   0.751
  160SOL    HW2 1380   5.715   0.040   0.663
  161SOL     OW 1381   1.423   0.492   2.993
  161SOL    HW1 1382   1.399   0.533   2.905
  161SOL    HW2 1383   1.416   0.561   3.065
  162SOL     OW 1384   3.932   6.178   6.999
  162SOL    HW1 1385   3.833   6.181   7.017
  162SOL    HW2 1386   3.981   6.203   0.061
  163SOL     OW 1387   6.997   6.057   2.143
  163SOL    HW1 1388   6.916   6.010   2.106
  163SOL    HW2 1389   6.980   6.155   2.146
  164SOL     OW 1390   0.943   3.722   3.241
  164SOL    HW1 1391   0.888   3.642   3.217
  164SOL    HW2 1392   0.950   3.783   3.161
  165SOL     OW 1393   4.852   4.667   6.783
  165SOL    HW1 1394   4.819   4.621   6.701
  165SOL    HW2 1395   4.834   4.765   6.775
  166SOL     OW 1396   0.501   3.327   2.061
  166SOL    HW1 1397   0.457   3.238   2.069
  166SOL    HW2 1398   0.599   3.319   2.081
  167SOL     OW 1399   5.925   1.662   0.050
  167SOL    HW1 1400   5.966   1.663   0.141
  167SOL    HW2 1401   5.995   1.686   7.003
  168SOL     OW 1402   3.957   1.713   0.826
  168SOL    HW1 1403   4.018   1.634   0.816
  168SOL    HW2 1404   3.999   1.793   0.782
  169SOL     OW 1405   6.060   2.488   0.815
  169SOL    HW1 1406   6.081   2.401   0.770
  169SOL    HW2 1407   5.973   2.479   0.864
  170SOL     OW 1408   6.365   6.393   2.529
  170SOL    HW1 1409   6.399   6.376   2.437
  170SOL    HW2 1410   6.418   6.466   2.571
  171SOL     OW 1411   2.480   4.768   6.822
  171SOL    HW1 1412   2.391   4.799   6.856
  171SOL    HW2 1413   2.542   4.755   6.899
  172SOL     OW 1414   6.520   1.828   3.529
  172SOL    HW1 1415   6.532   1.748   3.470
  172SOL    HW2 1416   6.441   1.814   3.588
  173SOL     OW 1417   5.486   0.961   4.156
  173SOL    HW1 1418   5.562   0.898   4.169
  173SOL    HW2 1419   5.521   1.053   4.139
  174SOL     OW 1420   4.650   5.273   4.061
  174SOL    HW1 1421   4.679   5.353   4.008
  174SOL    HW2 1422   4.606   5.207   3.999
  175SOL     OW 1423   3.889   0.625   0.967
  175SOL    HW1 1424   3.794   0.641   0.995
  175SOL    HW2 1425   3.935   0.712   0.952
  176SOL     OW 1426   6.078   4.890   1.859
  176SOL    HW1 1427   6.023   4.950   1.916
  176SOL    HW2 1428   6.172   4.923   1.855
  177SOL     OW 1429   5.288   2.926   4.590
  177SOL    HW1 1430   5.281   3.005   4.651
  177SOL    HW2 1431   5.197   2.887   4.575
  178SOL     OW 1432   2.948   4.422   5.668
  178SOL    HW1 1433   2.906   4.495   5.614
  178SOL    HW2 1434   2.980   4.350   5.607
  179SOL     OW 1435   3.609   0.891   6.682
  179SOL    HW1 1436   3.579   0.852   6.768
  179SOL    HW2 1437   3.650   0.820   6.625
  180SOL     OW 1438   2.169   0.762   1.077
  180SOL    HW1 1439   2.238   0.795   1.141
  180SOL    HW2 1440   2.213   0.736   0.991
  181SOL     OW 1441   3.045   3.204   5.780
  181SOL    HW1 1442   3.069   3.107   5.771
  181SOL    HW2 1443   3.050   3.231   5.876
  182SOL     OW 1444   3.949   1.607   6.604
  182SOL    HW1 1445   3.949   1.686   6.665
  182SOL    HW2 1446   3.896   1.628   6.522
  183SOL     OW 1447   3.196   1.878   3.555
  183SOL    HW1 1448   3.220   1.960   3.606
  183SOL    HW2 1449   3.159   1.904   3.466
  184SOL     OW 1450   0.034   6.600   3.536
  184SOL    HW1 1451   0.073   6.508   3.538
  184SOL    HW2 1452   6.959   6.594   3.506
  185SOL     OW 1453   1.190   1.709   4.704
  185SOL    HW1 1454   1.225   1.633   4.760
  185SOL    HW2 1455   1.107   1.746   4.747
  186SOL     OW 1456   6.334   1.542   3.920
  186SOL    HW1 1457   6.324   1.501   4.010
  186SOL    HW2 1458   6.275   1.494   3.854
  187SOL     OW 1459   5.182   6.860   2.290
  187SOL    HW1 1460   5.251   6.862   2.362
  187SOL    HW2 1461   5.091   6.865   2.331
  188SOL     OW 1462   1.106   3.598   3.608
  188SOL    HW1 1463   1.071   3.510   3.576
  188SOL    HW2 1464   1.043   3.671   3.581
  189SOL     OW 1465   1.419   5.774   0.278
  189SOL    HW1 1466   1.469   5.835   0.216
  189SOL    HW2 1467   1.462   5.684   0.277
  190SOL     OW 1468   6.553   4.263   6.097
  190SOL    HW1 1469   6.523   4.194   6.030
  190SOL    HW2 1470   6.652   4.252   6.113
  191SOL     OW 1471   6.415   1.097   7.003
  191SOL    HW1 1472   6.379   1.043   0.058
  191SOL    HW2 1473   6.377   1.190   7.007
  192SOL     OW 1474   0.377   5.099   1.754
  192SOL    HW1 1475   0.441   5.175   1.750
  192SOL    HW2 1476   0.331   5.098   1.842
  193SOL     OW 1477   4.943   3.682   5.246
  193SOL    HW1 1478   4.986   3.594   5.267
  193SOL    HW2 1479   4.874   3.669   5.175
  194SOL     OW 1480   3.890   6.707   3.539
  194SOL    HW1 1481   3.908   6.721   3.636
  194SOL    HW2 1482   3.813   6.765   3.511
  195SOL     OW 1483   1.529   0.975   4.331
  195SOL    HW1 1484   1.435   1.009   4.322
  195SOL    HW2 1485   1.551   0.915   4.254
  196SOL     OW 1486   2.441   0.284   6.660
  196SOL    HW1 1487   2.520   0.323   6.612
  196SOL    HW2 1488   2.363   0.346   6.651
  197SOL     OW 1489   2.486   0.375   1.482
  197SOL    HW1 1490   2.409   0.420   1.528
  197SOL    HW2 1491   2.558   0.442   1.465
  198SOL     OW 1492   4.521   6.482   2.080
  198SOL    HW1 1493   4.471   6.567   2.062
  198SOL    HW2 1494   4.549   6.479   2.176
  199SOL     OW 1495   6.896   1.260   3.672
  199SOL    HW1 1496   6.920   1.357   3.669
  199SOL    HW2 1497   6.978   1.205   3.654
  200SOL     OW 1498   1.156   4.357   1.742
  200SOL    HW1 1499   1.065   4.347   1.781
  200SOL    HW2 1500   1.152   4.415   1.661
  201SOL     OW 1501   5.444   0.087   6.193
  201SOL    HW1 1502   5.419   0.018   6.125
  201SOL    HW2 1503   5.486   0.042   6.272
  202SOL     OW 1504   5.157   6.961   5.715
  202SOL    HW1 1505   5.106   6.937   5.633
  202SOL    HW2 1506   5.096   7.005   5.781
  203SOL     OW 1507   5.034   2.209   4.856
  203SOL    HW1 1508   5.115   2.169   4.898
  203SOL    HW2 1509   4.960   2.142   4.855
  204SOL     OW 1510   5.970   0.528   6.183
  204SOL    HW1 1511   5.966   0.565   6.276
  204SOL    HW2 1512   5.950   0.602   6.118
  205SOL     OW 1513   0.936   0.800   2.897
  205SOL    HW1 1514   0.850   0.763   2.933
  205SOL    HW2 1515   1.011   0.739   2.923
  206SOL     OW 1516   0.341   5.148   2.031
  206SOL    HW1 1517   0.402   5.227   2.034
  206SOL    HW2 1518   0.361   5.088   2.108
  207SOL     OW 1519   4.739   0.494   3.701
  207SOL    HW1 1520   4.666   0.562   3.706
  207SOL    HW2 1521   4.820   0.530   3.746
  208SOL     OW 1522   5.320   4.043   5.484
  208SOL    HW1 1523   5.389   4.007   5.547
  208SOL    HW2 1524   5.234   4.058   5.533
  209SOL     OW 1525   0.881   5.077   4.551
  209SOL    HW1 1526   0.916   5.045   4.638
  209SOL    HW2 1527   0.786   5.047   4.540
  210SOL     OW 1528   4.137   2.286   1.571
  210SOL    HW1 1529   4.061   2.238   1.526
  210SOL    HW2 1530   4.104   2.374   1.606
  211SOL     OW 1531   1.529   6.455   3.630
  211SOL    HW1 1532   1.566   6.391   3.563
  211SOL    HW2 1533   1.507   6.542   3.585
  212SOL     OW 1534   1.724   4.823   1.640
  212SOL    HW1 1535   1.643   4.769   1.615
  212SOL    HW2 1536   1.706   4.920   1.622
  213SOL     OW 1537   3.269   0.701   5.830
  213SOL    HW1 1538   3.187   0.666   5.876
  213SOL    HW2 1539   3.349   0.649   5.862
  214SOL     OW 1540   4.189   5.346   1.917
  214SOL    HW1 1541   4.115   5.355   1.983
  214SOL    HW2 1542   4.267   5.401   1.947
  215SOL     OW 1543   3.010   3.904   1.648
  215SOL    HW1 1544   2.963   3.938   1.567
  215SOL    HW2 1545   3.107   3.926   1.642
  216SOL     OW 1546   1.545   5.768   4.756
  216SOL    HW1 1547   1.563   5.696   4.689
  216SOL    HW2 1548   1.451   5.800   4.747
  217SOL     OW 1549   2.311   2.789   3.513
  217SOL    HW1 1550   2.254   2.867   3.541
  217SOL    HW2 1551   2.311   2.780   3.414
  218SOL     OW 1552   1.000   2.900   4.585
  218SOL    HW1 1553   0.924   2.895   4.650
  218SOL    HW2 1554   1.069   2.965   4.618
  219SOL     OW 1555   3.699   6.426   5.964
  219SOL    HW1 1556   3.617   6.430   6.020
  219SOL    HW2 1557   3.682   6.371   5.882
  220SOL     OW 1558   3.616   6.482   0.137
  220SOL    HW1 1559   3.570   6.528   0.213
  220SOL    HW2 1560   3.604   6.537   0.053
  221SOL     OW 1561   6.584   4.194   2.635
  221SOL    HW1 1562   6.678   4.193   2.669
  221SOL    HW2 1563   6.545   4.102   2.642
  222SOL     OW 1564   2.436   5.160   5.541
  222SOL    HW1 1565   2.473   5.098   5.610
  222SOL    HW2 1566   2.511   5.212   5.499
  223SOL     OW 1567   5.362   3.696   0.911
  223SOL    HW1 1568   5.359   3.611   0.965
  223SOL    HW2 1569   5.275   3.743   0.920
  224SOL     OW 1570   2.540   1.968   4.195
  224SOL    HW1 1571   2.615   2.011   4.144
  224SOL    HW2 1572   2.574   1.938   4.285
  225SOL     OW 1573   5.603   1.994   5.525
  225SOL    HW1 1574   5.673   1.950   5.582
  225SOL    HW2 1575   5.520   2.006   5.578
  226SOL     OW 1576   1.529   0.532   6.153
  226SOL    HW1 1577   1.539   0.518   6.055
  226SOL    HW2 1578   1.537   0.629   6.174
  227SOL     OW 1579   1.525   4.173   2.197
  227SOL    HW1 1580   1.606   4.192   2.252
  227SOL    HW2 1581   1.445   4.167   2.257
  228SOL     OW 1582   3.238   6.443   4.139
  228SOL    HW1 1583   3.216   6.540   4.140
  228SOL    HW2 1584   3.256   6.412   4.233
  229SOL     OW 1585   5.343   6.298   0.185
  229SOL    HW1 1586   5.266   6.341   0.232
  229SOL    HW2 1587   5.315   6.209   0.148
  230SOL     OW 1588   2.720   4.717   2.740
  230SOL    HW1 1589   2.717   4.810   2.778
  230SOL    HW2 1590   2.676   4.654   2.804
  231SOL     OW 1591   6.558   1.912   6.781
  231SOL    HW1 1592   6.633   1.903   6.716
  231SOL    HW2 1593   6.583   1.871   6.868
  232SOL     OW 1594   1.136   4.037   6.058
  232SOL    HW1 1595   1.051   3.995   6.089
  232SOL    HW2 1596   1.146   4.128   6.097
  233SOL     OW 1597   2.335   1.259   4.311
  233SOL    HW1 1598   2.382   1.316   4.244
  233SOL    HW2 1599   2.402   1.202   4.359
  234SOL     OW 1600   3.452   6.081   5.452
  234SOL    HW1 1601   3.383   6.100   5.382
  234SOL    HW2 1602   3.499   6.166   5.476
  235SOL     OW 1603   3.066   3.073   1.862
  235SOL    HW1 1604   3.119   2.988   1.861
  235SOL    HW2 1605   2.989   3.065   1.798
  236SOL     OW 1606   5.899   2.740   6.304
  236SOL    HW1 1607   5.886   2.837   6.327
  236SOL    HW2 1608   5.867   2.683   6.379
  237SOL     OW 1609   5.927   6.191   1.513
  237SOL    HW1 1610   6.014   6.218   1.555
  237SOL    HW2 1611   5.885   6.270   1.469
  238SOL     OW 1612   6.105   1.932   0.467
  238SOL    HW1 1613   6.166   1.875   0.523
  238SOL    HW2 1614   6.010   1.908   0.486
  239SOL     OW 1615   0.438   5.693   6.491
  239SOL    HW1 1616   0.349   5.721   6.456
  239SOL    HW2 1617   0.509   5.753   6.456
  240SOL     OW 1618   0.340   2.537   5.766
  240SOL    HW1 1619   0.416   2.562   5.706
  240SOL    HW2 1620   0.263   2.503   5.711
  241SOL     OW 1621   1.508   6.672   4.878
  241SOL    HW1 1622   1.552   6.762   4.872
  241SOL    HW2 1623   1.554   6.609   4.815
  242SOL     OW 1624   2.814   3.023   5.841
  242SOL    HW1 1625   2.726   2.979   5.818
  242SOL    HW2 1626   2.797   3.114   5.877
  243SOL     OW 1627   4.878   0.602   5.996
  243SOL    HW1 1628   4.880   0.534   6.070
  243SOL    HW2 1629   4.934   0.570   5.920
  244SOL     OW 1630   5.123   2.396   4.676
  244SOL    HW1 1631   5.067   2.412   4.595
  244SOL    HW2 1632   5.067   2.353   4.748
  245SOL     OW 1633   6.890   2.948   5.445
  245SOL    HW1 1634   6.901   3.046   5.432
  245SOL    HW2 1635   6.977   2.902   5.427
  246SOL     OW 1636   4.994   2.575   2.510
  246SOL    HW1 1637   4.957   2.667   2.500
  246SOL    HW2 1638   5.070   2.576   2.575
  247SOL     OW 1639   3.144   1.335   2.281
  247SOL    HW1 1640   3.145   1.360   2.184
  247SOL    HW2 1641   3.235   1.305   2.308
  248SOL     OW 1642   4.254   2.029   4.115
  248SOL    HW1 1643   4.307   1.995   4.193
  248SOL    HW2 1644   4.178   1.966   4.096
  249SOL     OW 1645   5.024   0.031   5.965
  249SOL    HW1 1646   4.999   0.069   6.054
  249SOL    HW2 1647   4.977   0.082   5.893
  250SOL     OW 1648   5.091   1.900   6.952
  250SOL    HW1 1649   5.030   1.886   6.874
  250SOL    HW2 1650   5.105   1.814   7.000
  251SOL     OW 1651   4.121   4.258   6.355
  251SOL    HW1 1652   4.094   4.329   6.420
  251SOL    HW2 1653   4.041   4.228   6.303
  252SOL     OW 1654   5.982   0.520   6.465
  252SOL    HW1 1655   6.052   0.565   6.521
  252SOL    HW2 1656   5.997   0.421   6.464
  253SOL     OW 1657   1.793   4.416   6.969
  253SOL    HW1 1658   1.833   4.421   0.040
  253SOL    HW2 1659   1.710   4.471   6.966
  254SOL     OW 1660   5.644   3.475   3.413
  254SOL    HW1 1661   5.591   3.390   3.406
  254SOL    HW2 1662   5.740   3.452   3.432
  255SOL     OW 1663   1.480   3.134   4.293
  255SOL    HW1 1664   1.507   3.218   4.340
  255SOL    HW2 1665   1.547   3.112   4.222
  256SOL     OW 1666   5.990   4.410   6.419
  256SOL    HW1 1667   6.075   4.461   6.437
  256SOL    HW2 1668   5.988   4.382   6.323
  257SOL     OW 1669   4.275   6.560   4.408
  257SOL    HW1 1670   4.249   6.522   4.497
  257SOL    HW2 1671   4.335   6.638   4.422
  258SOL     OW 1672   5.813   4.956   4.797
  258SOL    HW1 1673   5.859   4.957   4.708
  258SOL    HW2 1674   5.780   4.863   4.816
  259SOL     OW 1675   1.940   2.855   2.224
  259SOL    HW1 1676   1.924   2.757   2.234
  259SOL    HW2 1677   2.038   2.874   2.233
  260SOL     OW 1678   4.417   0.980   1.227
  260SOL    HW1 1679   4.380   1.070   1.200
  260SOL    HW2 1680   4.342   0.921   1.256
  261SOL     OW 1681   6.513   3.871   0.984
  261SOL    HW1 1682   6.449   3.836   0.916
  261SOL    HW2 1683   6.512   3.971   0.982
  262SOL     OW 1684   0.646   3.921   1.416
  262SOL    HW1 1685   0.677   3.947   1.508
  262SOL    HW2 1686   0.718   3.943   1.349
  263SOL     OW 1687   0.524   1.716   3.598
  263SOL    HW1 1688   0.568   1.633   3.633
  263SOL    HW2 1689   0.491   1.699   3.505
  264SOL     OW 1690   5.041   3.979   5.393
  264SOL    HW1 1691   5.034   3.954   5.296
  264SOL    HW2 1692   5.055   4.077   5.402
  265SOL     OW 1693   4.293   4.696   3.341
  265SOL    HW1 1694   4.334   4.614   3.379
  265SOL    HW2 1695   4.236   4.672   3.263
  266SOL     OW 1696   3.710   3.598   5.777
  266SOL    HW1 1697   3.645   3.668   5.747
  266SOL    HW2 1698   3.661   3.523   5.821
  267SOL     OW 1699   6.206   2.524   5.976
  267SOL    HW1 1700   6.306   2.529   5.969
  267SOL    HW2 1701   6.173   2.597   6.035
  268SOL     OW 1702   4.569   6.833   5.144
  268SOL    HW1 1703   4.665   6.855   5.156
  268SOL    HW2 1704   4.552   6.739   5.175
  269SOL     OW 1705   2.195   2.892   0.587
  269SOL    HW1 1706   2.198   2.991   0.602
  269SOL    HW2 1707   2.138   2.849   0.656
  270SOL     OW 1708   6.456   0.130   2.109
  270SOL    HW1 1709   6.498   0.039   2.102
  270SOL    HW2 1710   6.358   0.122   2.096
  271SOL     OW 1711   2.715   2.579   0.629
  271SOL    HW1 1712   2.669   2.579   0.717
  271SOL    HW2 1713   2.804   2.623   0.637
  272SOL     OW 1714   3.180   5.362   3.855
  272SOL    HW1 1715   3.140   5.319   3.937
  272SOL    HW2 1716   3.123   5.340   3.776
  273SOL     OW 1717   1.880   4.969   5.130
  273SOL    HW1 1718   1.952   4.957   5.198
  273SOL    HW2 1719   1.878   5.065   5.100
  274SOL     OW 1720   4.813   2.320   3.699
  274SOL    HW1 1721   4.751   2.241   3.697
  274SOL    HW2 1722   4.759   2.403   3.689
  275SOL     OW 1723   6.294   5.884   6.729
  275SOL    HW1 1724   6.275   5.787   6.741
  275SOL    HW2 1725   6.382   5.897   6.684
  276SOL     OW 1726   0.281   5.649   3.178
  276SOL    HW1 1727   0.375   5.615   3.173
  276SOL    HW2 1728   0.278   5.730   3.237
  277SOL     OW 1729   2.529   2.733   0.477
  277SOL    HW1 1730   2.597   2.677   0.524
  277SOL    HW2 1731   2.564   2.758   0.386
  278SOL     OW 1732   6.879   3.942   1.637
  278SOL    HW1 1733   6.784   3.952   1.610
  278SOL    HW2 1734   6.888   3.960   1.735
  279SOL     OW 1735   6.637   2.925   4.377
  279SOL    HW1 1736   6.615   2.850   4.439
  279SOL    HW2 1737   6.721   2.903   4.327
  280SOL     OW 1738   3.494   6.847   2.750
  280SOL    HW1 1739   3.402   6.811   2.765
  280SOL    HW2 1740   3.509   6.861   2.652
  281SOL     OW 1741   3.244   4.895   2.472
  281SOL    HW1 1742   3.172   4.869   2.406
  281SOL    HW2 1743   3.326   4.921   2.422
  282SOL     OW 1744   4.143   2.067   5.178
  282SOL    HW1 1745   4.173   2.115   5.095
  282SOL    HW2 1746   4.084   1.990   5.152
  283SOL     OW 1747   6.812   1.505   5.948
  283SOL    HW1 1748   6.836   1.455   6.032
  283SOL    HW2 1749   6.884   1.492   5.880
  284SOL     OW 1750   0.478   4.458   5.126
  284SOL    HW1 1751   0.452   4.553   5.141
  284SOL    HW2 1752   0.537   4.453   5.045
  285SOL     OW 1753   5.721   5.257   6.799
  285SOL    HW1 1754   5.652   5.198   6.756
  285SOL    HW2 1755   5.790   5.282   6.732
  286SOL     OW 1756   3.459   5.002   4.911
  286SOL    HW1 1757   3.435   5.098   4.895
  286SOL    HW2 1758   3.376   4.946   4.909
  287SOL     OW 1759   0.603   4.906   6.711
  287SOL    HW1 1760   0.698   4.877   6.696
  287SOL    HW2 1761   0.566   4.942   6.626
  288SOL     OW 1762   4.069   1.677   0.493
  288SOL    HW1 1763   4.142   1.745   0.483
  288SOL    HW2 1764   4.066   1.644   0.587
  289SOL     OW 1765   0.318   5.298   4.674
  289SOL    HW1 1766   0.299   5.247   4.589
  289SOL    HW2 1767   0.235   5.345   4.704
  290SOL     OW 1768   5.111   2.063   3.713
  290SOL    HW1 1769   5.127   2.159   3.737
  290SOL    HW2 1770   5.030   2.030   3.761
  291SOL     OW 1771   3.590   0.628   4.429
  291SOL    HW1 1772   3.640   0.577   4.499
  291SOL    HW2 1773   3.570   0.568   4.352
  292SOL     OW 1774   4.186   1.901   2.962
  292SOL    HW1 1775   4.231   1.979   3.006
  292SOL    HW2 1776   4.230   1.817   2.991
  293SOL     OW 1777   4.474   5.406   2.115
  293SOL    HW1 1778   4.466   5.480   2.048
  293SOL    HW2 1779   4.385   5.388   2.156
  294SOL     OW 1780   6.605   5.356   6.708
  294SOL    HW1 1781   6.626   5.348   6.806
  294SOL    HW2 1782   6.546   5.280   6.680
  295SOL     OW 1783   3.269   1.607   4.732
  295SOL    HW1 1784   3.201   1.659   4.783
  295SOL    HW2 1785   3.249   1.613   4.634
  296SOL     OW 1786   6.560   2.078   2.126
  296SOL    HW1 1787   6.462   2.060   2.134
  296SOL    HW2 1788   6.593   2.046   2.038
  297SOL     OW 1789   2.958   4.808   2.615
  297SOL    HW1 1790   2.879   4.768   2.662
  297SOL    HW2 1791   3.004   4.737   2.562
  298SOL     OW 1792   4.026   6.885   0.128
  298SOL    HW1 1793   4.030   6.929   0.217
  298SOL    HW2 1794   3.943   6.829   0.122
  299SOL     OW 1795   4.833   2.347   0.075
  299SOL    HW1 1796   4.905   2.404   0.036
  299SOL    HW2 1797   4.831   2.358   0.175
  300SOL     OW 1798   4.789   1.001   1.608
  300SOL    HW1 1799   4.742   1.030   1.524
  300SOL    HW2 1800   4.733   1.025   1.687
  301SOL     OW 1801   5.287   2.404   0.632
  301SOL    HW1 1802   5.306   2.333   0.699
  301SOL    HW2 1803   5.348   2.393   0.554
  302SOL     OW 1804   6.721   0.592   3.280
  302SOL    HW1 1805   6.627   0.623   3.294
  302SOL    HW2 1806   6.774   0.665   3.239
  303SOL     OW 1807   6.132   6.557   2.289
  303SOL    HW1 1808   6.174   6.530   2.203
  303SOL    HW2 1809   6.043   6.511   2.298
  304SOL     OW 1810   1.755   6.297   5.737
  304SOL    HW1 1811   1.833   6.247   5.700
  304SOL    HW2 1812   1.701   6.237   5.796
  305SOL     OW 1813   1.509   2.345   0.155
  305SOL    HW1 1814   1.541   2.433   0.192
  305SOL    HW2 1815   1.557   2.326   0.069
  306SOL     OW 1816   1.337   0.986   3.315
  306SOL    HW1 1817   1.433   0.995   3.289
  306SOL    HW2 1818   1.288   1.070   3.291
  307SOL     OW 1819   4.807   5.171   0.720
  307SOL    HW1 1820   4.876   5.155   0.791
  307SOL    HW2 1821   4.851   5.202   0.636
  308SOL     OW 1822   5.917   3.485   4.707
  308SOL    HW1 1823   6.011   3.468   4.737
  308SOL    HW2 1824   5.854   3.425   4.757
  309SOL     OW 1825   1.936   6.043   0.259
  309SOL    HW1 1826   1.916   6.011   0.352
  309SOL    HW2 1827   2.033   6.069   0.254
  310SOL     OW 1828   4.878   6.049   5.725
  310SOL    HW1 1829   4.781   6.033   5.747
  310SOL    HW2 1830   4.892   6.147   5.706
  311SOL     OW 1831   3.405   5.279   2.885
  311SOL    HW1 1832   3.468   5.206   2.858
  311SOL    HW2 1833   3.451   5.342   2.946
  312SOL     OW 1834   4.580   1.392   4.125
  312SOL    HW1 1835   4.631   1.477   4.140
  312SOL    HW2 1836   4.555   1.353   4.213
  313SOL     OW 1837   3.282   2.935   2.155
  313SOL    HW1 1838   3.301   2.859   2.217
  313SOL    HW2 1839   3.339   2.926   2.073
  314SOL     OW 1840   2.803   4.729   0.285
  314SOL    HW1 1841   2.820   4.792   0.361
  314SOL    HW2 1842   2.709   4.739   0.254
  315SOL     OW 1843   1.337   3.335   3.636
  315SOL    HW1 1844   1.375   3.282   3.712
  315SOL    HW2 1845   1.411   3.374   3.582
  316SOL     OW 1846   2.820   0.647   4.897
  316SOL    HW1 1847   2.802   0.549   4.908
  316SOL    HW2 1848   2.744   0.689   4.848
  317SOL     OW 1849   0.344   1.825   1.364
  317SOL    HW1 1850   0.321   1.753   1.430
  317SOL    HW2 1851   0.427   1.799   1.315
  318SOL     OW 1852   0.361   5.856   0.162
  318SOL    HW1 1853   0.267   5.874   0.132
  318SOL    HW2 1854   0.371   5.758   0.183
  319SOL     OW 1855   6.493   1.346   3.728
  319SOL    HW1 1856   6.566   1.389   3.781
  319SOL    HW2 1857   6.421   1.315   3.789
  320SOL     OW 1858   5.624   2.579   0.097
  320SOL    HW1 1859   5.701   2.566   0.034
  320SOL    HW2 1860   5.643   2.656   0.157
  321SOL     OW 1861   3.247   1.252   6.486
  321SOL    HW1 1862   3.176   1.321   6.499
  321SOL    HW2 1863   3.335   1.288   6.519
  322SOL     OW 1864   3.272   3.477   3.577
  322SOL    HW1 1865   3.341   3.480   3.505
  322SOL    HW2 1866   3.313   3.507   3.663
  323SOL     OW 1867   1.628   3.200   6.058
  323SOL    HW1 1868   1.564   3.252   6.000
  323SOL    HW2 1869   1.705   3.169   6.002
  324SOL     OW 1870   2.924   0.684   3.457
  324SOL    HW1 1871   3.002   0.740   3.485
  324SOL    HW2 1872   2.955   0.612   3.395
  325SOL     OW 1873   0.351   2.567   2.270
  325SOL    HW1 1874   0.254   2.566   2.297
  325SOL    HW2 1875   0.396   2.645   2.313
  326SOL     OW 1876   1.253   5.132   6.793
  326SOL    HW1 1877   1.353   5.138   6.796
  326SOL    HW2 1878   1.218   5.192   6.721
  327SOL     OW 1879   1.582   4.503   1.846
  327SOL    HW1 1880   1.670   4.463   1.821
  327SOL    HW2 1881   1.530   4.438   1.902
  328SOL     OW 1882   1.405   5.876   1.752
  328SOL    HW1 1883   1.386   5.965   1.795
  328SOL    HW2 1884   1.333   5.856   1.685
  329SOL     OW 1885   3.033   3.124   4.357
  329SOL    HW1 1886   3.032   3.069   4.273
  329SOL    HW2 1887   3.072   3.071   4.432
  330SOL     OW 1888   3.441   5.990   1.594
  330SOL    HW1 1889   3.410   6.081   1.623
  330SOL    HW2 1890   3.431   5.982   1.495
  331SOL     OW 1891   3.676   5.884   0.860
  331SOL    HW1 1892   3.709   5.977   0.841
  331SOL    HW2 1893   3.741   5.818   0.823
  332SOL     OW 1894   4.999   2.016   5.838
  332SOL    HW1 1895   5.045   2.044   5.754
  332SOL    HW2 1896   5.059   1.957   5.891
  333SOL     OW 1897   4.068   0.358   6.054
  333SOL    HW1 1898   4.122   0.370   6.138
  333SOL    HW2 1899   3.987   0.417   6.058
  334SOL     OW 1900   3.369   1.341   0.802
  334SOL    HW1 1901   3.387   1.424   0.750
  334SOL    HW2 1902   3.435   1.270   0.775
  335SOL     OW 1903   4.254   6.251   5.977
  335SOL    HW1 1904   4.317   6.214   6.046
  335SOL    HW2 1905   4.298   6.249   5.887
  336SOL     OW 1906   2.915   1.048   3.565
  336SOL    HW1 1907   2.855   0.986   3.516
  336SOL    HW2 1908   2.949   1.119   3.503
  337SOL     OW 1909   0.474   2.778   6.381
  337SOL    HW1 1910   0.450   2.700   6.324
  337SOL    HW2 1911   0.400   2.845   6.378
  338SOL     OW 1912   2.810   2.633   1.464
  338SOL    HW1 1913   2.802   2.571   1.542
  338SOL    HW2 1914   2.904   2.630   1.429
  339SOL     OW 1915   4.400   5.774   4.904
  339SOL    HW1 1916   4.372   5.722   4.823
  339SOL    HW2 1917   4.385   5.872   4.887
  340SOL     OW 1918   4.801   4.117   4.884
  340SOL    HW1 1919   4.846   4.028   4.886
  340SOL    HW2 1920   4.746   4.125   4.801
  341SOL     OW 1921   6.262   6.698   4.654
  341SOL    HW1 1922   6.215   6.610   4.642
  341SOL    HW2 1923   6.278   6.740   4.565
  342SOL     OW 1924   5.633   3.401   0.570
  342SOL    HW1 1925   5.670   3.457   0.495
  342SOL    HW2 1926   5.612   3.460   0.648
  343SOL     OW 1927   1.675   6.047   1.468
  343SOL    HW1 1928   1.580   6.071   1.447
  343SOL    HW2 1929   1.726   6.130   1.490
  344SOL     OW 1930   1.314   3.381   2.111
  344SOL    HW1 1931   1.282   3.459   2.164
  344SOL    HW2 1932   1.324   3.302   2.172
  345SOL     OW 1933   4.674   2.089   3.661
  345SOL    HW1 1934   4.646   2.010   3.607
  345SOL    HW2 1935   4.627   2.088   3.748
  346SOL     OW 1936   1.932   1.006   3.297
  346SOL    HW1 1937   2.020   1.030   3.256
  346SOL    HW2 1938   1.858   1.051   3.246
  347SOL     OW 1939   2.694   5.555   6.577
  347SOL    HW1 1940   2.747   5.473   6.556
  347SOL    HW2 1941   2.711   5.583   6.671
  348SOL     OW 1942   4.904   4.178   2.284
  348SOL    HW1 1943   4.829   4.241   2.304
  348SOL    HW2 1944   4.882   4.125   2.202
  349SOL     OW 1945   6.748   5.392   1.164
  349SOL    HW1 1946   6.690   5.314   1.139
  349SOL    HW2 1947   6.785   5.434   1.081
  350SOL     OW 1948   3.189   3.171   1.157
  350SOL    HW1 1949   3.135   3.192   1.075
  350SOL    HW2 1950   3.253   3.096   1.136
  351SOL     OW 1951   2.413   3.973   1.197
  351SOL    HW1 1952   2.330   4.022   1.169
  351SOL    HW2 1953   2.396   3.926   1.283
  352SOL     OW 1954   3.406   7.006   4.440
  352SOL    HW1 1955   3.466   0.052   4.482
  352SOL    HW2 1956   3.460   6.933   4.398
  353SOL     OW 1957   2.614   0.338   0.671
  353SOL    HW1 1958   2.612   0.291   0.759
  353SOL    HW2 1959   2.580   0.276   0.600
  354SOL     OW 1960   3.925   2.735   0.767
  354SOL    HW1 1961   3.911   2.758   0.863
  354SOL    HW2 1962   3.878   2.650   0.746
  355SOL     OW 1963   1.263   3.379   2.522
  355SOL    HW1 1964   1.342   3.396   2.581
  355SOL    HW2 1965   1.181   3.418   2.563
  356SOL     OW 1966   2.539   6.797   6.346
  356SOL    HW1 1967   2.566   6.893   6.344
  356SOL    HW2 1968   2.576   6.753   6.428
  357SOL     OW 1969   6.978   5.917   5.714
  357SOL    HW1 1970   6.879   5.899   5.707
  357SOL    HW2 1971   7.021   5.902   5.625
  358SOL     OW 1972   4.563   6.220   0.690
  358SOL    HW1 1973   4.565   6.227   0.790
  358SOL    HW2 1974   4.656   6.202   0.657
  359SOL     OW 1975   2.944   2.125   1.808
  359SOL    HW1 1976   3.030   2.149   1.765
  359SOL    HW2 1977   2.921   2.194   1.877
  360SOL     OW 1978   1.189   4.761   6.139
  360SOL    HW1 1979   1.272   4.732   6.188
  360SOL    HW2 1980   1.115   4.697   6.157
  361SOL     OW 1981   5.973   6.837   2.868
  361SOL    HW1 1982   6.050   6.831   2.805
  361SOL    HW2 1983   5.887   6.837   2.816
  362SOL     OW 1984   3.695   3.129   0.908
  362SOL    HW1 1985   3.631   3.206   0.903
  362SOL    HW2 1986   3.780   3.159   0.952
  363SOL     OW 1987   5.448   3.813   3.267
  363SOL    HW1 1988   5.396   3.825   3.182
  363SOL    HW2 1989   5.544   3.798   3.246
  364SOL     OW 1990   6.458   5.009   0.024
  364SOL    HW1 1991   6.500   5.072   0.090
  364SOL    HW2 1992   6.377   5.052   7.005
  365SOL     OW 1993   5.628   6.247   1.134
  365SOL    HW1 1994   5.708   6.250   1.194
  365SOL    HW2 1995   5.548   6.278   1.185
  366SOL     OW 1996   5.447   0.494   6.332
  366SOL    HW1 1997   5.421   0.441   6.251
  366SOL    HW2 1998   5.545   0.484   6.348
  367SOL     OW 1999   5.391   3.161   1.528
  367SOL    HW1 2000   5.333   3.217   1.588
  367SOL    HW2 2001   5.479   3.207   1.515
  368SOL     OW 2002   0.135   2.932   5.302
  368SOL    HW1 2003   0.178   2.964   5.387
  368SOL    HW2 2004   0.201   2.938   5.227
  369SOL     OW 2005   6.102   5.243   1.866
  369SOL    HW1 2006   6.042   5.191   1.927
  369SOL    HW2 2007   6.050   5.316   1.822
  370SOL     OW 2008   2.309   1.128   5.365
  370SOL    HW1 2009   2.253   1.189   5.309
  370SOL    HW2 2010   2.291   1.033   5.341
  371SOL     OW 2011   2.120   4.094   5.907
  371SOL    HW1 2012   2.171   4.012   5.934
  371SOL    HW2 2013   2.041   4.067   5.852
  372SOL     OW 2014   0.894   6.811   6.457
  372SOL    HW1 2015   0.818   6.770   6.407
  372SOL    HW2 2016   0.968   6.832   6.394
  373SOL     OW 2017   5.982   5.973   4.349
  373SOL    HW1 2018   5.971   5.962   4.251
  373SOL    HW2 2019   5.941   6.059   4.378
  374SOL     OW 2020   3.057   2.010   3.844
  374SOL    HW1 2021   2.986   2.081   3.840
  374SOL    HW2 2022   3.143   2.048   3.810
  375SOL     OW 2023   1.090   4.694   3.954
  375SOL    HW1 2024   1.126   4.765   4.015
  375SOL    HW2 2025   1.105   4.604   3.996
  376SOL     OW 2026   2.690   0.793   5.207
  376SOL    HW1 2027   2.757   0.854   5.249
  376SOL    HW2 2028   2.627   0.846   5.150
  377SOL     OW 2029   1.413   1.952   1.048
  377SOL    HW1 2030   1.500   1.934   1.094
  377SOL    HW2 2031   1.345   1.885   1.079
  378SOL     OW 2032   4.803   2.885   6.403
  378SOL    HW1 2033   4.878   2.842   6.453
  378SOL    HW2 2034   4.720   2.830   6.416
  379SOL     OW 2035   6.102   2.772   0.915
  379SOL    HW1 2036   6.038   2.742   0.986
  379SOL    HW2 2037   6.196   2.752   0.943
  380SOL     OW 2038   2.238   1.517   0.491
  380SOL    HW1 2039   2.274   1.610   0.492
  380SOL    HW2 2040   2.292   1.459   0.552
  381SOL     OW 2041   1.141   3.822   2.615
  381SOL    HW1 2042   1.055   3.873   2.617
  381SOL    HW2 2043   1.197   3.853   2.538
  382SOL     OW 2044   5.548   0.245   6.596
  382SOL    HW1 2045   5.488   0.324   6.607
  382SOL    HW2 2046   5.614   0.264   6.523
  383SOL     OW 2047   3.807   3.606   6.318
  383SOL    HW1 2048   3.726   3.549   6.302
  383SOL    HW2 2049   3.853   3.623   6.230
  384SOL     OW 2050   6.885   5.807   3.857
  384SOL    HW1 2051   6.825   5.728   3.847
  384SOL    HW2 2052   6.926   5.830   3.769
  385SOL     OW 2053   3.562   4.889   5.595
  385SOL    HW1 2054   3.635   4.957   5.602
  385SOL    HW2 2055   3.512   4.886   5.681
  386SOL     OW 2056   2.406   0.140   5.476
  386SOL    HW1 2057   2.449   0.198   5.406
  386SOL    HW2 2058   2.439   0.046   5.465
  387SOL     OW 2059   1.538   6.785   2.821
  387SOL    HW1 2060   1.546   6.863   2.759
  387SOL    HW2 2061   1.573   6.703   2.776
  388SOL     OW 2062   1.280   1.559   4.926
  388SOL    HW1 2063   1.355   1.624   4.935
  388SOL    HW2 2064   1.307   1.471   4.965
  389SOL     OW 2065   4.281   3.976   1.240
  389SOL    HW1 2066   4.313   4.052   1.296
  389SOL    HW2 2067   4.352   3.905   1.237
  390SOL     OW 2068   3.301   1.609   0.731
  390SOL    HW1 2069   3.350   1.695   0.713
  390SOL    HW2 2070   3.223   1.628   0.790
  391SOL     OW 2071   1.929   3.157   6.629
  391SOL    HW1 2072   1.993   3.198   6.694
  391SOL    HW2 2073   1.977   3.088   6.575
  392SOL     OW 2074   1.424   4.523   0.561
  392SOL    HW1 2075   1.511   4.488   0.528
  392SOL    HW2 2076   1.349   4.464   0.529
  393SOL     OW 2077   1.455   4.247   6.514
  393SOL    HW1 2078   1.494   4.284   6.599
  393SOL    HW2 2079   1.508   4.168   6.484
  394SOL     OW 2080   6.774   2.301   0.620
  394SOL    HW1 2081   6.756   2.339   0.711
  394SOL    HW2 2082   6.861   2.336   0.586
  395SOL     OW 2083   5.271   4.029   3.344
  395SOL    HW1 2084   5.338   4.102   3.343
  395SOL    HW2 2085   5.317   3.941   3.341
  396SOL     OW 2086   3.013   3.484   1.910
  396SOL    HW1 2087   2.950   3.428   1.963
  396SOL    HW2 2088   2.979   3.577   1.903
  397SOL     OW 2089   5.987   1.443   5.693
  397SOL    HW1 2090   5.898   1.430   5.736
  397SOL    HW2 2091   6.009   1.363   5.638
  398SOL     OW 2092   1.437   0.492   2.507
  398SOL    HW1 2093   1.369   0.419   2.517
  398SOL    HW2 2094   1.516   0.473   2.566
  399SOL     OW 2095   5.733   6.030   2.153
  399SOL    HW1 2096   5.736   5.958   2.084
  399SOL    HW2 2097   5.698   5.992   2.239
  400SOL     OW 2098   6.567   6.333   5.340
  400SOL    HW1 2099   6.607   6.253   5.384
  400SOL    HW2 2100   6.618   6.415   5.368
  401SOL     OW 2101   5.704   0.149   6.358
  401SOL    HW1 2102   5.699   0.208   6.277
  401SOL    HW2 2103   5.665   0.060   6.337
  402SOL     OW 2104   6.294   0.182   3.975
  402SOL    HW1 2105   6.377   0.163   3.923
  402SOL    HW2 2106   6.223   0.217   3.913
  403SOL     OW 2107   3.918   1.460   4.437
  403SOL    HW1 2108   3.938   1.362   4.426
  403SOL    HW2 2109   4.003   1.512   4.428
  404SOL     OW 2110   1.649   5.159   3.828
  404SOL    HW1 2111   1.657   5.152   3.927
  404SOL    HW2 2112   1.700   5.238   3.795
  405SOL     OW 2113   2.222   3.046   2.520
  405SOL    HW1 2114   2.128   3.078   2.521
  405SOL    HW2 2115   2.246   3.013   2.429
  406SOL     OW 2116   0.982   4.521   4.966
  406SOL    HW1 2117   1.031   4.456   5.025
  406SOL    HW2 2118   0.885   4.518   4.988
  407SOL     OW 2119   0.984   1.122   4.812
  407SOL    HW1 2120   0.894   1.135   4.771
  407SOL    HW2 2121   1.049   1.186   4.772
  408SOL     OW 2122   1.585   2.159   2.986
  408SOL    HW1 2123   1.593   2.113   2.898
  408SOL    HW2 2124   1.575   2.257   2.972
  409SOL     OW 2125   6.578   2.939   2.340
  409SOL    HW1 2126   6.643   2.864   2.332
  409SOL    HW2 2127   6.542   2.943   2.434
  410SOL     OW 2128   1.734   1.600   1.002
  410SOL    HW1 2129   1.792   1.667   1.048
  410SOL    HW2 2130   1.785   1.516   0.986
  411SOL     OW 2131   6.541   0.612   1.887
  411SOL    HW1 2132   6.625   0.653   1.922
  411SOL    HW2 2133   6.560   0.569   1.798
  412SOL     OW 2134   2.847   6.022   3.277
  412SOL    HW1 2135   2.803   5.932   3.276
  412SOL    HW2 2136   2.944   6.012   3.255
  413SOL     OW 2137   5.681   3.746   1.778
  413SOL    HW1 2138   5.762   3.698   1.742
  413SOL    HW2 2139   5.628   3.784   1.701
  414SOL     OW 2140   2.987   5.105   3.313
  414SOL    HW1 2141   2.894   5.069   3.309
  414SOL    HW2 2142   3.029   5.099   3.223
  415SOL     OW 2143   0.716   6.336   6.795
  415SOL    HW1 2144   0.674   6.311   6.883
  415SOL    HW2 2145   0.772   6.418   6.808
  416SOL     OW 2146   4.804   6.602   4.974
  416SOL    HW1 2147   4.758   6.634   4.891
  416SOL    HW2 2148   4.810   6.677   5.039
  417SOL     OW 2149   1.569   6.145   5.914
  417SOL    HW1 2150   1.637   6.072   5.908
  417SOL    HW2 2151   1.514   6.134   5.997
  418SOL     OW 2152   4.003   6.836   6.751
  418SOL    HW1 2153   3.977   6.753   6.800
  418SOL    HW2 2154   3.921   6.886   6.723
  419SOL     OW 2155   1.793   6.310   1.521
  419SOL    HW1 2156   1.848   6.387   1.556
  419SOL    HW2 2157   1.697   6.328   1.539
  420SOL     OW 2158   6.140   1.380   0.665
  420SOL    HW1 2159   6.108   1.475   0.663
  420SOL    HW2 2160   6.236   1.377   0.637
  421SOL     OW 2161   0.053   4.132   5.278
  421SOL    HW1 2162   7.000   4.185   5.321
  421SOL    HW2 2163   0.125   4.193   5.248
  422SOL     OW 2164   5.252   3.802   1.766
  422SOL    HW1 2165   5.312   3.876   1.736
  422SOL    HW2 2166   5.307   3.725   1.799
  423SOL     OW 2167   0.741   2.075   6.121
  423SOL    HW1 2168   0.710   1.997   6.066
  423SOL    HW2 2169   0.779   2.145   6.060
  424SOL     OW 2170   1.601   5.406   1.235
  424SOL    HW1 2171   1.554   5.339   1.294
  424SOL    HW2 2172   1.539   5.434   1.162
  425SOL     OW 2173   4.867   2.058   3.436
  425SOL    HW1 2174   4.957   2.015   3.446
  425SOL    HW2 2175   4.834   2.086   3.526
  426SOL     OW 2176   3.160   1.578   4.173
  426SOL    HW1 2177   3.185   1.626   4.088
  426SOL    HW2 2178   3.137   1.483   4.152
  427SOL     OW 2179   5.908   6.260   3.935
  427SOL    HW1 2180   5.940   6.170   3.904
  427SOL    HW2 2181   5.919   6.326   3.861
  428SOL     OW 2182   4.645   6.842   3.597
  428SOL    HW1 2183   4.665   6.939   3.611
  428SOL    HW2 2184   4.662   6.818   3.501
  429SOL     OW 2185   0.902   5.001   1.975
  429SOL    HW1 2186   0.897   5.002   1.875
  429SOL    HW2 2187   0.819   4.958   2.012
  430SOL     OW 2188   0.993   6.883   4.539
  430SOL    HW1 2189   1.023   6.924   4.453
  430SOL    HW2 2190   0.993   6.783   4.529
  431SOL     OW 2191   3.044   0.765   1.412
  431SOL    HW1 2192   3.072   0.815   1.330
  431SOL    HW2 2193   3.038   0.668   1.392
  432SOL     OW 2194   6.431   2.138   0.799
  432SOL    HW1 2195   6.494   2.107   0.871
  432SOL    HW2 2196   6.448   2.085   0.716
  433SOL     OW 2197   2.221   6.444   5.014
  433SOL    HW1 2198   2.157   6.414   4.943
  433SOL    HW2 2199   2.172   6.455   5.101
  434SOL     OW 2200   3.608   5.531   3.430
  434SOL    HW1 2201   3.548   5.466   3.477
  434SOL    HW2 2202   3.677   5.480   3.378
  435SOL     OW 2203   4.467   2.374   6.547
  435SOL    HW1 2204   4.408   2.296   6.529
  435SOL    HW2 2205   4.416   2.444   6.597
  436SOL     OW 2206   3.499   5.325   1.842
  436SOL    HW1 2207   3.500   5.376   1.928
  436SOL    HW2 2208   3.430   5.253   1.846
  437SOL     OW 2209   0.651   1.452   6.703
  437SOL    HW1 2210   0.676   1.489   6.613
  437SOL    HW2 2211   0.723   1.475   6.769
  438SOL     OW 2212   2.206   4.146   3.895
  438SOL    HW1 2213   2.152   4.103   3.822
  438SOL    HW2 2214   2.296   4.171   3.859
  439SOL     OW 2215   5.953   5.707   2.007
  439SOL    HW1 2216   6.017   5.781   2.029
  439SOL    HW2 2217   5.869   5.746   1.968
  440SOL     OW 2218   2.667   2.061   5.139
  440SOL    HW1 2219   2.580   2.109   5.152
  440SOL    HW2 2220   2.733   2.123   5.099
  441SOL     OW 2221   0.807   3.558   3.963
  441SOL    HW1 2222   0.789   3.512   4.050
  441SOL    HW2 2223   0.735   3.537   3.898
  442SOL     OW 2224   3.682   5.919   5.339
  442SOL    HW1 2225   3.761   5.873   5.379
  442SOL    HW2 2226   3.632   5.968   5.411
  443SOL     OW 2227   6.065   4.213   3.793
  443SOL    HW1 2228   6.150   4.262   3.773
  443SOL    HW2 2229   6.017   4.258   3.869
  444SOL     OW 2230   5.384   0.779   6.380
  444SOL    HW1 2231   5.424   0.690   6.357
  444SOL    HW2 2232   5.357   0.779   6.476
  445SOL     OW 2233   1.548   5.484   2.885
  445SOL    HW1 2234   1.551   5.583   2.895
  445SOL    HW2 2235   1.576   5.441   2.971
  446SOL     OW 2236   3.781   5.138   3.011
  446SOL    HW1 2237   3.689   5.102   3.025
  446SOL    HW2 2238   3.842   5.104   3.083
  447SOL     OW 2239   0.437   2.842   6.031
  447SOL    HW1 2240   0.481   2.914   6.087
  447SOL    HW2 2241   0.504   2.772   6.009
  448SOL     OW 2242   2.281   0.638   2.813
  448SOL    HW1 2243   2.197   0.687   2.790
  448SOL    HW2 2244   2.360   0.688   2.777
  449SOL     OW 2245   2.600   1.206   3.901
  449SOL    HW1 2246   2.667   1.257   3.846
  449SOL    HW2 2247   2.616   1.108   3.892
  450SOL     OW 2248   1.067   4.960   3.148
  450SOL    HW1 2249   1.059   4.969   3.247
  450SOL    HW2 2250   1.016   5.033   3.103
  451SOL     OW 2251   1.224   2.200   4.594
  451SOL    HW1 2252   1.160   2.235   4.525
  451SOL    HW2 2253   1.221   2.258   4.675
  452SOL     OW 2254   5.656   6.491   0.442
  452SOL    HW1 2255   5.573   6.435   0.447
  452SOL    HW2 2256   5.680   6.507   0.346
  453SOL     OW 2257   3.764   0.500   6.959
  453SOL    HW1 2258   3.800   0.585   6.997
  453SOL    HW2 2259   3.830   0.427   6.972
  454SOL     OW 2260   0.267   4.441   6.851
  454SOL    HW1 2261   0.273   4.428   6.950
  454SOL    HW2 2262   0.292   4.536   6.828
  455SOL     OW 2263   5.559   2.228   4.615
  455SOL    HW1 2264   5.568   2.320   4.575
  455SOL    HW2 2265   5.488   2.229   4.685
  456SOL     OW 2266   0.478   0.309   3.620
  456SOL    HW1 2267   0.481   0.407   3.599
  456SOL    HW2 2268   0.395   0.269   3.583
  457SOL     OW 2269   1.796   3.468   4.494
  457SOL    HW1 2270   1.870   3.403   4.512
  457SOL    HW2 2271   1.816   3.555   4.540
  458SOL     OW 2272   3.155   6.017   2.736
  458SOL    HW1 2273   3.170   5.947   2.666
  458SOL    HW2 2274   3.225   6.088   2.729
  459SOL     OW 2275   2.255   6.923   6.089
  459SOL    HW1 2276   2.228   7.006   6.041
  459SOL    HW2 2277   2.268   6.848   6.023
  460SOL     OW 2278   2.367   6.719   4.824
  460SOL    HW1 2279   2.357   6.692   4.729
  460SOL    HW2 2280   2.277   6.738   4.863
  461SOL     OW 2281   0.072   5.541   5.650
  461SOL    HW1 2282   0.141   5.609   5.672
  461SOL    HW2 2283   0.037   5.557   5.558
  462SOL     OW 2284   3.616   3.262   6.423
  462SOL    HW1 2285   3.587   3.265   6.519
  462SOL    HW2 2286   3.580   3.343   6.375
  463SOL     OW 2287   5.924   5.771   4.114
  463SOL    HW1 2288   5.859   5.803   4.045
  463SOL    HW2 2289   6.016   5.771   4.075
  464SOL     OW 2290   2.938   0.876   5.042
  464SOL    HW1 2291   2.965   0.954   4.985
  464SOL    HW2 2292   2.872   0.820   4.992
  465SOL     OW 2293   0.956   2.349   0.070
  465SOL    HW1 2294   0.965   2.422   0.139
  465SOL    HW2 2295   0.988   2.384   7.003
  466SOL     OW 2296   1.598   6.644   4.215
  466SOL    HW1 2297   1.605   6.553   4.256
  466SOL    HW2 2298   1.654   6.648   4.132
  467SOL     OW 2299   1.982   1.523   1.445
  467SOL    HW1 2300   1.895   1.572   1.438
  467SOL    HW2 2301   2.053   1.586   1.475
  468SOL     OW 2302   3.511   6.331   5.488
  468SOL    HW1 2303   3.430   6.388   5.478
  468SOL    HW2 2304   3.591   6.381   5.456
  469SOL     OW 2305   2.656   3.656   6.429
  469SOL    HW1 2306   2.568   3.682   6.388
  469SOL    HW2 2307   2.731   3.695   6.376
  470SOL     OW 2308   4.818   6.280   1.059
  470SOL    HW1 2309   4.802   6.373   1.026
  470SOL    HW2 2310   4.739   6.249   1.112
  471SOL     OW 2311   2.613   2.472   4.127
  471SOL    HW1 2312   2.699   2.523   4.129
  471SOL    HW2 2313   2.543   2.524   4.175
  472SOL     OW 2314   5.111   4.373   6.287
  472SOL    HW1 2315   5.035   4.309   6.303
  472SOL    HW2 2316   5.192   4.340   6.335
  473SOL     OW 2317   1.071   2.209   2.366
  473SOL    HW1 2318   0.971   2.200   2.363
  473SOL    HW2 2319   1.110   2.178   2.279
  474SOL     OW 2320   5.259   5.995   4.660
  474SOL    HW1 2321   5.311   5.915   4.689
  474SOL    HW2 2322   5.171   5.996   4.707
  475SOL     OW 2323   6.222   2.085   0.277
  475SOL    HW1 2324   6.191   2.049   0.365
  475SOL    HW2 2325   6.167   2.165   0.252
  476SOL     OW 2326   0.239   3.660   2.279
  476SOL    HW1 2327   0.171   3.663   2.352
  476SOL    HW2 2328   0.250   3.565   2.247
  477SOL     OW 2329   2.666   6.006   3.054
  477SOL    HW1 2330   2.623   5.916   3.046
  477SOL    HW2 2331   2.763   5.995   3.072
  478SOL     OW 2332   3.740   6.470   2.226
  478SOL    HW1 2333   3.671   6.473   2.298
  478SOL    HW2 2334   3.695   6.483   2.137
  479SOL     OW 2335   3.612   3.193   5.283
  479SOL    HW1 2336   3.621   3.271   5.222
  479SOL    HW2 2337   3.567   3.222   5.368
  480SOL     OW 2338   2.344   0.919   0.787
  480SOL    HW1 2339   2.375   0.872   0.870
  480SOL    HW2 2340   2.295   1.003   0.813
  481SOL     OW 2341   1.279   6.341   1.527
  481SOL    HW1 2342   1.223   6.401   1.584
  481SOL    HW2 2343   1.237   6.251   1.521
  482SOL     OW 2344   4.380   4.728   2.165
  482SOL    HW1 2345   4.425   4.816   2.181
  482SOL    HW2 2346   4.293   4.726   2.214
  483SOL     OW 2347   6.255   2.279   2.985
  483SOL    HW1 2348   6.347   2.265   3.021
  483SOL    HW2 2349   6.259   2.335   2.903
  484SOL     OW 2350   2.034   3.205   5.427
  484SOL    HW1 2351   1.962   3.266   5.393
  484SOL    HW2 2352   2.115   3.213   5.369
  485SOL     OW 2353   4.009   4.870   2.451
  485SOL    HW1 2354   4.012   4.967   2.427
  485SOL    HW2 2355   3.925   4.852   2.502
  486SOL     OW 2356   0.103   1.184   0.395
  486SOL    HW1 2357   0.011   1.144   0.388
  486SOL    HW2 2358   0.145   1.188   0.305
  487SOL     OW 2359   0.794   0.507   3.281
  487SOL    HW1 2360   0.836   0.529   3.368
  487SOL    HW2 2361   0.754   0.415   3.285
  488SOL     OW 2362   1.470   0.811   2.531
  488SOL    HW1 2363   1.527   0.875   2.480
  488SOL    HW2 2364   1.528   0.753   2.589
  489SOL     OW 2365   5.150   6.019   5.491
  489SOL    HW1 2366   5.094   5.950   5.535
  489SOL    HW2 2367   5.209   6.063   5.559
  490SOL     OW 2368   1.252   6.176   3.409
  490SOL    HW1 2369   1.351   6.173   3.401
  490SOL    HW2 2370   1.226   6.181   3.506
  491SOL     OW 2371   0.950   3.485   1.841
  491SOL    HW1 2372   1.006   3.416   1.887
  491SOL    HW2 2373   1.001   3.524   1.765
  492SOL     OW 2374   1.462   0.499   5.639
  492SOL    HW1 2375   1.535   0.440   5.604
  492SOL    HW2 2376   1.408   0.533   5.562
  493SOL     OW 2377   3.785   6.415   5.450
  493SOL    HW1 2378   3.831   6.341   5.500
  493SOL    HW2 2379   3.838   6.438   5.369
  494SOL     OW 2380   1.004   0.065   6.534
  494SOL    HW1 2381   0.997   0.103   6.442
  494SOL    HW2 2382   1.094   0.023   6.546
  495SOL     OW 2383   3.944   5.705   3.685
  495SOL    HW1 2384   3.967   5.796   3.717
  495SOL    HW2 2385   3.851   5.704   3.650
  496SOL     OW 2386   5.796   2.876   1.912
  496SOL    HW1 2387   5.812   2.795   1.968
  496SOL    HW2 2388   5.704   2.912   1.931
  497SOL     OW 2389   3.267   1.666   4.437
  497SOL    HW1 2390   3.235   1.620   4.354
  497SOL    HW2 2391   3.360   1.699   4.423
  498SOL     OW 2392   0.678   4.882   2.074
  498SOL    HW1 2393   0.658   4.899   2.171
  498SOL    HW2 2394   0.655   4.787   2.052
  499SOL     OW 2395   1.816   5.132   4.674
  499SOL    HW1 2396   1.904   5.158   4.714
  499SOL    HW2 2397   1.743   5.183   4.718
  500SOL     OW 2398   6.966   2.254   5.948
  500SOL    HW1 2399   6.902   2.217   6.015
  500SOL    HW2 2400   6.940   2.224   5.857
  501SOL     OW 2401   4.362   0.253   0.931
  501SOL    HW1 2402   4.311   0.170   0.956
  501SOL    HW2 2403   4.442   0.261   0.991
  502SOL     OW 2404   0.726   4.367   5.403
  502SOL    HW1 2405   0.628   4.360   5.421
  502SOL    HW2 2406   0.743   4.344   5.307
  503SOL     OW 2407   0.163   4.938   6.613
  503SOL    HW1 2408   0.087   4.993   6.578
  503SOL    HW2 2409   0.192   4.874   6.542
  504SOL     OW 2410   0.680   5.290   2.465
  504SOL    HW1 2411   0.593   5.248   2.439
  504SOL    HW2 2412   0.753   5.222   2.456
  505SOL     OW 2413   3.344   5.722   4.625
  505SOL    HW1 2414   3.399   5.795   4.666
  505SOL    HW2 2415   3.403   5.650   4.590
  506SOL     OW 2416   3.751   5.622   3.110
  506SOL    HW1 2417   3.666   5.570   3.108
  506SOL    HW2 2418   3.796   5.615   3.020
  507SOL     OW 2419   3.637   0.191   3.166
  507SOL    HW1 2420   3.591   0.229   3.086
  507SOL    HW2 2421   3.723   0.148   3.137
  508SOL     OW 2422   7.007   3.739   2.954
  508SOL    HW1 2423   0.026   3.801   2.886
  508SOL    HW2 2424   0.058   3.685   2.997
  509SOL     OW 2425   3.046   1.692   1.208
  509SOL    HW1 2426   3.093   1.632   1.273
  509SOL    HW2 2427   3.091   1.687   1.119
  510SOL     OW 2428   6.427   3.929   6.915
  510SOL    HW1 2429   6.466   3.883   6.995
  510SOL    HW2 2430   6.335   3.961   6.937
  511SOL     OW 2431   0.988   2.514   5.953
  511SOL    HW1 2432   1.015   2.579   6.025
  511SOL    HW2 2433   1.069   2.489   5.900
  512SOL     OW 2434   0.063   2.108   6.918
  512SOL    HW1 2435   0.145   2.055   6.938
  512SOL    HW2 2436   0.062   2.133   6.822
  513SOL     OW 2437   5.835   6.540   3.360
  513SOL    HW1 2438   5.898   6.532   3.438
  513SOL    HW2 2439   5.870   6.485   3.284
  514SOL     OW 2440   6.393   0.359   4.637
  514SOL    HW1 2441   6.363   0.427   4.703
  514SOL    HW2 2442   6.456   0.295   4.681
  515SOL     OW 2443   1.120   0.422   1.467
  515SOL    HW1 2444   1.105   0.360   1.544
  515SOL    HW2 2445   1.034   0.466   1.442
  516SOL     OW 2446   2.802   4.692   2.272
  516SOL    HW1 2447   2.767   4.658   2.185
  516SOL    HW2 2448   2.736   4.672   2.344
  517SOL     OW 2449   3.549   4.989   1.867
  517SOL    HW1 2450   3.568   4.892   1.877
  517SOL    HW2 2451   3.469   5.001   1.807
  518SOL     OW 2452   2.247   2.459   3.730
  518SOL    HW1 2453   2.254   2.367   3.691
  518SOL    HW2 2454   2.266   2.456   3.828
  519SOL     OW 2455   0.818   6.458   3.397
  519SOL    HW1 2456   0.815   6.377   3.456
  519SOL    HW2 2457   0.858   6.534   3.448
  520SOL     OW 2458   5.779   3.682   6.986
  520SOL    HW1 2459   5.825   3.593   6.981
  520SOL    HW2 2460   5.846   3.755   6.980
  521SOL     OW 2461   6.325   6.175   5.165
  521SOL    HW1 2462   6.238   6.223   5.151
  521SOL    HW2 2463   6.370   6.213   5.245
  522SOL     OW 2464   3.604   3.219   3.621
  522SOL    HW1 2465   3.703   3.208   3.619
  522SOL    HW2 2466   3.561   3.146   3.568
  523SOL     OW 2467   0.338   6.445   1.772
  523SOL    HW1 2468   0.384   6.520   1.726
  523SOL    HW2 2469   0.368   6.358   1.733
  524SOL     OW 2470   0.892   2.295   2.639
  524SOL    HW1 2471   0.866   2.330   2.549
  524SOL    HW2 2472   0.985   2.325   2.661
  525SOL     OW 2473   1.893   4.109   6.226
  525SOL    HW1 2474   1.981   4.094   6.272
  525SOL    HW2 2475   1.859   4.022   6.191
  526SOL     OW 2476   3.590   6.379   4.417
  526SOL    HW1 2477   3.549   6.465   4.447
  526SOL    HW2 2478   3.646   6.341   4.491
  527SOL     OW 2479   6.851   2.899   0.787
  527SOL    HW1 2480   6.814   2.979   0.740
  527SOL    HW2 2481   6.930   2.925   0.841
  528SOL     OW 2482   1.792   2.409   3.741
  528SOL    HW1 2483   1.785   2.310   3.734
  528SOL    HW2 2484   1.797   2.436   3.837
  529SOL     OW 2485   1.545   5.668   5.088
  529SOL    HW1 2486   1.560   5.714   5.175
  529SOL    HW2 2487   1.483   5.722   5.031
  530SOL     OW 2488   4.119   3.395   3.629
  530SOL    HW1 2489   4.124   3.477   3.573
  530SOL    HW2 2490   4.132   3.420   3.725
  531SOL     OW 2491   0.541   2.025   2.779
  531SOL    HW1 2492   0.470   2.089   2.810
  531SOL    HW2 2493   0.631   2.063   2.799
  532SOL     OW 2494   0.757   2.853   0.419
  532SOL    HW1 2495   0.819   2.929   0.402
  532SOL    HW2 2496   0.770   2.784   0.347
  533SOL     OW 2497   4.370   0.006   3.640
  533SOL    HW1 2498   4.386   6.944   3.585
  533SOL    HW2 2499   4.419   7.019   3.727
  534SOL     OW 2500   5.386   6.058   2.675
  534SOL    HW1 2501   5.368   6.013   2.587
  534SOL    HW2 2502   5.357   5.997   2.749
  535SOL     OW 2503   6.621   3.889   4.604
  535SOL    HW1 2504   6.662   3.804   4.571
  535SOL    HW2 2505   6.608   3.953   4.528
  536SOL     OW 2506   6.040   5.088   2.726
  536SOL    HW1 2507   6.031   5.130   2.636
  536SOL    HW2 2508   6.093   5.003   2.718
  537SOL     OW 2509   2.902   6.597   5.144
  537SOL    HW1 2510   2.840   6.567   5.217
  537SOL    HW2 2511   2.966   6.524   5.122
  538SOL     OW 2512   0.904   4.461   3.839
  538SOL    HW1 2513   0.978   4.404   3.804
  538SOL    HW2 2514   0.890   4.539   3.777
  539SOL     OW 2515   1.534   5.200   1.391
  539SOL    HW1 2516   1.512   5.216   1.487
  539SOL    HW2 2517   1.485   5.119   1.359
  540SOL     OW 2518   1.330   2.001   2.820
  540SOL    HW1 2519   1.302   2.010   2.724
  540SOL    HW2 2520   1.344   1.905   2.842
  541SOL     OW 2521   5.410   5.529   3.626
  541SOL    HW1 2522   5.347   5.483   3.689
  541SOL    HW2 2523   5.504   5.513   3.655
  542SOL     OW 2524   5.844   6.752   6.717
  542SOL    HW1 2525   5.778   6.822   6.690
  542SOL    HW2 2526   5.799   6.663   6.721
  543SOL     OW 2527   0.174   3.969   5.087
  543SOL    HW1 2528   0.086   3.970   5.038
  543SOL    HW2 2529   0.162   4.012   5.177
  544SOL     OW 2530   1.342   5.116   0.484
  544SOL    HW1 2531   1.402   5.085   0.410
  544SOL    HW2 2532   1.397   5.147   0.561
  545SOL     OW 2533   3.090   1.744   0.932
  545SOL    HW1 2534   2.996   1.735   0.964
  545SOL    HW2 2535   3.096   1.819   0.866
  546SOL     OW 2536   1.975   3.811   0.680
  546SOL    HW1 2537   1.979   3.907   0.653
  546SOL    HW2 2538   1.984   3.753   0.599
  547SOL     OW 2539   3.158   1.773   0.181
  547SOL    HW1 2540   3.075   1.827   0.195
  547SOL    HW2 2541   3.227   1.828   0.134
  548SOL     OW 2542   3.237   3.517   2.233
  548SOL    HW1 2543   3.167   3.474   2.177
  548SOL    HW2 2544   3.230   3.483   2.327
  549SOL     OW 2545   5.601   2.821   0.926
  549SOL    HW1 2546   5.558   2.909   0.947
  549SOL    HW2 2547   5.564   2.786   0.840
  550SOL     OW 2548   1.122   5.570   3.912
  550SOL    HW1 2549   1.169   5.656   3.929
  550SOL    HW2 2550   1.184   5.493   3.928
  551SOL     OW 2551   1.033   6.841   2.394
  551SOL    HW1 2552   0.997   6.930   2.421
  551SOL    HW2 2553   1.097   6.808   2.464
  552SOL     OW 2554   6.649   4.579   6.726
  552SOL    HW1 2555   6.609   4.505   6.780
  552SOL    HW2 2556   6.579   4.647   6.704
  553SOL     OW 2557   2.658   6.265   3.677
  553SOL    HW1 2558   2.703   6.354   3.686
  553SOL    HW2 2559   2.559   6.278   3.676
  554SOL     OW 2560   6.525   0.033   6.702
  554SOL    HW1 2561   6.612   0.052   6.747
  554SOL    HW2 2562   6.537   6.979   6.637
  555SOL     OW 2563   2.637   4.664   4.679
  555SOL    HW1 2564   2.544   4.642   4.651
  555SOL    HW2 2565   2.644   4.663   4.779
  556SOL     OW 2566   4.326   1.788   3.733
  556SOL    HW1 2567   4.309   1.735   3.816
  556SOL    HW2 2568   4.245   1.843   3.712
  557SOL     OW 2569   6.929   5.904   1.375
  557SOL    HW1 2570   6.856   5.970   1.392
  557SOL    HW2 2571   6.914   5.861   1.285
  558SOL     OW 2572   2.987   3.376   3.541
  558SOL    HW1 2573   2.935   3.407   3.462
  558SOL    HW2 2574   3.076   3.423   3.543
  559SOL     OW 2575   0.113   5.627   6.692
  559SOL    HW1 2576   0.116   5.596   6.787
  559SOL    HW2 2577   0.064   5.559   6.636
  560SOL     OW 2578   5.756   4.672   4.843
  560SOL    HW1 2579   5.797   4.655   4.932
  560SOL    HW2 2580   5.827   4.668   4.772
  561SOL     OW 2581   0.676   2.051   1.442
  561SOL    HW1 2582   0.620   1.989   1.497
  561SOL    HW2 2583   0.749   2.000   1.397
  562SOL     OW 2584   4.438   6.592   6.115
  562SOL    HW1 2585   4.341   6.607   6.132
  562SOL    HW2 2586   4.481   6.678   6.090
  563SOL     OW 2587   2.739   0.009   3.200
  563SOL    HW1 2588   2.826   0.047   3.232
  563SOL    HW2 2589   2.741   6.931   3.208
  564SOL     OW 2590   1.441   2.661   6.660
  564SOL    HW1 2591   1.511   2.714   6.613
  564SOL    HW2 2592   1.481   2.575   6.693
  565SOL     OW 2593   3.122   3.006   4.585
  565SOL    HW1 2594   3.102   2.911   4.608
  565SOL    HW2 2595   3.091   3.065   4.660
  566SOL     OW 2596   0.255   4.667   3.573
  566SOL    HW1 2597   0.343   4.621   3.577
  566SOL    HW2 2598   0.187   4.614   3.624
  567SOL     OW 2599   2.990   2.979   1.272
  567SOL    HW1 2600   3.019   2.893   1.314
  567SOL    HW2 2601   3.068   3.042   1.268
  568SOL     OW 2602   4.980   0.324   0.014
  568SOL    HW1 2603   4.935   0.412   0.000
  568SOL    HW2 2604   5.079   0.339   0.022
  569SOL     OW 2605   1.806   2.926   0.050
  569SOL    HW1 2606   1.884   2.989   0.054
  569SOL    HW2 2607   1.740   2.960   7.003
  570SOL     OW 2608   4.310   6.241   6.792
  570SOL    HW1 2609   4.211   6.231   6.779
  570SOL    HW2 2610   4.344   6.162   6.843
  571SOL     OW 2611   3.495   6.328   1.960
  571SOL    HW1 2612   3.457   6.402   1.905
  571SOL    HW2 2613   3.420   6.270   1.993
  572SOL     OW 2614   2.505   4.886   5.622
  572SOL    HW1 2615   2.467   4.861   5.533
  572SOL    HW2 2616   2.603   4.869   5.623
  573SOL     OW 2617   4.936   1.128   5.746
  573SOL    HW1 2618   4.924   1.122   5.845
  573SOL    HW2 2619   5.014   1.188   5.726
  574SOL     OW 2620   3.579   1.281   4.219
  574SOL    HW1 2621   3.489   1.253   4.185
  574SOL    HW2 2622   3.644   1.285   4.143
  575SOL     OW 2623   4.724   3.716   6.998
  575SOL    HW1 2624   4.740   3.627   6.955
  575SOL    HW2 2625   4.640   3.756   6.962
  576SOL     OW 2626   1.065   2.067   3.349
  576SOL    HW1 2627   1.047   2.165   3.352
  576SOL    HW2 2628   1.047   2.026   3.438
  577SOL     OW 2629   1.441   1.465   2.873
  577SOL    HW1 2630   1.467   1.540   2.935
  577SOL    HW2 2631   1.363   1.495   2.818
  578SOL     OW 2632   5.655   5.208   3.773
  578SOL    HW1 2633   5.709   5.143   3.827
  578SOL    HW2 2634   5.568   5.226   3.819
  579SOL     OW 2635   1.952   3.392   3.637
  579SOL    HW1 2636   2.006   3.320   3.681
  579SOL    HW2 2637   2.005   3.432   3.562
  580SOL     OW 2638   4.709   5.592   6.450
  580SOL    HW1 2639   4.707   5.691   6.466
  580SOL    HW2 2640   4.804   5.562   6.437
  581SOL     OW 2641   2.054   3.524   1.517
  581SOL    HW1 2642   2.065   3.513   1.418
  581SOL    HW2 2643   1.958   3.510   1.542
  582SOL     OW 2644   4.280   6.086   2.027
  582SOL    HW1 2645   4.306   6.182   2.034
  582SOL    HW2 2646   4.244   6.068   1.936
  583SOL     OW 2647   2.982   6.173   5.307
  583SOL    HW1 2648   2.938   6.214   5.387
  583SOL    HW2 2649   2.925   6.100   5.271
  584SOL     OW 2650   3.262   5.130   6.821
  584SOL    HW1 2651   3.342   5.155   6.876
  584SOL    HW2 2652   3.292   5.089   6.735
  585SOL     OW 2653   5.228   2.026   6.410
  585SOL    HW1 2654   5.212   2.007   6.507
  585SOL    HW2 2655   5.141   2.023   6.361
  586SOL     OW 2656   3.531   0.606   6.010
  586SOL    HW1 2657   3.549   0.625   6.107
  586SOL    HW2 2658   3.547   0.690   5.957
  587SOL     OW 2659   4.304   1.932   4.850
  587SOL    HW1 2660   4.257   1.981   4.777
  587SOL    HW2 2661   4.362   1.996   4.901
  588SOL     OW 2662   1.670   4.767   2.273
  588SOL    HW1 2663   1.744   4.811   2.223
  588SOL    HW2 2664   1.663   4.671   2.246
  589SOL     OW 2665   3.390   4.614   1.696
  589SOL    HW1 2666   3.308   4.656   1.735
  589SOL    HW2 2667   3.469   4.635   1.754
  590SOL     OW 2668   4.909   3.029   2.632
  590SOL    HW1 2669   4.993   2.974   2.633
  590SOL    HW2 2670   4.882   3.046   2.537
  591SOL     OW 2671   2.788   5.380   3.936
  591SOL    HW1 2672   2.692   5.354   3.923
  591SOL    HW2 2673   2.825   5.332   4.015
  592SOL     OW 2674   4.064   1.323   1.349
  592SOL    HW1 2675   3.990   1.344   1.413
  592SOL    HW2 2676   4.037   1.352   1.257
  593SOL     OW 2677   4.404   2.416   4.740
  593SOL    HW1 2678   4.414   2.516   4.738
  593SOL    HW2 2679   4.435   2.378   4.653
  594SOL     OW 2680   6.803   1.683   0.243
  594SOL    HW1 2681   6.861   1.642   0.314
  594SOL    HW2 2682   6.858   1.745   0.188
  595SOL     OW 2683   5.806   0.123   3.429
  595SOL    HW1 2684   5.764   0.060   3.494
  595SOL    HW2 2685   5.758   0.118   3.341
  596SOL     OW 2686   1.021   5.316   3.272
  596SOL    HW1 2687   1.079   5.397   3.281
  596SOL    HW2 2688   0.950   5.333   3.204
  597SOL     OW 2689   2.918   0.525   0.163
  597SOL    HW1 2690   2.947   0.430   0.178
  597SOL    HW2 2691   2.948   0.581   0.241
  598SOL     OW 2692   4.126   4.483   5.490
  598SOL    HW1 2693   4.060   4.557   5.473
  598SOL    HW2 2694   4.076   4.400   5.517
  599SOL     OW 2695   2.484   6.143   1.501
  599SOL    HW1 2696   2.487   6.143   1.401
  599SOL    HW2 2697   2.436   6.224   1.533
  600SOL     OW 2698   0.174   1.117   6.495
  600SOL    HW1 2699   0.139   1.209   6.479
  600SOL    HW2 2700   0.250   1.100   6.431
  601SOL     OW 2701   1.379   0.187   4.615
  601SOL    HW1 2702   1.371   0.286   4.610
  601SOL    HW2 2703   1.323   0.152   4.691
  602SOL     OW 2704   1.858   2.202   6.381
  602SOL    HW1 2705   1.943   2.240   6.345
  602SOL    HW2 2706   1.798   2.177   6.305
  603SOL     OW 2707   2.874   2.245   5.075
  603SOL    HW1 2708   2.972   2.257   5.089
  603SOL    HW2 2709   2.856   2.234   4.977
  604SOL     OW 2710   1.456   2.533   1.861
  604SOL    HW1 2711   1.538   2.510   1.914
  604SOL    HW2 2712   1.422   2.623   1.891
  605SOL     OW 2713   6.867   6.479   0.538
  605SOL    HW1 2714   6.875   6.489   0.638
  605SOL    HW2 2715   6.955   6.501   0.495
  606SOL     OW 2716   4.800   6.700   6.831
  606SOL    HW1 2717   4.897   6.682   6.811
  606SOL    HW2 2718   4.791   6.790   6.873
  607SOL     OW 2719   6.609   6.137   5.845
  607SOL    HW1 2720   6.659   6.216   5.811
  607SOL    HW2 2721   6.567   6.158   5.933
  608SOL     OW 2722   3.668   5.964   6.822
  608SOL    HW1 2723   3.597   5.996   6.884
  608SOL    HW2 2724   3.648   5.871   6.793
  609SOL     OW 2725   3.832   3.033   2.907
  609SOL    HW1 2726   3.752   3.018   2.965
  609SOL    HW2 2727   3.905   3.074   2.962
  610SOL     OW 2728   5.471   4.034   1.953
  610SOL    HW1 2729   5.392   4.015   2.012
  610SOL    HW2 2730   5.549   3.979   1.984
  611SOL     OW 2731   4.176   0.038   0.949
  611SOL    HW1 2732   4.189   6.980   0.888
  611SOL    HW2 2733   4.163   0.005   1.043
  612SOL     OW 2734   4.062   6.897   5.162
  612SOL    HW1 2735   4.054   6.951   5.079
  612SOL    HW2 2736   4.158   6.869   5.175
  613SOL     OW 2737   3.991   6.243   5.647
  613SOL    HW1 2738   3.962   6.191   5.728
  613SOL    HW2 2739   4.026   6.332   5.676
  614SOL     OW 2740   5.559   5.268   0.855
  614SOL    HW1 2741   5.597   5.321   0.931
  614SOL    HW2 2742   5.480   5.316   0.817
  615SOL     OW 2743   6.530   2.216   1.599
  615SOL    HW1 2744   6.556   2.123   1.625
  615SOL    HW2 2745   6.588   2.246   1.522
  616SOL     OW 2746   0.150   3.067   3.621
  616SOL    HW1 2747   0.190   3.055   3.712
  616SOL    HW2 2748   0.207   3.020   3.553
  617SOL     OW 2749   6.468   4.495   6.308
  617SOL    HW1 2750   6.540   4.545   6.358
  617SOL    HW2 2751   6.504   4.406   6.281
  618SOL     OW 2752   6.818   2.163   6.833
  618SOL    HW1 2753   6.854   2.177   6.740
  618SOL    HW2 2754   6.890   2.125   6.891
  619SOL     OW 2755   4.438   1.420   6.909
  619SOL    HW1 2756   4.468   1.420   6.814
  619SOL    HW2 2757   4.503   1.472   6.965
  620SOL     OW 2758   4.513   2.732   1.370
  620SOL    HW1 2759   4.450   2.772   1.436
  620SOL    HW2 2760   4.534   2.638   1.396
  621SOL     OW 2761   2.798   0.234   6.708
  621SOL    HW1 2762   2.862   0.165   6.674
  621SOL    HW2 2763   2.760   0.205   6.795
  622SOL     OW 2764   1.570   0.345   5.219
  622SOL    HW1 2765   1.471   0.353   5.235
  622SOL    HW2 2766   1.592   0.252   5.191
  623SOL     OW 2767   0.832   5.631   5.359
  623SOL    HW1 2768   0.838   5.601   5.454
  623SOL    HW2 2769   0.889   5.572   5.302
  624SOL     OW 2770   6.949   2.479   1.173
  624SOL    HW1 2771   6.952   2.384   1.140
  624SOL    HW2 2772   0.022   2.509   1.193
  625SOL     OW 2773   1.803   1.647   2.314
  625SOL    HW1 2774   1.732   1.712   2.288
  625SOL    HW2 2775   1.893   1.688   2.301
  626SOL     OW 2776   2.111   5.845   3.299
  626SOL    HW1 2777   2.196   5.879   3.259
  626SOL    HW2 2778   2.062   5.789   3.232
  627SOL     OW 2779   6.053   6.311   0.305
  627SOL    HW1 2780   5.993   6.233   0.319
  627SOL    HW2 2781   6.089   6.342   0.393
  628SOL     OW 2782   6.276   5.643   6.017
  628SOL    HW1 2783   6.223   5.616   5.937
  628SOL    HW2 2784   6.314   5.735   6.003
  629SOL     OW 2785   6.910   0.071   6.774
  629SOL    HW1 2786   6.995   0.073   6.826
  629SOL    HW2 2787   6.848   0.004   6.814
  630SOL     OW 2788   0.483   1.650   1.108
  630SOL    HW1 2789   0.548   1.678   1.179
  630SOL    HW2 2790   0.530   1.592   1.041
  631SOL     OW 2791   3.762   6.953   5.015
  631SOL    HW1 2792   3.730   7.019   4.947
  631SOL    HW2 2793   3.777   6.865   4.970
  632SOL     OW 2794   3.157   1.428   1.039
  632SOL    HW1 2795   3.187   1.511   0.991
  632SOL    HW2 2796   3.232   1.393   1.095
  633SOL     OW 2797   3.259   3.819   6.865
  633SOL    HW1 2798   3.175   3.850   6.820
  633SOL    HW2 2799   3.291   3.889   6.929
  634SOL     OW 2800   4.018   3.870   1.262
  634SOL    HW1 2801   4.103   3.920   1.274
  634SOL    HW2 2802   3.940   3.933   1.269
  635SOL     OW 2803   4.536   5.384   1.715
  635SOL    HW1 2804   4.451   5.331   1.709
  635SOL    HW2 2805   4.523   5.461   1.778
  636SOL     OW 2806   3.360   5.918   0.212
  636SOL    HW1 2807   3.315   5.995   0.256
  636SOL    HW2 2808   3.429   5.952   0.147
  637SOL     OW 2809   6.786   3.570   3.529
  637SOL    HW1 2810   6.704   3.519   3.503
  637SOL    HW2 2811   6.829   3.608   3.448
  638SOL     OW 2812   5.378   2.136   3.996
  638SOL    HW1 2813   5.390   2.055   3.938
  638SOL    HW2 2814   5.452   2.200   3.979
  639SOL     OW 2815   5.375   3.590   2.648
  639SOL    HW1 2816   5.357   3.577   2.745
  639SOL    HW2 2817   5.456   3.538   2.622
  640SOL     OW 2818   0.663   5.229   3.553
  640SOL    HW1 2819   0.729   5.296   3.587
  640SOL    HW2 2820   0.712   5.153   3.510
  641SOL     OW 2821   6.610   5.078   4.444
  641SOL    HW1 2822   6.607   5.177   4.463
  641SOL    HW2 2823   6.562   5.029   4.516
  642SOL     OW 2824   6.514   3.032   4.955
  642SOL    HW1 2825   6.464   3.117   4.973
  642SOL    HW2 2826   6.520   2.978   5.039
  643SOL     OW 2827   6.124   5.653   5.784
  643SOL    HW1 2828   6.047   5.689   5.836
  643SOL    HW2 2829   6.098   5.567   5.740
  644SOL     OW 2830   1.443   6.151   4.740
  644SOL    HW1 2831   1.525   6.107   4.703
  644SOL    HW2 2832   1.426   6.236   4.690
  645SOL     OW 2833   3.753   0.733   4.135
  645SOL    HW1 2834   3.796   0.807   4.187
  645SOL    HW2 2835   3.811   0.652   4.139
  646SOL     OW 2836   3.230   1.160   4.749
  646SOL    HW1 2837   3.230   1.100   4.669
  646SOL    HW2 2838   3.322   1.163   4.788
  647SOL     OW 2839   5.086   1.338   4.732
  647SOL    HW1 2840   5.147   1.298   4.800
  647SOL    HW2 2841   5.127   1.422   4.696
  648SOL     OW 2842   1.161   3.779   4.031
  648SOL    HW1 2843   1.257   3.805   4.036
  648SOL    HW2 2844   1.151   3.698   3.973
  649SOL     OW 2845   3.192   4.191   0.864
  649SOL    HW1 2846   3.115   4.249   0.839
  649SOL    HW2 2847   3.181   4.158   0.958
  650SOL     OW 2848   5.893   4.382   0.875
  650SOL    HW1 2849   5.805   4.352   0.837
  650SOL    HW2 2850   5.921   4.467   0.830
  651SOL     OW 2851   6.920   6.041   6.138
  651SOL    HW1 2852   6.954   6.003   6.224
  651SOL    HW2 2853   6.905   6.139   6.148
  652SOL     OW 2854   4.926   6.518   3.648
  652SOL    HW1 2855   4.933   6.424   3.682
  652SOL    HW2 2856   5.015   6.563   3.657
  653SOL     OW 2857   1.517   5.398   5.417
  653SOL    HW1 2858   1.554   5.489   5.401
  653SOL    HW2 2859   1.434   5.404   5.472
  654SOL     OW 2860   0.510   4.060   6.112
  654SOL    HW1 2861   0.559   4.065   6.198
  654SOL    HW2 2862   0.473   3.968   6.099
  655SOL     OW 2863   0.296   5.873   2.320
  655SOL    HW1 2864   0.363   5.831   2.381
  655SOL    HW2 2865   0.343   5.925   2.249
  656SOL     OW 2866   1.175   5.526   1.389
  656SOL    HW1 2867   1.223   5.502   1.473
  656SOL    HW2 2868   1.101   5.461   1.373
  657SOL     OW 2869   1.976   3.053   1.702
  657SOL    HW1 2870   1.954   3.006   1.787
  657SOL    HW2 2871   1.941   3.147   1.706
  658SOL     OW 2872   2.734   4.341   6.406
  658SOL    HW1 2873   2.816   4.283   6.410
  658SOL    HW2 2874   2.727   4.393   6.492
  659SOL     OW 2875   1.841   5.775   5.286
  659SOL    HW1 2876   1.859   5.756   5.383
  659SOL    HW2 2877   1.760   5.832   5.277
  660SOL     OW 2878   5.542   4.730   2.399
  660SOL    HW1 2879   5.638   4.758   2.403
  660SOL    HW2 2880   5.535   4.639   2.358
  661SOL     OW 2881   4.596   5.012   3.665
  661SOL    HW1 2882   4.685   5.052   3.641
  661SOL    HW2 2883   4.530   5.030   3.593
  662SOL     OW 2884   4.050   0.548   5.102
  662SOL    HW1 2885   3.979   0.612   5.074
  662SOL    HW2 2886   4.026   0.456   5.072
  663SOL     OW 2887   2.569   3.945   6.813
  663SOL    HW1 2888   2.655   3.937   6.865
  663SOL    HW2 2889   2.533   4.037   6.824
  664SOL     OW 2890   0.034   5.410   6.544
  664SOL    HW1 2891   0.081   5.325   6.522
  664SOL    HW2 2892   6.979   5.423   6.480
  665SOL     OW 2893   5.186   4.949   1.214
  665SOL    HW1 2894   5.237   4.876   1.261
  665SOL    HW2 2895   5.126   4.995   1.280
  666SOL     OW 2896   4.719   2.138   2.352
  666SOL    HW1 2897   4.782   2.216   2.358
  666SOL    HW2 2898   4.698   2.120   2.256
  667SOL     OW 2899   6.936   4.777   3.762
  667SOL    HW1 2900   6.973   4.838   3.831
  667SOL    HW2 2901   6.997   4.698   3.750
  668SOL     OW 2902   5.759   6.390   6.406
  668SOL    HW1 2903   5.676   6.433   6.441
  668SOL    HW2 2904   5.750   6.291   6.412
  669SOL     OW 2905   4.179   0.047   3.872
  669SOL    HW1 2906   4.161   6.996   3.939
  669SOL    HW2 2907   4.272   0.036   3.835
  670SOL     OW 2908   2.979   3.159   0.761
  670SOL    HW1 2909   3.076   3.179   0.747
  670SOL    HW2 2910   2.955   3.176   0.856
  671SOL     OW 2911   1.973   6.249   0.583
  671SOL    HW1 2912   2.017   6.236   0.671
  671SOL    HW2 2913   1.919   6.168   0.560
  672SOL     OW 2914   0.938   5.040   1.709
  672SOL    HW1 2915   0.972   5.127   1.743
  672SOL    HW2 2916   0.968   5.026   1.615
  673SOL     OW 2917   0.478   0.424   1.897
  673SOL    HW1 2918   0.504   0.442   1.802
  673SOL    HW2 2919   0.541   0.356   1.936
  674SOL     OW 2920   0.267   2.587   5.048
  674SOL    HW1 2921   0.304   2.662   4.993
  674SOL    HW2 2922   0.214   2.526   4.990
  675SOL     OW 2923   0.510   1.537   3.881
  675SOL    HW1 2924   0.438   1.553   3.949
  675SOL    HW2 2925   0.479   1.468   3.816
  676SOL     OW 2926   3.692   5.883   2.862
  676SOL    HW1 2927   3.772   5.944   2.867
  676SOL    HW2 2928   3.692   5.822   2.942
  677SOL     OW 2929   6.570   1.781   0.331
  677SOL    HW1 2930   6.568   1.795   0.430
  677SOL    HW2 2931   6.658   1.741   0.306
  678SOL     OW 2932   2.046   1.135   5.573
  678SOL    HW1 2933   2.011   1.116   5.482
  678SOL    HW2 2934   2.033   1.231   5.595
  679SOL     OW 2935   4.476   1.666   4.044
  679SOL    HW1 2936   4.509   1.580   4.082
  679SOL    HW2 2937   4.538   1.740   4.071
  680SOL     OW 2938   5.634   5.702   5.613
  680SOL    HW1 2939   5.724   5.745   5.606
  680SOL    HW2 2940   5.638   5.609   5.576
  681SOL     OW 2941   5.608   5.000   1.193
  681SOL    HW1 2942   5.617   4.998   1.094
  681SOL    HW2 2943   5.575   5.090   1.222
  682SOL     OW 2944   1.046   1.106   0.301
  682SOL    HW1 2945   0.969   1.060   0.345
  682SOL    HW2 2946   1.121   1.041   0.291
  683SOL     OW 2947   4.139   3.592   0.806
  683SOL    HW1 2948   4.060   3.617   0.861
  683SOL    HW2 2949   4.133   3.635   0.716
  684SOL     OW 2950   0.287   0.853   6.577
  684SOL    HW1 2951   0.270   0.812   6.488
  684SOL    HW2 2952   0.253   0.947   6.578
  685SOL     OW 2953   4.604   1.366   3.622
  685SOL    HW1 2954   4.609   1.332   3.716
  685SOL    HW2 2955   4.573   1.462   3.624
  686SOL     OW 2956   5.330   2.532   3.823
  686SOL    HW1 2957   5.284   2.613   3.787
  686SOL    HW2 2958   5.413   2.560   3.872
  687SOL     OW 2959   0.481   2.602   4.619
  687SOL    HW1 2960   0.471   2.698   4.593
  687SOL    HW2 2961   0.467   2.545   4.539
  688SOL     OW 2962   1.184   1.830   0.271
  688SOL    HW1 2963   1.090   1.798   0.281
  688SOL    HW2 2964   1.204   1.847   0.175
  689SOL     OW 2965   6.396   3.654   6.864
  689SOL    HW1 2966   6.386   3.751   6.888
  689SOL    HW2 2967   6.441   3.606   6.939
  690SOL     OW 2968   0.217   4.664   2.804
  690SOL    HW1 2969   0.151   4.624   2.867
  690SOL    HW2 2970   0.306   4.618   2.815
  691SOL     OW 2971   2.280   6.882   0.116
  691SOL    HW1 2972   2.368   6.916   0.084
  691SOL    HW2 2973   2.291   6.792   0.158
  692SOL     OW 2974   3.028   6.369   3.558
  692SOL    HW1 2975   2.974   6.406   3.483
  692SOL    HW2 2976   3.089   6.298   3.523
  693SOL     OW 2977   6.404   0.781   3.257
  693SOL    HW1 2978   6.390   0.751   3.351
  693SOL    HW2 2979   6.382   0.706   3.195
  694SOL     OW 2980   4.124   5.839   2.605
  694SOL    HW1 2981   4.223   5.853   2.602
  694SOL    HW2 2982   4.095   5.826   2.699
  695SOL     OW 2983   4.000   6.028   4.075
  695SOL    HW1 2984   3.934   5.966   4.119
  695SOL    HW2 2985   4.091   6.014   4.115
  696SOL     OW 2986   4.127   4.783   2.221
  696SOL    HW1 2987   4.107   4.773   2.318
  696SOL    HW2 2988   4.043   4.771   2.168
  697SOL     OW 2989   2.027   3.673   3.856
  697SOL    HW1 2990   2.040   3.575   3.873
  697SOL    HW2 2991   1.930   3.693   3.847
  698SOL     OW 2992   5.431   6.535   0.062
  698SOL    HW1 2993   5.371   6.513   7.006
  698SOL    HW2 2994   5.410   6.474   0.139
  699SOL     OW 2995   1.783   3.055   6.433
  699SOL    HW1 2996   1.822   3.108   6.509
  699SOL    HW2 2997   1.814   2.960   6.440
  700SOL     OW 2998   3.302   1.209   2.962
  700SOL    HW1 2999   3.344   1.275   2.900
  700SOL    HW2 3000   3.217   1.174   2.922
  701SOL     OW 3001   6.372   3.458   5.973
  701SOL    HW1 3002   6.318   3.461   6.057
  701SOL    HW2 3003   6.372   3.549   5.929
  702SOL     OW 3004   1.290   5.798   5.027
  702SOL    HW1 3005   1.280   5.862   4.950
  702SOL    HW2 3006   1.203   5.793   5.077
  703SOL     OW 3007   3.338   4.280   6.286
  703SOL    HW1 3008   3.268   4.337   6.242
  703SOL    HW2 3009   3.377   4.218   6.217
  704SOL     OW 3010   1.566   2.100   0.256
  704SOL    HW1 3011   1.557   2.196   0.229
  704SOL    HW2 3012   1.663   2.077   0.264
  705SOL     OW 3013   6.190   6.252   2.159
  705SOL    HW1 3014   6.259   6.182   2.178
  705SOL    HW2 3015   6.099   6.217   2.183
  706SOL     OW 3016   4.557   2.649   5.003
  706SOL    HW1 3017   4.529   2.725   4.943
  706SOL    HW2 3018   4.539   2.674   5.098
  707SOL     OW 3019   4.898   5.395   2.818
  707SOL    HW1 3020   4.907   5.437   2.908
  707SOL    HW2 3021   4.985   5.353   2.791
  708SOL     OW 3022   4.489   6.796   1.427
  708SOL    HW1 3023   4.425   6.851   1.481
  708SOL    HW2 3024   4.454   6.786   1.334
  709SOL     OW 3025   0.597   5.954   1.495
  709SOL    HW1 3026   0.508   5.981   1.460
  709SOL    HW2 3027   0.651   6.036   1.514
  710SOL     OW 3028   3.948   2.949   1.912
  710SOL    HW1 3029   3.934   3.004   1.994
  710SOL    HW2 3030   3.871   2.887   1.900
  711SOL     OW 3031   6.822   3.369   5.646
  711SOL    HW1 3032   6.868   3.456   5.664
  711SOL    HW2 3033   6.745   3.358   5.709
  712SOL     OW 3034   4.686   3.134   1.421
  712SOL    HW1 3035   4.707   3.038   1.403
  712SOL    HW2 3036   4.700   3.188   1.338
  713SOL     OW 3037   4.564   2.079   5.755
  713SOL    HW1 3038   4.469   2.046   5.755
  713SOL    HW2 3039   4.575   2.146   5.682
  714SOL     OW 3040   6.411   4.269   3.474
  714SOL    HW1 3041   6.483   4.262   3.543
  714SOL    HW2 3042   6.322   4.265   3.519
  715SOL     OW 3043   5.537   5.597   0.203
  715SOL    HW1 3044   5.497   5.579   0.293
  715SOL    HW2 3045   5.610   5.665   0.211
  716SOL     OW 3046   0.451   0.736   1.879
  716SOL    HW1 3047   0.398   0.761   1.960
  716SOL    HW2 3048   0.484   0.642   1.888
  717SOL     OW 3049   6.564   4.379   5.722
  717SOL    HW1 3050   6.513   4.441   5.781
  717SOL    HW2 3051   6.656   4.367   5.759
  718SOL     OW 3052   5.092   2.590   6.231
  718SOL    HW1 3053   5.032   2.667   6.210
  718SOL    HW2 3054   5.153   2.574   6.154
  719SOL     OW 3055   6.234   0.554   1.902
  719SOL    HW1 3056   6.212   0.615   1.827
  719SOL    HW2 3057   6.304   0.488   1.873
  720SOL     OW 3058   3.025   0.551   5.870
  720SOL    HW1 3059   2.980   0.588   5.789
  720SOL    HW2 3060   2.976   0.470   5.901
  721SOL     OW 3061   2.617   2.097   3.482
  721SOL    HW1 3062   2.670   2.013   3.469
  721SOL    HW2 3063   2.657   2.171   3.428
  722SOL     OW 3064   3.211   0.366   5.587
  722SOL    HW1 3065   3.174   0.418   5.664
  722SOL    HW2 3066   3.160   0.280   5.578
  723SOL     OW 3067   2.007   5.019   3.186
  723SOL    HW1 3068   1.909   5.040   3.187
  723SOL    HW2 3069   2.021   4.922   3.202
  724SOL     OW 3070   0.973   3.141   4.832
  724SOL    HW1 3071   0.969   3.209   4.758
  724SOL    HW2 3072   0.910   3.066   4.811
  725SOL     OW 3073   2.568   5.468   0.977
  725SOL    HW1 3074   2.641   5.482   1.045
  725SOL    HW2 3075   2.503   5.401   1.012
  726SOL     OW 3076   3.831   5.290   1.408
  726SOL    HW1 3077   3.832   5.390   1.398
  726SOL    HW2 3078   3.922   5.254   1.384
  727SOL     OW 3079   5.808   4.927   5.415
  727SOL    HW1 3080   5.713   4.958   5.415
  727SOL    HW2 3081   5.829   4.884   5.327
  728SOL     OW 3082   6.793   2.802   5.192
  728SOL    HW1 3083   6.818   2.724   5.249
  728SOL    HW2 3084   6.802   2.776   5.096
  729SOL     OW 3085   1.055   2.505   1.465
  729SOL    HW1 3086   1.029   2.423   1.517
  729SOL    HW2 3087   1.076   2.580   1.527
  730SOL     OW 3088   5.398   0.256   4.918
  730SOL    HW1 3089   5.396   0.356   4.910
  730SOL    HW2 3090   5.475   0.230   4.977
  731SOL     OW 3091   4.981   4.072   6.317
  731SOL    HW1 3092   4.974   3.978   6.284
  731SOL    HW2 3093   5.063   4.081   6.374
  732SOL     OW 3094   6.986   2.588   1.468
  732SOL    HW1 3095   0.048   2.535   1.448
  732SOL    HW2 3096   6.968   2.651   1.392
  733SOL     OW 3097   5.531   6.667   5.339
  733SOL    HW1 3098   5.546   6.675   5.437
  733SOL    HW2 3099   5.605   6.614   5.298
  734SOL     OW 3100   6.752   5.263   2.833
  734SOL    HW1 3101   6.712   5.244   2.743
  734SOL    HW2 3102   6.773   5.361   2.840
  735SOL     OW 3103   4.167   1.512   0.207
  735SOL    HW1 3104   4.247   1.572   0.199
  735SOL    HW2 3105   4.099   1.555   0.266
  736SOL     OW 3106   6.731   1.478   3.842
  736SOL    HW1 3107   6.762   1.407   3.906
  736SOL    HW2 3108   6.781   1.469   3.756
  737SOL     OW 3109   4.861   1.841   4.631
  737SOL    HW1 3110   4.954   1.876   4.634
  737SOL    HW2 3111   4.863   1.741   4.625
  738SOL     OW 3112   2.369   4.241   1.509
  738SOL    HW1 3113   2.434   4.223   1.583
  738SOL    HW2 3114   2.407   4.310   1.447
  739SOL     OW 3115   5.320   0.410   4.389
  739SOL    HW1 3116   5.376   0.403   4.307
  739SOL    HW2 3117   5.344   0.337   4.453
  740SOL     OW 3118   6.555   0.752   1.232
  740SOL    HW1 3119   6.517   0.760   1.140
  740SOL    HW2 3120   6.545   0.658   1.264
  741SOL     OW 3121   2.023   6.430   3.236
  741SOL    HW1 3122   1.962   6.459   3.309
  741SOL    HW2 3123   2.051   6.510   3.182
  742SOL     OW 3124   2.904   6.632   2.290
  742SOL    HW1 3125   2.965   6.702   2.254
  742SOL    HW2 3126   2.915   6.548   2.237
  743SOL     OW 3127   6.718   4.850   3.000
  743SOL    HW1 3128   6.709   4.855   3.100
  743SOL    HW2 3129   6.784   4.918   2.969
  744SOL     OW 3130   6.028   0.486   0.064
  744SOL    HW1 3131   6.062   0.404   0.110
  744SOL    HW2 3132   6.003   0.554   0.133
  745SOL     OW 3133   1.609   4.781   4.662
  745SOL    HW1 3134   1.669   4.820   4.732
  745SOL    HW2 3135   1.541   4.723   4.704
  746SOL     OW 3136   6.894   3.712   6.916
  746SOL    HW1 3137   6.918   3.726   7.013
  746SOL    HW2 3138   6.892   3.801   6.870
  747SOL     OW 3139   3.977   6.542   4.422
  747SOL    HW1 3140   4.073   6.519   4.436
  747SOL    HW2 3141   3.932   6.467   4.372
  748SOL     OW 3142   3.937   5.026   2.167
  748SOL    HW1 3143   3.901   4.967   2.094
  748SOL    HW2 3144   4.037   5.023   2.166
  749SOL     OW 3145   5.832   3.643   5.232
  749SOL    HW1 3146   5.927   3.674   5.237
  749SOL    HW2 3147   5.789   3.678   5.149
  750SOL     OW 3148   1.829   2.374   1.255
  750SOL    HW1 3149   1.752   2.348   1.314
  750SOL    HW2 3150   1.907   2.400   1.312
  751SOL     OW 3151   3.661   2.376   0.236
  751SOL    HW1 3152   3.687   2.403   0.329
  751SOL    HW2 3153   3.660   2.457   0.177
  752SOL     OW 3154   3.323   1.101   1.702
  752SOL    HW1 3155   3.275   1.014   1.686
  752SOL    HW2 3156   3.357   1.136   1.614
  753SOL     OW 3157   2.138   2.987   5.732
  753SOL    HW1 3158   2.199   3.009   5.656
  753SOL    HW2 3159   2.049   2.961   5.696
  754SOL     OW 3160   4.931   2.692   5.452
  754SOL    HW1 3161   4.961   2.599   5.473
  754SOL    HW2 3162   4.945   2.750   5.532
  755SOL     OW 3163   1.601   4.702   6.086
  755SOL    HW1 3164   1.650   4.627   6.042
  755SOL    HW2 3165   1.521   4.666   6.135
  756SOL     OW 3166   2.934   6.623   6.510
  756SOL    HW1 3167   3.018   6.678   6.509
  756SOL    HW2 3168   2.855   6.682   6.526
  757SOL     OW 3169   0.186   0.646   3.859
  757SOL    HW1 3170   0.120   0.589   3.811
  757SOL    HW2 3171   0.214   0.600   3.943
  758SOL     OW 3172   3.660   0.736   2.391
  758SOL    HW1 3173   3.595   0.664   2.416
  758SOL    HW2 3174   3.743   0.727   2.447
  759SOL     OW 3175   6.954   1.302   1.763
  759SOL    HW1 3176   0.007   1.277   1.825
  759SOL    HW2 3177   6.988   1.303   1.669
  760SOL     OW 3178   5.918   0.167   4.976
  760SOL    HW1 3179   5.961   0.086   5.016
  760SOL    HW2 3180   5.885   0.145   4.884
  761SOL     OW 3181   5.050   3.741   6.250
  761SOL    HW1 3182   5.145   3.731   6.279
  761SOL    HW2 3183   5.047   3.785   6.161
  762SOL     OW 3184   1.973   0.072   4.461
  762SOL    HW1 3185   1.955   0.035   4.370
  762SOL    HW2 3186   1.945   0.168   4.463
  763SOL     OW 3187   4.245   5.286   6.542
  763SOL    HW1 3188   4.315   5.215   6.533
  763SOL    HW2 3189   4.287   5.371   6.573
  764SOL     OW 3190   5.113   0.695   5.311
  764SOL    HW1 3191   5.039   0.761   5.306
  764SOL    HW2 3192   5.155   0.684   5.220
  765SOL     OW 3193   1.961   5.944   1.572
  765SOL    HW1 3194   1.882   5.885   1.587
  765SOL    HW2 3195   1.933   6.023   1.517
  766SOL     OW 3196   2.569   2.874   5.837
  766SOL    HW1 3197   2.543   2.780   5.813
  766SOL    HW2 3198   2.537   2.896   5.929
  767SOL     OW 3199   6.466   5.675   1.761
  767SOL    HW1 3200   6.493   5.653   1.667
  767SOL    HW2 3201   6.483   5.773   1.778
  768SOL     OW 3202   2.588   6.665   2.507
  768SOL    HW1 3203   2.588   6.580   2.454
  768SOL    HW2 3204   2.680   6.703   2.509
  769SOL     OW 3205   2.426   0.592   4.874
  769SOL    HW1 3206   2.389   0.499   4.872
  769SOL    HW2 3207   2.486   0.606   4.796
  770SOL     OW 3208   2.156   4.792   2.979
  770SOL    HW1 3209   2.189   4.701   3.003
  770SOL    HW2 3210   2.145   4.846   3.063
  771SOL     OW 3211   1.493   5.426   2.390
  771SOL    HW1 3212   1.430   5.501   2.370
  771SOL    HW2 3213   1.526   5.388   2.304
  772SOL     OW 3214   5.351   5.753   0.031
  772SOL    HW1 3215   5.443   5.724   0.054
  772SOL    HW2 3216   5.352   5.849   0.003
  773SOL     OW 3217   6.890   4.312   4.024
  773SOL    HW1 3218   6.987   4.288   4.027
  773SOL    HW2 3219   6.847   4.269   3.945
  774SOL     OW 3220   2.012   1.631   1.812
  774SOL    HW1 3221   2.095   1.588   1.849
  774SOL    HW2 3222   2.025   1.649   1.715
  775SOL     OW 3223   1.219   2.495   3.636
  775SOL    HW1 3224   1.193   2.431   3.709
  775SOL    HW2 3225   1.162   2.577   3.642
  776SOL     OW 3226   1.304   0.301   6.173
  776SOL    HW1 3227   1.245   0.255   6.106
  776SOL    HW2 3228   1.355   0.374   6.128
  777SOL     OW 3229   2.070   4.405   1.960
  777SOL    HW1 3230   2.099   4.411   1.864
  777SOL    HW2 3231   2.063   4.308   1.986
  778SOL     OW 3232   2.279   1.590   2.248
  778SOL    HW1 3233   2.370   1.556   2.227
  778SOL    HW2 3234   2.274   1.687   2.224
  779SOL     OW 3235   6.395   2.580   1.831
  779SOL    HW1 3236   6.321   2.611   1.891
  779SOL    HW2 3237   6.391   2.481   1.822
  780SOL     OW 3238   0.010   4.004   3.913
  780SOL    HW1 3239   6.963   3.938   3.942
  780SOL    HW2 3240   0.061   3.968   3.835
  781SOL     OW 3241   6.032   6.825   6.914
  781SOL    HW1 3242   6.105   6.876   6.868
  781SOL    HW2 3243   5.959   6.806   6.849
  782SOL     OW 3244   1.709   3.701   6.365
  782SOL    HW1 3245   1.668   3.732   6.451
  782SOL    HW2 3246   1.786   3.641   6.384
  783SOL     OW 3247   4.735   5.143   1.725
  783SOL    HW1 3248   4.673   5.222   1.720
  783SOL    HW2 3249   4.779   5.140   1.815
  784SOL     OW 3250   4.590   5.037   0.818
  784SOL    HW1 3251   4.656   5.102   0.780
  784SOL    HW2 3252   4.638   4.975   0.880
  785SOL     OW 3253   0.271   2.899   3.446
  785SOL    HW1 3254   0.338   2.827   3.464
  785SOL    HW2 3255   0.243   2.895   3.350
  786SOL     OW 3256   1.373   0.957   2.874
  786SOL    HW1 3257   1.403   0.889   2.941
  786SOL    HW2 3258   1.276   0.976   2.887
  787SOL     OW 3259   2.067   0.539   6.854
  787SOL    HW1 3260   2.007   0.583   6.788
  787SOL    HW2 3261   2.121   0.609   6.902
  788SOL     OW 3262   3.892   2.225   6.817
  788SOL    HW1 3263   3.873   2.264   6.907
  788SOL    HW2 3264   3.807   2.215   6.766
  789SOL     OW 3265   4.756   3.961   0.565
  789SOL    HW1 3266   4.712   3.945   0.654
  789SOL    HW2 3267   4.687   3.960   0.493
  790SOL     OW 3268   2.130   1.263   3.639
  790SOL    HW1 3269   2.219   1.308   3.647
  790SOL    HW2 3270   2.058   1.332   3.636
  791SOL     OW 3271   1.899   5.651   3.703
  791SOL    HW1 3272   1.971   5.679   3.640
  791SOL    HW2 3273   1.939   5.599   3.779
  792SOL     OW 3274   0.808   0.757   1.057
  792SOL    HW1 3275   0.746   0.798   1.124
  792SOL    HW2 3276   0.877   0.825   1.031
  793SOL     OW 3277   4.709   5.174   3.405
  793SOL    HW1 3278   4.689   5.146   3.311
  793SOL    HW2 3279   4.787   5.121   3.440
  794SOL     OW 3280   3.311   4.192   5.784
  794SOL    HW1 3281   3.226   4.141   5.794
  794SOL    HW2 3282   3.313   4.237   5.694
  795SOL     OW 3283   2.990   6.742   4.286
  795SOL    HW1 3284   3.056   6.718   4.215
  795SOL    HW2 3285   3.032   6.809   4.349
  796SOL     OW 3286   0.178   1.599   6.690
  796SOL    HW1 3287   0.250   1.567   6.752
  796SOL    HW2 3288   0.088   1.583   6.731
  797SOL     OW 3289   5.665   2.558   0.736
  797SOL    HW1 3290   5.665   2.458   0.733
  797SOL    HW2 3291   5.705   2.588   0.823
  798SOL     OW 3292   3.793   5.717   2.174
  798SOL    HW1 3293   3.701   5.724   2.214
  798SOL    HW2 3294   3.855   5.676   2.241
  799SOL     OW 3295   6.963   6.721   5.649
  799SOL    HW1 3296   6.965   6.672   5.562
  799SOL    HW2 3297   0.023   6.779   5.657
  800SOL     OW 3298   5.343   1.499   2.938
  800SOL    HW1 3299   5.254   1.496   2.892
  800SOL    HW2 3300   5.331   1.486   3.036
  801SOL     OW 3301   1.782   4.157   4.718
  801SOL    HW1 3302   1.862   4.113   4.679
  801SOL    HW2 3303   1.704   4.095   4.715
  802SOL     OW 3304   3.652   2.220   1.122
  802SOL    HW1 3305   3.662   2.164   1.204
  802SOL    HW2 3306   3.655   2.162   1.041
  803SOL     OW 3307   0.234   6.816   5.375
  803SOL    HW1 3308   0.246   6.733   5.321
  803SOL    HW2 3309   0.158   6.870   5.338
  804SOL     OW 3310   5.728   5.573   6.529
  804SOL    HW1 3311   5.705   5.477   6.510
  804SOL    HW2 3312   5.703   5.595   6.623
  805SOL     OW 3313   2.933   0.392   4.358
  805SOL    HW1 3314   2.877   0.474   4.370
  805SOL    HW2 3315   3.024   0.417   4.325
  806SOL     OW 3316   4.694   1.641   4.300
  806SOL    HW1 3317   4.680   1.721   4.360
  806SOL    HW2 3318   4.791   1.630   4.281
  807SOL     OW 3319   1.416   1.160   5.599
  807SOL    HW1 3320   1.365   1.090   5.648
  807SOL    HW2 3321   1.418   1.244   5.653
  808SOL     OW 3322   3.526   3.488   6.280
  808SOL    HW1 3323   3.516   3.448   6.189
  808SOL    HW2 3324   3.513   3.587   6.274
  809SOL     OW 3325   0.497   4.777   1.496
  809SOL    HW1 3326   0.406   4.793   1.534
  809SOL    HW2 3327   0.488   4.730   1.408
  810SOL     OW 3328   3.854   3.633   0.894
  810SOL    HW1 3329   3.860   3.695   0.815
  810SOL    HW2 3330   3.762   3.637   0.932
  811SOL     OW 3331   4.583   5.405   5.555
  811SOL    HW1 3332   4.507   5.391   5.618
  811SOL    HW2 3333   4.567   5.489   5.502
  812SOL     OW 3334   0.239   1.237   2.456
  812SOL    HW1 3335   0.335   1.234   2.429
  812SOL    HW2 3336   0.219   1.158   2.515
  813SOL     OW 3337   4.036   0.166   4.341
  813SOL    HW1 3338   4.120   0.193   4.293
  813SOL    HW2 3339   3.969   0.240   4.335
  814SOL     OW 3340   5.884   6.477   2.295
  814SOL    HW1 3341   5.818   6.517   2.232
  814SOL    HW2 3342   5.896   6.380   2.274
  815SOL     OW 3343   0.277   4.167   3.533
  815SOL    HW1 3344   0.308   4.238   3.470
  815SOL    HW2 3345   0.356   4.128   3.581
  816SOL     OW 3346   6.420   6.512   0.082
  816SOL    HW1 3347   6.362   6.514   0.000
  816SOL    HW2 3348   6.485   6.436   0.074
  817SOL     OW 3349   1.444   5.059   1.025
  817SOL    HW1 3350   1.383   5.122   1.072
  817SOL    HW2 3351   1.390   4.984   0.985
  818SOL     OW 3352   6.299   2.671   2.699
  818SOL    HW1 3353   6.393   2.642   2.716
  818SOL    HW2 3354   6.245   2.592   2.668
  819SOL     OW 3355   5.673   2.468   2.834
  819SOL    HW1 3356   5.631   2.409   2.765
  819SOL    HW2 3357   5.606   2.491   2.904
  820SOL     OW 3358   3.540   1.960   5.153
  820SOL    HW1 3359   3.619   2.010   5.118
  820SOL    HW2 3360   3.459   2.019   5.149
  821SOL     OW 3361   0.642   4.080   1.072
  821SOL    HW1 3362   0.624   3.984   1.095
  821SOL    HW2 3363   0.556   4.124   1.047
  822SOL     OW 3364   1.309   4.398   3.640
  822SOL    HW1 3365   1.343   4.438   3.554
  822SOL    HW2 3366   1.321   4.299   3.636
  823SOL     OW 3367   4.550   3.720   6.181
  823SOL    HW1 3368   4.560   3.708   6.280
  823SOL    HW2 3369   4.613   3.791   6.150
  824SOL     OW 3370   4.964   1.568   6.557
  824SOL    HW1 3371   4.894   1.499   6.577
  824SOL    HW2 3372   5.019   1.583   6.640
  825SOL     OW 3373   6.650   4.728   1.648
  825SOL    HW1 3374   6.600   4.767   1.725
  825SOL    HW2 3375   6.746   4.758   1.652
  826SOL     OW 3376   4.053   3.134   5.838
  826SOL    HW1 3377   4.044   3.037   5.816
  826SOL    HW2 3378   3.989   3.187   5.781
  827SOL     OW 3379   2.896   4.637   5.513
  827SOL    HW1 3380   2.987   4.602   5.491
  827SOL    HW2 3381   2.829   4.598   5.451
  828SOL     OW 3382   5.997   6.504   0.105
  828SOL    HW1 3383   6.017   6.441   0.180
  828SOL    HW2 3384   6.047   6.589   0.118
  829SOL     OW 3385   4.061   3.817   2.531
  829SOL    HW1 3386   4.145   3.863   2.558
  829SOL    HW2 3387   3.983   3.877   2.548
  830SOL     OW 3388   4.905   5.307   6.298
  830SOL    HW1 3389   4.929   5.215   6.329
  830SOL    HW2 3390   4.949   5.374   6.358
  831SOL     OW 3391   6.366   0.450   0.049
  831SOL    HW1 3392   6.401   0.534   0.089
  831SOL    HW2 3393   6.279   0.469   0.003
  832SOL     OW 3394   3.800   0.695   2.156
  832SOL    HW1 3395   3.896   0.724   2.159
  832SOL    HW2 3396   3.755   0.721   2.241
  833SOL     OW 3397   1.231   3.788   5.991
  833SOL    HW1 3398   1.216   3.887   6.000
  833SOL    HW2 3399   1.146   3.739   6.008
  834SOL     OW 3400   3.853   3.813   0.689
  834SOL    HW1 3401   3.763   3.801   0.648
  834SOL    HW2 3402   3.921   3.763   0.636
  835SOL     OW 3403   3.790   0.188   5.519
  835SOL    HW1 3404   3.794   0.171   5.617
  835SOL    HW2 3405   3.818   0.105   5.470
  836SOL     OW 3406   3.987   5.921   5.826
  836SOL    HW1 3407   4.072   5.942   5.778
  836SOL    HW2 3408   3.946   5.839   5.787
  837SOL     OW 3409   5.312   0.369   0.603
  837SOL    HW1 3410   5.325   0.459   0.645
  837SOL    HW2 3411   5.383   0.353   0.535
  838SOL     OW 3412   2.272   0.603   4.329
  838SOL    HW1 3413   2.337   0.626   4.256
  838SOL    HW2 3414   2.227   0.517   4.308
  839SOL     OW 3415   1.277   2.339   2.497
  839SOL    HW1 3416   1.197   2.307   2.445
  839SOL    HW2 3417   1.357   2.339   2.438
  840SOL     OW 3418   6.903   5.652   0.652
  840SOL    HW1 3419   6.835   5.660   0.579
  840SOL    HW2 3420   6.980   5.714   0.633
  841SOL     OW 3421   3.558   4.980   6.823
  841SOL    HW1 3422   3.526   4.927   6.744
  841SOL    HW2 3423   3.599   4.918   6.890
  842SOL     OW 3424   3.948   0.585   4.012
  842SOL    HW1 3425   3.994   0.624   3.932
  842SOL    HW2 3426   3.869   0.532   3.982
  843SOL     OW 3427   0.641   1.495   0.953
  843SOL    HW1 3428   0.706   1.465   1.022
  843SOL    HW2 3429   0.591   1.416   0.917
  844SOL     OW 3430   5.383   0.699   0.414
  844SOL    HW1 3431   5.301   0.727   0.464
  844SOL    HW2 3432   5.447   0.776   0.408
  845SOL     OW 3433   4.884   4.372   4.970
  845SOL    HW1 3434   4.969   4.397   4.924
  845SOL    HW2 3435   4.856   4.281   4.939
  846SOL     OW 3436   2.045   1.955   6.168
  846SOL    HW1 3437   2.030   1.902   6.251
  846SOL    HW2 3438   2.083   2.044   6.191
  847SOL     OW 3439   1.170   3.219   1.437
  847SOL    HW1 3440   1.154   3.129   1.476
  847SOL    HW2 3441   1.233   3.271   1.497
  848SOL     OW 3442   6.174   0.410   6.048
  848SOL    HW1 3443   6.216   0.492   6.010
  848SOL    HW2 3444   6.098   0.436   6.107
  849SOL     OW 3445   0.159   3.378   6.197
  849SOL    HW1 3446   0.186   3.419   6.284
  849SOL    HW2 3447   0.181   3.280   6.198
  850SOL     OW 3448   5.221   0.685   3.518
  850SOL    HW1 3449   5.137   0.670   3.570
  850SOL    HW2 3450   5.203   0.750   3.444
  851SOL     OW 3451   6.976   1.866   2.728
  851SOL    HW1 3452   6.891   1.891   2.683
  851SOL    HW2 3453   7.020   1.948   2.764
  852SOL     OW 3454   0.794   3.642   0.274
  852SOL    HW1 3455   0.844   3.725   0.300
  852SOL    HW2 3456   0.859   3.571   0.246
  853SOL     OW 3457   1.317   4.462   1.056
  853SOL    HW1 3458   1.231   4.511   1.068
  853SOL    HW2 3459   1.376   4.514   0.994
  854SOL     OW 3460   5.141   5.070   0.554
  854SOL    HW1 3461   5.160   5.016   0.636
  854SOL    HW2 3462   5.220   5.068   0.493
  855SOL     OW 3463   0.062   6.972   1.838
  855SOL    HW1 3464   0.057   0.011   1.918
  855SOL    HW2 3465   0.122   7.014   1.770
  856SOL     OW 3466   1.244   2.514   5.560
  856SOL    HW1 3467   1.267   2.611   5.570
  856SOL    HW2 3468   1.317   2.467   5.511
  857SOL     OW 3469   5.871   4.605   2.141
  857SOL    HW1 3470   5.809   4.660   2.086
  857SOL    HW2 3471   5.962   4.647   2.140
  858SOL     OW 3472   2.570   3.648   1.150
  858SOL    HW1 3473   2.575   3.738   1.107
  858SOL    HW2 3474   2.561   3.658   1.249
  859SOL     OW 3475   6.152   5.974   5.413
  859SOL    HW1 3476   6.207   6.045   5.368
  859SOL    HW2 3477   6.080   5.944   5.351
  860SOL     OW 3478   5.631   2.942   0.631
  860SOL    HW1 3479   5.726   2.934   0.661
  860SOL    HW2 3480   5.581   2.859   0.655
  861SOL     OW 3481   2.819   5.780   3.208
  861SOL    HW1 3482   2.860   5.713   3.270
  861SOL    HW2 3483   2.799   5.737   3.120
  862SOL     OW 3484   1.437   3.754   4.733
  862SOL    HW1 3485   1.378   3.709   4.801
  862SOL    HW2 3486   1.492   3.825   4.778
  863SOL     OW 3487   6.440   1.328   0.893
  863SOL    HW1 3488   6.414   1.261   0.963
  863SOL    HW2 3489   6.456   1.417   0.937
  864SOL     OW 3490   4.424   5.483   3.941
  864SOL    HW1 3491   4.359   5.459   4.014
  864SOL    HW2 3492   4.386   5.557   3.886
  865SOL     OW 3493   1.164   6.636   5.915
  865SOL    HW1 3494   1.179   6.718   5.971
  865SOL    HW2 3495   1.066   6.625   5.897
  866SOL     OW 3496   2.171   2.202   2.382
  866SOL    HW1 3497   2.196   2.299   2.384
  866SOL    HW2 3498   2.212   2.159   2.301
  867SOL     OW 3499   4.342   3.252   0.522
  867SOL    HW1 3500   4.435   3.287   0.527
  867SOL    HW2 3501   4.327   3.208   0.433
  868SOL     OW 3502   5.731   1.499   0.687
  868SOL    HW1 3503   5.716   1.400   0.696
  868SOL    HW2 3504   5.793   1.529   0.758
  869SOL     OW 3505   0.495   4.583   2.805
  869SOL    HW1 3506   0.526   4.582   2.710
  869SOL    HW2 3507   0.532   4.503   2.853
  870SOL     OW 3508   4.630   3.380   0.498
  870SOL    HW1 3509   4.665   3.327   0.421
  870SOL    HW2 3510   4.656   3.334   0.584
  871SOL     OW 3511   4.568   2.400   2.689
  871SOL    HW1 3512   4.553   2.372   2.594
  871SOL    HW2 3513   4.654   2.360   2.723
  872SOL     OW 3514   5.729   3.032   3.905
  872SOL    HW1 3515   5.777   3.077   3.829
  872SOL    HW2 3516   5.638   3.004   3.875
  873SOL     OW 3517   5.874   0.008   4.294
  873SOL    HW1 3518   5.783   0.009   4.334
  873SOL    HW2 3519   5.871   6.983   4.205
  874SOL     OW 3520   0.857   4.068   5.930
  874SOL    HW1 3521   0.825   3.981   5.893
  874SOL    HW2 3522   0.845   4.140   5.862
  875SOL     OW 3523   4.020   3.664   0.544
  875SOL    HW1 3524   4.032   3.714   0.458
  875SOL    HW2 3525   4.036   3.566   0.528
  876SOL     OW 3526   0.683   4.293   2.338
  876SOL    HW1 3527   0.591   4.298   2.299
  876SOL    HW2 3528   0.744   4.247   2.273
  877SOL     OW 3529   3.935   4.656   6.272
  877SOL    HW1 3530   3.964   4.687   6.181
  877SOL    HW2 3531   3.908   4.560   6.267
  878SOL     OW 3532   3.686   6.233   5.142
  878SOL    HW1 3533   3.730   6.323   5.139
  878SOL    HW2 3534   3.616   6.232   5.213
  879SOL     OW 3535   3.789   2.149   0.848
  879SOL    HW1 3536   3.801   2.248   0.852
  879SOL    HW2 3537   3.879   2.105   0.846
  880SOL     OW 3538   3.207   4.073   4.528
  880SOL    HW1 3539   3.146   4.002   4.561
  880SOL    HW2 3540   3.289   4.031   4.489
  881SOL     OW 3541   5.077   3.883   5.149
  881SOL    HW1 3542   5.049   3.882   5.054
  881SOL    HW2 3543   5.024   3.816   5.201
  882SOL     OW 3544   0.829   2.497   4.199
  882SOL    HW1 3545   0.744   2.445   4.207
  882SOL    HW2 3546   0.808   2.594   4.192
  883SOL     OW 3547   4.540   0.055   6.519
  883SOL    HW1 3548   4.558   6.979   6.502
  883SOL    HW2 3549   4.502   0.066   6.611
  884SOL     OW 3550   6.943   4.184   0.429
  884SOL    HW1 3551   6.952   4.084   0.428
  884SOL    HW2 3552   7.000   4.222   0.502
  885SOL     OW 3553   4.597   6.146   6.052
  885SOL    HW1 3554   4.512   6.111   6.093
  885SOL    HW2 3555   4.649   6.195   6.121
  886SOL     OW 3556   4.206   0.782   1.157
  886SOL    HW1 3557   4.249   0.816   1.073
  886SOL    HW2 3558   4.223   0.684   1.166
  887SOL     OW 3559   3.813   5.591   3.989
  887SOL    HW1 3560   3.890   5.618   3.931
  887SOL    HW2 3561   3.790   5.666   4.052
  888SOL     OW 3562   6.651   5.745   2.587
  888SOL    HW1 3563   6.622   5.660   2.544
  888SOL    HW2 3564   6.740   5.773   2.552
  889SOL     OW 3565   0.925   0.378   5.767
  889SOL    HW1 3566   0.946   0.384   5.670
  889SOL    HW2 3567   0.846   0.319   5.781
  890SOL     OW 3568   1.628   5.296   2.161
  890SOL    HW1 3569   1.549   5.248   2.124
  890SOL    HW2 3570   1.670   5.352   2.089
  891SOL     OW 3571   6.428   3.756   0.707
  891SOL    HW1 3572   6.363   3.811   0.654
  891SOL    HW2 3573   6.387   3.668   0.729
  892SOL     OW 3574   3.724   4.644   5.851
  892SOL    HW1 3575   3.790   4.719   5.852
  892SOL    HW2 3576   3.701   4.621   5.756
  893SOL     OW 3577   2.323   0.700   2.522
  893SOL    HW1 3578   2.388   0.722   2.594
  893SOL    HW2 3579   2.323   0.601   2.506
  894SOL     OW 3580   0.817   2.656   3.417
  894SOL    HW1 3581   0.769   2.670   3.330
  894SOL    HW2 3582   0.874   2.735   3.437
  895SOL     OW 3583   0.942   5.294   3.836
  895SOL    HW1 3584   0.856   5.343   3.850
  895SOL    HW2 3585   0.953   5.274   3.739
  896SOL     OW 3586   5.905   6.674   1.198
  896SOL    HW1 3587   5.817   6.639   1.167
  896SOL    HW2 3588   5.972   6.667   1.124
  897SOL     OW 3589   4.239   0.904   6.628
  897SOL    HW1 3590   4.141   0.922   6.639
  897SOL    HW2 3591   4.283   0.905   6.718
  898SOL     OW 3592   3.577   6.512   3.085
  898SOL    HW1 3593   3.652   6.556   3.035
  898SOL    HW2 3594   3.551   6.569   3.162
  899SOL     OW 3595   0.462   5.692   1.043
  899SOL    HW1 3596   0.524   5.752   1.095
  899SOL    HW2 3597   0.516   5.633   0.982
  900SOL     OW 3598   4.825   5.914   0.075
  900SOL    HW1 3599   4.870   5.825   0.072
  900SOL    HW2 3600   4.822   5.953   7.004
  901SOL     OW 3601   1.184   0.955   5.213
  901SOL    HW1 3602   1.158   1.003   5.297
  901SOL    HW2 3603   1.102   0.940   5.157
  902SOL     OW 3604   0.869   2.712   0.899
  902SOL    HW1 3605   0.922   2.795   0.880
  902SOL    HW2 3606   0.846   2.667   0.813
  903SOL     OW 3607   0.510   3.251   6.631
  903SOL    HW1 3608   0.548   3.199   6.707
  903SOL    HW2 3609   0.425   3.296   6.659
  904SOL     OW 3610   2.497   2.524   2.800
  904SOL    HW1 3611   2.469   2.604   2.852
  904SOL    HW2 3612   2.458   2.529   2.708
  905SOL     OW 3613   4.980   3.933   6.010
  905SOL    HW1 3614   5.064   3.983   6.035
  905SOL    HW2 3615   4.954   3.959   5.917
  906SOL     OW 3616   0.743   2.886   6.655
  906SOL    HW1 3617   0.665   2.823   6.655
  906SOL    HW2 3618   0.806   2.860   6.582
  907SOL     OW 3619   4.892   2.340   2.366
  907SOL    HW1 3620   4.955   2.349   2.289
  907SOL    HW2 3621   4.879   2.429   2.410
  908SOL     OW 3622   2.420   5.015   2.686
  908SOL    HW1 3623   2.332   5.062   2.682
  908SOL    HW2 3624   2.470   5.030   2.600
  909SOL     OW 3625   2.928   6.024   1.979
  909SOL    HW1 3626   2.892   6.115   1.962
  909SOL    HW2 3627   2.859   5.968   2.025
  910SOL     OW 3628   3.004   1.140   0.476
  910SOL    HW1 3629   3.026   1.193   0.395
  910SOL    HW2 3630   3.051   1.180   0.555
  911SOL     OW 3631   6.876   5.613   0.353
  911SOL    HW1 3632   6.819   5.601   0.272
  911SOL    HW2 3633   6.889   5.710   0.371
  912SOL     OW 3634   5.183   0.427   3.777
  912SOL    HW1 3635   5.165   0.335   3.813
  912SOL    HW2 3636   5.272   0.430   3.733
  913SOL     OW 3637   2.310   0.968   3.718
  913SOL    HW1 3638   2.408   0.962   3.736
  913SOL    HW2 3639   2.262   1.001   3.799
  914SOL     OW 3640   2.022   5.915   5.119
  914SOL    HW1 3641   1.960   5.853   5.167
  914SOL    HW2 3642   2.101   5.864   5.084
  915SOL     OW 3643   0.971   3.337   0.759
  915SOL    HW1 3644   0.937   3.377   0.844
  915SOL    HW2 3645   1.059   3.292   0.775
  916SOL     OW 3646   1.893   3.048   2.416
  916SOL    HW1 3647   1.905   3.146   2.402
  916SOL    HW2 3648   1.901   3.000   2.328
  917SOL     OW 3649   5.775   0.881   2.313
  917SOL    HW1 3650   5.839   0.868   2.389
  917SOL    HW2 3651   5.686   0.912   2.348
  918SOL     OW 3652   3.170   0.382   0.911
  918SOL    HW1 3653   3.257   0.418   0.944
  918SOL    HW2 3654   3.102   0.388   0.983
  919SOL     OW 3655   6.438   5.985   2.986
  919SOL    HW1 3656   6.502   5.991   2.909
  919SOL    HW2 3657   6.431   6.074   3.030
  920SOL     OW 3658   2.128   5.124   2.970
  920SOL    HW1 3659   2.119   5.215   3.011
  920SOL    HW2 3660   2.055   5.065   3.004
  921SOL     OW 3661   4.611   4.326   3.328
  921SOL    HW1 3662   4.608   4.253   3.259
  921SOL    HW2 3663   4.702   4.368   3.329
  922SOL     OW 3664   3.361   3.540   5.838
  922SOL    HW1 3665   3.366   3.443   5.815
  922SOL    HW2 3666   3.272   3.576   5.812
  923SOL     OW 3667   3.226   4.852   6.012
  923SOL    HW1 3668   3.287   4.825   6.086
  923SOL    HW2 3669   3.175   4.772   5.980
  924SOL     OW 3670   5.856   2.501   3.032
  924SOL    HW1 3671   5.882   2.590   2.997
  924SOL    HW2 3672   5.777   2.467   2.981
  925SOL     OW 3673   0.331   1.483   6.892
  925SOL    HW1 3674   0.280   1.404   6.860
  925SOL    HW2 3675   0.409   1.452   6.947
  926SOL     OW 3676   5.956   1.079   0.935
  926SOL    HW1 3677   5.960   0.979   0.923
  926SOL    HW2 3678   6.007   1.104   1.017
  927SOL     OW 3679   6.361   4.076   3.285
  927SOL    HW1 3680   6.381   4.140   3.359
  927SOL    HW2 3681   6.447   4.036   3.252
  928SOL     OW 3682   1.030   5.910   0.639
  928SOL    HW1 3683   1.088   5.910   0.557
  928SOL    HW2 3684   0.940   5.872   0.617
  929SOL     OW 3685   0.393   0.913   0.993
  929SOL    HW1 3686   0.468   0.947   0.935
  929SOL    HW2 3687   0.364   0.823   0.961
  930SOL     OW 3688   5.537   5.838   3.824
  930SOL    HW1 3689   5.455   5.829   3.881
  930SOL    HW2 3690   5.564   5.747   3.791
  931SOL     OW 3691   6.193   2.204   3.605
  931SOL    HW1 3692   6.150   2.185   3.517
  931SOL    HW2 3693   6.251   2.285   3.597
  932SOL     OW 3694   3.099   6.580   3.081
  932SOL    HW1 3695   3.143   6.653   3.134
  932SOL    HW2 3696   3.145   6.494   3.101
  933SOL     OW 3697   1.502   6.123   3.342
  933SOL    HW1 3698   1.455   6.082   3.263
  933SOL    HW2 3699   1.598   6.140   3.318
  934SOL     OW 3700   2.223   0.175   6.007
  934SOL    HW1 3701   2.322   0.178   5.995
  934SOL    HW2 3702   2.192   0.261   6.048
  935SOL     OW 3703   4.450   4.871   4.597
  935SOL    HW1 3704   4.444   4.943   4.666
  935SOL    HW2 3705   4.459   4.783   4.642
  936SOL     OW 3706   1.148   0.344   5.905
  936SOL    HW1 3707   1.058   0.356   5.861
  936SOL    HW2 3708   1.179   0.431   5.941
  937SOL     OW 3709   5.086   1.221   5.109
  937SOL    HW1 3710   5.001   1.245   5.062
  937SOL    HW2 3711   5.065   1.169   5.192
  938SOL     OW 3712   6.810   5.287   5.842
  938SOL    HW1 3713   6.877   5.361   5.837
  938SOL    HW2 3714   6.718   5.326   5.854
  939SOL     OW 3715   6.327   0.154   5.561
  939SOL    HW1 3716   6.284   0.126   5.647
  939SOL    HW2 3717   6.323   0.254   5.553
  940SOL     OW 3718   0.276   2.607   2.014
  940SOL    HW1 3719   0.216   2.536   1.977
  940SOL    HW2 3720   0.313   2.577   2.102
  941SOL     OW 3721   5.210   1.259   5.965
  941SOL    HW1 3722   5.121   1.306   5.961
  941SOL    HW2 3723   5.209   1.194   6.041
  942SOL     OW 3724   5.177   6.616   3.685
  942SOL    HW1 3725   5.242   6.561   3.737
  942SOL    HW2 3726   5.148   6.695   3.739
  943SOL     OW 3727   2.165   3.424   3.891
  943SOL    HW1 3728   2.167   3.369   3.807
  943SOL    HW2 3729   2.163   3.363   3.970
  944SOL     OW 3730   0.551   4.230   5.880
  944SOL    HW1 3731   0.564   4.182   5.967
  944SOL    HW2 3732   0.638   4.231   5.830
  945SOL     OW 3733   6.074   4.386   4.679
  945SOL    HW1 3734   6.051   4.335   4.762
  945SOL    HW2 3735   5.997   4.381   4.615
  946SOL     OW 3736   5.283   2.383   6.393
  946SOL    HW1 3737   5.251   2.476   6.371
  946SOL    HW2 3738   5.296   2.332   6.309
  947SOL     OW 3739   3.977   3.066   4.104
  947SOL    HW1 3740   3.998   3.119   4.186
  947SOL    HW2 3741   3.967   3.127   4.026
  948SOL     OW 3742   3.898   0.410   1.410
  948SOL    HW1 3743   3.979   0.469   1.411
  948SOL    HW2 3744   3.910   0.335   1.475
  949SOL     OW 3745   1.028   6.468   6.520
  949SOL    HW1 3746   1.068   6.458   6.429
  949SOL    HW2 3747   0.960   6.395   6.534
  950SOL     OW 3748   4.795   5.498   1.672
  950SOL    HW1 3749   4.765   5.520   1.579
  950SOL    HW2 3750   4.733   5.431   1.713
  951SOL     OW 3751   2.108   1.516   4.009
  951SOL    HW1 3752   2.037   1.494   3.942
  951SOL    HW2 3753   2.109   1.445   4.080
  952SOL     OW 3754   5.045   1.428   3.287
  952SOL    HW1 3755   4.962   1.392   3.328
  952SOL    HW2 3756   5.053   1.526   3.308
  953SOL     OW 3757   5.370   5.020   4.141
  953SOL    HW1 3758   5.357   5.119   4.128
  953SOL    HW2 3759   5.287   4.981   4.182
  954SOL     OW 3760   4.213   5.202   0.378
  954SOL    HW1 3761   4.133   5.176   0.323
  954SOL    HW2 3762   4.222   5.138   0.454
  955SOL     OW 3763   6.926   3.735   3.340
  955SOL    HW1 3764   6.873   3.807   3.295
  955SOL    HW2 3765   7.020   3.737   3.306
  956SOL     OW 3766   6.510   1.768   2.579
  956SOL    HW1 3767   6.541   1.801   2.489
  956SOL    HW2 3768   6.572   1.696   2.610
  957SOL     OW 3769   6.338   4.239   5.023
  957SOL    HW1 3770   6.331   4.221   4.925
  957SOL    HW2 3771   6.247   4.255   5.061
  958SOL     OW 3772   4.184   2.041   1.662
  958SOL    HW1 3773   4.164   2.139   1.651
  958SOL    HW2 3774   4.098   1.990   1.659
  959SOL     OW 3775   3.856   5.569   2.842
  959SOL    HW1 3776   3.936   5.525   2.802
  959SOL    HW2 3777   3.776   5.551   2.784
  960SOL     OW 3778   1.131   6.121   1.465
  960SOL    HW1 3779   1.054   6.106   1.403
  960SOL    HW2 3780   1.096   6.144   1.556
  961SOL     OW 3781   5.201   6.901   3.787
  961SOL    HW1 3782   5.276   6.952   3.744
  961SOL    HW2 3783   5.116   6.917   3.736
  962SOL     OW 3784   0.559   0.982   5.502
  962SOL    HW1 3785   0.584   1.077   5.483
  962SOL    HW2 3786   0.482   0.957   5.445
  963SOL     OW 3787   6.844   1.851   6.682
  963SOL    HW1 3788   6.808   1.759   6.700
  963SOL    HW2 3789   6.932   1.861   6.727
  964SOL     OW 3790   5.982   4.255   0.332
  964SOL    HW1 3791   5.963   4.158   0.348
  964SOL    HW2 3792   5.913   4.293   0.270
  965SOL     OW 3793   5.022   1.924   1.161
  965SOL    HW1 3794   4.970   1.940   1.077
  965SOL    HW2 3795   4.969   1.955   1.240
  966SOL     OW 3796   5.116   1.981   2.035
  966SOL    HW1 3797   5.145   1.904   1.978
  966SOL    HW2 3798   5.035   1.954   2.088
  967SOL     OW 3799   2.411   4.481   1.314
  967SOL    HW1 3800   2.493   4.465   1.259
  967SOL    HW2 3801   2.333   4.500   1.253
  968SOL     OW 3802   3.645   1.274   1.399
  968SOL    HW1 3803   3.575   1.246   1.333
  968SOL    HW2 3804   3.687   1.193   1.440
  969SOL     OW 3805   3.092   6.135   6.181
  969SOL    HW1 3806   3.184   6.160   6.212
  969SOL    HW2 3807   3.034   6.116   6.260
  970SOL     OW 3808   5.241   0.678   5.769
  970SOL    HW1 3809   5.221   0.648   5.676
  970SOL    HW2 3810   5.161   0.723   5.807
  971SOL     OW 3811   6.498   2.135   3.173
  971SOL    HW1 3812   6.447   2.051   3.154
  971SOL    HW2 3813   6.533   2.133   3.266
  972SOL     OW 3814   5.283   3.285   2.309
  972SOL    HW1 3815   5.289   3.217   2.382
  972SOL    HW2 3816   5.258   3.374   2.348
  973SOL     OW 3817   0.161   4.635   0.360
  973SOL    HW1 3818   0.209   4.550   0.337
  973SOL    HW2 3819   0.138   4.635   0.457
  974SOL     OW 3820   5.194   6.538   2.229
  974SOL    HW1 3821   5.183   6.626   2.276
  974SOL    HW2 3822   5.142   6.468   2.278
  975SOL     OW 3823   1.091   6.693   6.643
  975SOL    HW1 3824   1.065   6.603   6.608
  975SOL    HW2 3825   1.034   6.763   6.600
  976SOL     OW 3826   6.739   3.740   3.046
  976SOL    HW1 3827   6.828   3.748   3.002
  976SOL    HW2 3828   6.733   3.653   3.095
  977SOL     OW 3829   1.297   0.929   2.162
  977SOL    HW1 3830   1.202   0.939   2.192
  977SOL    HW2 3831   1.336   0.846   2.202
  978SOL     OW 3832   4.364   3.684   5.981
  978SOL    HW1 3833   4.364   3.602   5.924
  978SOL    HW2 3834   4.426   3.672   6.058
  979SOL     OW 3835   0.389   1.904   0.722
  979SOL    HW1 3836   0.416   1.809   0.706
  979SOL    HW2 3837   0.290   1.913   0.712
  980SOL     OW 3838   4.361   2.266   4.203
  980SOL    HW1 3839   4.298   2.197   4.168
  980SOL    HW2 3840   4.453   2.227   4.209
  981SOL     OW 3841   0.252   1.795   5.188
  981SOL    HW1 3842   0.245   1.888   5.223
  981SOL    HW2 3843   0.245   1.795   5.089
  982SOL     OW 3844   2.592   2.256   4.297
  982SOL    HW1 3845   2.564   2.303   4.213
  982SOL    HW2 3846   2.691   2.260   4.306
  983SOL     OW 3847   5.788   2.651   5.411
  983SOL    HW1 3848   5.719   2.580   5.427
  983SOL    HW2 3849   5.814   2.650   5.314
  984SOL     OW 3850   2.355   1.812   5.083
  984SOL    HW1 3851   2.340   1.877   5.008
  984SOL    HW2 3852   2.390   1.862   5.162
  985SOL     OW 3853   5.595   3.886   5.315
  985SOL    HW1 3854   5.637   3.803   5.278
  985SOL    HW2 3855   5.511   3.906   5.266
  986SOL     OW 3856   5.908   4.659   1.228
  986SOL    HW1 3857   5.951   4.682   1.316
  986SOL    HW2 3858   5.849   4.579   1.240
  987SOL     OW 3859   4.513   6.875   1.984
  987SOL    HW1 3860   4.592   6.823   2.018
  987SOL    HW2 3861   4.543   6.937   1.911
  988SOL     OW 3862   3.433   3.515   2.552
  988SOL    HW1 3863   3.428   3.476   2.645
  988SOL    HW2 3864   3.340   3.521   2.514
  989SOL     OW 3865   6.055   0.974   5.878
  989SOL    HW1 3866   6.013   1.059   5.910
  989SOL    HW2 3867   5.991   0.926   5.817
  990SOL     OW 3868   4.120   0.574   2.191
  990SOL    HW1 3869   4.100   0.667   2.223
  990SOL    HW2 3870   4.094   0.566   2.095
  991SOL     OW 3871   0.915   2.719   5.547
  991SOL    HW1 3872   0.916   2.735   5.645
  991SOL    HW2 3873   0.847   2.649   5.525
  992SOL     OW 3874   0.041   2.869   2.175
  992SOL    HW1 3875   0.011   2.790   2.121
  992SOL    HW2 3876   6.982   2.920   2.208
  993SOL     OW 3877   0.753   4.604   1.208
  993SOL    HW1 3878   0.657   4.634   1.207
  993SOL    HW2 3879   0.810   4.674   1.251
  994SOL     OW 3880   4.076   4.353   1.364
  994SOL    HW1 3881   4.020   4.339   1.445
  994SOL    HW2 3882   4.156   4.408   1.389
  995SOL     OW 3883   3.887   3.055   5.007
  995SOL    HW1 3884   3.813   3.015   5.060
  995SOL    HW2 3885   3.974   3.044   5.056
  996SOL     OW 3886   3.007   4.898   4.476
  996SOL    HW1 3887   3.006   4.861   4.383
  996SOL    HW2 3888   2.917   4.889   4.517
  997SOL     OW 3889   1.140   0.649   2.990
  997SOL    HW1 3890   1.204   0.671   2.916
  997SOL    HW2 3891   1.110   0.554   2.981
  998SOL     OW 3892   4.782   0.225   4.355
  998SOL    HW1 3893   4.692   0.244   4.394
  998SOL    HW2 3894   4.772   0.208   4.257
  999SOL     OW 3895   4.806   4.127   2.898
  999SOL    HW1 3896   4.816   4.029   2.914
  999SOL    HW2 3897   4.866   4.155   2.823
 1000SOL     OW 3898   2.398   1.174   1.914
 1000SOL    HW1 3899   2.301   1.198   1.921
 1000SOL    HW2 3900   2.438   1.173   2.005
 1001SOL     OW 3901   4.682   5.692   0.512
 1001SOL    HW1 3902   4.697   5.687   0.414
 1001SOL    HW2 3903   4.764   5.730   0.557
 1002SOL     OW 3904   6.091   1.430   1.443
 1002SOL    HW1 3905   6.160   1.362   1.418
 1002SOL    HW2 3906   6.086   1.437   1.543
 1003SOL     OW 3907   2.093   6.457   2.527
 1003SOL    HW1 3908   2.137   6.375   2.563
 1003SOL    HW2 3909   2.162   6.524   2.502
 1004SOL     OW 3910   0.615   0.109   2.650
 1004SOL    HW1 3911   0.691   0.146   2.704
 1004SOL    HW2 3912   0.620   0.146   2.557
 1005SOL     OW 3913   2.231   2.828   4.080
 1005SOL    HW1 3914   2.229   2.888   4.000
 1005SOL    HW2 3915   2.164   2.859   4.147
 1006SOL     OW 3916   0.776   4.844   1.546
 1006SOL    HW1 3917   0.692   4.802   1.512
 1006SOL    HW2 3918   0.763   4.873   1.641
 1007SOL     OW 3919   4.491   7.001   4.874
 1007SOL    HW1 3920   4.541   0.038   4.939
 1007SOL    HW2 3921   4.415   6.957   4.922
 1008SOL     OW 3922   1.568   3.044   5.349
 1008SOL    HW1 3923   1.492   3.017   5.290
 1008SOL    HW2 3924   1.560   2.997   5.437
 1009SOL     OW 3925   0.524   5.542   5.103
 1009SOL    HW1 3926   0.452   5.519   5.038
 1009SOL    HW2 3927   0.612   5.548   5.055
 1010SOL     OW 3928   3.751   2.777   6.114
 1010SOL    HW1 3929   3.837   2.828   6.122
 1010SOL    HW2 3930   3.764   2.685   6.150
 1011SOL     OW 3931   2.455   4.399   2.492
 1011SOL    HW1 3932   2.427   4.396   2.588
 1011SOL    HW2 3933   2.528   4.467   2.480
 1012SOL     OW 3934   6.899   0.727   2.377
 1012SOL    HW1 3935   6.813   0.745   2.424
 1012SOL    HW2 3936   6.970   0.708   2.445
 1013SOL     OW 3937   1.261   0.728   5.754
 1013SOL    HW1 3938   1.307   0.651   5.709
 1013SOL    HW2 3939   1.181   0.694   5.804
 1014SOL     OW 3940   6.161   5.250   6.530
 1014SOL    HW1 3941   6.101   5.309   6.584
 1014SOL    HW2 3942   6.108   5.209   6.456
 1015SOL     OW 3943   2.447   6.547   6.082
 1015SOL    HW1 3944   2.421   6.544   6.178
 1015SOL    HW2 3945   2.538   6.589   6.073
 1016SOL     OW 3946   3.830   3.441   6.854
 1016SOL    HW1 3947   3.762   3.402   6.915
 1016SOL    HW2 3948   3.836   3.386   6.771
 1017SOL     OW 3949   4.164   2.656   1.231
 1017SOL    HW1 3950   4.191   2.567   1.194
 1017SOL    HW2 3951   4.244   2.702   1.268
 1018SOL     OW 3952   0.092   4.452   4.252
 1018SOL    HW1 3953   0.075   4.500   4.338
 1018SOL    HW2 3954   0.088   4.353   4.267
 1019SOL     OW 3955   6.989   6.651   1.067
 1019SOL    HW1 3956   6.998   6.631   0.970
 1019SOL    HW2 3957   0.059   6.667   1.106
 1020SOL     OW 3958   0.211   1.037   1.146
 1020SOL    HW1 3959   0.196   0.968   1.217
 1020SOL    HW2 3960   0.280   1.004   1.081
 1021SOL     OW 3961   5.634   0.248   1.323
 1021SOL    HW1 3962   5.688   0.261   1.240
 1021SOL    HW2 3963   5.609   0.152   1.332
 1022SOL     OW 3964   3.623   4.571   5.599
 1022SOL    HW1 3965   3.524   4.581   5.610
 1022SOL    HW2 3966   3.657   4.641   5.536
 1023SOL     OW 3967   0.989   6.910   3.003
 1023SOL    HW1 3968   0.996   6.926   2.904
 1023SOL    HW2 3969   1.006   6.813   3.022
 1024SOL     OW 3970   0.555   2.756   3.906
 1024SOL    HW1 3971   0.458   2.734   3.918
 1024SOL    HW2 3972   0.604   2.675   3.875
 1025SOL     OW 3973   3.458   3.342   1.085
 1025SOL    HW1 3974   3.429   3.247   1.082
 1025SOL    HW2 3975   3.379   3.401   1.103
 1026SOL     OW 3976   2.323   2.850   0.926
 1026SOL    HW1 3977   2.365   2.818   1.011
 1026SOL    HW2 3978   2.374   2.814   0.847
 1027SOL     OW 3979   3.044   6.408   1.403
 1027SOL    HW1 3980   3.057   6.451   1.493
 1027SOL    HW2 3981   2.968   6.453   1.356
 1028SOL     OW 3982   2.764   6.491   0.530
 1028SOL    HW1 3983   2.697   6.558   0.497
 1028SOL    HW2 3984   2.743   6.401   0.492
 1029SOL     OW 3985   1.539   0.164   6.726
 1029SOL    HW1 3986   1.485   0.082   6.744
 1029SOL    HW2 3987   1.486   0.245   6.750
 1030SOL     OW 3988   3.108   2.747   1.799
 1030SOL    HW1 3989   3.095   2.653   1.832
 1030SOL    HW2 3990   3.026   2.776   1.750
 1031SOL     OW 3991   5.569   4.201   1.198
 1031SOL    HW1 3992   5.577   4.296   1.227
 1031SOL    HW2 3993   5.619   4.188   1.113
 1032SOL     OW 3994   2.153   2.237   5.369
 1032SOL    HW1 3995   2.095   2.166   5.329
 1032SOL    HW2 3996   2.099   2.320   5.384
 1033SOL     OW 3997   1.577   6.626   1.487
 1033SOL    HW1 3998   1.615   6.605   1.397
 1033SOL    HW2 3999   1.623   6.707   1.525
 1034SOL     OW 4000   0.227   5.173   4.461
 1034SOL    HW1 4001   0.313   5.150   4.415
 1034SOL    HW2 4002   0.162   5.098   4.449
 1035SOL     OW 4003   0.236   0.930   4.911
 1035SOL    HW1 4004   0.148   0.885   4.922
 1035SOL    HW2 4005   0.225   1.028   4.923
 1036SOL     OW 4006   3.483   1.432   1.590
 1036SOL    HW1 4007   3.511   1.386   1.506
 1036SOL    HW2 4008   3.526   1.523   1.593
 1037SOL     OW 4009   1.835   1.391   1.778
 1037SOL    HW1 4010   1.893   1.472   1.784
 1037SOL    HW2 4011   1.797   1.371   1.868
 1038SOL     OW 4012   1.188   0.451   4.782
 1038SOL    HW1 4013   1.252   0.452   4.859
 1038SOL    HW2 4014   1.145   0.541   4.773
 1039SOL     OW 4015   3.659   3.869   5.660
 1039SOL    HW1 4016   3.716   3.825   5.591
 1039SOL    HW2 4017   3.563   3.849   5.642
 1040SOL     OW 4018   4.646   1.513   2.614
 1040SOL    HW1 4019   4.576   1.445   2.634
 1040SOL    HW2 4020   4.634   1.592   2.675
 1041SOL     OW 4021   6.741   7.014   3.608
 1041SOL    HW1 4022   6.806   0.068   3.617
 1041SOL    HW2 4023   6.661   0.023   3.556
 1042SOL     OW 4024   4.870   4.921   2.314
 1042SOL    HW1 4025   4.795   4.978   2.347
 1042SOL    HW2 4026   4.957   4.959   2.344
 1043SOL     OW 4027   3.601   1.467   5.059
 1043SOL    HW1 4028   3.667   1.504   4.994
 1043SOL    HW2 4029   3.513   1.456   5.015
 1044SOL     OW 4030   5.343   5.204   2.563
 1044SOL    HW1 4031   5.386   5.125   2.519
 1044SOL    HW2 4032   5.406   5.281   2.562
 1045SOL     OW 4033   4.120   6.543   2.156
 1045SOL    HW1 4034   4.180   6.487   2.100
 1045SOL    HW2 4035   4.075   6.486   2.225
 1046SOL     OW 4036   1.691   0.784   0.679
 1046SOL    HW1 4037   1.742   0.724   0.740
 1046SOL    HW2 4038   1.602   0.805   0.719
 1047SOL     OW 4039   1.941   0.978   3.552
 1047SOL    HW1 4040   1.932   0.979   3.452
 1047SOL    HW2 4041   2.030   1.014   3.577
 1048SOL     OW 4042   4.650   6.192   3.803
 1048SOL    HW1 4043   4.649   6.235   3.893
 1048SOL    HW2 4044   4.633   6.094   3.812
 1049SOL     OW 4045   6.464   6.142   3.736
 1049SOL    HW1 4046   6.538   6.201   3.767
 1049SOL    HW2 4047   6.478   6.049   3.771
 1050SOL     OW 4048   4.083   5.078   1.199
 1050SOL    HW1 4049   4.083   5.174   1.169
 1050SOL    HW2 4050   4.048   5.020   1.126
 1051SOL     OW 4051   2.093   6.221   0.843
 1051SOL    HW1 4052   2.017   6.164   0.875
 1051SOL    HW2 4053   2.174   6.164   0.831
 1052SOL     OW 4054   3.903   0.894   4.736
 1052SOL    HW1 4055   3.965   0.836   4.683
 1052SOL    HW2 4056   3.846   0.948   4.673
 1053SOL     OW 4057   5.680   5.211   3.146
 1053SOL    HW1 4058   5.716   5.195   3.055
 1053SOL    HW2 4059   5.748   5.184   3.214
 1054SOL     OW 4060   3.116   4.040   6.259
 1054SOL    HW1 4061   3.120   4.133   6.224
 1054SOL    HW2 4062   3.124   3.975   6.183
 1055SOL     OW 4063   3.511   6.586   4.802
 1055SOL    HW1 4064   3.601   6.589   4.759
 1055SOL    HW2 4065   3.451   6.526   4.749
 1056SOL     OW 4066   1.637   5.321   6.211
 1056SOL    HW1 4067   1.697   5.317   6.131
 1056SOL    HW2 4068   1.545   5.295   6.184
 1057SOL     OW 4069   2.782   3.281   1.853
 1057SOL    HW1 4070   2.773   3.292   1.952
 1057SOL    HW2 4071   2.737   3.196   1.825
 1058SOL     OW 4072   5.090   1.213   3.059
 1058SOL    HW1 4073   5.142   1.267   3.126
 1058SOL    HW2 4074   5.064   1.125   3.100
 1059SOL     OW 4075   2.831   0.704   1.591
 1059SOL    HW1 4076   2.876   0.730   1.505
 1059SOL    HW2 4077   2.790   0.785   1.633
 1060SOL     OW 4078   0.257   4.295   4.872
 1060SOL    HW1 4079   0.248   4.267   4.967
 1060SOL    HW2 4080   0.166   4.298   4.830
 1061SOL     OW 4081   5.934   2.860   0.706
 1061SOL    HW1 4082   6.005   2.899   0.647
 1061SOL    HW2 4083   5.977   2.812   0.783
 1062SOL     OW 4084   5.519   4.080   6.035
 1062SOL    HW1 4085   5.422   4.074   6.011
 1062SOL    HW2 4086   5.570   4.010   5.985
 1063SOL     OW 4087   1.682   5.093   1.713
 1063SOL    HW1 4088   1.724   5.111   1.802
 1063SOL    HW2 4089   1.702   5.168   1.650
 1064SOL     OW 4090   1.576   3.933   2.039
 1064SOL    HW1 4091   1.672   3.934   2.066
 1064SOL    HW2 4092   1.546   4.027   2.020
 1065SOL     OW 4093   3.521   7.018   3.612
 1065SOL    HW1 4094   3.556   0.062   3.679
 1065SOL    HW2 4095   3.441   6.971   3.650
 1066SOL     OW 4096   4.554   6.300   3.102
 1066SOL    HW1 4097   4.603   6.230   3.154
 1066SOL    HW2 4098   4.470   6.325   3.151
 1067SOL     OW 4099   0.684   3.477   0.897
 1067SOL    HW1 4100   0.590   3.443   0.899
 1067SOL    HW2 4101   0.733   3.444   0.978
 1068SOL     OW 4102   5.702   5.693   3.045
 1068SOL    HW1 4103   5.655   5.606   3.061
 1068SOL    HW2 4104   5.663   5.762   3.106
 1069SOL     OW 4105   4.322   5.194   1.282
 1069SOL    HW1 4106   4.298   5.270   1.343
 1069SOL    HW2 4107   4.241   5.137   1.268
 1070SOL     OW 4108   6.892   0.306   2.269
 1070SOL    HW1 4109   6.974   0.361   2.275
 1070SOL    HW2 4110   6.877   0.259   2.357
 1071SOL     OW 4111   1.176   0.319   3.833
 1071SOL    HW1 4112   1.254   0.263   3.859
 1071SOL    HW2 4113   1.113   0.327   3.910
 1072SOL     OW 4114   2.138   1.095   1.245
 1072SOL    HW1 4115   2.160   1.129   1.153
 1072SOL    HW2 4116   2.196   1.142   1.312
 1073SOL     OW 4117   5.107   6.838   2.037
 1073SOL    HW1 4118   5.146   6.859   2.126
 1073SOL    HW2 4119   5.104   6.922   1.981
 1074SOL     OW 4120   2.257   5.528   1.040
 1074SOL    HW1 4121   2.295   5.446   1.083
 1074SOL    HW2 4122   2.316   5.606   1.061
 1075SOL     OW 4123   5.033   6.853   4.004
 1075SOL    HW1 4124   5.106   6.884   3.943
 1075SOL    HW2 4125   5.035   6.753   4.011
 1076SOL     OW 4126   6.796   2.590   5.613
 1076SOL    HW1 4127   6.752   2.679   5.595
 1076SOL    HW2 4128   6.739   2.538   5.677
 1077SOL     OW 4129   5.902   0.685   1.438
 1077SOL    HW1 4130   5.917   0.721   1.530
 1077SOL    HW2 4131   5.923   0.756   1.371
 1078SOL     OW 4132   1.261   1.480   2.441
 1078SOL    HW1 4133   1.340   1.541   2.439
 1078SOL    HW2 4134   1.287   1.393   2.484
 1079SOL     OW 4135   2.128   6.137   2.239
 1079SOL    HW1 4136   2.055   6.201   2.266
 1079SOL    HW2 4137   2.198   6.136   2.310
 1080SOL     OW 4138   1.085   4.265   3.801
 1080SOL    HW1 4139   1.087   4.210   3.718
 1080SOL    HW2 4140   1.129   4.215   3.876
 1081SOL     OW 4141   0.636   5.789   5.811
 1081SOL    HW1 4142   0.710   5.781   5.744
 1081SOL    HW2 4143   0.552   5.817   5.765
 1082SOL     OW 4144   4.227   1.880   5.572
 1082SOL    HW1 4145   4.277   1.828   5.504
 1082SOL    HW2 4146   4.130   1.858   5.566
 1083SOL     OW 4147   3.942   3.871   0.095
 1083SOL    HW1 4148   3.857   3.832   0.060
 1083SOL    HW2 4149   4.019   3.817   0.063
 1084SOL     OW 4150   5.624   5.906   6.658
 1084SOL    HW1 4151   5.648   5.812   6.681
 1084SOL    HW2 4152   5.571   5.947   6.733
 1085SOL     OW 4153   1.448   3.563   3.955
 1085SOL    HW1 4154   1.516   3.502   3.915
 1085SOL    HW2 4155   1.462   3.566   4.054
 1086SOL     OW 4156   6.818   6.051   0.641
 1086SOL    HW1 4157   6.736   6.083   0.688
 1086SOL    HW2 4158   6.812   6.075   0.544
 1087SOL     OW 4159   5.500   1.857   4.585
 1087SOL    HW1 4160   5.541   1.936   4.540
 1087SOL    HW2 4161   5.436   1.813   4.523
 1088SOL     OW 4162   6.836   4.893   3.245
 1088SOL    HW1 4163   6.868   4.851   3.331
 1088SOL    HW2 4164   6.908   4.953   3.209
 1089SOL     OW 4165   1.656   6.382   4.282
 1089SOL    HW1 4166   1.648   6.337   4.193
 1089SOL    HW2 4167   1.751   6.374   4.314
 1090SOL     OW 4168   2.435   2.230   3.619
 1090SOL    HW1 4169   2.496   2.172   3.565
 1090SOL    HW2 4170   2.485   2.310   3.652
 1091SOL     OW 4171   3.350   1.417   4.951
 1091SOL    HW1 4172   3.306   1.466   4.876
 1091SOL    HW2 4173   3.283   1.398   5.022
 1092SOL     OW 4174   2.021   3.864   1.469
 1092SOL    HW1 4175   1.966   3.836   1.391
 1092SOL    HW2 4176   1.981   3.828   1.553
 1093SOL     OW 4177   2.225   1.502   1.970
 1093SOL    HW1 4178   2.177   1.421   1.937
 1093SOL    HW2 4179   2.220   1.506   2.070
 1094SOL     OW 4180   0.646   7.015   3.291
 1094SOL    HW1 4181   0.719   6.994   3.356
 1094SOL    HW2 4182   0.658   6.958   3.209
 1095SOL     OW 4183   0.516   2.691   6.626
 1095SOL    HW1 4184   0.501   2.705   6.528
 1095SOL    HW2 4185   0.492   2.596   6.649
 1096SOL     OW 4186   3.510   4.284   1.737
 1096SOL    HW1 4187   3.492   4.238   1.824
 1096SOL    HW2 4188   3.609   4.288   1.721
 1097SOL     OW 4189   1.999   4.404   3.940
 1097SOL    HW1 4190   1.913   4.437   3.901
 1097SOL    HW2 4191   2.005   4.432   4.036
 1098SOL     OW 4192   3.679   3.693   6.977
 1098SOL    HW1 4193   3.690   3.769   6.913
 1098SOL    HW2 4194   3.673   3.607   6.926
 1099SOL     OW 4195   3.968   1.539   5.609
 1099SOL    HW1 4196   3.888   1.598   5.596
 1099SOL    HW2 4197   3.993   1.538   5.706
 1100SOL     OW 4198   3.416   1.858   5.425
 1100SOL    HW1 4199   3.499   1.855   5.480
 1100SOL    HW2 4200   3.439   1.887   5.332
 1101SOL     OW 4201   6.204   2.278   6.831
 1101SOL    HW1 4202   6.151   2.197   6.804
 1101SOL    HW2 4203   6.301   2.253   6.833
 1102SOL     OW 4204   0.505   6.486   5.154
 1102SOL    HW1 4205   0.503   6.537   5.068
 1102SOL    HW2 4206   0.599   6.481   5.187
 1103SOL     OW 4207   3.593   1.550   0.063
 1103SOL    HW1 4208   3.549   1.625   0.111
 1103SOL    HW2 4209   3.528   1.475   0.051
 1104SOL     OW 4210   2.122   2.687   5.505
 1104SOL    HW1 4211   2.188   2.620   5.539
 1104SOL    HW2 4212   2.170   2.760   5.457
 1105SOL     OW 4213   6.390   3.827   5.183
 1105SOL    HW1 4214   6.389   3.767   5.104
 1105SOL    HW2 4215   6.314   3.892   5.176
 1106SOL     OW 4216   0.447   2.337   1.923
 1106SOL    HW1 4217   0.422   2.256   1.869
 1106SOL    HW2 4218   0.398   2.336   2.010
 1107SOL     OW 4219   0.913   0.722   6.904
 1107SOL    HW1 4220   0.874   0.755   6.818
 1107SOL    HW2 4221   1.010   0.747   6.909
 1108SOL     OW 4222   3.538   0.118   6.237
 1108SOL    HW1 4223   3.557   0.073   6.150
 1108SOL    HW2 4224   3.526   0.049   6.308
 1109SOL     OW 4225   5.038   1.017   4.823
 1109SOL    HW1 4226   5.022   1.111   4.851
 1109SOL    HW2 4227   5.136   1.004   4.806
 1110SOL     OW 4228   2.774   1.205   3.178
 1110SOL    HW1 4229   2.826   1.136   3.126
 1110SOL    HW2 4230   2.736   1.272   3.115
 1111SOL     OW 4231   4.550   5.233   6.224
 1111SOL    HW1 4232   4.477   5.227   6.155
 1111SOL    HW2 4233   4.637   5.207   6.183
 1112SOL     OW 4234   5.084   1.317   2.145
 1112SOL    HW1 4235   5.143   1.256   2.198
 1112SOL    HW2 4236   5.037   1.381   2.206
 1113SOL     OW 4237   6.320   3.936   1.901
 1113SOL    HW1 4238   6.318   3.900   1.807
 1113SOL    HW2 4239   6.376   3.876   1.958
 1114SOL     OW 4240   3.824   1.792   6.847
 1114SOL    HW1 4241   3.757   1.848   6.895
 1114SOL    HW2 4242   3.858   1.841   6.767
 1115SOL     OW 4243   3.873   3.253   6.566
 1115SOL    HW1 4244   3.937   3.304   6.508
 1115SOL    HW2 4245   3.780   3.289   6.552
 1116SOL     OW 4246   5.110   6.741   6.213
 1116SOL    HW1 4247   5.069   6.826   6.245
 1116SOL    HW2 4248   5.129   6.748   6.115
 1117SOL     OW 4249   2.359   2.423   2.561
 1117SOL    HW1 4250   2.378   2.351   2.494
 1117SOL    HW2 4251   2.356   2.512   2.514
 1118SOL     OW 4252   2.644   4.774   1.056
 1118SOL    HW1 4253   2.731   4.749   1.099
 1118SOL    HW2 4254   2.628   4.872   1.070
 1119SOL     OW 4255   4.284   4.536   1.466
 1119SOL    HW1 4256   4.255   4.630   1.480
 1119SOL    HW2 4257   4.304   4.494   1.555
 1120SOL     OW 4258   6.249   6.537   6.547
 1120SOL    HW1 4259   6.279   6.529   6.452
 1120SOL    HW2 4260   6.160   6.493   6.557
 1121SOL     OW 4261   5.198   4.982   3.307
 1121SOL    HW1 4262   5.265   5.050   3.276
 1121SOL    HW2 4263   5.146   4.949   3.229
 1122SOL     OW 4264   5.484   2.909   0.027
 1122SOL    HW1 4265   5.399   2.953   0.056
 1122SOL    HW2 4266   5.532   2.873   0.108
 1123SOL     OW 4267   4.635   0.935   2.787
 1123SOL    HW1 4268   4.669   0.841   2.782
 1123SOL    HW2 4269   4.590   0.950   2.875
 1124SOL     OW 4270   0.247   3.574   5.172
 1124SOL    HW1 4271   0.305   3.529   5.241
 1124SOL    HW2 4272   0.164   3.609   5.215
 1125SOL     OW 4273   3.519   2.051   4.302
 1125SOL    HW1 4274   3.491   2.101   4.384
 1125SOL    HW2 4275   3.438   2.033   4.245
 1126SOL     OW 4276   6.302   4.904   6.801
 1126SOL    HW1 4277   6.394   4.929   6.774
 1126SOL    HW2 4278   6.260   4.980   6.851
 1127SOL     OW 4279   5.405   5.374   4.980
 1127SOL    HW1 4280   5.468   5.381   5.057
 1127SOL    HW2 4281   5.327   5.435   4.996
 1128SOL     OW 4282   5.710   1.639   5.274
 1128SOL    HW1 4283   5.688   1.681   5.185
 1128SOL    HW2 4284   5.800   1.670   5.303
 1129SOL     OW 4285   1.958   0.278   6.906
 1129SOL    HW1 4286   2.003   0.365   6.884
 1129SOL    HW2 4287   1.918   0.239   6.824
 1130SOL     OW 4288   2.766   4.685   0.822
 1130SOL    HW1 4289   2.710   4.603   0.813
 1130SOL    HW2 4290   2.729   4.742   0.897
 1131SOL     OW 4291   0.456   5.504   5.817
 1131SOL    HW1 4292   0.381   5.501   5.883
 1131SOL    HW2 4293   0.543   5.504   5.865
 1132SOL     OW 4294   5.455   0.447   1.828
 1132SOL    HW1 4295   5.496   0.521   1.775
 1132SOL    HW2 4296   5.375   0.411   1.779
 1133SOL     OW 4297   0.887   0.202   1.440
 1133SOL    HW1 4298   0.802   0.172   1.395
 1133SOL    HW2 4299   0.959   0.213   1.371
 1134SOL     OW 4300   5.083   0.629   1.729
 1134SOL    HW1 4301   5.096   0.711   1.673
 1134SOL    HW2 4302   5.034   0.654   1.812
 1135SOL     OW 4303   2.635   0.253   2.591
 1135SOL    HW1 4304   2.648   0.303   2.677
 1135SOL    HW2 4305   2.683   0.301   2.518
 1136SOL     OW 4306   3.851   4.943   3.248
 1136SOL    HW1 4307   3.939   4.896   3.257
 1136SOL    HW2 4308   3.818   4.933   3.155
 1137SOL     OW 4309   1.197   0.963   6.616
 1137SOL    HW1 4310   1.173   0.976   6.712
 1137SOL    HW2 4311   1.133   0.897   6.575
 1138SOL     OW 4312   6.814   0.635   5.543
 1138SOL    HW1 4313   6.744   0.626   5.472
 1138SOL    HW2 4314   6.889   0.692   5.509
 1139SOL     OW 4315   3.398   5.007   1.474
 1139SOL    HW1 4316   3.453   5.070   1.419
 1139SOL    HW2 4317   3.456   4.935   1.512
 1140SOL     OW 4318   4.173   1.438   1.717
 1140SOL    HW1 4319   4.189   1.455   1.814
 1140SOL    HW2 4320   4.108   1.504   1.681
 1141SOL     OW 4321   0.452   6.074   6.784
 1141SOL    HW1 4322   0.359   6.038   6.782
 1141SOL    HW2 4323   0.451   6.167   6.820
 1142SOL     OW 4324   2.794   6.903   4.414
 1142SOL    HW1 4325   2.788   7.001   4.395
 1142SOL    HW2 4326   2.853   6.859   4.347
 1143SOL     OW 4327   1.597   3.514   2.952
 1143SOL    HW1 4328   1.642   3.604   2.952
 1143SOL    HW2 4329   1.665   3.443   2.935
 1144SOL     OW 4330   6.529   4.893   4.275
 1144SOL    HW1 4331   6.574   4.966   4.327
 1144SOL    HW2 4332   6.439   4.925   4.245
 1145SOL     OW 4333   6.678   3.448   2.527
 1145SOL    HW1 4334   6.653   3.488   2.615
 1145SOL    HW2 4335   6.600   3.396   2.491
 1146SOL     OW 4336   6.705   0.351   2.615
 1146SOL    HW1 4337   6.745   0.434   2.654
 1146SOL    HW2 4338   6.774   0.278   2.616
 1147SOL     OW 4339   2.495   5.159   1.491
 1147SOL    HW1 4340   2.502   5.109   1.577
 1147SOL    HW2 4341   2.400   5.164   1.462
 1148SOL     OW 4342   5.104   6.028   0.485
 1148SOL    HW1 4343   5.136   5.999   0.395
 1148SOL    HW2 4344   5.027   6.092   0.474
 1149SOL     OW 4345   6.837   4.292   3.268
 1149SOL    HW1 4346   6.898   4.360   3.310
 1149SOL    HW2 4347   6.745   4.330   3.260
 1150SOL     OW 4348   2.407   3.942   0.621
 1150SOL    HW1 4349   2.382   3.864   0.563
 1150SOL    HW2 4350   2.451   4.012   0.564
 1151SOL     OW 4351   5.277   4.565   6.815
 1151SOL    HW1 4352   5.197   4.576   6.873
 1151SOL    HW2 4353   5.252   4.518   6.730
 1152SOL     OW 4354   5.430   4.612   6.313
 1152SOL    HW1 4355   5.470   4.700   6.338
 1152SOL    HW2 4356   5.462   4.541   6.376
 1153SOL     OW 4357   1.586   0.699   1.754
 1153SOL    HW1 4358   1.487   0.716   1.751
 1153SOL    HW2 4359   1.609   0.656   1.841
 1154SOL     OW 4360   0.077   4.435   0.818
 1154SOL    HW1 4361   0.146   4.431   0.890
 1154SOL    HW2 4362   7.007   4.423   0.858
 1155SOL     OW 4363   2.490   5.438   6.877
 1155SOL    HW1 4364   2.405   5.469   6.833
 1155SOL    HW2 4365   2.562   5.431   6.808
 1156SOL     OW 4366   4.079   1.713   4.435
 1156SOL    HW1 4367   4.179   1.706   4.442
 1156SOL    HW2 4368   4.045   1.772   4.508
 1157SOL     OW 4369   5.522   1.305   5.637
 1157SOL    HW1 4370   5.563   1.314   5.546
 1157SOL    HW2 4371   5.534   1.390   5.687
 1158SOL     OW 4372   0.062   5.100   5.156
 1158SOL    HW1 4373   0.160   5.108   5.140
 1158SOL    HW2 4374   0.027   5.019   5.109
 1159SOL     OW 4375   6.380   7.008   4.127
 1159SOL    HW1 4376   6.344   0.046   4.055
 1159SOL    HW2 4377   6.357   6.913   4.108
 1160SOL     OW 4378   5.032   4.012   0.488
 1160SOL    HW1 4379   5.098   4.019   0.563
 1160SOL    HW2 4380   4.948   3.969   0.523
 1161SOL     OW 4381   6.038   6.760   6.516
 1161SOL    HW1 4382   5.968   6.766   6.587
 1161SOL    HW2 4383   6.121   6.720   6.554
 1162SOL     OW 4384   2.960   2.266   6.593
 1162SOL    HW1 4385   2.891   2.317   6.542
 1162SOL    HW2 4386   2.990   2.188   6.538
 1163SOL     OW 4387   6.595   3.314   2.114
 1163SOL    HW1 4388   6.566   3.256   2.190
 1163SOL    HW2 4389   6.646   3.260   2.048
 1164SOL     OW 4390   6.250   3.175   4.737
 1164SOL    HW1 4391   6.286   3.169   4.830
 1164SOL    HW2 4392   6.285   3.099   4.682
 1165SOL     OW 4393   3.242   5.045   3.690
 1165SOL    HW1 4394   3.327   5.014   3.734
 1165SOL    HW2 4395   3.164   5.012   3.743
 1166SOL     OW 4396   3.777   6.739   0.121
 1166SOL    HW1 4397   3.710   6.811   0.104
 1166SOL    HW2 4398   3.764   6.664   0.056
 1167SOL     OW 4399   4.381   6.653   6.643
 1167SOL    HW1 4400   4.455   6.599   6.682
 1167SOL    HW2 4401   4.350   6.720   6.711
 1168SOL     OW 4402   5.393   2.482   3.416
 1168SOL    HW1 4403   5.370   2.405   3.357
 1168SOL    HW2 4404   5.336   2.561   3.392
 1169SOL     OW 4405   4.926   2.363   6.069
 1169SOL    HW1 4406   4.975   2.415   6.139
 1169SOL    HW2 4407   4.893   2.277   6.108
 1170SOL     OW 4408   5.103   0.792   3.286
 1170SOL    HW1 4409   5.108   0.732   3.206
 1170SOL    HW2 4410   5.030   0.762   3.347
 1171SOL     OW 4411   2.946   5.982   0.211
 1171SOL    HW1 4412   3.012   5.999   0.284
 1171SOL    HW2 4413   2.853   5.996   0.245
 1172SOL     OW 4414   2.955   4.195   1.725
 1172SOL    HW1 4415   2.920   4.104   1.702
 1172SOL    HW2 4416   2.881   4.262   1.715
 1173SOL     OW 4417   2.671   0.679   6.699
 1173SOL    HW1 4418   2.717   0.676   6.787
 1173SOL    HW2 4419   2.572   0.678   6.714
 1174SOL     OW 4420   3.565   4.781   1.176
 1174SOL    HW1 4421   3.575   4.720   1.097
 1174SOL    HW2 4422   3.536   4.727   1.256
 1175SOL     OW 4423   3.700   3.891   6.809
 1175SOL    HW1 4424   3.716   3.831   6.731
 1175SOL    HW2 4425   3.652   3.974   6.779
 1176SOL     OW 4426   6.002   4.741   6.466
 1176SOL    HW1 4427   6.065   4.670   6.495
 1176SOL    HW2 4428   5.988   4.806   6.542
 1177SOL     OW 4429   6.963   1.889   5.227
 1177SOL    HW1 4430   6.924   1.941   5.151
 1177SOL    HW2 4431   0.040   1.905   5.231
 1178SOL     OW 4432   3.373   4.016   0.755
 1178SOL    HW1 4433   3.310   4.069   0.811
 1178SOL    HW2 4434   3.324   3.977   0.677
 1179SOL     OW 4435   3.183   6.030   1.016
 1179SOL    HW1 4436   3.136   6.117   0.997
 1179SOL    HW2 4437   3.251   6.045   1.087
 1180SOL     OW 4438   1.952   5.950   3.983
 1180SOL    HW1 4439   1.949   6.019   3.911
 1180SOL    HW2 4440   1.860   5.914   3.998
 1181SOL     OW 4441   0.146   3.455   5.929
 1181SOL    HW1 4442   0.084   3.404   5.869
 1181SOL    HW2 4443   0.143   3.416   6.021
 1182SOL     OW 4444   3.047   4.861   2.864
 1182SOL    HW1 4445   3.021   4.830   2.773
 1182SOL    HW2 4446   2.979   4.831   2.930
 1183SOL     OW 4447   3.322   5.479   2.203
 1183SOL    HW1 4448   3.246   5.479   2.269
 1183SOL    HW2 4449   3.358   5.572   2.195
 1184SOL     OW 4450   6.077   6.701   6.110
 1184SOL    HW1 4451   6.035   6.785   6.144
 1184SOL    HW2 4452   6.129   6.658   6.184
 1185SOL     OW 4453   0.620   0.873   0.607
 1185SOL    HW1 4454   0.603   0.860   0.705
 1185SOL    HW2 4455   0.713   0.907   0.593
 1186SOL     OW 4456   5.500   5.971   5.522
 1186SOL    HW1 4457   5.421   5.999   5.577
 1186SOL    HW2 4458   5.559   5.912   5.577
 1187SOL     OW 4459   5.173   6.347   5.795
 1187SOL    HW1 4460   5.080   6.346   5.759
 1187SOL    HW2 4461   5.170   6.335   5.895
 1188SOL     OW 4462   3.056   5.484   6.070
 1188SOL    HW1 4463   3.029   5.486   6.167
 1188SOL    HW2 4464   3.098   5.571   6.045
 1189SOL     OW 4465   6.496   0.628   0.991
 1189SOL    HW1 4466   6.524   0.540   1.031
 1189SOL    HW2 4467   6.413   0.614   0.937
 1190SOL     OW 4468   2.919   5.402   2.749
 1190SOL    HW1 4469   2.854   5.366   2.816
 1190SOL    HW2 4470   2.998   5.342   2.744
 1191SOL     OW 4471   2.769   6.240   4.481
 1191SOL    HW1 4472   2.775   6.142   4.457
 1191SOL    HW2 4473   2.843   6.289   4.435
 1192SOL     OW 4474   5.979   6.162   3.499
 1192SOL    HW1 4475   6.056   6.133   3.442
 1192SOL    HW2 4476   6.012   6.189   3.589
 1193SOL     OW 4477   0.193   0.761   5.215
 1193SOL    HW1 4478   0.133   0.745   5.136
 1193SOL    HW2 4479   0.220   0.674   5.254
 1194SOL     OW 4480   6.643   1.312   1.583
 1194SOL    HW1 4481   6.633   1.228   1.530
 1194SOL    HW2 4482   6.703   1.295   1.661
 1195SOL     OW 4483   6.794   3.323   0.463
 1195SOL    HW1 4484   6.695   3.337   0.464
 1195SOL    HW2 4485   6.833   3.371   0.385
 1196SOL     OW 4486   6.685   4.563   3.610
 1196SOL    HW1 4487   6.690   4.622   3.691
 1196SOL    HW2 4488   6.664   4.469   3.638
 1197SOL     OW 4489   4.490   6.397   4.579
 1197SOL    HW1 4490   4.393   6.420   4.589
 1197SOL    HW2 4491   4.500   6.327   4.508
 1198SOL     OW 4492   1.250   3.734   1.951
 1198SOL    HW1 4493   1.337   3.705   1.991
 1198SOL    HW2 4494   1.176   3.681   1.992
 1199SOL     OW 4495   3.085   3.897   2.966
 1199SOL    HW1 4496   3.145   3.963   2.920
 1199SOL    HW2 4497   3.082   3.918   3.063
 1200SOL     OW 4498   3.750   4.038   4.198
 1200SOL    HW1 4499   3.738   4.104   4.271
 1200SOL    HW2 4500   3.662   3.996   4.176
 1201SOL     OW 4501   6.612   0.951   4.953
 1201SOL    HW1 4502   6.559   1.034   4.935
 1201SOL    HW2 4503   6.669   0.930   4.873
 1202SOL     OW 4504   0.337   5.951   5.319
 1202SOL    HW1 4505   0.368   5.876   5.261
 1202SOL    HW2 4506   0.324   6.033   5.263
 1203SOL     OW 4507   0.874   6.461   0.500
 1203SOL    HW1 4508   0.849   6.548   0.543
 1203SOL    HW2 4509   0.974   6.450   0.504
 1204SOL     OW 4510   4.850   1.296   1.246
 1204SOL    HW1 4511   4.825   1.199   1.249
 1204SOL    HW2 4512   4.871   1.322   1.152
 1205SOL     OW 4513   3.587   3.807   0.628
 1205SOL    HW1 4514   3.574   3.710   0.606
 1205SOL    HW2 4515   3.515   3.861   0.582
 1206SOL     OW 4516   0.975   3.350   5.027
 1206SOL    HW1 4517   1.018   3.377   5.114
 1206SOL    HW2 4518   1.024   3.272   4.988
 1207SOL     OW 4519   0.138   0.620   0.746
 1207SOL    HW1 4520   0.119   0.711   0.784
 1207SOL    HW2 4521   0.087   0.610   0.660
 1208SOL     OW 4522   3.051   3.310   1.611
 1208SOL    HW1 4523   3.136   3.270   1.644
 1208SOL    HW2 4524   2.988   3.324   1.689
 1209SOL     OW 4525   5.325   6.939   4.515
 1209SOL    HW1 4526   5.327   6.858   4.575
 1209SOL    HW2 4527   5.377   6.920   4.432
 1210SOL     OW 4528   4.047   6.373   3.733
 1210SOL    HW1 4529   3.981   6.366   3.658
 1210SOL    HW2 4530   3.998   6.387   3.819
 1211SOL     OW 4531   0.612   3.213   2.872
 1211SOL    HW1 4532   0.589   3.144   2.802
 1211SOL    HW2 4533   0.699   3.188   2.914
 1212SOL     OW 4534   6.444   6.757   6.262
 1212SOL    HW1 4535   6.473   6.828   6.197
 1212SOL    HW2 4536   6.348   6.772   6.286
 1213SOL     OW 4537   5.872   2.439   1.667
 1213SOL    HW1 4538   5.785   2.482   1.646
 1213SOL    HW2 4539   5.909   2.477   1.752
 1214SOL     OW 4540   1.038   2.480   6.869
 1214SOL    HW1 4541   0.973   2.507   6.798
 1214SOL    HW2 4542   1.111   2.424   6.830
 1215SOL     OW 4543   1.325   4.684   2.958
 1215SOL    HW1 4544   1.410   4.703   2.909
 1215SOL    HW2 4545   1.251   4.672   2.893
 1216SOL     OW 4546   5.377   1.324   0.553
 1216SOL    HW1 4547   5.428   1.374   0.623
 1216SOL    HW2 4548   5.360   1.384   0.475
 1217SOL     OW 4549   2.450   4.939   0.531
 1217SOL    HW1 4550   2.514   5.001   0.485
 1217SOL    HW2 4551   2.380   4.909   0.466
 1218SOL     OW 4552   1.727   2.443   4.970
 1218SOL    HW1 4553   1.642   2.434   4.919
 1218SOL    HW2 4554   1.707   2.474   5.063
 1219SOL     OW 4555   5.316   5.862   1.769
 1219SOL    HW1 4556   5.348   5.957   1.769
 1219SOL    HW2 4557   5.220   5.859   1.742
 1220SOL     OW 4558   6.916   4.145   2.359
 1220SOL    HW1 4559   6.920   4.199   2.275
 1220SOL    HW2 4560   6.987   4.074   2.356
 1221SOL     OW 4561   5.254   3.583   6.458
 1221SOL    HW1 4562   5.262   3.668   6.511
 1221SOL    HW2 4563   5.264   3.604   6.361
 1222SOL     OW 4564   6.515   1.348   6.352
 1222SOL    HW1 4565   6.589   1.380   6.410
 1222SOL    HW2 4566   6.553   1.302   6.271
 1223SOL     OW 4567   3.818   0.932   0.230
 1223SOL    HW1 4568   3.779   0.906   0.142
 1223SOL    HW2 4569   3.818   0.854   0.291
 1224SOL     OW 4570   2.966   6.192   6.656
 1224SOL    HW1 4571   2.982   6.266   6.592
 1224SOL    HW2 4572   2.897   6.130   6.619
 1225SOL     OW 4573   3.604   2.436   6.633
 1225SOL    HW1 4574   3.517   2.416   6.589
 1225SOL    HW2 4575   3.590   2.446   6.731
 1226SOL     OW 4576   3.651   6.453   0.488
 1226SOL    HW1 4577   3.731   6.501   0.451
 1226SOL    HW2 4578   3.675   6.412   0.576
 1227SOL     OW 4579   5.033   4.888   5.711
 1227SOL    HW1 4580   5.101   4.825   5.747
 1227SOL    HW2 4581   5.079   4.964   5.664
 1228SOL     OW 4582   2.654   2.288   6.273
 1228SOL    HW1 4583   2.580   2.340   6.315
 1228SOL    HW2 4584   2.633   2.190   6.277
 1229SOL     OW 4585   2.350   5.199   6.942
 1229SOL    HW1 4586   2.285   5.222   7.014
 1229SOL    HW2 4587   2.417   5.273   6.932
 1230SOL     OW 4588   5.404   6.641   1.582
 1230SOL    HW1 4589   5.308   6.664   1.595
 1230SOL    HW2 4590   5.426   6.558   1.634
 1231SOL     OW 4591   1.835   1.804   5.288
 1231SOL    HW1 4592   1.748   1.760   5.305
 1231SOL    HW2 4593   1.883   1.756   5.214
 1232SOL     OW 4594   6.708   1.423   4.922
 1232SOL    HW1 4595   6.679   1.421   5.018
 1232SOL    HW2 4596   6.629   1.434   4.863
 1233SOL     OW 4597   0.792   5.539   4.993
 1233SOL    HW1 4598   0.826   5.628   4.965
 1233SOL    HW2 4599   0.789   5.478   4.914
 1234SOL     OW 4600   6.143   3.043   5.842
 1234SOL    HW1 4601   6.126   3.117   5.778
 1234SOL    HW2 4602   6.131   2.955   5.796
 1235SOL     OW 4603   6.011   5.518   1.782
 1235SOL    HW1 4604   5.935   5.579   1.757
 1235SOL    HW2 4605   6.058   5.555   1.862
 1236SOL     OW 4606   4.677   0.601   0.846
 1236SOL    HW1 4607   4.595   0.543   0.847
 1236SOL    HW2 4608   4.675   0.660   0.766
 1237SOL     OW 4609   1.875   4.370   6.170
 1237SOL    HW1 4610   1.949   4.380   6.104
 1237SOL    HW2 4611   1.869   4.274   6.199
 1238SOL     OW 4612   1.391   0.914   6.361
 1238SOL    HW1 4613   1.430   0.979   6.426
 1238SOL    HW2 4614   1.298   0.892   6.388
 1239SOL     OW 4615   0.167   0.123   0.397
 1239SOL    HW1 4616   0.255   0.084   0.370
 1239SOL    HW2 4617   0.144   0.094   0.489
 1240SOL     OW 4618   5.968   6.020   0.477
 1240SOL    HW1 4619   6.059   5.979   0.483
 1240SOL    HW2 4620   5.901   5.959   0.520
 1241SOL     OW 4621   5.651   4.322   5.368
 1241SOL    HW1 4622   5.552   4.319   5.375
 1241SOL    HW2 4623   5.685   4.233   5.338
 1242SOL     OW 4624   1.775   3.595   1.141
 1242SOL    HW1 4625   1.834   3.515   1.151
 1242SOL    HW2 4626   1.694   3.584   1.197
 1243SOL     OW 4627   0.764   0.430   5.053
 1243SOL    HW1 4628   0.784   0.526   5.036
 1243SOL    HW2 4629   0.846   0.384   5.088
 1244SOL     OW 4630   5.698   6.291   4.126
 1244SOL    HW1 4631   5.632   6.240   4.071
 1244SOL    HW2 4632   5.779   6.312   4.072
 1245SOL     OW 4633   5.701   4.360   0.268
 1245SOL    HW1 4634   5.623   4.410   0.230
 1245SOL    HW2 4635   5.670   4.274   0.308
 1246SOL     OW 4636   3.253   1.191   1.393
 1246SOL    HW1 4637   3.317   1.246   1.340
 1246SOL    HW2 4638   3.253   1.097   1.359
 1247SOL     OW 4639   7.019   6.512   5.808
 1247SOL    HW1 4640   6.946   6.448   5.832
 1247SOL    HW2 4641   6.984   6.580   5.745
 1248SOL     OW 4642   2.080   7.016   4.885
 1248SOL    HW1 4643   2.126   7.012   4.796
 1248SOL    HW2 4644   2.079   6.925   4.926
 1249SOL     OW 4645   6.897   2.015   2.287
 1249SOL    HW1 4646   6.859   2.097   2.245
 1249SOL    HW2 4647   6.939   1.957   2.217
 1250SOL     OW 4648   5.560   5.474   3.139
 1250SOL    HW1 4649   5.464   5.461   3.112
 1250SOL    HW2 4650   5.601   5.384   3.157
 1251SOL     OW 4651   2.710   0.847   3.419
 1251SOL    HW1 4652   2.624   0.799   3.439
 1251SOL    HW2 4653   2.787   0.787   3.440
 1252SOL     OW 4654   4.537   4.009   6.417
 1252SOL    HW1 4655   4.563   4.070   6.492
 1252SOL    HW2 4656   4.482   4.059   6.351
 1253SOL     OW 4657   3.318   6.614   1.757
 1253SOL    HW1 4658   3.358   6.696   1.715
 1253SOL    HW2 4659   3.363   6.533   1.722
 1254SOL     OW 4660   0.487   3.367   3.423
 1254SOL    HW1 4661   0.567   3.422   3.450
 1254SOL    HW2 4662   0.497   3.274   3.458
 1255SOL     OW 4663   5.890   1.440   6.304
 1255SOL    HW1 4664   5.985   1.469   6.312
 1255SOL    HW2 4665   5.832   1.518   6.282
 1256SOL     OW 4666   6.772   7.002   3.220
 1256SOL    HW1 4667   6.713   6.947   3.280
 1256SOL    HW2 4668   6.811   6.944   3.149
 1257SOL     OW 4669   6.854   5.276   4.485
 1257SOL    HW1 4670   6.867   5.255   4.582
 1257SOL    HW2 4671   6.864   5.192   4.431
 1258SOL     OW 4672   1.458   5.138   2.811
 1258SOL    HW1 4673   1.497   5.046   2.812
 1258SOL    HW2 4674   1.519   5.200   2.860
 1259SOL     OW 4675   3.308   0.281   4.386
 1259SOL    HW1 4676   3.321   0.184   4.406
 1259SOL    HW2 4677   3.243   0.291   4.311
 1260SOL     OW 4678   2.800   2.515   6.843
 1260SOL    HW1 4679   2.897   2.491   6.856
 1260SOL    HW2 4680   2.743   2.449   6.893
 1261SOL     OW 4681   6.813   5.580   6.949
 1261SOL    HW1 4682   6.737   5.522   6.978
 1261SOL    HW2 4683   6.780   5.650   6.886
 1262SOL     OW 4684   5.951   3.802   1.334
 1262SOL    HW1 4685   5.862   3.843   1.315
 1262SOL    HW2 4686   5.956   3.777   1.430
 1263SOL     OW 4687   0.012   1.944   1.119
 1263SOL    HW1 4688   0.093   2.001   1.132
 1263SOL    HW2 4689   0.039   1.855   1.081
 1264SOL     OW 4690   6.752   3.735   1.985
 1264SOL    HW1 4691   6.735   3.752   1.888
 1264SOL    HW2 4692   6.684   3.671   2.021
 1265SOL     OW 4693   4.714   5.896   3.815
 1265SOL    HW1 4694   4.718   5.812   3.761
 1265SOL    HW2 4695   4.805   5.917   3.851
 1266SOL     OW 4696   0.020   1.454   4.623
 1266SOL    HW1 4697   0.041   1.419   4.531
 1266SOL    HW2 4698   0.006   1.553   4.618
 1267SOL     OW 4699   4.963   6.634   1.092
 1267SOL    HW1 4700   4.887   6.602   1.036
 1267SOL    HW2 4701   4.934   6.646   1.186
 1268SOL     OW 4702   3.135   2.989   0.216
 1268SOL    HW1 4703   3.120   2.918   0.147
 1268SOL    HW2 4704   3.050   3.007   0.264
 1269SOL     OW 4705   5.660   5.129   5.081
 1269SOL    HW1 4706   5.641   5.032   5.099
 1269SOL    HW2 4707   5.757   5.141   5.063
 1270SOL     OW 4708   1.563   3.339   3.483
 1270SOL    HW1 4709   1.562   3.361   3.386
 1270SOL    HW2 4710   1.534   3.244   3.496
 1271SOL     OW 4711   2.865   2.243   3.859
 1271SOL    HW1 4712   2.913   2.272   3.941
 1271SOL    HW2 4713   2.767   2.232   3.880
 1272SOL     OW 4714   5.705   5.150   0.236
 1272SOL    HW1 4715   5.645   5.186   0.308
 1272SOL    HW2 4716   5.650   5.127   0.156
 1273SOL     OW 4717   0.164   3.417   0.401
 1273SOL    HW1 4718   0.211   3.484   0.458
 1273SOL    HW2 4719   0.208   3.327   0.411
 1274SOL     OW 4720   6.522   4.342   1.392
 1274SOL    HW1 4721   6.440   4.303   1.350
 1274SOL    HW2 4722   6.498   4.427   1.440
 1275SOL     OW 4723   3.621   1.795   4.755
 1275SOL    HW1 4724   3.525   1.819   4.767
 1275SOL    HW2 4725   3.673   1.877   4.730
 1276SOL     OW 4726   0.274   5.572   4.533
 1276SOL    HW1 4727   0.320   5.526   4.457
 1276SOL    HW2 4728   0.218   5.506   4.582
 1277SOL     OW 4729   1.073   5.680   6.250
 1277SOL    HW1 4730   0.974   5.691   6.255
 1277SOL    HW2 4731   1.103   5.618   6.322
 1278SOL     OW 4732   0.615   0.157   4.869
 1278SOL    HW1 4733   0.544   0.089   4.886
 1278SOL    HW2 4734   0.687   0.147   4.938
 1279SOL     OW 4735   2.111   5.917   0.634
 1279SOL    HW1 4736   2.209   5.929   0.615
 1279SOL    HW2 4737   2.093   5.935   0.730
 1280SOL     OW 4738   3.387   6.319   4.687
 1280SOL    HW1 4739   3.307   6.332   4.628
 1280SOL    HW2 4740   3.356   6.308   4.782
 1281SOL     OW 4741   2.194   6.539   3.552
 1281SOL    HW1 4742   2.140   6.621   3.568
 1281SOL    HW2 4743   2.264   6.558   3.483
 1282SOL     OW 4744   0.431   2.333   0.097
 1282SOL    HW1 4745   0.414   2.236   0.080
 1282SOL    HW2 4746   0.354   2.372   0.147
 1283SOL     OW 4747   0.315   3.268   5.655
 1283SOL    HW1 4748   0.311   3.361   5.619
 1283SOL    HW2 4749   0.241   3.255   5.721
 1284SOL     OW 4750   4.702   2.145   1.219
 1284SOL    HW1 4751   4.690   2.208   1.295
 1284SOL    HW2 4752   4.670   2.188   1.135
 1285SOL     OW 4753   4.697   2.461   6.392
 1285SOL    HW1 4754   4.633   2.404   6.443
 1285SOL    HW2 4755   4.689   2.556   6.423
 1286SOL     OW 4756   4.933   3.499   1.308
 1286SOL    HW1 4757   5.004   3.526   1.374
 1286SOL    HW2 4758   4.856   3.562   1.317
 1287SOL     OW 4759   6.050   5.444   5.647
 1287SOL    HW1 4760   6.110   5.409   5.575
 1287SOL    HW2 4761   5.975   5.379   5.661
 1288SOL     OW 4762   4.174   3.101   6.119
 1288SOL    HW1 4763   4.219   3.109   6.029
 1288SOL    HW2 4764   4.243   3.104   6.191
 1289SOL     OW 4765   0.163   6.734   1.540
 1289SOL    HW1 4766   0.179   6.823   1.496
 1289SOL    HW2 4767   0.248   6.703   1.583
 1290SOL     OW 4768   0.574   5.867   6.350
 1290SOL    HW1 4769   0.549   5.826   6.262
 1290SOL    HW2 4770   0.572   5.967   6.343
 1291SOL     OW 4771   6.857   3.770   5.217
 1291SOL    HW1 4772   6.824   3.690   5.266
 1291SOL    HW2 4773   6.953   3.787   5.242
 1292SOL     OW 4774   0.543   5.877   2.474
 1292SOL    HW1 4775   0.609   5.927   2.419
 1292SOL    HW2 4776   0.584   5.792   2.506
 1293SOL     OW 4777   0.586   1.803   0.097
 1293SOL    HW1 4778   0.600   1.719   0.150
 1293SOL    HW2 4779   0.674   1.835   0.062
 1294SOL     OW 4780   1.159   3.018   6.505
 1294SOL    HW1 4781   1.175   3.049   6.599
 1294SOL    HW2 4782   1.075   3.060   6.470
 1295SOL     OW 4783   0.116   3.588   1.995
 1295SOL    HW1 4784   0.095   3.494   1.969
 1295SOL    HW2 4785   0.215   3.598   2.009
 1296SOL     OW 4786   3.812   6.638   5.703
 1296SOL    HW1 4787   3.791   6.659   5.798
 1296SOL    HW2 4788   3.845   6.543   5.696
 1297SOL     OW 4789   6.926   1.030   1.601
 1297SOL    HW1 4790   6.912   1.056   1.697
 1297SOL    HW2 4791   6.838   1.004   1.561
 1298SOL     OW 4792   5.883   5.412   2.584
 1298SOL    HW1 4793   5.896   5.462   2.669
 1298SOL    HW2 4794   5.790   5.427   2.550
 1299SOL     OW 4795   1.624   3.697   3.235
 1299SOL    HW1 4796   1.554   3.692   3.164
 1299SOL    HW2 4797   1.583   3.678   3.324
 1300SOL     OW 4798   2.650   3.304   1.298
 1300SOL    HW1 4799   2.727   3.289   1.359
 1300SOL    HW2 4800   2.569   3.328   1.352
 1301SOL     OW 4801   0.549   6.887   0.972
 1301SOL    HW1 4802   0.524   6.797   0.936
 1301SOL    HW2 4803   0.623   6.925   0.917
 1302SOL     OW 4804   4.918   0.190   5.780
 1302SOL    HW1 4805   4.835   0.215   5.830
 1302SOL    HW2 4806   4.894   0.165   5.686
 1303SOL     OW 4807   4.302   2.409   1.174
 1303SOL    HW1 4808   4.350   2.385   1.258
 1303SOL    HW2 4809   4.291   2.327   1.117
 1304SOL     OW 4810   2.095   0.934   6.776
 1304SOL    HW1 4811   2.150   0.920   6.693
 1304SOL    HW2 4812   2.103   1.029   6.806
 1305SOL     OW 4813   5.763   3.544   0.392
 1305SOL    HW1 4814   5.838   3.496   0.437
 1305SOL    HW2 4815   5.800   3.595   0.313
 1306SOL     OW 4816   0.793   4.834   3.685
 1306SOL    HW1 4817   0.830   4.745   3.660
 1306SOL    HW2 4818   0.867   4.893   3.719
 1307SOL     OW 4819   0.903   4.616   3.584
 1307SOL    HW1 4820   1.001   4.604   3.568
 1307SOL    HW2 4821   0.858   4.638   3.497
 1308SOL     OW 4822   6.088   6.310   5.244
 1308SOL    HW1 4823   6.056   6.320   5.338
 1308SOL    HW2 4824   6.015   6.334   5.180
 1309SOL     OW 4825   5.558   3.971   5.619
 1309SOL    HW1 4826   5.600   3.938   5.535
 1309SOL    HW2 4827   5.603   3.928   5.698
 1310SOL     OW 4828   6.735   3.915   4.108
 1310SOL    HW1 4829   6.723   3.824   4.148
 1310SOL    HW2 4830   6.786   3.907   4.022
 1311SOL     OW 4831   0.475   6.258   4.922
 1311SOL    HW1 4832   0.390   6.309   4.930
 1311SOL    HW2 4833   0.542   6.313   4.870
 1312SOL     OW 4834   1.146   6.797   6.879
 1312SOL    HW1 4835   1.219   6.744   6.923
 1312SOL    HW2 4836   1.114   6.749   6.798
 1313SOL     OW 4837   0.392   4.409   3.075
 1313SOL    HW1 4838   0.342   4.386   2.991
 1313SOL    HW2 4839   0.485   4.439   3.051
 1314SOL     OW 4840   4.181   1.547   5.416
 1314SOL    HW1 4841   4.111   1.547   5.487
 1314SOL    HW2 4842   4.223   1.456   5.410
 1315SOL     OW 4843   0.637   1.478   2.164
 1315SOL    HW1 4844   0.725   1.523   2.178
 1315SOL    HW2 4845   0.578   1.495   2.244
 1316SOL     OW 4846   1.965   5.555   5.188
 1316SOL    HW1 4847   1.879   5.516   5.221
 1316SOL    HW2 4848   1.968   5.653   5.211
 1317SOL     OW 4849   2.707   4.652   6.289
 1317SOL    HW1 4850   2.678   4.559   6.267
 1317SOL    HW2 4851   2.650   4.688   6.364
 1318SOL     OW 4852   0.647   1.716   1.377
 1318SOL    HW1 4853   0.718   1.779   1.345
 1318SOL    HW2 4854   0.690   1.628   1.401
 1319SOL     OW 4855   0.133   6.673   0.065
 1319SOL    HW1 4856   0.097   6.641   6.999
 1319SOL    HW2 4857   0.085   6.756   0.094
 1320SOL     OW 4858   4.644   4.191   0.762
 1320SOL    HW1 4859   4.688   4.244   0.689
 1320SOL    HW2 4860   4.551   4.225   0.776
 1321SOL     OW 4861   5.543   1.474   6.493
 1321SOL    HW1 4862   5.554   1.468   6.394
 1321SOL    HW2 4863   5.519   1.384   6.530
 1322SOL     OW 4864   3.986   0.808   3.184
 1322SOL    HW1 4865   3.961   0.874   3.255
 1322SOL    HW2 4866   4.076   0.831   3.148
 1323SOL     OW 4867   4.307   0.559   5.766
 1323SOL    HW1 4868   4.245   0.638   5.774
 1323SOL    HW2 4869   4.294   0.516   5.676
 1324SOL     OW 4870   0.936   3.765   0.593
 1324SOL    HW1 4871   0.995   3.838   0.559
 1324SOL    HW2 4872   0.842   3.781   0.562
 1325SOL     OW 4873   2.380   7.011   3.051
 1325SOL    HW1 4874   2.463   0.024   3.007
 1325SOL    HW2 4875   2.403   6.945   3.122
 1326SOL     OW 4876   4.965   3.418   5.107
 1326SOL    HW1 4877   5.062   3.443   5.112
 1326SOL    HW2 4878   4.913   3.496   5.072
 1327SOL     OW 4879   0.604   5.928   1.766
 1327SOL    HW1 4880   0.616   5.900   1.671
 1327SOL    HW2 4881   0.662   5.872   1.825
 1328SOL     OW 4882   1.876   3.091   0.469
 1328SOL    HW1 4883   1.838   3.123   0.556
 1328SOL    HW2 4884   1.857   3.158   0.398
 1329SOL     OW 4885   0.172   2.355   1.821
 1329SOL    HW1 4886   0.136   2.275   1.869
 1329SOL    HW2 4887   0.267   2.337   1.793
 1330SOL     OW 4888   0.638   1.468   1.699
 1330SOL    HW1 4889   0.554   1.503   1.657
 1330SOL    HW2 4890   0.615   1.411   1.778
 1331SOL     OW 4891   4.938   2.919   3.086
 1331SOL    HW1 4892   4.876   2.952   3.015
 1331SOL    HW2 4893   4.908   2.829   3.117
 1332SOL     OW 4894   2.683   6.737   6.556
 1332SOL    HW1 4895   2.701   6.833   6.532
 1332SOL    HW2 4896   2.620   6.733   6.633
 1333SOL     OW 4897   3.373   3.826   4.194
 1333SOL    HW1 4898   3.427   3.824   4.278
 1333SOL    HW2 4899   3.317   3.908   4.193
 1334SOL     OW 4900   5.974   1.750   4.429
 1334SOL    HW1 4901   5.957   1.786   4.521
 1334SOL    HW2 4902   6.041   1.808   4.382
 1335SOL     OW 4903   2.404   1.967   3.030
 1335SOL    HW1 4904   2.462   2.026   3.086
 1335SOL    HW2 4905   2.339   2.023   2.979
 1336SOL     OW 4906   1.553   2.797   5.035
 1336SOL    HW1 4907   1.504   2.711   5.049
 1336SOL    HW2 4908   1.652   2.780   5.031
 1337SOL     OW 4909   1.554   2.226   4.440
 1337SOL    HW1 4910   1.494   2.306   4.438
 1337SOL    HW2 4911   1.533   2.170   4.520
 1338SOL     OW 4912   5.208   2.055   5.228
 1338SOL    HW1 4913   5.230   1.957   5.233
 1338SOL    HW2 4914   5.255   2.096   5.150
 1339SOL     OW 4915   0.142   1.822   6.508
 1339SOL    HW1 4916   0.233   1.840   6.471
 1339SOL    HW2 4917   0.144   1.738   6.561
 1340SOL     OW 4918   6.805   1.978   2.560
 1340SOL    HW1 4919   6.839   2.003   2.470
 1340SOL    HW2 4920   6.820   2.053   2.624
 1341SOL     OW 4921   5.484   6.753   6.117
 1341SOL    HW1 4922   5.469   6.821   6.045
 1341SOL    HW2 4923   5.563   6.780   6.173
 1342SOL     OW 4924   2.342   5.465   5.681
 1342SOL    HW1 4925   2.361   5.436   5.587
 1342SOL    HW2 4926   2.339   5.385   5.741
 1343SOL     OW 4927   4.589   5.767   2.820
 1343SOL    HW1 4928   4.688   5.765   2.830
 1343SOL    HW2 4929   4.552   5.850   2.861
 1344SOL     OW 4930   6.539   5.609   4.453
 1344SOL    HW1 4931   6.577   5.662   4.377
 1344SOL    HW2 4932   6.542   5.664   4.537
 1345SOL     OW 4933   1.642   0.667   2.705
 1345SOL    HW1 4934   1.661   0.765   2.699
 1345SOL    HW2 4935   1.727   0.616   2.692
 1346SOL     OW 4936   0.837   6.217   4.935
 1346SOL    HW1 4937   0.759   6.266   4.895
 1346SOL    HW2 4938   0.809   6.171   5.019
 1347SOL     OW 4939   6.630   6.568   4.969
 1347SOL    HW1 4940   6.536   6.601   4.978
 1347SOL    HW2 4941   6.688   6.614   5.037
 1348SOL     OW 4942   5.491   5.614   2.510
 1348SOL    HW1 4943   5.398   5.629   2.544
 1348SOL    HW2 4944   5.501   5.655   2.420
 1349SOL     OW 4945   4.510   2.328   5.914
 1349SOL    HW1 4946   4.591   2.382   5.895
 1349SOL    HW2 4947   4.501   2.256   5.844
 1350SOL     OW 4948   5.301   4.980   5.268
 1350SOL    HW1 4949   5.286   5.005   5.172
 1350SOL    HW2 4950   5.311   4.881   5.275
 1351SOL     OW 4951   5.879   1.618   3.326
 1351SOL    HW1 4952   5.811   1.645   3.393
 1351SOL    HW2 4953   5.897   1.694   3.263
 1352SOL     OW 4954   6.915   6.343   2.115
 1352SOL    HW1 4955   6.913   6.398   2.199
 1352SOL    HW2 4956   6.985   6.379   2.054
 1353SOL     OW 4957   0.565   3.107   0.339
 1353SOL    HW1 4958   0.658   3.079   0.315
 1353SOL    HW2 4959   0.550   3.094   0.437
 1354SOL     OW 4960   1.011   3.764   1.445
 1354SOL    HW1 4961   0.960   3.685   1.480
 1354SOL    HW2 4962   1.051   3.814   1.521
 1355SOL     OW 4963   6.815   2.858   4.735
 1355SOL    HW1 4964   6.854   2.936   4.686
 1355SOL    HW2 4965   6.887   2.791   4.754
 1356SOL     OW 4966   3.010   3.178   2.835
 1356SOL    HW1 4967   2.932   3.151   2.892
 1356SOL    HW2 4968   2.977   3.226   2.754
 1357SOL     OW 4969   1.308   3.038   5.650
 1357SOL    HW1 4970   1.210   3.040   5.669
 1357SOL    HW2 4971   1.346   3.130   5.663
 1358SOL     OW 4972   4.055   0.362   5.781
 1358SOL    HW1 4973   4.142   0.364   5.731
 1358SOL    HW2 4974   4.074   0.362   5.879
 1359SOL     OW 4975   5.675   4.707   1.969
 1359SOL    HW1 4976   5.667   4.674   1.875
 1359SOL    HW2 4977   5.584   4.713   2.010
 1360SOL     OW 4978   3.469   2.740   6.988
 1360SOL    HW1 4979   3.499   2.767   6.896
 1360SOL    HW2 4980   3.385   2.686   6.980
 1361SOL     OW 4981   0.079   5.346   5.057
 1361SOL    HW1 4982   0.055   5.258   5.097
 1361SOL    HW2 4983   7.016   5.395   5.032
 1362SOL     OW 4984   3.442   4.196   4.185
 1362SOL    HW1 4985   3.478   4.144   4.108
 1362SOL    HW2 4986   3.384   4.270   4.152
 1363SOL     OW 4987   7.019   5.576   3.008
 1363SOL    HW1 4988   0.071   5.522   3.049
 1363SOL    HW2 4989   6.978   5.635   3.078
 1364SOL     OW 4990   6.375   2.781   1.402
 1364SOL    HW1 4991   6.411   2.767   1.310
 1364SOL    HW2 4992   6.450   2.792   1.466
 1365SOL     OW 4993   1.543   3.353   6.442
 1365SOL    HW1 4994   1.637   3.371   6.472
 1365SOL    HW2 4995   1.540   3.268   6.390
 1366SOL     OW 4996   0.963   4.911   0.081
 1366SOL    HW1 4997   0.952   5.008   0.101
 1366SOL    HW2 4998   0.962   4.896   7.003
 1367SOL     OW 4999   2.293   6.855   2.826
 1367SOL    HW1 5000   2.295   6.908   2.910
 1367SOL    HW2 5001   2.199   6.845   2.794
 1368SOL     OW 5002   6.363   0.448   3.711
 1368SOL    HW1 5003   6.295   0.380   3.739
 1368SOL    HW2 5004   6.396   0.426   3.619
 1369SOL     OW 5005   2.261   0.091   1.751
 1369SOL    HW1 5006   2.334   0.085   1.683
 1369SOL    HW2 5007   2.251   0.186   1.781
 1370SOL     OW 5008   4.225   1.597   1.015
 1370SOL    HW1 5009   4.208   1.684   1.062
 1370SOL    HW2 5010   4.290   1.612   0.940
 1371SOL     OW 5011   5.989   1.419   4.329
 1371SOL    HW1 5012   6.010   1.516   4.346
 1371SOL    HW2 5013   5.904   1.395   4.375
 1372SOL     OW 5014   1.097   3.553   0.641
 1372SOL    HW1 5015   1.051   3.469   0.667
 1372SOL    HW2 5016   1.029   3.623   0.618
 1373SOL     OW 5017   4.624   2.480   6.784
 1373SOL    HW1 5018   4.594   2.434   6.700
 1373SOL    HW2 5019   4.723   2.476   6.790
 1374SOL     OW 5020   5.136   2.271   0.304
 1374SOL    HW1 5021   5.070   2.345   0.315
 1374SOL    HW2 5022   5.095   2.197   0.250
 1375SOL     OW 5023   0.567   4.052   6.607
 1375SOL    HW1 5024   0.600   3.996   6.683
 1375SOL    HW2 5025   0.550   4.145   6.641
 1376SOL     OW 5026   4.228   4.831   4.987
 1376SOL    HW1 5027   4.185   4.802   4.901
 1376SOL    HW2 5028   4.268   4.751   5.032
 1377SOL     OW 5029   0.579   3.750   5.513
 1377SOL    HW1 5030   0.483   3.771   5.497
 1377SOL    HW2 5031   0.612   3.688   5.442
 1378SOL     OW 5032   5.965   0.637   5.059
 1378SOL    HW1 5033   6.051   0.658   5.106
 1378SOL    HW2 5034   5.983   0.621   4.962
 1379SOL     OW 5035   3.880   0.048   3.142
 1379SOL    HW1 5036   3.897   7.011   3.221
 1379SOL    HW2 5037   3.881   7.013   3.059
 1380SOL     OW 5038   0.148   6.684   2.299
 1380SOL    HW1 5039   0.144   6.741   2.381
 1380SOL    HW2 5040   0.238   6.692   2.257
 1381SOL     OW 5041   6.090   2.301   0.119
 1381SOL    HW1 5042   5.991   2.316   0.119
 1381SOL    HW2 5043   6.121   2.284   0.025
 1382SOL     OW 5044   4.727   3.636   0.288
 1382SOL    HW1 5045   4.766   3.702   0.224
 1382SOL    HW2 5046   4.795   3.566   0.309
 1383SOL     OW 5047   1.294   0.539   2.049
 1383SOL    HW1 5048   1.228   0.555   1.976
 1383SOL    HW2 5049   1.291   0.613   2.116
 1384SOL     OW 5050   4.643   0.007   1.448
 1384SOL    HW1 5051   4.609   6.937   1.469
 1384SOL    HW2 5052   4.568   0.073   1.451
 1385SOL     OW 5053   1.680   3.925   4.066
 1385SOL    HW1 5054   1.726   4.005   4.029
 1385SOL    HW2 5055   1.741   3.846   4.064
 1386SOL     OW 5056   3.148   0.734   4.281
 1386SOL    HW1 5057   3.158   0.733   4.380
 1386SOL    HW2 5058   3.154   0.829   4.248
 1387SOL     OW 5059   3.729   5.735   2.444
 1387SOL    HW1 5060   3.820   5.707   2.474
 1387SOL    HW2 5061   3.722   5.835   2.448
 1388SOL     OW 5062   0.702   6.927   3.009
 1388SOL    HW1 5063   0.644   6.849   2.988
 1388SOL    HW2 5064   0.798   6.899   3.009
 1389SOL     OW 5065   0.371   0.860   3.396
 1389SOL    HW1 5066   0.322   0.944   3.418
 1389SOL    HW2 5067   0.321   0.782   3.435
 1390SOL     OW 5068   5.818   3.079   6.065
 1390SOL    HW1 5069   5.754   3.153   6.044
 1390SOL    HW2 5070   5.909   3.105   6.032
 1391SOL     OW 5071   6.310   6.919   5.161
 1391SOL    HW1 5072   6.234   6.983   5.164
 1391SOL    HW2 5073   6.314   6.876   5.070
 1392SOL     OW 5074   5.633   6.576   6.767
 1392SOL    HW1 5075   5.600   6.658   6.814
 1392SOL    HW2 5076   5.576   6.558   6.688
 1393SOL     OW 5077   6.131   3.888   5.854
 1393SOL    HW1 5078   6.118   3.971   5.908
 1393SOL    HW2 5079   6.198   3.829   5.900
 1394SOL     OW 5080   4.026   5.695   4.280
 1394SOL    HW1 5081   4.099   5.762   4.291
 1394SOL    HW2 5082   4.060   5.604   4.303
 1395SOL     OW 5083   1.422   4.495   4.097
 1395SOL    HW1 5084   1.470   4.415   4.059
 1395SOL    HW2 5085   1.324   4.488   4.076
 1396SOL     OW 5086   0.610   0.337   4.190
 1396SOL    HW1 5087   0.642   0.312   4.099
 1396SOL    HW2 5088   0.573   0.257   4.236
 1397SOL     OW 5089   0.607   5.763   4.747
 1397SOL    HW1 5090   0.553   5.847   4.749
 1397SOL    HW2 5091   0.547   5.685   4.728
 1398SOL     OW 5092   1.859   2.074   6.663
 1398SOL    HW1 5093   1.853   1.978   6.637
 1398SOL    HW2 5094   1.872   2.130   6.581
 1399SOL     OW 5095   3.559   6.939   0.192
 1399SOL    HW1 5096   3.517   6.902   0.275
 1399SOL    HW2 5097   3.487   6.976   0.133
 1400SOL     OW 5098   0.032   2.386   4.494
 1400SOL    HW1 5099   0.031   2.331   4.410
 1400SOL    HW2 5100   0.119   2.373   4.541
 1401SOL     OW 5101   6.341   6.777   4.390
 1401SOL    HW1 5102   6.310   6.704   4.330
 1401SOL    HW2 5103   6.408   6.833   4.341
 1402SOL     OW 5104   5.693   4.475   6.135
 1402SOL    HW1 5105   5.776   4.529   6.146
 1402SOL    HW2 5106   5.645   4.469   6.222
 1403SOL     OW 5107   1.998   1.974   1.596
 1403SOL    HW1 5108   1.975   1.881   1.567
 1403SOL    HW2 5109   1.914   2.027   1.606
 1404SOL     OW 5110   6.570   0.015   0.035
 1404SOL    HW1 5111   6.482   7.013   0.075
 1404SOL    HW2 5112   6.569   0.111   0.006
 1405SOL     OW 5113   2.470   4.268   0.777
 1405SOL    HW1 5114   2.542   4.226   0.722
 1405SOL    HW2 5115   2.396   4.203   0.791
 1406SOL     OW 5116   1.989   5.588   1.466
 1406SOL    HW1 5117   2.034   5.669   1.428
 1406SOL    HW2 5118   2.023   5.506   1.419
 1407SOL     OW 5119   1.891   4.274   3.633
 1407SOL    HW1 5120   1.863   4.353   3.688
 1407SOL    HW2 5121   1.877   4.191   3.686
 1408SOL     OW 5122   5.637   6.903   6.315
 1408SOL    HW1 5123   5.726   6.898   6.271
 1408SOL    HW2 5124   5.648   6.894   6.414
 1409SOL     OW 5125   6.978   0.533   5.329
 1409SOL    HW1 5126   0.018   0.516   5.251
 1409SOL    HW2 5127   6.992   0.626   5.363
 1410SOL     OW 5128   2.924   4.032   0.277
 1410SOL    HW1 5129   2.983   3.951   0.280
 1410SOL    HW2 5130   2.956   4.099   0.344
 1411SOL     OW 5131   3.583   5.682   6.791
 1411SOL    HW1 5132   3.539   5.602   6.750
 1411SOL    HW2 5133   3.594   5.667   6.889
 1412SOL     OW 5134   0.913   3.937   1.256
 1412SOL    HW1 5135   0.965   4.022   1.248
 1412SOL    HW2 5136   0.957   3.878   1.325
 1413SOL     OW 5137   2.122   1.320   4.787
 1413SOL    HW1 5138   2.115   1.330   4.886
 1413SOL    HW2 5139   2.218   1.309   4.762
 1414SOL     OW 5140   2.557   2.043   1.755
 1414SOL    HW1 5141   2.574   2.139   1.775
 1414SOL    HW2 5142   2.644   1.994   1.750
 1415SOL     OW 5143   2.874   1.127   4.243
 1415SOL    HW1 5144   2.925   1.168   4.168
 1415SOL    HW2 5145   2.816   1.196   4.286
 1416SOL     OW 5146   3.658   0.176   4.957
 1416SOL    HW1 5147   3.698   0.252   4.904
 1416SOL    HW2 5148   3.651   0.202   5.053
 1417SOL     OW 5149   3.004   2.928   6.605
 1417SOL    HW1 5150   3.015   2.839   6.561
 1417SOL    HW2 5151   2.936   2.982   6.554
 1418SOL     OW 5152   2.969   3.985   0.660
 1418SOL    HW1 5153   2.937   3.912   0.599
 1418SOL    HW2 5154   2.976   3.950   0.753
 1419SOL     OW 5155   2.962   5.856   3.856
 1419SOL    HW1 5156   2.883   5.894   3.809
 1419SOL    HW2 5157   2.996   5.923   3.923
 1420SOL     OW 5158   3.516   5.907   3.346
 1420SOL    HW1 5159   3.477   5.933   3.434
 1420SOL    HW2 5160   3.488   5.813   3.324
 1421SOL     OW 5161   0.691   4.358   3.581
 1421SOL    HW1 5162   0.766   4.382   3.642
 1421SOL    HW2 5163   0.728   4.319   3.496
 1422SOL     OW 5164   3.165   4.614   6.928
 1422SOL    HW1 5165   3.152   4.709   6.901
 1422SOL    HW2 5166   3.190   4.609   0.004
 1423SOL     OW 5167   3.518   0.865   4.560
 1423SOL    HW1 5168   3.609   0.907   4.566
 1423SOL    HW2 5169   3.520   0.789   4.495
 1424SOL     OW 5170   6.666   3.514   6.559
 1424SOL    HW1 5171   6.589   3.452   6.542
 1424SOL    HW2 5172   6.684   3.518   6.658
 1425SOL     OW 5173   2.214   5.439   5.061
 1425SOL    HW1 5174   2.313   5.427   5.062
 1425SOL    HW2 5175   2.173   5.380   5.130
 1426SOL     OW 5176   2.236   2.070   5.560
 1426SOL    HW1 5177   2.159   2.050   5.619
 1426SOL    HW2 5178   2.209   2.138   5.492
 1427SOL     OW 5179   6.861   6.845   3.981
 1427SOL    HW1 5180   6.945   6.827   3.929
 1427SOL    HW2 5181   6.881   6.905   4.058
 1428SOL     OW 5182   0.552   1.879   1.666
 1428SOL    HW1 5183   0.485   1.948   1.638
 1428SOL    HW2 5184   0.520   1.788   1.638
 1429SOL     OW 5185   6.390   1.622   0.215
 1429SOL    HW1 5186   6.458   1.670   0.271
 1429SOL    HW2 5187   6.343   1.689   0.157
 1430SOL     OW 5188   1.919   4.784   3.589
 1430SOL    HW1 5189   1.981   4.837   3.531
 1430SOL    HW2 5190   1.893   4.839   3.668
 1431SOL     OW 5191   2.581   2.588   6.004
 1431SOL    HW1 5192   2.513   2.661   5.999
 1431SOL    HW2 5193   2.650   2.611   6.072
 1432SOL     OW 5194   2.822   0.729   1.176
 1432SOL    HW1 5195   2.863   0.817   1.201
 1432SOL    HW2 5196   2.836   0.712   1.079
 1433SOL     OW 5197   4.563   0.243   4.512
 1433SOL    HW1 5198   4.604   0.201   4.593
 1433SOL    HW2 5199   4.478   0.195   4.489
 1434SOL     OW 5200   0.182   0.628   5.974
 1434SOL    HW1 5201   0.120   0.631   5.896
 1434SOL    HW2 5202   0.173   0.540   6.020
 1435SOL     OW 5203   6.997   0.056   3.336
 1435SOL    HW1 5204   7.009   0.020   3.429
 1435SOL    HW2 5205   6.913   0.018   3.296
 1436SOL     OW 5206   5.615   3.767   6.804
 1436SOL    HW1 5207   5.617   3.690   6.740
 1436SOL    HW2 5208   5.656   3.740   6.891
 1437SOL     OW 5209   2.704   0.749   6.032
 1437SOL    HW1 5210   2.643   0.723   5.958
 1437SOL    HW2 5211   2.741   0.841   6.015
 1438SOL     OW 5212   2.499   0.136   1.604
 1438SOL    HW1 5213   2.495   0.055   1.546
 1438SOL    HW2 5214   2.523   0.215   1.547
 1439SOL     OW 5215   0.548   5.122   0.926
 1439SOL    HW1 5216   0.526   5.192   0.994
 1439SOL    HW2 5217   0.507   5.035   0.954
 1440SOL     OW 5218   3.215   3.375   5.536
 1440SOL    HW1 5219   3.192   3.472   5.537
 1440SOL    HW2 5220   3.166   3.330   5.462
 1441SOL     OW 5221   6.290   3.920   4.879
 1441SOL    HW1 5222   6.384   3.892   4.899
 1441SOL    HW2 5223   6.290   3.978   4.797
 1442SOL     OW 5224   6.576   4.923   6.795
 1442SOL    HW1 5225   6.667   4.963   6.789
 1442SOL    HW2 5226   6.553   4.907   6.891
 1443SOL     OW 5227   1.031   2.475   5.195
 1443SOL    HW1 5228   0.933   2.480   5.214
 1443SOL    HW2 5229   1.074   2.408   5.255
 1444SOL     OW 5230   4.295   5.642   1.616
 1444SOL    HW1 5231   4.253   5.667   1.528
 1444SOL    HW2 5232   4.228   5.653   1.689
 1445SOL     OW 5233   0.109   2.589   2.511
 1445SOL    HW1 5234   0.092   2.593   2.413
 1445SOL    HW2 5235   0.083   2.499   2.546
 1446SOL     OW 5236   5.139   2.085   6.709
 1446SOL    HW1 5237   5.171   2.166   6.660
 1446SOL    HW2 5238   5.217   2.038   6.750
 1447SOL     OW 5239   6.067   6.691   5.668
 1447SOL    HW1 5240   6.110   6.781   5.664
 1447SOL    HW2 5241   5.984   6.696   5.724
 1448SOL     OW 5242   6.529   2.534   6.941
 1448SOL    HW1 5243   6.562   2.440   6.951
 1448SOL    HW2 5244   6.498   2.549   6.848
 1449SOL     OW 5245   6.221   1.128   0.190
 1449SOL    HW1 5246   6.198   1.193   0.118
 1449SOL    HW2 5247   6.138   1.084   0.223
 1450SOL     OW 5248   0.802   2.244   2.316
 1450SOL    HW1 5249   0.770   2.202   2.231
 1450SOL    HW2 5250   0.753   2.330   2.332
 1451SOL     OW 5251   2.968   0.955   2.672
 1451SOL    HW1 5252   2.987   1.032   2.733
 1451SOL    HW2 5253   3.027   0.961   2.591
 1452SOL     OW 5254   3.966   1.086   4.106
 1452SOL    HW1 5255   4.032   1.105   4.033
 1452SOL    HW2 5256   3.985   0.996   4.146
 1453SOL     OW 5257   0.284   3.813   5.545
 1453SOL    HW1 5258   0.210   3.853   5.492
 1453SOL    HW2 5259   0.291   3.859   5.633
 1454SOL     OW 5260   6.103   2.460   3.154
 1454SOL    HW1 5261   6.173   2.413   3.101
 1454SOL    HW2 5262   6.037   2.503   3.093
 1455SOL     OW 5263   1.794   0.588   1.528
 1455SOL    HW1 5264   1.813   0.562   1.623
 1455SOL    HW2 5265   1.700   0.564   1.505
 1456SOL     OW 5266   6.474   0.055   5.341
 1456SOL    HW1 5267   6.413   7.007   5.300
 1456SOL    HW2 5268   6.426   0.102   5.415
 1457SOL     OW 5269   1.467   0.121   1.043
 1457SOL    HW1 5270   1.377   0.115   1.000
 1457SOL    HW2 5271   1.521   0.041   1.015
 1458SOL     OW 5272   6.262   6.553   3.482
 1458SOL    HW1 5273   6.258   6.457   3.453
 1458SOL    HW2 5274   6.357   6.585   3.475
 1459SOL     OW 5275   2.323   5.039   5.191
 1459SOL    HW1 5276   2.366   4.949   5.178
 1459SOL    HW2 5277   2.315   5.085   5.103
 1460SOL     OW 5278   0.316   4.983   5.754
 1460SOL    HW1 5279   0.299   5.077   5.785
 1460SOL    HW2 5280   0.231   4.932   5.752
 1461SOL     OW 5281   0.814   5.072   3.377
 1461SOL    HW1 5282   0.790   5.098   3.283
 1461SOL    HW2 5283   0.901   5.023   3.378
 1462SOL     OW 5284   0.971   0.985   5.673
 1462SOL    HW1 5285   0.922   0.954   5.754
 1462SOL    HW2 5286   0.917   0.965   5.591
 1463SOL     OW 5287   0.207   5.307   6.881
 1463SOL    HW1 5288   0.209   5.211   6.853
 1463SOL    HW2 5289   0.114   5.343   6.867
 1464SOL     OW 5290   6.707   6.625   0.917
 1464SOL    HW1 5291   6.755   6.713   0.925
 1464SOL    HW2 5292   6.609   6.640   0.931
 1465SOL     OW 5293   1.769   1.769   4.034
 1465SOL    HW1 5294   1.780   1.676   3.999
 1465SOL    HW2 5295   1.760   1.833   3.958
 1466SOL     OW 5296   1.195   0.885   2.512
 1466SOL    HW1 5297   1.202   0.962   2.449
 1466SOL    HW2 5298   1.286   0.845   2.526
 1467SOL     OW 5299   2.025   1.795   2.305
 1467SOL    HW1 5300   2.083   1.791   2.223
 1467SOL    HW2 5301   2.082   1.780   2.386
 1468SOL     OW 5302   5.344   5.209   2.929
 1468SOL    HW1 5303   5.268   5.263   2.894
 1468SOL    HW2 5304   5.427   5.231   2.877
 1469SOL     OW 5305   1.251   1.353   1.826
 1469SOL    HW1 5306   1.179   1.295   1.788
 1469SOL    HW2 5307   1.215   1.444   1.844
 1470SOL     OW 5308   1.740   1.061   3.088
 1470SOL    HW1 5309   1.673   1.135   3.091
 1470SOL    HW2 5310   1.817   1.089   3.030
 1471SOL     OW 5311   0.704   0.513   0.969
 1471SOL    HW1 5312   0.719   0.610   0.990
 1471SOL    HW2 5313   0.690   0.502   0.870
 1472SOL     OW 5314   3.932   5.698   5.116
 1472SOL    HW1 5315   3.869   5.674   5.042
 1472SOL    HW2 5316   3.939   5.798   5.122
 1473SOL     OW 5317   5.976   5.868   3.546
 1473SOL    HW1 5318   6.036   5.818   3.484
 1473SOL    HW2 5319   5.914   5.926   3.493
 1474SOL     OW 5320   6.190   5.900   2.918
 1474SOL    HW1 5321   6.281   5.941   2.914
 1474SOL    HW2 5322   6.191   5.812   2.871
 1475SOL     OW 5323   6.694   0.447   1.727
 1475SOL    HW1 5324   6.767   0.384   1.754
 1475SOL    HW2 5325   6.621   0.395   1.681
 1476SOL     OW 5326   2.150   1.688   1.583
 1476SOL    HW1 5327   2.230   1.665   1.528
 1476SOL    HW2 5328   2.170   1.769   1.639
 1477SOL     OW 5329   3.097   0.767   6.986
 1477SOL    HW1 5330   3.096   0.763   0.065
 1477SOL    HW2 5331   3.022   0.824   6.954
 1478SOL     OW 5332   5.444   4.620   0.377
 1478SOL    HW1 5333   5.469   4.552   0.308
 1478SOL    HW2 5334   5.398   4.697   0.332
 1479SOL     OW 5335   1.648   3.386   6.793
 1479SOL    HW1 5336   1.554   3.406   6.820
 1479SOL    HW2 5337   1.669   3.291   6.815
 1480SOL     OW 5338   2.917   0.295   5.971
 1480SOL    HW1 5339   2.845   0.228   5.987
 1480SOL    HW2 5340   3.005   0.247   5.964
 1481SOL     OW 5341   0.092   2.392   5.270
 1481SOL    HW1 5342   0.086   2.342   5.184
 1481SOL    HW2 5343   0.188   2.404   5.295
 1482SOL     OW 5344   4.963   2.699   0.943
 1482SOL    HW1 5345   4.958   2.710   0.844
 1482SOL    HW2 5346   4.965   2.789   0.987
 1483SOL     OW 5347   6.287   2.119   6.567
 1483SOL    HW1 5348   6.363   2.144   6.627
 1483SOL    HW2 5349   6.300   2.163   6.478
 1484SOL     OW 5350   5.780   4.844   3.799
 1484SOL    HW1 5351   5.828   4.757   3.806
 1484SOL    HW2 5352   5.720   4.843   3.718
 1485SOL     OW 5353   3.908   1.877   3.020
 1485SOL    HW1 5354   4.004   1.891   3.047
 1485SOL    HW2 5355   3.857   1.838   3.097
 1486SOL     OW 5356   5.352   2.321   2.955
 1486SOL    HW1 5357   5.296   2.293   2.877
 1486SOL    HW2 5358   5.302   2.303   3.040
 1487SOL     OW 5359   6.791   2.621   6.829
 1487SOL    HW1 5360   6.770   2.573   6.915
 1487SOL    HW2 5361   6.721   2.599   6.761
 1488SOL     OW 5362   5.679   1.755   3.487
 1488SOL    HW1 5363   5.628   1.677   3.524
 1488SOL    HW2 5364   5.709   1.814   3.562
 1489SOL     OW 5365   4.354   5.017   4.015
 1489SOL    HW1 5366   4.372   5.067   4.099
 1489SOL    HW2 5367   4.255   5.015   3.998
 1490SOL     OW 5368   1.466   3.204   1.191
 1490SOL    HW1 5369   1.412   3.288   1.181
 1490SOL    HW2 5370   1.457   3.149   1.108
 1491SOL     OW 5371   6.074   3.992   4.077
 1491SOL    HW1 5372   6.128   3.953   4.002
 1491SOL    HW2 5373   6.109   4.084   4.098
 1492SOL     OW 5374   5.585   1.471   2.806
 1492SOL    HW1 5375   5.621   1.540   2.743
 1492SOL    HW2 5376   5.491   1.493   2.830
 1493SOL     OW 5377   4.672   6.604   3.723
 1493SOL    HW1 5378   4.630   6.687   3.685
 1493SOL    HW2 5379   4.749   6.577   3.665
 1494SOL     OW 5380   5.776   1.990   5.883
 1494SOL    HW1 5381   5.782   2.061   5.813
 1494SOL    HW2 5382   5.701   2.010   5.945
 1495SOL     OW 5383   6.547   2.868   4.753
 1495SOL    HW1 5384   6.647   2.865   4.755
 1495SOL    HW2 5385   6.514   2.935   4.820
 1496SOL     OW 5386   0.744   1.749   2.739
 1496SOL    HW1 5387   0.777   1.657   2.714
 1496SOL    HW2 5388   0.702   1.745   2.829
 1497SOL     OW 5389   6.836   3.149   3.805
 1497SOL    HW1 5390   6.808   3.057   3.777
 1497SOL    HW2 5391   6.854   3.204   3.723
 1498SOL     OW 5392   1.971   4.600   6.528
 1498SOL    HW1 5393   1.874   4.580   6.515
 1498SOL    HW2 5394   2.016   4.605   6.439
 1499SOL     OW 5395   1.456   3.756   6.163
 1499SOL    HW1 5396   1.378   3.781   6.106
 1499SOL    HW2 5397   1.428   3.749   6.258
 1500SOL     OW 5398   6.859   6.568   6.836
 1500SOL    HW1 5399   6.958   6.584   6.831
 1500SOL    HW2 5400   6.812   6.633   6.776
 1501SOL     OW 5401   4.721   1.631   6.439
 1501SOL    HW1 5402   4.787   1.630   6.514
 1501SOL    HW2 5403   4.636   1.674   6.469
 1502SOL     OW 5404   6.219   0.254   1.084
 1502SOL    HW1 5405   6.221   0.290   1.177
 1502SOL    HW2 5406   6.180   0.162   1.085
 1503SOL     OW 5407   2.505   1.548   2.533
 1503SOL    HW1 5408   2.431   1.510   2.477
 1503SOL    HW2 5409   2.591   1.544   2.483
 1504SOL     OW 5410   0.833   0.935   4.597
 1504SOL    HW1 5411   0.757   0.871   4.588
 1504SOL    HW2 5412   0.901   0.898   4.660
 1505SOL     OW 5413   6.152   0.262   5.783
 1505SOL    HW1 5414   6.128   0.326   5.710
 1505SOL    HW2 5415   6.151   0.311   5.871
 1506SOL     OW 5416   1.990   5.253   1.376
 1506SOL    HW1 5417   1.890   5.256   1.372
 1506SOL    HW2 5418   2.025   5.215   1.290
 1507SOL     OW 5419   0.698   2.182   5.400
 1507SOL    HW1 5420   0.635   2.105   5.387
 1507SOL    HW2 5421   0.774   2.173   5.336
 1508SOL     OW 5422   6.839   0.697   1.848
 1508SOL    HW1 5423   6.837   0.678   1.946
 1508SOL    HW2 5424   6.801   0.620   1.798
 1509SOL     OW 5425   4.660   2.240   6.187
 1509SOL    HW1 5426   4.572   2.268   6.147
 1509SOL    HW2 5427   4.696   2.315   6.243
 1510SOL     OW 5428   5.854   2.827   4.788
 1510SOL    HW1 5429   5.805   2.781   4.862
 1510SOL    HW2 5430   5.789   2.858   4.718
 1511SOL     OW 5431   3.085   2.758   1.413
 1511SOL    HW1 5432   3.162   2.756   1.477
 1511SOL    HW2 5433   3.120   2.761   1.319
 1512SOL     OW 5434   0.164   6.104   1.708
 1512SOL    HW1 5435   0.130   6.033   1.646
 1512SOL    HW2 5436   0.151   6.074   1.803
 1513SOL     OW 5437   3.474   0.496   4.213
 1513SOL    HW1 5438   3.376   0.475   4.209
 1513SOL    HW2 5439   3.526   0.412   4.207
 1514SOL     OW 5440   5.013   2.433   5.505
 1514SOL    HW1 5441   4.988   2.413   5.600
 1514SOL    HW2 5442   5.099   2.388   5.482
 1515SOL     OW 5443   6.251   3.151   5.022
 1515SOL    HW1 5444   6.262   3.111   5.113
 1515SOL    HW2 5445   6.177   3.219   5.025
 1516SOL     OW 5446   0.384   0.098   1.007
 1516SOL    HW1 5447   0.434   0.145   0.934
 1516SOL    HW2 5448   0.425   0.007   1.021
 1517SOL     OW 5449   3.796   5.900   3.433
 1517SOL    HW1 5450   3.766   5.867   3.522
 1517SOL    HW2 5451   3.716   5.928   3.380
 1518SOL     OW 5452   0.606   2.838   0.692
 1518SOL    HW1 5453   0.606   2.743   0.722
 1518SOL    HW2 5454   0.671   2.850   0.617
 1519SOL     OW 5455   6.311   4.974   1.963
 1519SOL    HW1 5456   6.375   4.900   1.941
 1519SOL    HW2 5457   6.349   5.061   1.931
 1520SOL     OW 5458   0.681   3.814   2.238
 1520SOL    HW1 5459   0.717   3.722   2.258
 1520SOL    HW2 5460   0.682   3.869   2.321
 1521SOL     OW 5461   2.432   4.210   6.854
 1521SOL    HW1 5462   2.353   4.200   6.794
 1521SOL    HW2 5463   2.474   4.300   6.840
 1522SOL     OW 5464   6.538   0.250   4.996
 1522SOL    HW1 5465   6.636   0.228   5.002
 1522SOL    HW2 5466   6.503   0.221   4.907
 1523SOL     OW 5467   4.937   3.889   0.093
 1523SOL    HW1 5468   5.023   3.910   0.046
 1523SOL    HW2 5469   4.875   3.841   0.031
 1524SOL     OW 5470   1.110   2.356   1.861
 1524SOL    HW1 5471   1.187   2.311   1.905
 1524SOL    HW2 5472   1.143   2.436   1.810
 1525SOL     OW 5473   6.686   2.135   0.198
 1525SOL    HW1 5474   6.785   2.148   0.207
 1525SOL    HW2 5475   6.667   2.049   0.151
 1526SOL     OW 5476   1.194   0.540   6.620
 1526SOL    HW1 5477   1.149   0.522   6.707
 1526SOL    HW2 5478   1.155   0.481   6.549
 1527SOL     OW 5479   3.573   0.807   5.853
 1527SOL    HW1 5480   3.519   0.879   5.810
 1527SOL    HW2 5481   3.642   0.849   5.912
 1528SOL     OW 5482   5.211   5.752   2.004
 1528SOL    HW1 5483   5.246   5.789   1.917
 1528SOL    HW2 5484   5.275   5.684   2.039
 1529SOL     OW 5485   3.748   0.101   0.294
 1529SOL    HW1 5486   3.741   0.061   0.386
 1529SOL    HW2 5487   3.690   0.050   0.231
 1530SOL     OW 5488   3.306   0.937   2.731
 1530SOL    HW1 5489   3.304   1.027   2.688
 1530SOL    HW2 5490   3.222   0.887   2.708
 1531SOL     OW 5491   5.709   0.805   4.677
 1531SOL    HW1 5492   5.713   0.840   4.583
 1531SOL    HW2 5493   5.632   0.743   4.686
 1532SOL     OW 5494   2.750   3.545   5.974
 1532SOL    HW1 5495   2.757   3.448   5.996
 1532SOL    HW2 5496   2.671   3.584   6.020
 1533SOL     OW 5497   0.284   2.752   0.181
 1533SOL    HW1 5498   0.354   2.768   0.251
 1533SOL    HW2 5499   0.205   2.811   0.198
 1534SOL     OW 5500   1.513   4.898   6.558
 1534SOL    HW1 5501   1.490   4.987   6.597
 1534SOL    HW2 5502   1.602   4.869   6.593
 1535SOL     OW 5503   4.989   6.016   4.166
 1535SOL    HW1 5504   5.039   6.021   4.252
 1535SOL    HW2 5505   4.893   5.992   4.184
 1536SOL     OW 5506   4.234   4.279   5.325
 1536SOL    HW1 5507   4.167   4.349   5.349
 1536SOL    HW2 5508   4.301   4.317   5.261
 1537SOL     OW 5509   3.512   6.039   2.741
 1537SOL    HW1 5510   3.514   6.125   2.792
 1537SOL    HW2 5511   3.570   5.971   2.787
 1538SOL     OW 5512   3.361   5.959   6.110
 1538SOL    HW1 5513   3.409   5.886   6.060
 1538SOL    HW2 5514   3.271   5.974   6.069
 1539SOL     OW 5515   4.363   4.022   1.701
 1539SOL    HW1 5516   4.376   4.057   1.608
 1539SOL    HW2 5517   4.397   4.089   1.767
 1540SOL     OW 5518   1.096   0.168   5.589
 1540SOL    HW1 5519   1.038   0.248   5.582
 1540SOL    HW2 5520   1.098   0.136   5.683
 1541SOL     OW 5521   3.543   2.753   2.041
 1541SOL    HW1 5522   3.590   2.814   2.105
 1541SOL    HW2 5523   3.544   2.660   2.078
 1542SOL     OW 5524   6.489   6.325   1.566
 1542SOL    HW1 5525   6.428   6.398   1.600
 1542SOL    HW2 5526   6.447   6.280   1.488
 1543SOL     OW 5527   3.138   3.922   3.927
 1543SOL    HW1 5528   3.155   3.953   4.020
 1543SOL    HW2 5529   3.079   3.841   3.928
 1544SOL     OW 5530   3.028   3.830   2.108
 1544SOL    HW1 5531   3.125   3.823   2.128
 1544SOL    HW2 5532   2.976   3.833   2.193
 1545SOL     OW 5533   5.376   0.830   4.854
 1545SOL    HW1 5534   5.367   0.892   4.932
 1545SOL    HW2 5535   5.429   0.750   4.881
 1546SOL     OW 5536   5.057   6.577   6.441
 1546SOL    HW1 5537   4.972   6.587   6.492
 1546SOL    HW2 5538   5.049   6.624   6.353
 1547SOL     OW 5539   1.860   4.088   3.130
 1547SOL    HW1 5540   1.906   4.097   3.219
 1547SOL    HW2 5541   1.847   4.179   3.090
 1548SOL     OW 5542   4.705   3.912   6.082
 1548SOL    HW1 5543   4.786   3.962   6.110
 1548SOL    HW2 5544   4.658   3.961   6.009
 1549SOL     OW 5545   4.798   1.402   2.280
 1549SOL    HW1 5546   4.732   1.459   2.231
 1549SOL    HW2 5547   4.760   1.311   2.294
 1550SOL     OW 5548   3.022   5.507   6.385
 1550SOL    HW1 5549   3.058   5.542   6.471
 1550SOL    HW2 5550   2.963   5.429   6.403
 1551SOL     OW 5551   2.754   3.750   0.374
 1551SOL    HW1 5552   2.706   3.708   0.451
 1551SOL    HW2 5553   2.700   3.738   0.291
 1552SOL     OW 5554   0.253   0.630   1.314
 1552SOL    HW1 5555   0.231   0.532   1.322
 1552SOL    HW2 5556   0.178   0.677   1.268
 1553SOL     OW 5557   6.371   0.665   5.558
 1553SOL    HW1 5558   6.422   0.708   5.633
 1553SOL    HW2 5559   6.288   0.718   5.540
 1554SOL     OW 5560   3.715   2.035   3.402
 1554SOL    HW1 5561   3.617   2.053   3.400
 1554SOL    HW2 5562   3.742   2.007   3.494
 1555SOL     OW 5563   4.931   1.736   6.251
 1555SOL    HW1 5564   5.001   1.678   6.293
 1555SOL    HW2 5565   4.843   1.720   6.295
 1556SOL     OW 5566   3.903   1.185   0.256
 1556SOL    HW1 5567   3.992   1.195   0.210
 1556SOL    HW2 5568   3.867   1.093   0.239
 1557SOL     OW 5569   1.942   1.687   6.712
 1557SOL    HW1 5570   1.950   1.596   6.753
 1557SOL    HW2 5571   1.884   1.681   6.631
 1558SOL     OW 5572   5.601   1.192   4.084
 1558SOL    HW1 5573   5.550   1.242   4.014
 1558SOL    HW2 5574   5.628   1.255   4.156
 1559SOL     OW 5575   0.110   2.516   0.345
 1559SOL    HW1 5576   0.120   2.612   0.374
 1559SOL    HW2 5577   0.024   2.506   0.295
 1560SOL     OW 5578   3.091   1.028   6.578
 1560SOL    HW1 5579   3.112   1.108   6.522
 1560SOL    HW2 5580   3.123   0.945   6.530
 1561SOL     OW 5581   5.945   6.647   3.066
 1561SOL    HW1 5582   5.926   6.565   3.012
 1561SOL    HW2 5583   5.977   6.720   3.006
 1562SOL     OW 5584   3.926   6.338   1.372
 1562SOL    HW1 5585   3.983   6.322   1.453
 1562SOL    HW2 5586   3.853   6.271   1.368
 1563SOL     OW 5587   2.417   1.502   6.298
 1563SOL    HW1 5588   2.389   1.426   6.240
 1563SOL    HW2 5589   2.517   1.512   6.294
 1564SOL     OW 5590   1.627   2.427   2.662
 1564SOL    HW1 5591   1.610   2.356   2.593
 1564SOL    HW2 5592   1.549   2.489   2.667
 1565SOL     OW 5593   4.137   5.460   4.351
 1565SOL    HW1 5594   4.185   5.441   4.266
 1565SOL    HW2 5595   4.170   5.399   4.423
 1566SOL     OW 5596   5.912   5.133   4.551
 1566SOL    HW1 5597   6.000   5.146   4.597
 1566SOL    HW2 5598   5.884   5.218   4.507
 1567SOL     OW 5599   6.618   5.857   0.117
 1567SOL    HW1 5600   6.689   5.901   0.063
 1567SOL    HW2 5601   6.537   5.841   0.061
 1568SOL     OW 5602   1.945   6.539   1.660
 1568SOL    HW1 5603   1.866   6.533   1.721
 1568SOL    HW2 5604   1.923   6.600   1.584
 1569SOL     OW 5605   3.125   6.694   3.587
 1569SOL    HW1 5606   3.115   6.595   3.575
 1569SOL    HW2 5607   3.037   6.739   3.573
 1570SOL     OW 5608   2.505   6.681   0.444
 1570SOL    HW1 5609   2.414   6.658   0.478
 1570SOL    HW2 5610   2.502   6.689   0.344
 1571SOL     OW 5611   6.344   1.921   3.134
 1571SOL    HW1 5612   6.272   1.919   3.203
 1571SOL    HW2 5613   6.398   1.837   3.139
 1572SOL     OW 5614   1.812   6.160   1.155
 1572SOL    HW1 5615   1.814   6.071   1.201
 1572SOL    HW2 5616   1.904   6.185   1.128
 1573SOL     OW 5617   6.437   3.773   1.296
 1573SOL    HW1 5618   6.475   3.786   1.204
 1573SOL    HW2 5619   6.349   3.726   1.290
 1574SOL     OW 5620   6.297   2.048   4.021
 1574SOL    HW1 5621   6.258   2.116   4.084
 1574SOL    HW2 5622   6.287   1.957   4.061
 1575SOL     OW 5623   2.653   1.712   1.306
 1575SOL    HW1 5624   2.572   1.676   1.351
 1575SOL    HW2 5625   2.710   1.635   1.275
 1576SOL     OW 5626   1.282   0.280   3.062
 1576SOL    HW1 5627   1.192   0.291   3.104
 1576SOL    HW2 5628   1.329   0.368   3.062
 1577SOL     OW 5629   2.582   0.605   5.575
 1577SOL    HW1 5630   2.626   0.547   5.505
 1577SOL    HW2 5631   2.486   0.617   5.551
 1578SOL     OW 5632   5.050   1.639   5.418
 1578SOL    HW1 5633   5.008   1.562   5.466
 1578SOL    HW2 5634   4.990   1.670   5.344
 1579SOL     OW 5635   0.044   1.847   2.010
 1579SOL    HW1 5636   0.132   1.872   2.050
 1579SOL    HW2 5637   0.048   1.752   1.979
 1580SOL     OW 5638   3.681   4.131   3.679
 1580SOL    HW1 5639   3.599   4.186   3.669
 1580SOL    HW2 5640   3.708   4.094   3.590
 1581SOL     OW 5641   6.271   5.058   4.986
 1581SOL    HW1 5642   6.274   5.158   4.982
 1581SOL    HW2 5643   6.214   5.029   5.063
 1582SOL     OW 5644   1.863   6.590   4.918
 1582SOL    HW1 5645   1.848   6.495   4.946
 1582SOL    HW2 5646   1.881   6.593   4.819
 1583SOL     OW 5647   0.615   6.260   3.242
 1583SOL    HW1 5648   0.707   6.274   3.206
 1583SOL    HW2 5649   0.572   6.181   3.197
 1584SOL     OW 5650   0.770   5.841   5.584
 1584SOL    HW1 5651   0.791   5.818   5.489
 1584SOL    HW2 5652   0.788   5.938   5.599
 1585SOL     OW 5653   4.749   1.959   3.177
 1585SOL    HW1 5654   4.805   1.999   3.249
 1585SOL    HW2 5655   4.800   1.885   3.132
 1586SOL     OW 5656   3.459   5.000   2.337
 1586SOL    HW1 5657   3.515   4.932   2.289
 1586SOL    HW2 5658   3.496   5.014   2.429
 1587SOL     OW 5659   2.297   5.715   5.786
 1587SOL    HW1 5660   2.381   5.763   5.761
 1587SOL    HW2 5661   2.298   5.623   5.747
 1588SOL     OW 5662   4.358   1.071   2.157
 1588SOL    HW1 5663   4.339   1.091   2.060
 1588SOL    HW2 5664   4.398   0.979   2.164
 1589SOL     OW 5665   0.046   3.269   1.995
 1589SOL    HW1 5666   7.000   3.207   1.954
 1589SOL    HW2 5667   0.039   3.265   2.095
 1590SOL     OW 5668   4.597   0.409   3.972
 1590SOL    HW1 5669   4.561   0.428   3.881
 1590SOL    HW2 5670   4.614   0.311   3.982
 1591SOL     OW 5671   6.762   5.733   1.529
 1591SOL    HW1 5672   6.783   5.635   1.522
 1591SOL    HW2 5673   6.835   5.786   1.486
 1592SOL     OW 5674   2.745   3.975   6.229
 1592SOL    HW1 5675   2.771   3.892   6.278
 1592SOL    HW2 5676   2.676   4.025   6.282
 1593SOL     OW 5677   0.934   6.976   5.488
 1593SOL    HW1 5678   0.896   6.913   5.555
 1593SOL    HW2 5679   0.973   0.035   5.535
 1594SOL     OW 5680   1.259   6.626   1.724
 1594SOL    HW1 5681   1.294   6.719   1.710
 1594SOL    HW2 5682   1.177   6.630   1.782
 1595SOL     OW 5683   1.324   5.318   0.703
 1595SOL    HW1 5684   1.422   5.299   0.706
 1595SOL    HW2 5685   1.310   5.415   0.684
 1596SOL     OW 5686   0.371   3.373   4.030
 1596SOL    HW1 5687   0.409   3.442   4.091
 1596SOL    HW2 5688   0.285   3.406   3.992
 1597SOL     OW 5689   1.609   6.074   0.400
 1597SOL    HW1 5690   1.518   6.091   0.438
 1597SOL    HW2 5691   1.671   6.047   0.474
 1598SOL     OW 5692   6.939   4.519   5.750
 1598SOL    HW1 5693   6.914   4.564   5.836
 1598SOL    HW2 5694   0.014   4.539   5.729
 1599SOL     OW 5695   4.923   5.439   4.655
 1599SOL    HW1 5696   4.850   5.481   4.709
 1599SOL    HW2 5697   4.977   5.377   4.713
 1600SOL     OW 5698   3.525   1.037   3.743
 1600SOL    HW1 5699   3.501   1.050   3.839
 1600SOL    HW2 5700   3.552   1.124   3.703
 1601SOL     OW 5701   0.212   6.350   4.067
 1601SOL    HW1 5702   0.122   6.309   4.085
 1601SOL    HW2 5703   0.277   6.321   4.137
 1602SOL     OW 5704   4.387   5.179   4.223
 1602SOL    HW1 5705   4.348   5.152   4.311
 1602SOL    HW2 5706   4.470   5.233   4.239
 1603SOL     OW 5707   1.539   6.853   3.102
 1603SOL    HW1 5708   1.462   6.894   3.151
 1603SOL    HW2 5709   1.522   6.859   3.003
 1604SOL     OW 5710   5.134   4.361   1.486
 1604SOL    HW1 5711   5.229   4.336   1.469
 1604SOL    HW2 5712   5.126   4.406   1.575
 1605SOL     OW 5713   6.536   5.495   1.957
 1605SOL    HW1 5714   6.488   5.520   1.872
 1605SOL    HW2 5715   6.487   5.533   2.035
 1606SOL     OW 5716   4.006   6.313   6.026
 1606SOL    HW1 5717   4.103   6.324   6.002
 1606SOL    HW2 5718   3.950   6.354   5.954
 1607SOL     OW 5719   4.221   0.594   0.728
 1607SOL    HW1 5720   4.167   0.524   0.682
 1607SOL    HW2 5721   4.230   0.570   0.825
 1608SOL     OW 5722   0.466   1.283   3.750
 1608SOL    HW1 5723   0.499   1.238   3.833
 1608SOL    HW2 5724   0.507   1.239   3.670
 1609SOL     OW 5725   4.408   0.061   0.083
 1609SOL    HW1 5726   4.501   0.053   0.119
 1609SOL    HW2 5727   4.361   6.994   0.091
 1610SOL     OW 5728   6.213   4.630   0.113
 1610SOL    HW1 5729   6.310   4.653   0.123
 1610SOL    HW2 5730   6.161   4.714   0.099
 1611SOL     OW 5731   2.687   4.230   0.613
 1611SOL    HW1 5732   2.705   4.150   0.556
 1611SOL    HW2 5733   2.701   4.313   0.559
 1612SOL     OW 5734   2.779   0.738   0.560
 1612SOL    HW1 5735   2.780   0.672   0.635
 1612SOL    HW2 5736   2.745   0.692   0.477
 1613SOL     OW 5737   1.616   5.758   2.146
 1613SOL    HW1 5738   1.551   5.699   2.099
 1613SOL    HW2 5739   1.658   5.706   2.221
 1614SOL     OW 5740   5.287   2.125   6.121
 1614SOL    HW1 5741   5.190   2.101   6.116
 1614SOL    HW2 5742   5.336   2.054   6.172
 1615SOL     OW 5743   6.217   5.677   0.877
 1615SOL    HW1 5744   6.290   5.667   0.809
 1615SOL    HW2 5745   6.129   5.687   0.830
 1616SOL     OW 5746   3.693   0.876   4.958
 1616SOL    HW1 5747   3.649   0.935   5.026
 1616SOL    HW2 5748   3.748   0.932   4.896
 1617SOL     OW 5749   5.553   6.561   2.999
 1617SOL    HW1 5750   5.642   6.585   3.039
 1617SOL    HW2 5751   5.563   6.542   2.902
 1618SOL     OW 5752   1.842   6.149   2.698
 1618SOL    HW1 5753   1.896   6.092   2.636
 1618SOL    HW2 5754   1.825   6.098   2.783
 1619SOL     OW 5755   0.530   4.396   1.582
 1619SOL    HW1 5756   0.570   4.317   1.629
 1619SOL    HW2 5757   0.542   4.386   1.483
 1620SOL     OW 5758   2.778   4.402   1.699
 1620SOL    HW1 5759   2.785   4.471   1.627
 1620SOL    HW2 5760   2.828   4.432   1.780
 1621SOL     OW 5761   6.611   1.250   0.469
 1621SOL    HW1 5762   6.654   1.330   0.512
 1621SOL    HW2 5763   6.515   1.270   0.451
 1622SOL     OW 5764   0.406   3.419   5.333
 1622SOL    HW1 5765   0.339   3.359   5.288
 1622SOL    HW2 5766   0.368   3.454   5.418
 1623SOL     OW 5767   1.377   2.966   5.154
 1623SOL    HW1 5768   1.445   2.904   5.114
 1623SOL    HW2 5769   1.301   2.976   5.091
 1624SOL     OW 5770   3.557   1.528   4.690
 1624SOL    HW1 5771   3.470   1.557   4.728
 1624SOL    HW2 5772   3.627   1.597   4.708
 1625SOL     OW 5773   1.218   4.577   0.287
 1625SOL    HW1 5774   1.188   4.554   0.194
 1625SOL    HW2 5775   1.315   4.601   0.285
 1626SOL     OW 5776   3.911   1.057   0.594
 1626SOL    HW1 5777   3.876   1.116   0.521
 1626SOL    HW2 5778   4.007   1.037   0.578
 1627SOL     OW 5779   6.379   3.372   3.851
 1627SOL    HW1 5780   6.425   3.442   3.796
 1627SOL    HW2 5781   6.447   3.307   3.885
 1628SOL     OW 5782   4.591   4.733   0.484
 1628SOL    HW1 5783   4.589   4.819   0.536
 1628SOL    HW2 5784   4.533   4.665   0.529
 1629SOL     OW 5785   2.768   1.347   3.760
 1629SOL    HW1 5786   2.840   1.413   3.778
 1629SOL    HW2 5787   2.716   1.375   3.679
 1630SOL     OW 5788   1.100   5.008   6.057
 1630SOL    HW1 5789   1.022   5.001   5.995
 1630SOL    HW2 5790   1.124   4.917   6.090
 1631SOL     OW 5791   1.412   2.963   0.586
 1631SOL    HW1 5792   1.409   2.896   0.511
 1631SOL    HW2 5793   1.495   2.949   0.639
 1632SOL     OW 5794   5.809   2.662   1.417
 1632SOL    HW1 5795   5.750   2.618   1.485
 1632SOL    HW2 5796   5.892   2.608   1.406
 1633SOL     OW 5797   5.343   3.977   4.403
 1633SOL    HW1 5798   5.273   4.047   4.385
 1633SOL    HW2 5799   5.406   3.973   4.325
 1634SOL     OW 5800   4.514   5.706   4.383
 1634SOL    HW1 5801   4.437   5.743   4.332
 1634SOL    HW2 5802   4.583   5.670   4.319
 1635SOL     OW 5803   0.322   5.015   6.810
 1635SOL    HW1 5804   0.394   5.056   6.753
 1635SOL    HW2 5805   0.251   4.976   6.752
 1636SOL     OW 5806   3.147   4.508   1.144
 1636SOL    HW1 5807   3.243   4.483   1.129
 1636SOL    HW2 5808   3.093   4.478   1.066
 1637SOL     OW 5809   6.935   0.767   2.930
 1637SOL    HW1 5810   6.900   0.789   3.021
 1637SOL    HW2 5811   0.011   0.791   2.925
 1638SOL     OW 5812   0.010   4.487   3.377
 1638SOL    HW1 5813   0.089   4.492   3.316
 1638SOL    HW2 5814   6.988   4.577   3.383
 1639SOL     OW 5815   5.521   6.186   1.568
 1639SOL    HW1 5816   5.450   6.203   1.637
 1639SOL    HW2 5817   5.568   6.100   1.590
 1640SOL     OW 5818   6.130   0.724   6.629
 1640SOL    HW1 5819   6.210   0.703   6.686
 1640SOL    HW2 5820   6.057   0.762   6.686
 1641SOL     OW 5821   4.513   2.343   2.369
 1641SOL    HW1 5822   4.459   2.329   2.286
 1641SOL    HW2 5823   4.579   2.268   2.379
 1642SOL     OW 5824   0.515   3.363   6.982
 1642SOL    HW1 5825   0.490   3.276   0.004
 1642SOL    HW2 5826   0.447   3.387   6.913
 1643SOL     OW 5827   2.450   5.155   4.214
 1643SOL    HW1 5828   2.396   5.237   4.232
 1643SOL    HW2 5829   2.403   5.098   4.147
 1644SOL     OW 5830   5.779   4.385   6.585
 1644SOL    HW1 5831   5.758   4.288   6.591
 1644SOL    HW2 5832   5.862   4.398   6.531
 1645SOL     OW 5833   3.337   5.785   6.345
 1645SOL    HW1 5834   3.373   5.782   6.252
 1645SOL    HW2 5835   3.411   5.806   6.409
 1646SOL     OW 5836   2.772   0.166   0.859
 1646SOL    HW1 5837   2.776   0.112   0.775
 1646SOL    HW2 5838   2.775   0.105   0.938
 1647SOL     OW 5839   5.939   3.740   4.632
 1647SOL    HW1 5840   5.922   3.643   4.650
 1647SOL    HW2 5841   6.037   3.755   4.620
 1648SOL     OW 5842   5.419   5.534   0.442
 1648SOL    HW1 5843   5.469   5.553   0.526
 1648SOL    HW2 5844   5.329   5.496   0.465
 1649SOL     OW 5845   3.808   1.375   3.497
 1649SOL    HW1 5846   3.869   1.318   3.441
 1649SOL    HW2 5847   3.818   1.471   3.470
 1650SOL     OW 5848   1.082   6.154   4.969
 1650SOL    HW1 5849   1.088   6.055   4.975
 1650SOL    HW2 5850   0.988   6.181   4.947
 1651SOL     OW 5851   0.055   1.902   1.626
 1651SOL    HW1 5852   0.025   1.837   1.555
 1651SOL    HW2 5853   0.073   1.853   1.711
 1652SOL     OW 5854   1.059   3.103   2.815
 1652SOL    HW1 5855   1.095   3.067   2.729
 1652SOL    HW2 5856   1.115   3.180   2.845
 1653SOL     OW 5857   1.324   7.011   6.767
 1653SOL    HW1 5858   1.259   7.003   6.842
 1653SOL    HW2 5859   1.311   6.935   6.703
 1654SOL     OW 5860   0.390   3.578   2.007
 1654SOL    HW1 5861   0.434   3.488   2.011
 1654SOL    HW2 5862   0.429   3.638   2.076
 1655SOL     OW 5863   0.092   2.238   5.060
 1655SOL    HW1 5864   0.109   2.303   4.986
 1655SOL    HW2 5865   0.028   2.168   5.028
 1656SOL     OW 5866   2.373   4.499   2.786
 1656SOL    HW1 5867   2.472   4.508   2.798
 1656SOL    HW2 5868   2.336   4.582   2.745
 1657SOL     OW 5869   6.980   1.042   4.709
 1657SOL    HW1 5870   0.023   1.062   4.635
 1657SOL    HW2 5871   7.005   1.096   4.789
 1658SOL     OW 5872   6.824   0.105   1.524
 1658SOL    HW1 5873   6.809   0.101   1.623
 1658SOL    HW2 5874   6.748   0.060   1.477
 1659SOL     OW 5875   3.369   0.167   0.118
 1659SOL    HW1 5876   3.356   0.182   0.216
 1659SOL    HW2 5877   3.452   0.215   0.088
 1660SOL     OW 5878   2.043   5.965   2.548
 1660SOL    HW1 5879   2.092   6.050   2.564
 1660SOL    HW2 5880   2.050   5.939   2.452
 1661SOL     OW 5881   2.534   6.681   1.380
 1661SOL    HW1 5882   2.549   6.668   1.282
 1661SOL    HW2 5883   2.568   6.601   1.429
 1662SOL     OW 5884   0.747   0.915   4.066
 1662SOL    HW1 5885   0.794   0.909   4.154
 1662SOL    HW2 5886   0.671   0.850   4.065
 1663SOL     OW 5887   3.954   6.118   3.504
 1663SOL    HW1 5888   3.908   6.042   3.459
 1663SOL    HW2 5889   3.886   6.176   3.549
 1664SOL     OW 5890   2.036   6.395   5.237
 1664SOL    HW1 5891   2.018   6.300   5.266
 1664SOL    HW2 5892   1.959   6.453   5.263
 1665SOL     OW 5893   6.740   2.686   2.413
 1665SOL    HW1 5894   6.778   2.617   2.474
 1665SOL    HW2 5895   6.654   2.653   2.374
 1666SOL     OW 5896   5.148   1.604   6.367
 1666SOL    HW1 5897   5.224   1.644   6.419
 1666SOL    HW2 5898   5.077   1.574   6.430
 1667SOL     OW 5899   0.468   6.635   0.908
 1667SOL    HW1 5900   0.547   6.581   0.937
 1667SOL    HW2 5901   0.387   6.605   0.956
 1668SOL     OW 5902   4.886   6.376   3.245
 1668SOL    HW1 5903   4.882   6.403   3.149
 1668SOL    HW2 5904   4.882   6.277   3.253
 1669SOL     OW 5905   6.374   4.908   6.521
 1669SOL    HW1 5906   6.296   4.881   6.579
 1669SOL    HW2 5907   6.340   4.942   6.433
 1670SOL     OW 5908   0.449   3.843   5.816
 1670SOL    HW1 5909   0.537   3.891   5.810
 1670SOL    HW2 5910   0.464   3.745   5.804
 1671SOL     OW 5911   5.341   1.205   2.912
 1671SOL    HW1 5912   5.250   1.201   2.952
 1671SOL    HW2 5913   5.392   1.281   2.953
 1672SOL     OW 5914   1.417   3.066   0.941
 1672SOL    HW1 5915   1.426   3.035   0.847
 1672SOL    HW2 5916   1.348   3.010   0.988
 1673SOL     OW 5917   0.285   1.458   4.728
 1673SOL    HW1 5918   0.288   1.552   4.694
 1673SOL    HW2 5919   0.200   1.414   4.697
 1674SOL     OW 5920   1.054   2.972   2.275
 1674SOL    HW1 5921   1.132   2.929   2.231
 1674SOL    HW2 5922   1.043   3.065   2.241
 1675SOL     OW 5923   5.182   6.730   0.430
 1675SOL    HW1 5924   5.082   6.738   0.432
 1675SOL    HW2 5925   5.212   6.715   0.336
 1676SOL     OW 5926   2.352   2.875   1.339
 1676SOL    HW1 5927   2.395   2.800   1.388
 1676SOL    HW2 5928   2.260   2.891   1.377
 1677SOL     OW 5929   3.368   3.339   4.090
 1677SOL    HW1 5930   3.317   3.262   4.051
 1677SOL    HW2 5931   3.464   3.312   4.101
 1678SOL     OW 5932   5.998   4.290   3.508
 1678SOL    HW1 5933   5.935   4.228   3.555
 1678SOL    HW2 5934   6.055   4.337   3.576
 1679SOL     OW 5935   2.535   2.596   4.492
 1679SOL    HW1 5936   2.497   2.632   4.578
 1679SOL    HW2 5937   2.470   2.611   4.418
 1680SOL     OW 5938   0.255   3.058   5.516
 1680SOL    HW1 5939   0.281   3.141   5.565
 1680SOL    HW2 5940   0.225   2.988   5.582
 1681SOL     OW 5941   6.974   5.389   6.832
 1681SOL    HW1 5942   6.903   5.453   6.862
 1681SOL    HW2 5943   6.983   5.394   6.732
 1682SOL     OW 5944   1.942   0.529   5.533
 1682SOL    HW1 5945   1.957   0.585   5.614
 1682SOL    HW2 5946   1.848   0.495   5.534
 1683SOL     OW 5947   5.042   4.844   1.928
 1683SOL    HW1 5948   5.079   4.813   2.016
 1683SOL    HW2 5949   5.010   4.765   1.876
 1684SOL     OW 5950   0.889   6.226   2.179
 1684SOL    HW1 5951   0.962   6.160   2.200
 1684SOL    HW2 5952   0.910   6.273   2.093
 1685SOL     OW 5953   2.257   0.883   5.243
 1685SOL    HW1 5954   2.294   0.796   5.210
 1685SOL    HW2 5955   2.169   0.867   5.287
 1686SOL     OW 5956   2.522   5.829   4.397
 1686SOL    HW1 5957   2.619   5.830   4.374
 1686SOL    HW2 5958   2.471   5.779   4.327
 1687SOL     OW 5959   2.100   3.173   2.137
 1687SOL    HW1 5960   2.093   3.193   2.039
 1687SOL    HW2 5961   2.083   3.256   2.189
 1688SOL     OW 5962   2.318   2.131   4.125
 1688SOL    HW1 5963   2.407   2.108   4.164
 1688SOL    HW2 5964   2.302   2.075   4.043
 1689SOL     OW 5965   6.140   1.090   2.972
 1689SOL    HW1 5966   6.173   1.047   2.888
 1689SOL    HW2 5967   6.131   1.021   3.044
 1690SOL     OW 5968   1.321   2.892   4.259
 1690SOL    HW1 5969   1.259   2.855   4.327
 1690SOL    HW2 5970   1.386   2.954   4.303
 1691SOL     OW 5971   5.368   3.495   3.385
 1691SOL    HW1 5972   5.460   3.532   3.376
 1691SOL    HW2 5973   5.333   3.512   3.477
 1692SOL     OW 5974   5.091   6.212   1.208
 1692SOL    HW1 5975   5.007   6.251   1.170
 1692SOL    HW2 5976   5.158   6.201   1.135
 1693SOL     OW 5977   6.586   1.784   2.322
 1693SOL    HW1 5978   6.586   1.882   2.300
 1693SOL    HW2 5979   6.668   1.741   2.283
 1694SOL     OW 5980   5.527   1.009   2.862
 1694SOL    HW1 5981   5.527   1.069   2.782
 1694SOL    HW2 5982   5.466   1.046   2.932
 1695SOL     OW 5983   4.255   0.881   6.324
 1695SOL    HW1 5984   4.192   0.927   6.386
 1695SOL    HW2 5985   4.321   0.827   6.376
 1696SOL     OW 5986   4.218   5.787   0.410
 1696SOL    HW1 5987   4.292   5.744   0.463
 1696SOL    HW2 5988   4.254   5.820   0.323
 1697SOL     OW 5989   6.415   1.066   0.355
 1697SOL    HW1 5990   6.513   1.068   0.332
 1697SOL    HW2 5991   6.362   1.095   0.275
 1698SOL     OW 5992   3.065   0.367   0.343
 1698SOL    HW1 5993   3.164   0.365   0.334
 1698SOL    HW2 5994   3.037   0.451   0.389
 1699SOL     OW 5995   2.692   1.438   0.022
 1699SOL    HW1 5996   2.739   1.516   7.002
 1699SOL    HW2 5997   2.644   1.387   6.972
 1700SOL     OW 5998   6.144   3.888   3.848
 1700SOL    HW1 5999   6.189   3.949   3.783
 1700SOL    HW2 6000   6.061   3.850   3.806
 1701SOL     OW 6001   5.135   4.699   5.471
 1701SOL    HW1 6002   5.046   4.726   5.506
 1701SOL    HW2 6003   5.167   4.618   5.520
 1702SOL     OW 6004   6.357   1.086   0.730
 1702SOL    HW1 6005   6.396   1.153   0.793
 1702SOL    HW2 6006   6.344   1.129   0.640
 1703SOL     OW 6007   3.382   2.467   0.805
 1703SOL    HW1 6008   3.404   2.562   0.779
 1703SOL    HW2 6009   3.433   2.443   0.888
 1704SOL     OW 6010   1.036   2.006   1.616
 1704SOL    HW1 6011   1.078   1.998   1.706
 1704SOL    HW2 6012   0.940   1.979   1.621
 1705SOL     OW 6013   3.390   2.110   2.539
 1705SOL    HW1 6014   3.405   2.140   2.633
 1705SOL    HW2 6015   3.442   2.026   2.522
 1706SOL     OW 6016   5.223   1.085   2.199
 1706SOL    HW1 6017   5.320   1.110   2.190
 1706SOL    HW2 6018   5.185   1.067   2.109
 1707SOL     OW 6019   4.882   2.135   1.755
 1707SOL    HW1 6020   4.793   2.161   1.791
 1707SOL    HW2 6021   4.953   2.157   1.822
 1708SOL     OW 6022   5.090   5.177   2.152
 1708SOL    HW1 6023   5.153   5.255   2.153
 1708SOL    HW2 6024   5.009   5.200   2.099
 1709SOL     OW 6025   3.235   6.097   2.317
 1709SOL    HW1 6026   3.141   6.102   2.351
 1709SOL    HW2 6027   3.297   6.139   2.383
 1710SOL     OW 6028   4.900   4.619   3.543
 1710SOL    HW1 6029   4.978   4.673   3.511
 1710SOL    HW2 6030   4.900   4.616   3.643
 1711SOL     OW 6031   1.432   4.455   4.583
 1711SOL    HW1 6032   1.395   4.518   4.651
 1711SOL    HW2 6033   1.531   4.446   4.596
 1712SOL     OW 6034   6.713   2.495   5.023
 1712SOL    HW1 6035   6.654   2.498   5.104
 1712SOL    HW2 6036   6.751   2.403   5.013
 1713SOL     OW 6037   5.021   2.355   2.121
 1713SOL    HW1 6038   5.050   2.285   2.057
 1713SOL    HW2 6039   5.005   2.441   2.072
 1714SOL     OW 6040   3.233   1.092   6.277
 1714SOL    HW1 6041   3.237   1.157   6.353
 1714SOL    HW2 6042   3.228   0.999   6.314
 1715SOL     OW 6043   1.899   5.360   2.882
 1715SOL    HW1 6044   1.964   5.365   2.958
 1715SOL    HW2 6045   1.815   5.316   2.912
 1716SOL     OW 6046   4.914   6.983   2.663
 1716SOL    HW1 6047   4.951   0.016   2.738
 1716SOL    HW2 6048   4.820   6.957   2.683
 1717SOL     OW 6049   2.838   5.808   5.846
 1717SOL    HW1 6050   2.928   5.814   5.891
 1717SOL    HW2 6051   2.851   5.802   5.747
 1718SOL     OW 6052   2.835   1.580   1.880
 1718SOL    HW1 6053   2.928   1.600   1.848
 1718SOL    HW2 6054   2.775   1.565   1.801
 1719SOL     OW 6055   2.291   3.217   1.132
 1719SOL    HW1 6056   2.349   3.298   1.123
 1719SOL    HW2 6057   2.315   3.168   1.216
 1720SOL     OW 6058   0.437   3.120   0.094
 1720SOL    HW1 6059   0.400   3.028   0.082
 1720SOL    HW2 6060   0.508   3.119   0.164
 1721SOL     OW 6061   2.127   6.814   1.574
 1721SOL    HW1 6062   2.110   6.858   1.662
 1721SOL    HW2 6063   2.193   6.739   1.587
 1722SOL     OW 6064   3.017   1.444   3.870
 1722SOL    HW1 6065   3.008   1.541   3.845
 1722SOL    HW2 6066   3.074   1.398   3.802
 1723SOL     OW 6067   5.942   2.310   1.211
 1723SOL    HW1 6068   5.971   2.214   1.206
 1723SOL    HW2 6069   6.003   2.360   1.271
 1724SOL     OW 6070   6.847   3.020   2.262
 1724SOL    HW1 6071   6.839   3.065   2.351
 1724SOL    HW2 6072   6.756   2.999   2.227
 1725SOL     OW 6073   2.026   4.620   6.243
 1725SOL    HW1 6074   1.965   4.546   6.215
 1725SOL    HW2 6075   1.982   4.708   6.225
 1726SOL     OW 6076   6.369   4.549   5.337
 1726SOL    HW1 6077   6.427   4.619   5.295
 1726SOL    HW2 6078   6.278   4.551   5.295
 1727SOL     OW 6079   3.326   2.926   3.850
 1727SOL    HW1 6080   3.253   2.995   3.849
 1727SOL    HW2 6081   3.362   2.916   3.943
 1728SOL     OW 6082   5.557   5.358   5.217
 1728SOL    HW1 6083   5.574   5.376   5.314
 1728SOL    HW2 6084   5.573   5.261   5.198
 1729SOL     OW 6085   2.127   4.245   3.275
 1729SOL    HW1 6086   2.105   4.343   3.267
 1729SOL    HW2 6087   2.052   4.197   3.320
 1730SOL     OW 6088   1.313   0.048   5.173
 1730SOL    HW1 6089   1.324   0.040   5.272
 1730SOL    HW2 6090   1.229   0.001   5.145
 1731SOL     OW 6091   0.448   4.510   3.856
 1731SOL    HW1 6092   0.393   4.435   3.818
 1731SOL    HW2 6093   0.533   4.519   3.804
 1732SOL     OW 6094   2.116   4.671   5.652
 1732SOL    HW1 6095   2.171   4.726   5.716
 1732SOL    HW2 6096   2.076   4.732   5.583
 1733SOL     OW 6097   1.814   4.367   1.761
 1733SOL    HW1 6098   1.914   4.358   1.769
 1733SOL    HW2 6099   1.773   4.276   1.759
 1734SOL     OW 6100   4.689   3.264   1.166
 1734SOL    HW1 6101   4.733   3.311   1.089
 1734SOL    HW2 6102   4.590   3.264   1.153
 1735SOL     OW 6103   4.818   4.943   6.832
 1735SOL    HW1 6104   4.734   4.981   6.870
 1735SOL    HW2 6105   4.881   4.921   6.906
 1736SOL     OW 6106   3.594   3.693   0.889
 1736SOL    HW1 6107   3.602   3.755   0.811
 1736SOL    HW2 6108   3.503   3.652   0.890
 1737SOL     OW 6109   3.960   1.199   4.383
 1737SOL    HW1 6110   3.957   1.144   4.300
 1737SOL    HW2 6111   3.929   1.145   4.461
 1738SOL     OW 6112   1.882   2.698   4.163
 1738SOL    HW1 6113   1.797   2.653   4.134
 1738SOL    HW2 6114   1.890   2.693   4.262
 1739SOL     OW 6115   6.733   1.442   5.616
 1739SOL    HW1 6116   6.658   1.506   5.600
 1739SOL    HW2 6117   6.696   1.354   5.646
 1740SOL     OW 6118   6.915   2.576   5.340
 1740SOL    HW1 6119   6.992   2.521   5.306
 1740SOL    HW2 6120   6.900   2.557   5.437
 1741SOL     OW 6121   2.454   0.446   4.150
 1741SOL    HW1 6122   2.380   0.400   4.101
 1741SOL    HW2 6123   2.507   0.500   4.085
 1742SOL     OW 6124   5.616   0.686   5.974
 1742SOL    HW1 6125   5.516   0.697   5.976
 1742SOL    HW2 6126   5.657   0.752   6.036
 1743SOL     OW 6127   0.679   2.461   2.468
 1743SOL    HW1 6128   0.708   2.555   2.451
 1743SOL    HW2 6129   0.668   2.447   2.566
 1744SOL     OW 6130   5.945   2.803   3.200
 1744SOL    HW1 6131   5.932   2.799   3.101
 1744SOL    HW2 6132   6.037   2.772   3.224
 1745SOL     OW 6133   5.570   5.665   2.245
 1745SOL    HW1 6134   5.627   5.707   2.175
 1745SOL    HW2 6135   5.544   5.573   2.217
 1746SOL     OW 6136   2.017   4.085   4.599
 1746SOL    HW1 6137   2.057   4.004   4.554
 1746SOL    HW2 6138   2.020   4.162   4.536
 1747SOL     OW 6139   4.621   1.688   2.845
 1747SOL    HW1 6140   4.717   1.673   2.867
 1747SOL    HW2 6141   4.606   1.786   2.828
 1748SOL     OW 6142   0.461   1.633   5.310
 1748SOL    HW1 6143   0.372   1.669   5.280
 1748SOL    HW2 6144   0.530   1.654   5.241
 1749SOL     OW 6145   2.182   6.663   5.254
 1749SOL    HW1 6146   2.247   6.739   5.260
 1749SOL    HW2 6147   2.228   6.579   5.282
 1750SOL     OW 6148   5.013   6.078   3.541
 1750SOL    HW1 6149   5.035   6.089   3.444
 1750SOL    HW2 6150   5.092   6.039   3.589
 1751SOL     OW 6151   4.081   0.668   3.772
 1751SOL    HW1 6152   4.050   0.762   3.752
 1751SOL    HW2 6153   4.071   0.612   3.690
 1752SOL     OW 6154   6.338   1.661   2.292
 1752SOL    HW1 6155   6.373   1.590   2.230
 1752SOL    HW2 6156   6.414   1.699   2.345
 1753SOL     OW 6157   6.693   1.122   1.119
 1753SOL    HW1 6158   6.769   1.181   1.089
 1753SOL    HW2 6159   6.692   1.039   1.064
 1754SOL     OW 6160   1.485   4.809   6.854
 1754SOL    HW1 6161   1.416   4.834   6.922
 1754SOL    HW2 6162   1.550   4.884   6.844
 1755SOL     OW 6163   0.283   6.473   1.177
 1755SOL    HW1 6164   0.307   6.465   1.274
 1755SOL    HW2 6165   0.326   6.398   1.126
 1756SOL     OW 6166   4.078   5.220   5.623
 1756SOL    HW1 6167   4.092   5.246   5.528
 1756SOL    HW2 6168   4.030   5.294   5.670
 1757SOL     OW 6169   2.282   5.358   4.377
 1757SOL    HW1 6170   2.219   5.404   4.439
 1757SOL    HW2 6171   2.376   5.384   4.401
 1758SOL     OW 6172   2.358   0.675   4.582
 1758SOL    HW1 6173   2.321   0.678   4.489
 1758SOL    HW2 6174   2.384   0.581   4.604
 1759SOL     OW 6175   1.908   6.649   5.348
 1759SOL    HW1 6176   2.007   6.655   5.340
 1759SOL    HW2 6177   1.866   6.691   5.267
 1760SOL     OW 6178   5.550   0.832   3.457
 1760SOL    HW1 6179   5.640   0.826   3.499
 1760SOL    HW2 6180   5.479   0.832   3.528
 1761SOL     OW 6181   0.051   0.817   1.223
 1761SOL    HW1 6182   6.984   0.772   1.238
 1761SOL    HW2 6183   0.083   0.858   1.309
 1762SOL     OW 6184   0.656   1.434   4.157
 1762SOL    HW1 6185   0.563   1.460   4.132
 1762SOL    HW2 6186   0.711   1.423   4.074
 1763SOL     OW 6187   0.774   4.566   4.079
 1763SOL    HW1 6188   0.807   4.530   3.991
 1763SOL    HW2 6189   0.674   4.560   4.081
 1764SOL     OW 6190   2.116   3.298   2.500
 1764SOL    HW1 6191   2.105   3.364   2.425
 1764SOL    HW2 6192   2.211   3.265   2.500
 1765SOL     OW 6193   3.794   1.103   1.596
 1765SOL    HW1 6194   3.867   1.153   1.642
 1765SOL    HW2 6195   3.808   1.005   1.608
 1766SOL     OW 6196   5.509   4.435   3.172
 1766SOL    HW1 6197   5.484   4.498   3.246
 1766SOL    HW2 6198   5.491   4.479   3.084
 1767SOL     OW 6199   0.976   4.047   2.663
 1767SOL    HW1 6200   0.982   4.104   2.581
 1767SOL    HW2 6201   0.881   4.042   2.694
 1768SOL     OW 6202   3.509   1.088   6.536
 1768SOL    HW1 6203   3.532   1.022   6.607
 1768SOL    HW2 6204   3.448   1.158   6.574
 1769SOL     OW 6205   4.515   1.494   6.621
 1769SOL    HW1 6206   4.525   1.592   6.604
 1769SOL    HW2 6207   4.450   1.455   6.555
 1770SOL     OW 6208   6.601   4.351   4.742
 1770SOL    HW1 6209   6.642   4.375   4.830
 1770SOL    HW2 6210   6.508   4.316   4.756
 1771SOL     OW 6211   1.757   5.571   1.088
 1771SOL    HW1 6212   1.851   5.548   1.064
 1771SOL    HW2 6213   1.722   5.505   1.154
 1772SOL     OW 6214   3.865   6.145   3.001
 1772SOL    HW1 6215   3.813   6.176   3.080
 1772SOL    HW2 6216   3.949   6.099   3.032
 1773SOL     OW 6217   2.916   2.910   6.125
 1773SOL    HW1 6218   2.850   2.960   6.069
 1773SOL    HW2 6219   2.932   2.961   6.210
 1774SOL     OW 6220   4.655   5.892   1.647
 1774SOL    HW1 6221   4.607   5.853   1.569
 1774SOL    HW2 6222   4.653   5.992   1.641
 1775SOL     OW 6223   2.254   4.537   5.415
 1775SOL    HW1 6224   2.352   4.552   5.420
 1775SOL    HW2 6225   2.207   4.603   5.473
 1776SOL     OW 6226   4.959   1.031   6.041
 1776SOL    HW1 6227   5.032   1.000   6.102
 1776SOL    HW2 6228   4.873   1.036   6.091
 1777SOL     OW 6229   3.482   6.363   6.098
 1777SOL    HW1 6230   3.455   6.285   6.155
 1777SOL    HW2 6231   3.437   6.446   6.131
 1778SOL     OW 6232   4.956   2.196   4.247
 1778SOL    HW1 6233   4.926   2.101   4.239
 1778SOL    HW2 6234   5.002   2.223   4.162
 1779SOL     OW 6235   4.165   0.970   5.144
 1779SOL    HW1 6236   4.136   0.948   5.238
 1779SOL    HW2 6237   4.110   1.046   5.110
 1780SOL     OW 6238   2.228   3.855   5.945
 1780SOL    HW1 6239   2.287   3.774   5.947
 1780SOL    HW2 6240   2.176   3.856   5.859
 1781SOL     OW 6241   5.421   5.295   3.881
 1781SOL    HW1 6242   5.351   5.352   3.838
 1781SOL    HW2 6243   5.437   5.328   3.975
 1782SOL     OW 6244   3.510   1.261   3.107
 1782SOL    HW1 6245   3.441   1.216   3.050
 1782SOL    HW2 6246   3.465   1.305   3.185
 1783SOL     OW 6247   2.498   3.256   5.932
 1783SOL    HW1 6248   2.588   3.291   5.905
 1783SOL    HW2 6249   2.492   3.159   5.908
 1784SOL     OW 6250   2.142   1.267   1.952
 1784SOL    HW1 6251   2.106   1.187   1.904
 1784SOL    HW2 6252   2.102   1.271   2.044
 1785SOL     OW 6253   6.012   6.035   3.842
 1785SOL    HW1 6254   5.926   5.988   3.862
 1785SOL    HW2 6255   6.080   5.969   3.809
 1786SOL     OW 6256   1.547   3.919   0.599
 1786SOL    HW1 6257   1.563   3.943   0.695
 1786SOL    HW2 6258   1.524   4.002   0.548
 1787SOL     OW 6259   2.625   1.579   5.482
 1787SOL    HW1 6260   2.695   1.604   5.415
 1787SOL    HW2 6261   2.560   1.654   5.492
 1788SOL     OW 6262   3.540   4.052   0.427
 1788SOL    HW1 6263   3.552   4.141   0.471
 1788SOL    HW2 6264   3.449   4.046   0.387
 1789SOL     OW 6265   5.731   2.683   2.079
 1789SOL    HW1 6266   5.648   2.628   2.080
 1789SOL    HW2 6267   5.730   2.746   2.157
 1790SOL     OW 6268   3.241   0.695   4.539
 1790SOL    HW1 6269   3.195   0.723   4.624
 1790SOL    HW2 6270   3.339   0.691   4.554
 1791SOL     OW 6271   6.414   1.166   4.238
 1791SOL    HW1 6272   6.362   1.116   4.169
 1791SOL    HW2 6273   6.361   1.168   4.324
 1792SOL     OW 6274   0.398   1.583   4.458
 1792SOL    HW1 6275   0.328   1.517   4.430
 1792SOL    HW2 6276   0.373   1.621   4.548
 1793SOL     OW 6277   6.677   1.013   4.280
 1793SOL    HW1 6278   6.746   1.020   4.208
 1793SOL    HW2 6279   6.603   1.078   4.262
 1794SOL     OW 6280   4.685   6.498   5.704
 1794SOL    HW1 6281   4.647   6.456   5.787
 1794SOL    HW2 6282   4.637   6.584   5.685
 1795SOL     OW 6283   6.456   5.288   2.294
 1795SOL    HW1 6284   6.501   5.376   2.312
 1795SOL    HW2 6285   6.524   5.215   2.297
 1796SOL     OW 6286   2.112   1.019   5.012
 1796SOL    HW1 6287   2.177   1.092   5.032
 1796SOL    HW2 6288   2.160   0.940   4.974
 1797SOL     OW 6289   1.789   6.904   5.818
 1797SOL    HW1 6290   1.792   6.874   5.913
 1797SOL    HW2 6291   1.701   6.946   5.799
 1798SOL     OW 6292   4.085   3.070   5.198
 1798SOL    HW1 6293   4.165   3.071   5.259
 1798SOL    HW2 6294   4.037   3.157   5.206
 1799SOL     OW 6295   5.804   2.992   6.367
 1799SOL    HW1 6296   5.848   3.046   6.440
 1799SOL    HW2 6297   5.739   3.050   6.318
 1800SOL     OW 6298   4.817   4.916   3.293
 1800SOL    HW1 6299   4.901   4.878   3.254
 1800SOL    HW2 6300   4.747   4.844   3.296
 1801SOL     OW 6301   1.156   1.611   3.000
 1801SOL    HW1 6302   1.236   1.672   3.000
 1801SOL    HW2 6303   1.153   1.560   2.914
 1802SOL     OW 6304   6.493   6.294   2.849
 1802SOL    HW1 6305   6.414   6.355   2.854
 1802SOL    HW2 6306   6.468   6.211   2.800
 1803SOL     OW 6307   6.625   6.912   2.562
 1803SOL    HW1 6308   6.658   7.006   2.565
 1803SOL    HW2 6309   6.553   6.904   2.493
 1804SOL     OW 6310   3.699   3.399   5.132
 1804SOL    HW1 6311   3.610   3.426   5.095
 1804SOL    HW2 6312   3.763   3.476   5.123
 1805SOL     OW 6313   1.311   4.803   5.893
 1805SOL    HW1 6314   1.277   4.758   5.976
 1805SOL    HW2 6315   1.383   4.868   5.917
 1806SOL     OW 6316   0.423   2.409   1.643
 1806SOL    HW1 6317   0.465   2.411   1.733
 1806SOL    HW2 6318   0.493   2.394   1.573
 1807SOL     OW 6319   6.801   2.122   6.319
 1807SOL    HW1 6320   6.793   2.042   6.379
 1807SOL    HW2 6321   6.763   2.100   6.229
 1808SOL     OW 6322   5.719   4.823   4.388
 1808SOL    HW1 6323   5.697   4.920   4.392
 1808SOL    HW2 6324   5.636   4.770   4.368
 1809SOL     OW 6325   2.961   2.012   5.220
 1809SOL    HW1 6326   2.892   2.082   5.204
 1809SOL    HW2 6327   2.974   1.999   5.318
 1810SOL     OW 6328   1.070   0.701   4.783
 1810SOL    HW1 6329   1.058   0.780   4.844
 1810SOL    HW2 6330   1.091   0.732   4.691
 1811SOL     OW 6331   5.118   4.559   2.853
 1811SOL    HW1 6332   5.189   4.629   2.855
 1811SOL    HW2 6333   5.156   4.470   2.877
 1812SOL     OW 6334   4.664   0.258   6.395
 1812SOL    HW1 6335   4.759   0.256   6.366
 1812SOL    HW2 6336   4.632   0.165   6.414
 1813SOL     OW 6337   5.112   4.749   1.578
 1813SOL    HW1 6338   5.164   4.698   1.647
 1813SOL    HW2 6339   5.170   4.766   1.498
 1814SOL     OW 6340   6.114   0.589   0.882
 1814SOL    HW1 6341   6.178   0.567   0.808
 1814SOL    HW2 6342   6.051   0.512   0.894
 1815SOL     OW 6343   6.239   0.305   2.898
 1815SOL    HW1 6344   6.321   0.314   2.842
 1815SOL    HW2 6345   6.264   0.309   2.994
 1816SOL     OW 6346   2.712   5.404   0.425
 1816SOL    HW1 6347   2.692   5.401   0.522
 1816SOL    HW2 6348   2.722   5.499   0.395
 1817SOL     OW 6349   4.629   0.359   2.807
 1817SOL    HW1 6350   4.587   0.431   2.863
 1817SOL    HW2 6351   4.707   0.321   2.856
 1818SOL     OW 6352   2.004   6.488   0.869
 1818SOL    HW1 6353   2.022   6.547   0.791
 1818SOL    HW2 6354   2.048   6.399   0.855
 1819SOL     OW 6355   1.497   6.673   1.924
 1819SOL    HW1 6356   1.473   6.659   2.021
 1819SOL    HW2 6357   1.416   6.702   1.874
 1820SOL     OW 6358   3.764   0.135   2.709
 1820SOL    HW1 6359   3.668   0.162   2.710
 1820SOL    HW2 6360   3.816   0.197   2.650
 1821SOL     OW 6361   2.743   1.390   1.544
 1821SOL    HW1 6362   2.749   1.354   1.637
 1821SOL    HW2 6363   2.745   1.490   1.548
 1822SOL     OW 6364   0.851   2.638   1.718
 1822SOL    HW1 6365   0.878   2.542   1.719
 1822SOL    HW2 6366   0.754   2.646   1.739
 1823SOL     OW 6367   3.117   6.028   3.228
 1823SOL    HW1 6368   3.119   5.971   3.146
 1823SOL    HW2 6369   3.166   5.982   3.302
 1824SOL     OW 6370   4.005   4.361   1.096
 1824SOL    HW1 6371   3.930   4.297   1.078
 1824SOL    HW2 6372   4.045   4.342   1.186
 1825SOL     OW 6373   0.934   2.498   4.561
 1825SOL    HW1 6374   0.879   2.423   4.599
 1825SOL    HW2 6375   0.892   2.530   4.476
 1826SOL     OW 6376   3.215   1.549   1.390
 1826SOL    HW1 6377   3.161   1.512   1.465
 1826SOL    HW2 6378   3.260   1.634   1.420
 1827SOL     OW 6379   6.200   5.400   1.264
 1827SOL    HW1 6380   6.286   5.360   1.294
 1827SOL    HW2 6381   6.123   5.353   1.308
 1828SOL     OW 6382   1.417   2.946   6.439
 1828SOL    HW1 6383   1.464   3.027   6.403
 1828SOL    HW2 6384   1.320   2.968   6.453
 1829SOL     OW 6385   4.277   0.646   2.935
 1829SOL    HW1 6386   4.246   0.694   3.018
 1829SOL    HW2 6387   4.227   0.561   2.925
 1830SOL     OW 6388   5.746   5.989   4.957
 1830SOL    HW1 6389   5.809   5.911   4.961
 1830SOL    HW2 6390   5.734   6.018   4.862
 1831SOL     OW 6391   5.729   6.683   2.434
 1831SOL    HW1 6392   5.650   6.671   2.374
 1831SOL    HW2 6393   5.806   6.630   2.399
 1832SOL     OW 6394   3.978   1.235   0.784
 1832SOL    HW1 6395   3.959   1.157   0.725
 1832SOL    HW2 6396   4.049   1.211   0.850
 1833SOL     OW 6397   5.838   0.677   1.781
 1833SOL    HW1 6398   5.868   0.594   1.827
 1833SOL    HW2 6399   5.912   0.745   1.783
 1834SOL     OW 6400   2.015   4.501   0.762
 1834SOL    HW1 6401   1.944   4.536   0.701
 1834SOL    HW2 6402   2.071   4.434   0.712
 1835SOL     OW 6403   0.426   4.676   1.879
 1835SOL    HW1 6404   0.457   4.737   1.806
 1835SOL    HW2 6405   0.505   4.646   1.933
 1836SOL     OW 6406   5.387   2.311   1.866
 1836SOL    HW1 6407   5.451   2.257   1.920
 1836SOL    HW2 6408   5.418   2.316   1.771
 1837SOL     OW 6409   1.399   6.758   5.456
 1837SOL    HW1 6410   1.330   6.703   5.409
 1837SOL    HW2 6411   1.385   6.750   5.555
 1838SOL     OW 6412   5.610   1.121   5.820
 1838SOL    HW1 6413   5.700   1.087   5.792
 1838SOL    HW2 6414   5.565   1.165   5.743
 1839SOL     OW 6415   0.064   1.246   5.509
 1839SOL    HW1 6416   7.009   1.232   5.445
 1839SOL    HW2 6417   0.136   1.299   5.463
 1840SOL     OW 6418   3.909   0.422   2.058
 1840SOL    HW1 6419   3.963   0.409   2.142
 1840SOL    HW2 6420   3.843   0.496   2.073
 1841SOL     OW 6421   2.511   0.651   3.204
 1841SOL    HW1 6422   2.438   0.701   3.158
 1841SOL    HW2 6423   2.519   0.683   3.299
 1842SOL     OW 6424   0.929   5.973   1.311
 1842SOL    HW1 6425   0.924   5.948   1.407
 1842SOL    HW2 6426   0.966   5.896   1.258
 1843SOL     OW 6427   5.663   0.402   4.894
 1843SOL    HW1 6428   5.747   0.449   4.866
 1843SOL    HW2 6429   5.672   0.375   4.990
 1844SOL     OW 6430   3.805   0.402   4.882
 1844SOL    HW1 6431   3.816   0.501   4.874
 1844SOL    HW2 6432   3.886   0.362   4.924
 1845SOL     OW 6433   2.534   6.444   4.370
 1845SOL    HW1 6434   2.551   6.401   4.459
 1845SOL    HW2 6435   2.566   6.539   4.372
 1846SOL     OW 6436   4.293   0.992   2.413
 1846SOL    HW1 6437   4.306   1.034   2.323
 1846SOL    HW2 6438   4.383   0.975   2.455
 1847SOL     OW 6439   1.531   0.029   5.780
 1847SOL    HW1 6440   1.475   0.111   5.764
 1847SOL    HW2 6441   1.530   0.006   5.877
 1848SOL     OW 6442   1.665   6.583   3.155
 1848SOL    HW1 6443   1.642   6.673   3.119
 1848SOL    HW2 6444   1.654   6.515   3.082
 1849SOL     OW 6445   4.529   2.443   1.362
 1849SOL    HW1 6446   4.479   2.356   1.370
 1849SOL    HW2 6447   4.627   2.424   1.360
 1850SOL     OW 6448   6.857   2.313   2.250
 1850SOL    HW1 6449   6.954   2.314   2.274
 1850SOL    HW2 6450   6.803   2.352   2.325
 1851SOL     OW 6451   0.942   3.346   0.444
 1851SOL    HW1 6452   1.040   3.351   0.422
 1851SOL    HW2 6453   0.925   3.264   0.498
 1852SOL     OW 6454   6.819   4.736   2.324
 1852SOL    HW1 6455   6.877   4.817   2.320
 1852SOL    HW2 6456   6.829   4.684   2.239
 1853SOL     OW 6457   6.532   2.856   2.886
 1853SOL    HW1 6458   6.481   2.875   2.970
 1853SOL    HW2 6459   6.516   2.931   2.821
 1854SOL     OW 6460   2.042   5.101   2.287
 1854SOL    HW1 6461   1.952   5.083   2.326
 1854SOL    HW2 6462   2.086   5.015   2.263
 1855SOL     OW 6463   5.728   3.392   5.298
 1855SOL    HW1 6464   5.734   3.339   5.214
 1855SOL    HW2 6465   5.763   3.484   5.282
 1856SOL     OW 6466   4.886   3.150   6.381
 1856SOL    HW1 6467   4.850   3.056   6.383
 1856SOL    HW2 6468   4.960   3.159   6.448
 1857SOL     OW 6469   3.876   1.672   0.312
 1857SOL    HW1 6470   3.970   1.688   0.344
 1857SOL    HW2 6471   3.861   1.574   0.302
 1858SOL     OW 6472   5.031   3.069   3.304
 1858SOL    HW1 6473   5.039   3.021   3.392
 1858SOL    HW2 6474   4.972   3.017   3.243
 1859SOL     OW 6475   4.292   1.546   3.579
 1859SOL    HW1 6476   4.259   1.584   3.493
 1859SOL    HW2 6477   4.310   1.621   3.643
 1860SOL     OW 6478   6.934   1.540   5.460
 1860SOL    HW1 6479   7.014   1.554   5.518
 1860SOL    HW2 6480   6.867   1.483   5.508
 1861SOL     OW 6481   5.322   0.306   2.802
 1861SOL    HW1 6482   5.284   0.232   2.748
 1861SOL    HW2 6483   5.420   0.316   2.781
 1862SOL     OW 6484   2.462   6.758   6.717
 1862SOL    HW1 6485   2.442   6.855   6.705
 1862SOL    HW2 6486   2.383   6.703   6.691
 1863SOL     OW 6487   6.943   3.189   3.133
 1863SOL    HW1 6488   6.952   3.090   3.118
 1863SOL    HW2 6489   0.013   3.229   3.147
 1864SOL     OW 6490   3.072   5.531   4.611
 1864SOL    HW1 6491   2.994   5.541   4.550
 1864SOL    HW2 6492   3.051   5.464   4.682
 1865SOL     OW 6493   3.546   0.399   0.447
 1865SOL    HW1 6494   3.555   0.456   0.529
 1865SOL    HW2 6495   3.632   0.398   0.397
 1866SOL     OW 6496   0.073   5.007   3.870
 1866SOL    HW1 6497   0.022   5.079   3.824
 1866SOL    HW2 6498   0.117   4.949   3.801
 1867SOL     OW 6499   1.673   4.351   1.457
 1867SOL    HW1 6500   1.687   4.449   1.469
 1867SOL    HW2 6501   1.759   4.308   1.429
 1868SOL     OW 6502   5.339   3.677   6.175
 1868SOL    HW1 6503   5.434   3.686   6.205
 1868SOL    HW2 6504   5.336   3.675   6.075
 1869SOL     OW 6505   6.179   3.421   4.811
 1869SOL    HW1 6506   6.184   3.323   4.790
 1869SOL    HW2 6507   6.227   3.439   4.897
 1870SOL     OW 6508   1.025   3.707   5.184
 1870SOL    HW1 6509   0.928   3.732   5.190
 1870SOL    HW2 6510   1.065   3.748   5.102
 1871SOL     OW 6511   0.156   0.098   0.699
 1871SOL    HW1 6512   0.118   0.140   0.781
 1871SOL    HW2 6513   0.135   0.000   0.698
 1872SOL     OW 6514   4.219   2.223   0.006
 1872SOL    HW1 6515   4.251   2.310   0.044
 1872SOL    HW2 6516   4.295   2.176   6.984
 1873SOL     OW 6517   5.897   0.533   5.792
 1873SOL    HW1 6518   5.897   0.632   5.782
 1873SOL    HW2 6519   5.830   0.507   5.862
 1874SOL     OW 6520   1.423   1.479   6.577
 1874SOL    HW1 6521   1.522   1.469   6.586
 1874SOL    HW2 6522   1.380   1.389   6.580
 1875SOL     OW 6523   6.528   0.386   0.636
 1875SOL    HW1 6524   6.567   0.393   0.728
 1875SOL    HW2 6525   6.602   0.383   0.569
 1876SOL     OW 6526   3.736   5.836   6.502
 1876SOL    HW1 6527   3.796   5.865   6.577
 1876SOL    HW2 6528   3.643   5.828   6.536
 1877SOL     OW 6529   1.254   1.625   3.666
 1877SOL    HW1 6530   1.200   1.593   3.744
 1877SOL    HW2 6531   1.211   1.594   3.581
 1878SOL     OW 6532   6.956   3.547   4.263
 1878SOL    HW1 6533   6.966   3.451   4.237
 1878SOL    HW2 6534   6.867   3.581   4.234
 1879SOL     OW 6535   2.922   6.613   3.950
 1879SOL    HW1 6536   2.873   6.596   3.865
 1879SOL    HW2 6537   2.986   6.538   3.967
 1880SOL     OW 6538   0.120   2.080   2.866
 1880SOL    HW1 6539   0.143   1.991   2.905
 1880SOL    HW2 6540   0.202   2.136   2.861
 1881SOL     OW 6541   1.445   2.281   3.749
 1881SOL    HW1 6542   1.352   2.253   3.726
 1881SOL    HW2 6543   1.442   2.368   3.798
 1882SOL     OW 6544   0.976   5.114   6.856
 1882SOL    HW1 6545   0.933   5.126   6.767
 1882SOL    HW2 6546   1.074   5.098   6.843
 1883SOL     OW 6547   1.221   3.399   4.006
 1883SOL    HW1 6548   1.297   3.457   3.978
 1883SOL    HW2 6549   1.134   3.440   3.977
 1884SOL     OW 6550   5.808   2.486   1.046
 1884SOL    HW1 6551   5.839   2.581   1.042
 1884SOL    HW2 6552   5.861   2.436   1.114
 1885SOL     OW 6553   0.139   2.040   0.621
 1885SOL    HW1 6554   0.128   2.015   0.718
 1885SOL    HW2 6555   0.174   2.134   0.615
 1886SOL     OW 6556   2.430   2.221   0.576
 1886SOL    HW1 6557   2.372   2.154   0.623
 1886SOL    HW2 6558   2.513   2.236   0.630
 1887SOL     OW 6559   0.892   4.695   5.205
 1887SOL    HW1 6560   0.861   4.742   5.288
 1887SOL    HW2 6561   0.904   4.598   5.224
 1888SOL     OW 6562   2.773   1.806   5.714
 1888SOL    HW1 6563   2.742   1.855   5.796
 1888SOL    HW2 6564   2.828   1.867   5.658
 1889SOL     OW 6565   5.555   2.644   6.562
 1889SOL    HW1 6566   5.579   2.684   6.650
 1889SOL    HW2 6567   5.529   2.717   6.499
 1890SOL     OW 6568   1.307   5.682   5.441
 1890SOL    HW1 6569   1.320   5.709   5.345
 1890SOL    HW2 6570   1.267   5.759   5.492
 1891SOL     OW 6571   5.468   3.050   4.457
 1891SOL    HW1 6572   5.504   3.108   4.530
 1891SOL    HW2 6573   5.418   2.973   4.498
 1892SOL     OW 6574   3.998   0.171   0.789
 1892SOL    HW1 6575   4.077   0.140   0.843
 1892SOL    HW2 6576   3.948   0.240   0.842
 1893SOL     OW 6577   3.132   1.444   5.478
 1893SOL    HW1 6578   3.190   1.480   5.406
 1893SOL    HW2 6579   3.041   1.423   5.441
 1894SOL     OW 6580   4.043   3.697   1.973
 1894SOL    HW1 6581   3.984   3.763   1.926
 1894SOL    HW2 6582   4.139   3.722   1.960
 1895SOL     OW 6583   5.294   0.901   2.623
 1895SOL    HW1 6584   5.199   0.878   2.643
 1895SOL    HW2 6585   5.308   0.998   2.640
 1896SOL     OW 6586   0.505   0.683   3.197
 1896SOL    HW1 6587   0.579   0.702   3.260
 1896SOL    HW2 6588   0.471   0.590   3.212
 1897SOL     OW 6589   0.875   5.092   2.360
 1897SOL    HW1 6590   0.813   5.031   2.311
 1897SOL    HW2 6591   0.923   5.040   2.432
 1898SOL     OW 6592   3.267   5.095   2.164
 1898SOL    HW1 6593   3.332   5.114   2.237
 1898SOL    HW2 6594   3.271   4.998   2.140
 1899SOL     OW 6595   0.998   2.624   2.560
 1899SOL    HW1 6596   0.905   2.662   2.564
 1899SOL    HW2 6597   1.051   2.657   2.638
 1900SOL     OW 6598   0.734   0.352   5.349
 1900SOL    HW1 6599   0.744   0.384   5.254
 1900SOL    HW2 6600   0.731   0.252   5.350
 1901SOL     OW 6601   2.413   1.407   1.527
 1901SOL    HW1 6602   2.485   1.444   1.468
 1901SOL    HW2 6603   2.446   1.402   1.621
 1902SOL     OW 6604   2.559   2.308   4.829
 1902SOL    HW1 6605   2.506   2.239   4.780
 1902SOL    HW2 6606   2.653   2.277   4.840
 1903SOL     OW 6607   6.602   3.836   3.771
 1903SOL    HW1 6608   6.697   3.822   3.798
 1903SOL    HW2 6609   6.599   3.866   3.675
 1904SOL     OW 6610   6.036   6.634   4.023
 1904SOL    HW1 6611   6.116   6.689   4.049
 1904SOL    HW2 6612   6.049   6.540   4.054
 1905SOL     OW 6613   1.563   1.562   4.555
 1905SOL    HW1 6614   1.554   1.464   4.570
 1905SOL    HW2 6615   1.492   1.593   4.492
 1906SOL     OW 6616   2.899   0.001   5.156
 1906SOL    HW1 6617   2.955   7.019   5.239
 1906SOL    HW2 6618   2.909   0.090   5.112
 1907SOL     OW 6619   3.525   6.857   3.191
 1907SOL    HW1 6620   3.589   6.851   3.114
 1907SOL    HW2 6621   3.432   6.860   3.157
 1908SOL     OW 6622   4.395   0.807   4.722
 1908SOL    HW1 6623   4.472   0.744   4.729
 1908SOL    HW2 6624   4.311   0.761   4.752
 1909SOL     OW 6625   1.455   3.924   2.780
 1909SOL    HW1 6626   1.531   3.893   2.837
 1909SOL    HW2 6627   1.381   3.857   2.785
 1910SOL     OW 6628   7.013   2.499   6.693
 1910SOL    HW1 6629   7.014   2.530   6.598
 1910SOL    HW2 6630   6.939   2.544   6.742
 1911SOL     OW 6631   5.928   2.212   5.308
 1911SOL    HW1 6632   5.973   2.298   5.331
 1911SOL    HW2 6633   5.834   2.214   5.342
 1912SOL     OW 6634   3.608   6.919   1.197
 1912SOL    HW1 6635   3.644   6.858   1.268
 1912SOL    HW2 6636   3.529   6.877   1.154
 1913SOL     OW 6637   1.374   5.526   5.661
 1913SOL    HW1 6638   1.472   5.540   5.679
 1913SOL    HW2 6639   1.345   5.588   5.588
 1914SOL     OW 6640   3.026   2.396   6.938
 1914SOL    HW1 6641   3.087   2.335   6.887
 1914SOL    HW2 6642   3.010   2.358   0.009
 1915SOL     OW 6643   3.586   1.686   5.260
 1915SOL    HW1 6644   3.619   1.616   5.197
 1915SOL    HW2 6645   3.574   1.772   5.212
 1916SOL     OW 6646   3.490   6.336   1.274
 1916SOL    HW1 6647   3.571   6.278   1.265
 1916SOL    HW2 6648   3.503   6.420   1.221
 1917SOL     OW 6649   3.168   2.961   4.142
 1917SOL    HW1 6650   3.167   3.025   4.066
 1917SOL    HW2 6651   3.255   2.911   4.141
 1918SOL     OW 6652   0.021   0.285   6.293
 1918SOL    HW1 6653   7.010   0.328   6.378
 1918SOL    HW2 6654   6.969   0.288   6.225
 1919SOL     OW 6655   2.102   6.989   1.368
 1919SOL    HW1 6656   2.119   6.950   1.459
 1919SOL    HW2 6657   2.062   0.059   1.378
 1920SOL     OW 6658   1.252   5.323   2.669
 1920SOL    HW1 6659   1.244   5.395   2.738
 1920SOL    HW2 6660   1.323   5.258   2.696
 1921SOL     OW 6661   1.520   4.598   0.265
 1921SOL    HW1 6662   1.546   4.690   0.296
 1921SOL    HW2 6663   1.551   4.586   0.171
 1922SOL     OW 6664   3.383   4.400   1.034
 1922SOL    HW1 6665   3.379   4.301   1.050
 1922SOL    HW2 6666   3.386   4.418   0.936
 1923SOL     OW 6667   3.062   1.235   6.014
 1923SOL    HW1 6668   3.077   1.229   5.915
 1923SOL    HW2 6669   2.965   1.222   6.034
 1924SOL     OW 6670   5.384   4.843   1.838
 1924SOL    HW1 6671   5.300   4.892   1.814
 1924SOL    HW2 6672   5.445   4.842   1.758
 1925SOL     OW 6673   2.683   3.944   1.700
 1925SOL    HW1 6674   2.597   3.919   1.744
 1925SOL    HW2 6675   2.719   3.865   1.650
 1926SOL     OW 6676   1.331   6.906   3.285
 1926SOL    HW1 6677   1.298   6.876   3.375
 1926SOL    HW2 6678   1.323   7.005   3.278
 1927SOL     OW 6679   3.379   5.440   6.417
 1927SOL    HW1 6680   3.343   5.532   6.403
 1927SOL    HW2 6681   3.323   5.374   6.367
 1928SOL     OW 6682   6.934   3.952   5.889
 1928SOL    HW1 6683   6.924   4.049   5.910
 1928SOL    HW2 6684   6.979   3.906   5.965
 1929SOL     OW 6685   0.637   6.258   1.432
 1929SOL    HW1 6686   0.561   6.322   1.425
 1929SOL    HW2 6687   0.682   6.250   1.343
 1930SOL     OW 6688   3.576   4.147   6.731
 1930SOL    HW1 6689   3.652   4.205   6.705
 1930SOL    HW2 6690   3.525   4.190   6.806
 1931SOL     OW 6691   0.205   2.835   2.577
 1931SOL    HW1 6692   0.181   2.740   2.555
 1931SOL    HW2 6693   0.173   2.856   2.670
 1932SOL     OW 6694   5.050   3.741   3.144
 1932SOL    HW1 6695   4.990   3.675   3.098
 1932SOL    HW2 6696   5.065   3.712   3.238
 1933SOL     OW 6697   2.530   4.527   0.751
 1933SOL    HW1 6698   2.512   4.429   0.748
 1933SOL    HW2 6699   2.452   4.574   0.793
 1934SOL     OW 6700   0.442   0.371   4.472
 1934SOL    HW1 6701   0.481   0.380   4.564
 1934SOL    HW2 6702   0.474   0.285   4.431
 1935SOL     OW 6703   3.750   6.868   4.523
 1935SOL    HW1 6704   3.656   6.849   4.496
 1935SOL    HW2 6705   3.752   6.947   4.583
 1936SOL     OW 6706   6.171   4.224   4.172
 1936SOL    HW1 6707   6.229   4.251   4.249
 1936SOL    HW2 6708   6.215   4.251   4.087
 1937SOL     OW 6709   5.298   0.672   0.741
 1937SOL    HW1 6710   5.293   0.672   0.840
 1937SOL    HW2 6711   5.226   0.731   0.704
 1938SOL     OW 6712   3.069   1.154   1.885
 1938SOL    HW1 6713   3.134   1.145   1.809
 1938SOL    HW2 6714   3.068   1.068   1.937
 1939SOL     OW 6715   0.335   6.972   4.409
 1939SOL    HW1 6716   0.273   6.999   4.334
 1939SOL    HW2 6717   0.330   6.873   4.421
 1940SOL     OW 6718   4.007   4.658   6.860
 1940SOL    HW1 6719   4.049   4.586   6.806
 1940SOL    HW2 6720   3.912   4.635   6.879
 1941SOL     OW 6721   0.189   4.603   3.164
 1941SOL    HW1 6722   0.253   4.526   3.170
 1941SOL    HW2 6723   0.124   4.587   3.090
 1942SOL     OW 6724   5.604   0.205   1.930
 1942SOL    HW1 6725   5.563   0.294   1.908
 1942SOL    HW2 6726   5.533   0.135   1.927
 1943SOL     OW 6727   2.469   6.426   2.344
 1943SOL    HW1 6728   2.380   6.436   2.301
 1943SOL    HW2 6729   2.537   6.397   2.276
 1944SOL     OW 6730   5.926   2.130   0.853
 1944SOL    HW1 6731   5.852   2.170   0.907
 1944SOL    HW2 6732   5.914   2.030   0.850
 1945SOL     OW 6733   3.654   5.445   2.055
 1945SOL    HW1 6734   3.713   5.501   2.114
 1945SOL    HW2 6735   3.611   5.373   2.110
 1946SOL     OW 6736   6.870   0.501   1.285
 1946SOL    HW1 6737   6.904   0.496   1.191
 1946SOL    HW2 6738   6.861   0.597   1.312
 1947SOL     OW 6739   4.635   6.958   4.409
 1947SOL    HW1 6740   4.703   6.959   4.336
 1947SOL    HW2 6741   4.662   0.000   4.481
 1948SOL     OW 6742   5.701   5.282   3.483
 1948SOL    HW1 6743   5.698   5.274   3.582
 1948SOL    HW2 6744   5.677   5.376   3.456
 1949SOL     OW 6745   3.361   4.472   6.499
 1949SOL    HW1 6746   3.281   4.457   6.556
 1949SOL    HW2 6747   3.363   4.405   6.425
 1950SOL     OW 6748   3.611   4.695   0.889
 1950SOL    HW1 6749   3.680   4.628   0.918
 1950SOL    HW2 6750   3.657   4.778   0.858
 1951SOL     OW 6751   6.019   4.198   6.873
 1951SOL    HW1 6752   5.973   4.164   6.791
 1951SOL    HW2 6753   5.961   4.264   6.920
 1952SOL     OW 6754   4.006   2.543   6.972
 1952SOL    HW1 6755   4.098   2.576   6.996
 1952SOL    HW2 6756   3.987   2.566   6.876
 1953SOL     OW 6757   5.782   1.897   0.111
 1953SOL    HW1 6758   5.855   1.901   0.178
 1953SOL    HW2 6759   5.795   1.818   0.052
 1954SOL     OW 6760   5.683   1.197   3.619
 1954SOL    HW1 6761   5.614   1.167   3.685
 1954SOL    HW2 6762   5.637   1.240   3.541
 1955SOL     OW 6763   1.111   1.470   2.224
 1955SOL    HW1 6764   1.173   1.488   2.301
 1955SOL    HW2 6765   1.158   1.489   2.138
 1956SOL     OW 6766   4.842   6.589   2.242
 1956SOL    HW1 6767   4.912   6.520   2.224
 1956SOL    HW2 6768   4.781   6.557   2.315
 1957SOL     OW 6769   6.027   5.371   4.815
 1957SOL    HW1 6770   6.080   5.318   4.749
 1957SOL    HW2 6771   6.087   5.407   4.886
 1958SOL     OW 6772   5.310   2.177   2.582
 1958SOL    HW1 6773   5.273   2.099   2.533
 1958SOL    HW2 6774   5.255   2.194   2.665
 1959SOL     OW 6775   0.739   1.110   5.031
 1959SOL    HW1 6776   0.729   1.134   4.935
 1959SOL    HW2 6777   0.722   1.012   5.043
 1960SOL     OW 6778   6.647   4.382   2.419
 1960SOL    HW1 6779   6.635   4.319   2.497
 1960SOL    HW2 6780   6.698   4.335   2.347
 1961SOL     OW 6781   5.937   4.354   4.023
 1961SOL    HW1 6782   5.845   4.392   4.015
 1961SOL    HW2 6783   5.993   4.413   4.082
 1962SOL     OW 6784   2.495   6.600   3.468
 1962SOL    HW1 6785   2.593   6.605   3.488
 1962SOL    HW2 6786   2.479   6.536   3.393
 1963SOL     OW 6787   0.771   1.151   1.800
 1963SOL    HW1 6788   0.723   1.209   1.866
 1963SOL    HW2 6789   0.767   1.056   1.830
 1964SOL     OW 6790   4.619   4.077   1.134
 1964SOL    HW1 6791   4.614   4.167   1.178
 1964SOL    HW2 6792   4.714   4.046   1.131
 1965SOL     OW 6793   1.123   3.486   4.528
 1965SOL    HW1 6794   1.189   3.415   4.552
 1965SOL    HW2 6795   1.146   3.524   4.439
 1966SOL     OW 6796   0.088   6.151   0.327
 1966SOL    HW1 6797   0.163   6.146   0.393
 1966SOL    HW2 6798   0.101   6.231   0.268
 1967SOL     OW 6799   5.150   2.384   5.141
 1967SOL    HW1 6800   5.067   2.357   5.189
 1967SOL    HW2 6801   5.126   2.445   5.065
 1968SOL     OW 6802   2.979   6.918   0.136
 1968SOL    HW1 6803   2.991   6.879   0.227
 1968SOL    HW2 6804   2.914   6.862   0.084
 1969SOL     OW 6805   1.198   1.899   1.823
 1969SOL    HW1 6806   1.115   1.847   1.841
 1969SOL    HW2 6807   1.278   1.846   1.851
 1970SOL     OW 6808   1.971   6.767   6.055
 1970SOL    HW1 6809   1.913   6.687   6.065
 1970SOL    HW2 6810   2.031   6.775   6.135
 1971SOL     OW 6811   0.175   6.857   5.655
 1971SOL    HW1 6812   0.203   6.858   5.559
 1971SOL    HW2 6813   0.238   6.799   5.707
 1972SOL     OW 6814   5.542   2.323   2.634
 1972SOL    HW1 6815   5.610   2.250   2.625
 1972SOL    HW2 6816   5.454   2.290   2.600
 1973SOL     OW 6817   2.704   2.670   0.236
 1973SOL    HW1 6818   2.689   2.596   0.301
 1973SOL    HW2 6819   2.719   2.631   0.145
 1974SOL     OW 6820   5.388   5.892   4.100
 1974SOL    HW1 6821   5.391   5.925   4.195
 1974SOL    HW2 6822   5.330   5.811   4.095
 1975SOL     OW 6823   2.308   1.698   3.781
 1975SOL    HW1 6824   2.248   1.642   3.838
 1975SOL    HW2 6825   2.357   1.764   3.838
 1976SOL     OW 6826   0.748   6.521   6.300
 1976SOL    HW1 6827   0.845   6.506   6.281
 1976SOL    HW2 6828   0.738   6.564   6.390
 1977SOL     OW 6829   0.724   3.470   4.387
 1977SOL    HW1 6830   0.791   3.544   4.398
 1977SOL    HW2 6831   0.736   3.429   4.297
 1978SOL     OW 6832   1.573   0.359   2.763
 1978SOL    HW1 6833   1.538   0.365   2.857
 1978SOL    HW2 6834   1.671   0.337   2.766
 1979SOL     OW 6835   6.343   4.344   5.953
 1979SOL    HW1 6836   6.369   4.322   6.047
 1979SOL    HW2 6837   6.382   4.432   5.927
 1980SOL     OW 6838   2.480   0.334   4.982
 1980SOL    HW1 6839   2.427   0.334   5.067
 1980SOL    HW2 6840   2.445   0.262   4.922
 1981SOL     OW 6841   6.562   1.949   2.798
 1981SOL    HW1 6842   6.469   1.977   2.819
 1981SOL    HW2 6843   6.563   1.901   2.710
 1982SOL     OW 6844   0.496   4.403   4.796
 1982SOL    HW1 6845   0.404   4.370   4.818
 1982SOL    HW2 6846   0.492   4.501   4.777
 1983SOL     OW 6847   0.703   1.420   2.753
 1983SOL    HW1 6848   0.743   1.387   2.668
 1983SOL    HW2 6849   0.741   1.369   2.830
 1984SOL     OW 6850   6.296   1.586   4.964
 1984SOL    HW1 6851   6.261   1.679   4.958
 1984SOL    HW2 6852   6.352   1.577   5.047
 1985SOL     OW 6853   1.363   6.152   2.428
 1985SOL    HW1 6854   1.306   6.117   2.503
 1985SOL    HW2 6855   1.408   6.076   2.382
 1986SOL     OW 6856   1.486   0.716   0.232
 1986SOL    HW1 6857   1.484   0.700   0.134
 1986SOL    HW2 6858   1.524   0.637   0.279
 1987SOL     OW 6859   1.946   2.580   2.266
 1987SOL    HW1 6860   1.989   2.564   2.178
 1987SOL    HW2 6861   1.921   2.492   2.307
 1988SOL     OW 6862   5.690   3.934   0.549
 1988SOL    HW1 6863   5.773   3.931   0.493
 1988SOL    HW2 6864   5.709   3.982   0.635
 1989SOL     OW 6865   2.239   6.211   4.308
 1989SOL    HW1 6866   2.324   6.184   4.264
 1989SOL    HW2 6867   2.224   6.154   4.390
 1990SOL     OW 6868   3.178   6.641   0.196
 1990SOL    HW1 6869   3.199   6.718   0.256
 1990SOL    HW2 6870   3.120   6.576   0.244
 1991SOL     OW 6871   4.163   4.417   6.107
 1991SOL    HW1 6872   4.121   4.357   6.174
 1991SOL    HW2 6873   4.250   4.451   6.142
 1992SOL     OW 6874   0.585   0.605   0.034
 1992SOL    HW1 6875   0.675   0.637   0.065
 1992SOL    HW2 6876   0.525   0.594   0.113
 1993SOL     OW 6877   3.858   2.984   4.716
 1993SOL    HW1 6878   3.832   3.028   4.802
 1993SOL    HW2 6879   3.926   2.912   4.734
 1994SOL     OW 6880   0.858   1.013   0.555
 1994SOL    HW1 6881   0.808   1.097   0.534
 1994SOL    HW2 6882   0.901   1.021   0.645
 1995SOL     OW 6883   5.630   2.144   3.378
 1995SOL    HW1 6884   5.683   2.220   3.339
 1995SOL    HW2 6885   5.666   2.057   3.342
 1996SOL     OW 6886   2.625   3.509   0.840
 1996SOL    HW1 6887   2.534   3.542   0.813
 1996SOL    HW2 6888   2.616   3.454   0.923
 1997SOL     OW 6889   4.289   1.463   4.802
 1997SOL    HW1 6890   4.330   1.431   4.887
 1997SOL    HW2 6891   4.320   1.405   4.727
 1998SOL     OW 6892   2.327   4.267   6.294
 1998SOL    HW1 6893   2.242   4.222   6.321
 1998SOL    HW2 6894   2.404   4.203   6.306
 1999SOL     OW 6895   3.401   6.759   1.089
 1999SOL    HW1 6896   3.309   6.768   1.128
 1999SOL    HW2 6897   3.394   6.756   0.989
 2000SOL     OW 6898   4.450   2.283   5.296
 2000SOL    HW1 6899   4.494   2.333   5.222
 2000SOL    HW2 6900   4.490   2.192   5.304
 2001SOL     OW 6901   2.810   1.700   2.145
 2001SOL    HW1 6902   2.822   1.633   2.071
 2001SOL    HW2 6903   2.748   1.773   2.114
 2002SOL     OW 6904   0.860   4.805   6.700
 2002SOL    HW1 6905   0.871   4.724   6.643
 2002SOL    HW2 6906   0.930   4.807   6.770
 2003SOL     OW 6907   5.991   6.141   1.899
 2003SOL    HW1 6908   6.045   6.225   1.894
 2003SOL    HW2 6909   6.046   6.070   1.943
 2004SOL     OW 6910   5.056   0.903   5.649
 2004SOL    HW1 6911   5.005   0.986   5.672
 2004SOL    HW2 6912   5.140   0.927   5.600
 2005SOL     OW 6913   1.126   5.252   0.120
 2005SOL    HW1 6914   1.076   5.198   0.053
 2005SOL    HW2 6915   1.169   5.330   0.074
 2006SOL     OW 6916   4.924   6.256   3.754
 2006SOL    HW1 6917   4.825   6.249   3.758
 2006SOL    HW2 6918   4.960   6.186   3.692
 2007SOL     OW 6919   4.205   4.615   0.918
 2007SOL    HW1 6920   4.269   4.685   0.888
 2007SOL    HW2 6921   4.176   4.560   0.840
 2008SOL     OW 6922   2.534   5.249   3.934
 2008SOL    HW1 6923   2.466   5.227   3.864
 2008SOL    HW2 6924   2.567   5.165   3.977
 2009SOL     OW 6925   5.792   0.596   2.441
 2009SOL    HW1 6926   5.816   0.678   2.492
 2009SOL    HW2 6927   5.698   0.570   2.460
 2010SOL     OW 6928   1.889   1.805   1.154
 2010SOL    HW1 6929   1.883   1.793   1.253
 2010SOL    HW2 6930   1.976   1.849   1.131
 2011SOL     OW 6931   6.789   0.826   4.752
 2011SOL    HW1 6932   6.850   0.894   4.712
 2011SOL    HW2 6933   6.841   0.766   4.813
 2012SOL     OW 6934   1.860   3.550   2.028
 2012SOL    HW1 6935   1.953   3.561   1.994
 2012SOL    HW2 6936   1.796   3.546   1.951
 2013SOL     OW 6937   6.357   2.398   3.278
 2013SOL    HW1 6938   6.405   2.312   3.257
 2013SOL    HW2 6939   6.352   2.454   3.196
 2014SOL     OW 6940   2.528   5.346   3.331
 2014SOL    HW1 6941   2.488   5.305   3.413
 2014SOL    HW2 6942   2.515   5.446   3.334
 2015SOL     OW 6943   1.746   1.391   0.303
 2015SOL    HW1 6944   1.678   1.440   0.357
 2015SOL    HW2 6945   1.829   1.377   0.358
 2016SOL     OW 6946   0.931   6.151   4.628
 2016SOL    HW1 6947   0.841   6.189   4.649
 2016SOL    HW2 6948   0.922   6.054   4.605
 2017SOL     OW 6949   3.121   0.098   4.040
 2017SOL    HW1 6950   3.077   0.010   4.022
 2017SOL    HW2 6951   3.162   0.132   3.956
 2018SOL     OW 6952   5.650   6.399   5.631
 2018SOL    HW1 6953   5.686   6.367   5.544
 2018SOL    HW2 6954   5.551   6.388   5.633
 2019SOL     OW 6955   5.337   3.183   0.394
 2019SOL    HW1 6956   5.296   3.273   0.379
 2019SOL    HW2 6957   5.284   3.133   0.461
 2020SOL     OW 6958   1.620   6.131   4.962
 2020SOL    HW1 6959   1.668   6.044   4.970
 2020SOL    HW2 6960   1.559   6.130   4.883
 2021SOL     OW 6961   1.475   5.851   3.466
 2021SOL    HW1 6962   1.485   5.945   3.434
 2021SOL    HW2 6963   1.541   5.833   3.539
 2022SOL     OW 6964   1.598   3.994   3.279
 2022SOL    HW1 6965   1.649   3.908   3.278
 2022SOL    HW2 6966   1.519   3.986   3.217
 2023SOL     OW 6967   6.229   0.916   6.097
 2023SOL    HW1 6968   6.188   0.911   6.006
 2023SOL    HW2 6969   6.171   0.971   6.157
 2024SOL     OW 6970   0.404   6.652   3.704
 2024SOL    HW1 6971   0.378   6.742   3.667
 2024SOL    HW2 6972   0.396   6.654   3.803
 2025SOL     OW 6973   2.427   2.183   3.197
 2025SOL    HW1 6974   2.480   2.257   3.157
 2025SOL    HW2 6975   2.422   2.194   3.296
 2026SOL     OW 6976   0.523   3.095   5.743
 2026SOL    HW1 6977   0.579   3.048   5.675
 2026SOL    HW2 6978   0.455   3.152   5.697
 2027SOL     OW 6979   0.548   1.062   0.362
 2027SOL    HW1 6980   0.555   1.030   0.457
 2027SOL    HW2 6981   0.619   1.019   0.307
 2028SOL     OW 6982   3.167   6.954   4.973
 2028SOL    HW1 6983   3.213   6.869   4.996
 2028SOL    HW2 6984   3.068   6.938   4.964
 2029SOL     OW 6985   6.356   0.716   0.319
 2029SOL    HW1 6986   6.340   0.744   0.414
 2029SOL    HW2 6987   6.284   0.752   0.261
 2030SOL     OW 6988   2.758   0.798   2.756
 2030SOL    HW1 6989   2.734   0.786   2.852
 2030SOL    HW2 6990   2.838   0.858   2.749
 2031SOL     OW 6991   6.278   5.981   1.329
 2031SOL    HW1 6992   6.271   5.931   1.416
 2031SOL    HW2 6993   6.263   6.079   1.347
 2032SOL     OW 6994   5.021   6.603   1.823
 2032SOL    HW1 6995   5.050   6.634   1.732
 2032SOL    HW2 6996   5.079   6.645   1.893
 2033SOL     OW 6997   3.393   3.959   6.601
 2033SOL    HW1 6998   3.380   3.894   6.675
 2033SOL    HW2 6999   3.489   3.988   6.599
 2034SOL     OW 7000   3.382   6.260   4.943
 2034SOL    HW1 7001   3.430   6.325   5.001
 2034SOL    HW2 7002   3.337   6.191   4.999
 2035SOL     OW 7003   0.529   0.432   2.880
 2035SOL    HW1 7004   0.469   0.427   2.800
 2035SOL    HW2 7005   0.572   0.343   2.895
 2036SOL     OW 7006   1.974   4.724   2.777
 2036SOL    HW1 7007   1.882   4.692   2.799
 2036SOL    HW2 7008   2.025   4.739   2.862
 2037SOL     OW 7009   6.587   3.055   5.358
 2037SOL    HW1 7010   6.676   3.068   5.315
 2037SOL    HW2 7011   6.534   2.988   5.305
 2038SOL     OW 7012   1.205   2.320   6.722
 2038SOL    HW1 7013   1.203   2.263   6.804
 2038SOL    HW2 7014   1.196   2.263   6.641
 2039SOL     OW 7015   0.991   5.898   3.177
 2039SOL    HW1 7016   1.046   5.885   3.094
 2039SOL    HW2 7017   0.934   5.817   3.192
 2040SOL     OW 7018   3.160   3.464   4.730
 2040SOL    HW1 7019   3.226   3.412   4.677
 2040SOL    HW2 7020   3.099   3.401   4.779
 2041SOL     OW 7021   0.396   6.176   5.189
 2041SOL    HW1 7022   0.441   6.173   5.100
 2041SOL    HW2 7023   0.438   6.248   5.245
 2042SOL     OW 7024   5.022   5.258   6.649
 2042SOL    HW1 7025   5.039   5.318   6.571
 2042SOL    HW2 7026   5.047   5.164   6.625
 2043SOL     OW 7027   6.903   3.492   3.941
 2043SOL    HW1 7028   6.934   3.472   3.847
 2043SOL    HW2 7029   6.843   3.418   3.972
 2044SOL     OW 7030   6.270   6.650   1.397
 2044SOL    HW1 7031   6.357   6.623   1.355
 2044SOL    HW2 7032   6.201   6.581   1.377
 2045SOL     OW 7033   2.979   4.825   3.890
 2045SOL    HW1 7034   3.061   4.879   3.910
 2045SOL    HW2 7035   2.926   4.869   3.818
 2046SOL     OW 7036   6.559   2.262   4.297
 2046SOL    HW1 7037   6.603   2.349   4.274
 2046SOL    HW2 7038   6.498   2.276   4.376
 2047SOL     OW 7039   6.684   1.623   6.813
 2047SOL    HW1 7040   6.673   1.608   6.911
 2047SOL    HW2 7041   6.616   1.569   6.763
 2048SOL     OW 7042   1.531   6.538   6.520
 2048SOL    HW1 7043   1.477   6.482   6.457
 2048SOL    HW2 7044   1.545   6.488   6.606
 2049SOL     OW 7045   5.797   1.670   5.593
 2049SOL    HW1 7046   5.713   1.622   5.569
 2049SOL    HW2 7047   5.875   1.610   5.581
 2050SOL     OW 7048   0.053   3.160   3.960
 2050SOL    HW1 7049   0.132   3.173   3.900
 2050SOL    HW2 7050   6.991   3.151   3.905
 2051SOL     OW 7051   0.968   5.742   0.313
 2051SOL    HW1 7052   0.883   5.788   0.341
 2051SOL    HW2 7053   0.964   5.646   0.343
 2052SOL     OW 7054   1.557   3.738   0.953
 2052SOL    HW1 7055   1.632   3.759   0.890
 2052SOL    HW2 7056   1.594   3.699   1.037
 2053SOL     OW 7057   5.502   6.483   4.683
 2053SOL    HW1 7058   5.593   6.474   4.724
 2053SOL    HW2 7059   5.450   6.399   4.698
 2054SOL     OW 7060   3.487   3.775   2.748
 2054SOL    HW1 7061   3.461   3.799   2.842
 2054SOL    HW2 7062   3.505   3.677   2.743
 2055SOL     OW 7063   6.125   3.581   3.298
 2055SOL    HW1 7064   6.064   3.591   3.220
 2055SOL    HW2 7065   6.122   3.663   3.354
 2056SOL     OW 7066   3.291   6.245   2.798
 2056SOL    HW1 7067   3.344   6.255   2.882
 2056SOL    HW2 7068   3.303   6.326   2.741
 2057SOL     OW 7069   5.531   3.795   5.018
 2057SOL    HW1 7070   5.477   3.858   5.074
 2057SOL    HW2 7071   5.586   3.848   4.953
 2058SOL     OW 7072   0.462   1.657   3.272
 2058SOL    HW1 7073   0.547   1.702   3.244
 2058SOL    HW2 7074   0.481   1.560   3.290
 2059SOL     OW 7075   1.502   5.736   6.461
 2059SOL    HW1 7076   1.514   5.816   6.402
 2059SOL    HW2 7077   1.416   5.745   6.511
 2060SOL     OW 7078   0.314   4.331   1.288
 2060SOL    HW1 7079   0.412   4.348   1.279
 2060SOL    HW2 7080   0.294   4.295   1.379
 2061SOL     OW 7081   0.155   2.064   3.571
 2061SOL    HW1 7082   0.153   2.028   3.478
 2061SOL    HW2 7083   0.090   2.140   3.579
 2062SOL     OW 7084   6.178   6.919   3.825
 2062SOL    HW1 7085   6.140   6.951   3.739
 2062SOL    HW2 7086   6.234   6.838   3.808
 2063SOL     OW 7087   1.896   0.331   6.466
 2063SOL    HW1 7088   1.990   0.334   6.433
 2063SOL    HW2 7089   1.833   0.317   6.389
 2064SOL     OW 7090   1.128   2.307   5.365
 2064SOL    HW1 7091   1.218   2.274   5.337
 2064SOL    HW2 7092   1.139   2.377   5.437
 2065SOL     OW 7093   6.479   2.484   5.204
 2065SOL    HW1 7094   6.406   2.545   5.174
 2065SOL    HW2 7095   6.449   2.433   5.285
 2066SOL     OW 7096   0.780   4.904   4.097
 2066SOL    HW1 7097   0.688   4.933   4.072
 2066SOL    HW2 7098   0.810   4.831   4.036
 2067SOL     OW 7099   6.403   4.858   1.246
 2067SOL    HW1 7100   6.323   4.804   1.220
 2067SOL    HW2 7101   6.393   4.889   1.340
 2068SOL     OW 7102   1.802   0.950   5.039
 2068SOL    HW1 7103   1.806   0.866   5.092
 2068SOL    HW2 7104   1.895   0.985   5.024
 2069SOL     OW 7105   0.282   2.679   3.838
 2069SOL    HW1 7106   0.271   2.773   3.805
 2069SOL    HW2 7107   0.303   2.618   3.761
 2070SOL     OW 7108   1.442   1.157   1.706
 2070SOL    HW1 7109   1.400   1.232   1.756
 2070SOL    HW2 7110   1.374   1.113   1.648
 2071SOL     OW 7111   6.662   6.290   6.095
 2071SOL    HW1 7112   6.612   6.374   6.114
 2071SOL    HW2 7113   6.741   6.283   6.156
 2072SOL     OW 7114   4.328   6.021   4.030
 2072SOL    HW1 7115   4.357   5.968   3.950
 2072SOL    HW2 7116   4.292   6.109   3.999
 2073SOL     OW 7117   3.870   0.136   4.568
 2073SOL    HW1 7118   3.777   0.164   4.541
 2073SOL    HW2 7119   3.931   0.147   4.490
 2074SOL     OW 7120   1.853   2.667   0.037
 2074SOL    HW1 7121   1.814   2.641   0.126
 2074SOL    HW2 7122   1.844   2.766   0.025
 2075SOL     OW 7123   6.052   3.307   2.446
 2075SOL    HW1 7124   6.147   3.335   2.431
 2075SOL    HW2 7125   6.042   3.272   2.539
 2076SOL     OW 7126   6.109   0.244   0.176
 2076SOL    HW1 7127   6.205   0.235   0.203
 2076SOL    HW2 7128   6.070   0.153   0.163
 2077SOL     OW 7129   5.370   2.744   3.081
 2077SOL    HW1 7130   5.420   2.658   3.090
 2077SOL    HW2 7131   5.420   2.817   3.127
 2078SOL     OW 7132   1.207   5.917   5.997
 2078SOL    HW1 7133   1.165   5.957   5.915
 2078SOL    HW2 7134   1.227   5.820   5.979
 2079SOL     OW 7135   5.688   2.241   3.624
 2079SOL    HW1 7136   5.774   2.288   3.607
 2079SOL    HW2 7137   5.651   2.206   3.538
 2080SOL     OW 7138   1.524   6.947   4.859
 2080SOL    HW1 7139   1.549   6.993   4.944
 2080SOL    HW2 7140   1.428   6.966   4.838
 2081SOL     OW 7141   1.477   5.068   4.443
 2081SOL    HW1 7142   1.467   5.011   4.362
 2081SOL    HW2 7143   1.525   5.016   4.514
 2082SOL     OW 7144   0.647   0.194   2.952
 2082SOL    HW1 7145   0.601   0.106   2.945
 2082SOL    HW2 7146   0.743   0.183   2.930
 2083SOL     OW 7147   6.635   4.810   6.313
 2083SOL    HW1 7148   6.600   4.879   6.377
 2083SOL    HW2 7149   6.648   4.723   6.361
 2084SOL     OW 7150   1.292   3.698   3.330
 2084SOL    HW1 7151   1.267   3.604   3.304
 2084SOL    HW2 7152   1.333   3.698   3.421
 2085SOL     OW 7153   4.526   0.408   6.854
 2085SOL    HW1 7154   4.573   0.330   6.895
 2085SOL    HW2 7155   4.452   0.376   6.795
 2086SOL     OW 7156   4.180   6.035   5.680
 2086SOL    HW1 7157   4.115   6.107   5.657
 2086SOL    HW2 7158   4.235   6.012   5.599
 2087SOL     OW 7159   5.213   0.343   1.395
 2087SOL    HW1 7160   5.221   0.252   1.355
 2087SOL    HW2 7161   5.279   0.405   1.351
 2088SOL     OW 7162   1.480   6.192   0.169
 2088SOL    HW1 7163   1.511   6.123   0.234
 2088SOL    HW2 7164   1.549   6.264   0.160
 2089SOL     OW 7165   5.458   1.909   6.690
 2089SOL    HW1 7166   5.508   1.986   6.650
 2089SOL    HW2 7167   5.430   1.932   6.783
 2090SOL     OW 7168   4.193   3.162   5.573
 2090SOL    HW1 7169   4.201   3.138   5.670
 2090SOL    HW2 7170   4.153   3.253   5.564
 2091SOL     OW 7171   0.027   5.491   1.029
 2091SOL    HW1 7172   6.968   5.511   0.972
 2091SOL    HW2 7173   0.083   5.574   1.038
 2092SOL     OW 7174   5.317   3.853   0.198
 2092SOL    HW1 7175   5.346   3.949   0.207
 2092SOL    HW2 7176   5.254   3.830   0.272
 2093SOL     OW 7177   2.812   2.236   1.580
 2093SOL    HW1 7178   2.822   2.329   1.616
 2093SOL    HW2 7179   2.838   2.170   1.651
 2094SOL     OW 7180   5.722   1.747   2.798
 2094SOL    HW1 7181   5.807   1.800   2.798
 2094SOL    HW2 7182   5.694   1.729   2.892
 2095SOL     OW 7183   5.905   6.689   5.358
 2095SOL    HW1 7184   5.836   6.617   5.356
 2095SOL    HW2 7185   5.983   6.659   5.412
 2096SOL     OW 7186   4.826   3.837   2.918
 2096SOL    HW1 7187   4.851   3.862   2.824
 2096SOL    HW2 7188   4.851   3.742   2.934
 2097SOL     OW 7189   3.054   3.687   6.549
 2097SOL    HW1 7190   3.081   3.783   6.554
 2097SOL    HW2 7191   3.121   3.635   6.497
 2098SOL     OW 7192   3.533   5.904   2.003
 2098SOL    HW1 7193   3.596   5.975   2.034
 2098SOL    HW2 7194   3.578   5.849   1.933
 2099SOL     OW 7195   3.232   2.705   6.497
 2099SOL    HW1 7196   3.213   2.637   6.426
 2099SOL    HW2 7197   3.229   2.661   6.587
 2100SOL     OW 7198   5.613   2.152   6.662
 2100SOL    HW1 7199   5.647   2.175   6.753
 2100SOL    HW2 7200   5.591   2.235   6.612
 2101SOL     OW 7201   1.379   6.870   1.728
 2101SOL    HW1 7202   1.418   6.913   1.810
 2101SOL    HW2 7203   1.453   6.827   1.676
 2102SOL     OW 7204   5.575   4.798   2.832
 2102SOL    HW1 7205   5.602   4.872   2.770
 2102SOL    HW2 7206   5.651   4.778   2.894
 2103SOL     OW 7207   3.633   4.397   6.288
 2103SOL    HW1 7208   3.669   4.380   6.197
 2103SOL    HW2 7209   3.533   4.402   6.284
 2104SOL     OW 7210   1.858   4.597   1.563
 2104SOL    HW1 7211   1.843   4.516   1.620
 2104SOL    HW2 7212   1.811   4.675   1.604
 2105SOL     OW 7213   5.732   5.500   5.054
 2105SOL    HW1 7214   5.750   5.471   4.960
 2105SOL    HW2 7215   5.679   5.430   5.101
 2106SOL     OW 7216   4.896   4.130   0.876
 2106SOL    HW1 7217   4.813   4.171   0.839
 2106SOL    HW2 7218   4.871   4.057   0.941
 2107SOL     OW 7219   5.633   2.748   5.662
 2107SOL    HW1 7220   5.538   2.762   5.633
 2107SOL    HW2 7221   5.691   2.816   5.618
 2108SOL     OW 7222   6.395   5.580   4.813
 2108SOL    HW1 7223   6.479   5.630   4.835
 2108SOL    HW2 7224   6.331   5.642   4.767
 2109SOL     OW 7225   4.315   5.736   2.269
 2109SOL    HW1 7226   4.343   5.828   2.297
 2109SOL    HW2 7227   4.357   5.669   2.330
 2110SOL     OW 7228   1.972   1.640   0.287
 2110SOL    HW1 7229   1.980   1.717   0.350
 2110SOL    HW2 7230   1.921   1.566   0.330
 2111SOL     OW 7231   1.902   2.618   6.678
 2111SOL    HW1 7232   1.811   2.633   6.640
 2111SOL    HW2 7233   1.937   2.704   6.716
 2112SOL     OW 7234   5.552   2.985   0.338
 2112SOL    HW1 7235   5.552   2.950   0.431
 2112SOL    HW2 7236   5.483   3.057   0.330
 2113SOL     OW 7237   2.779   1.810   4.647
 2113SOL    HW1 7238   2.781   1.878   4.721
 2113SOL    HW2 7239   2.697   1.824   4.591
 2114SOL     OW 7240   1.707   1.833   6.164
 2114SOL    HW1 7241   1.738   1.925   6.140
 2114SOL    HW2 7242   1.615   1.838   6.203
 2115SOL     OW 7243   1.921   4.143   3.398
 2115SOL    HW1 7244   1.914   4.046   3.417
 2115SOL    HW2 7245   1.919   4.195   3.484
 2116SOL     OW 7246   0.792   5.349   3.120
 2116SOL    HW1 7247   0.733   5.406   3.062
 2116SOL    HW2 7248   0.807   5.261   3.075
 2117SOL     OW 7249   0.020   4.509   1.933
 2117SOL    HW1 7250   6.995   4.499   1.845
 2117SOL    HW2 7251   0.080   4.430   1.949
 2118SOL     OW 7252   6.176   3.068   2.858
 2118SOL    HW1 7253   6.248   3.136   2.844
 2118SOL    HW2 7254   6.096   3.092   2.803
 2119SOL     OW 7255   1.065   0.287   1.177
 2119SOL    HW1 7256   1.112   0.284   1.265
 2119SOL    HW2 7257   1.046   0.382   1.152
 2120SOL     OW 7258   0.545   4.799   2.985
 2120SOL    HW1 7259   0.612   4.860   2.943
 2120SOL    HW2 7260   0.542   4.713   2.934
 2121SOL     OW 7261   1.589   4.051   6.386
 2121SOL    HW1 7262   1.608   3.956   6.409
 2121SOL    HW2 7263   1.608   4.067   6.289
 2122SOL     OW 7264   5.520   4.347   5.941
 2122SOL    HW1 7265   5.595   4.395   5.985
 2122SOL    HW2 7266   5.514   4.254   5.978
 2123SOL     OW 7267   0.086   5.172   2.485
 2123SOL    HW1 7268   0.156   5.120   2.535
 2123SOL    HW2 7269   0.049   5.243   2.544
 2124SOL     OW 7270   3.253   2.278   1.270
 2124SOL    HW1 7271   3.305   2.308   1.350
 2124SOL    HW2 7272   3.155   2.292   1.287
 2125SOL     OW 7273   1.912   0.855   2.473
 2125SOL    HW1 7274   1.992   0.819   2.425
 2125SOL    HW2 7275   1.849   0.894   2.406
 2126SOL     OW 7276   3.697   2.120   6.641
 2126SOL    HW1 7277   3.676   2.216   6.660
 2126SOL    HW2 7278   3.642   2.089   6.563
 2127SOL     OW 7279   0.869   2.410   5.542
 2127SOL    HW1 7280   0.944   2.456   5.591
 2127SOL    HW2 7281   0.843   2.327   5.591
 2128SOL     OW 7282   6.289   3.553   4.227
 2128SOL    HW1 7283   6.302   3.637   4.279
 2128SOL    HW2 7284   6.278   3.575   4.130
 2129SOL     OW 7285   4.536   3.262   5.388
 2129SOL    HW1 7286   4.446   3.305   5.397
 2129SOL    HW2 7287   4.525   3.163   5.388
 2130SOL     OW 7288   4.067   0.242   3.112
 2130SOL    HW1 7289   4.145   0.215   3.056
 2130SOL    HW2 7290   4.011   0.161   3.132
 2131SOL     OW 7291   4.760   1.708   6.832
 2131SOL    HW1 7292   4.831   1.755   6.781
 2131SOL    HW2 7293   4.712   1.773   6.891
 2132SOL     OW 7294   3.516   0.450   0.926
 2132SOL    HW1 7295   3.484   0.355   0.922
 2132SOL    HW2 7296   3.555   0.475   0.838
 2133SOL     OW 7297   3.376   3.040   0.689
 2133SOL    HW1 7298   3.329   3.127   0.704
 2133SOL    HW2 7299   3.426   3.044   0.602
 2134SOL     OW 7300   0.448   0.576   5.846
 2134SOL    HW1 7301   0.448   0.625   5.758
 2134SOL    HW2 7302   0.353   0.566   5.877
 2135SOL     OW 7303   1.374   3.294   5.298
 2135SOL    HW1 7304   1.443   3.317   5.367
 2135SOL    HW2 7305   1.351   3.377   5.246
 2136SOL     OW 7306   0.946   4.101   4.342
 2136SOL    HW1 7307   0.863   4.156   4.328
 2136SOL    HW2 7308   0.954   4.035   4.267
 2137SOL     OW 7309   1.773   5.506   4.447
 2137SOL    HW1 7310   1.759   5.584   4.388
 2137SOL    HW2 7311   1.714   5.430   4.417
 2138SOL     OW 7312   6.532   0.933   2.681
 2138SOL    HW1 7313   6.575   0.940   2.771
 2138SOL    HW2 7314   6.433   0.947   2.691
 2139SOL     OW 7315   3.389   0.543   3.041
 2139SOL    HW1 7316   3.319   0.494   3.093
 2139SOL    HW2 7317   3.466   0.482   3.023
 2140SOL     OW 7318   4.173   6.149   4.284
 2140SOL    HW1 7319   4.207   6.243   4.294
 2140SOL    HW2 7320   4.079   6.144   4.317
 2141SOL     OW 7321   6.231   4.205   2.407
 2141SOL    HW1 7322   6.265   4.270   2.475
 2141SOL    HW2 7323   6.173   4.253   2.341
 2142SOL     OW 7324   1.136   2.469   3.194
 2142SOL    HW1 7325   1.089   2.421   3.121
 2142SOL    HW2 7326   1.233   2.479   3.172
 2143SOL     OW 7327   3.251   4.540   1.415
 2143SOL    HW1 7328   3.198   4.618   1.449
 2143SOL    HW2 7329   3.227   4.523   1.319
 2144SOL     OW 7330   1.299   5.302   4.315
 2144SOL    HW1 7331   1.307   5.202   4.313
 2144SOL    HW2 7332   1.203   5.327   4.324
 2145SOL     OW 7333   4.266   5.838   4.291
 2145SOL    HW1 7334   4.289   5.883   4.204
 2145SOL    HW2 7335   4.256   5.907   4.363
 2146SOL     OW 7336   2.768   3.677   1.636
 2146SOL    HW1 7337   2.845   3.624   1.600
 2146SOL    HW2 7338   2.708   3.617   1.690
 2147SOL     OW 7339   6.809   1.767   6.003
 2147SOL    HW1 7340   6.801   1.673   5.970
 2147SOL    HW2 7341   6.739   1.783   6.073
 2148SOL     OW 7342   5.489   1.556   5.731
 2148SOL    HW1 7343   5.474   1.620   5.806
 2148SOL    HW2 7344   5.483   1.606   5.644
 2149SOL     OW 7345   3.418   2.575   1.218
 2149SOL    HW1 7346   3.477   2.649   1.250
 2149SOL    HW2 7347   3.416   2.502   1.287
 2150SOL     OW 7348   3.117   1.678   2.612
 2150SOL    HW1 7349   3.034   1.627   2.633
 2150SOL    HW2 7350   3.096   1.753   2.550
 2151SOL     OW 7351   1.665   0.515   4.873
 2151SOL    HW1 7352   1.658   0.415   4.872
 2151SOL    HW2 7353   1.616   0.553   4.795
 2152SOL     OW 7354   3.751   5.923   1.282
 2152SOL    HW1 7355   3.709   5.868   1.209
 2152SOL    HW2 7356   3.723   5.887   1.371
 2153SOL     OW 7357   3.712   0.378   3.336
 2153SOL    HW1 7358   3.810   0.363   3.351
 2153SOL    HW2 7359   3.674   0.301   3.286
 2154SOL     OW 7360   4.918   6.997   4.922
 2154SOL    HW1 7361   5.010   0.014   4.933
 2154SOL    HW2 7362   4.906   6.965   4.828
 2155SOL     OW 7363   1.766   6.114   0.085
 2155SOL    HW1 7364   1.827   6.077   0.155
 2155SOL    HW2 7365   1.731   6.203   0.114
 2156SOL     OW 7366   2.642   0.741   4.727
 2156SOL    HW1 7367   2.563   0.801   4.742
 2156SOL    HW2 7368   2.644   0.713   4.631
 2157SOL     OW 7369   6.087   1.156   3.592
 2157SOL    HW1 7370   6.004   1.118   3.632
 2157SOL    HW2 7371   6.062   1.231   3.531
 2158SOL     OW 7372   4.193   6.301   0.940
 2158SOL    HW1 7373   4.165   6.276   0.848
 2158SOL    HW2 7374   4.279   6.254   0.963
 2159SOL     OW 7375   1.753   6.484   5.536
 2159SOL    HW1 7376   1.822   6.544   5.495
 2159SOL    HW2 7377   1.793   6.434   5.613
 2160SOL     OW 7378   3.807   4.012   0.475
 2160SOL    HW1 7379   3.810   3.971   0.566
 2160SOL    HW2 7380   3.712   4.020   0.446
 2161SOL     OW 7381   5.245   4.400   3.314
 2161SOL    HW1 7382   5.253   4.340   3.235
 2161SOL    HW2 7383   5.224   4.493   3.284
 2162SOL     OW 7384   2.423   0.889   1.826
 2162SOL    HW1 7385   2.390   0.983   1.837
 2162SOL    HW2 7386   2.496   0.887   1.758
 2163SOL     OW 7387   0.760   4.570   6.387
 2163SOL    HW1 7388   0.821   4.519   6.448
 2163SOL    HW2 7389   0.710   4.506   6.328
 2164SOL     OW 7390   1.385   3.408   6.935
 2164SOL    HW1 7391   1.287   3.415   6.916
 2164SOL    HW2 7392   1.413   3.487   6.990
 2165SOL     OW 7393   0.355   2.267   2.874
 2165SOL    HW1 7394   0.387   2.291   2.966
 2165SOL    HW2 7395   0.366   2.346   2.813
 2166SOL     OW 7396   1.234   2.410   4.809
 2166SOL    HW1 7397   1.237   2.495   4.757
 2166SOL    HW2 7398   1.158   2.413   4.874
 2167SOL     OW 7399   1.711   1.533   3.659
 2167SOL    HW1 7400   1.702   1.463   3.588
 2167SOL    HW2 7401   1.629   1.590   3.661
 2168SOL     OW 7402   0.592   2.271   3.849
 2168SOL    HW1 7403   0.506   2.263   3.799
 2168SOL    HW2 7404   0.635   2.181   3.858
 2169SOL     OW 7405   5.322   1.610   6.158
 2169SOL    HW1 7406   5.240   1.586   6.208
 2169SOL    HW2 7407   5.304   1.603   6.060
 2170SOL     OW 7408   6.865   5.036   5.701
 2170SOL    HW1 7409   6.774   5.012   5.666
 2170SOL    HW2 7410   6.862   5.127   5.742
 2171SOL     OW 7411   0.354   3.722   1.721
 2171SOL    HW1 7412   0.366   3.681   1.811
 2171SOL    HW2 7413   0.279   3.788   1.724
 2172SOL     OW 7414   2.659   2.440   0.393
 2172SOL    HW1 7415   2.712   2.358   0.369
 2172SOL    HW2 7416   2.683   2.469   0.485
 2173SOL     OW 7417   3.891   0.667   4.915
 2173SOL    HW1 7418   3.819   0.736   4.911
 2173SOL    HW2 7419   3.970   0.697   4.862
 2174SOL     OW 7420   5.446   5.745   5.343
 2174SOL    HW1 7421   5.441   5.843   5.362
 2174SOL    HW2 7422   5.485   5.698   5.423
 2175SOL     OW 7423   2.228   2.579   4.371
 2175SOL    HW1 7424   2.188   2.510   4.311
 2175SOL    HW2 7425   2.168   2.593   4.450
 2176SOL     OW 7426   1.320   2.724   0.396
 2176SOL    HW1 7427   1.351   2.682   0.310
 2176SOL    HW2 7428   1.229   2.689   0.419
 2177SOL     OW 7429   5.775   1.384   3.949
 2177SOL    HW1 7430   5.851   1.419   4.004
 2177SOL    HW2 7431   5.783   1.285   3.940
 2178SOL     OW 7432   1.441   3.207   0.488
 2178SOL    HW1 7433   1.481   3.255   0.566
 2178SOL    HW2 7434   1.378   3.137   0.522
 2179SOL     OW 7435   1.761   5.510   4.740
 2179SOL    HW1 7436   1.851   5.508   4.784
 2179SOL    HW2 7437   1.771   5.499   4.642
 2180SOL     OW 7438   2.370   2.819   1.770
 2180SOL    HW1 7439   2.285   2.783   1.732
 2180SOL    HW2 7440   2.382   2.914   1.739
 2181SOL     OW 7441   4.195   5.049   5.178
 2181SOL    HW1 7442   4.170   5.017   5.269
 2181SOL    HW2 7443   4.213   4.970   5.119
 2182SOL     OW 7444   0.945   3.294   4.575
 2182SOL    HW1 7445   0.998   3.379   4.573
 2182SOL    HW2 7446   0.924   3.266   4.481
 2183SOL     OW 7447   2.609   4.442   6.146
 2183SOL    HW1 7448   2.520   4.403   6.123
 2183SOL    HW2 7449   2.663   4.375   6.197
 2184SOL     OW 7450   4.431   2.216   6.826
 2184SOL    HW1 7451   4.528   2.206   6.847
 2184SOL    HW2 7452   4.418   2.291   6.761
 2185SOL     OW 7453   1.445   2.216   0.957
 2185SOL    HW1 7454   1.540   2.246   0.945
 2185SOL    HW2 7455   1.444   2.118   0.978
 2186SOL     OW 7456   0.220   5.511   1.963
 2186SOL    HW1 7457   0.151   5.581   1.982
 2186SOL    HW2 7458   0.175   5.422   1.953
 2187SOL     OW 7459   6.664   1.171   2.627
 2187SOL    HW1 7460   6.608   1.094   2.596
 2187SOL    HW2 7461   6.616   1.256   2.610
 2188SOL     OW 7462   5.926   6.174   5.070
 2188SOL    HW1 7463   5.883   6.093   5.030
 2188SOL    HW2 7464   5.987   6.216   5.002
 2189SOL     OW 7465   1.875   0.450   0.629
 2189SOL    HW1 7466   1.955   0.490   0.584
 2189SOL    HW2 7467   1.853   0.503   0.711
 2190SOL     OW 7468   0.291   2.878   2.019
 2190SOL    HW1 7469   0.295   2.779   2.011
 2190SOL    HW2 7470   0.214   2.904   2.078
 2191SOL     OW 7471   3.041   1.989   6.515
 2191SOL    HW1 7472   3.006   1.990   6.609
 2191SOL    HW2 7473   2.990   1.922   6.461
 2192SOL     OW 7474   3.873   1.340   2.704
 2192SOL    HW1 7475   3.812   1.297   2.770
 2192SOL    HW2 7476   3.859   1.439   2.706
 2193SOL     OW 7477   6.939   5.523   5.869
 2193SOL    HW1 7478   6.996   5.524   5.787
 2193SOL    HW2 7479   6.938   5.615   5.910
 2194SOL     OW 7480   2.328   4.938   6.449
 2194SOL    HW1 7481   2.266   4.964   6.523
 2194SOL    HW2 7482   2.394   5.012   6.433
 2195SOL     OW 7483   0.001   0.496   3.753
 2195SOL    HW1 7484   6.937   0.546   3.740
 2195SOL    HW2 7485   0.007   0.422   3.686
 2196SOL     OW 7486   3.213   0.183   5.118
 2196SOL    HW1 7487   3.122   0.182   5.077
 2196SOL    HW2 7488   3.275   0.128   5.062
 2197SOL     OW 7489   3.332   3.583   0.962
 2197SOL    HW1 7490   3.291   3.582   0.870
 2197SOL    HW2 7491   3.261   3.595   1.030
 2198SOL     OW 7492   6.399   1.376   0.316
 2198SOL    HW1 7493   6.384   1.456   0.258
 2198SOL    HW2 7494   6.311   1.344   0.351
 2199SOL     OW 7495   5.367   1.171   3.272
 2199SOL    HW1 7496   5.308   1.109   3.221
 2199SOL    HW2 7497   5.460   1.135   3.274
 2200SOL     OW 7498   2.952   0.319   4.677
 2200SOL    HW1 7499   3.005   0.236   4.694
 2200SOL    HW2 7500   3.014   0.396   4.664
 2201SOL     OW 7501   6.412   2.740   3.748
 2201SOL    HW1 7502   6.453   2.803   3.814
 2201SOL    HW2 7503   6.349   2.790   3.689
 2202SOL     OW 7504   3.075   4.818   2.265
 2202SOL    HW1 7505   3.002   4.755   2.239
 2202SOL    HW2 7506   3.148   4.815   2.196
 2203SOL     OW 7507   2.121   2.888   1.480
 2203SOL    HW1 7508   2.094   2.933   1.565
 2203SOL    HW2 7509   2.042   2.842   1.440
 2204SOL     OW 7510   4.260   0.998   0.294
 2204SOL    HW1 7511   4.360   1.008   0.289
 2204SOL    HW2 7512   4.217   1.070   0.239
 2205SOL     OW 7513   1.389   0.274   5.780
 2205SOL    HW1 7514   1.293   0.287   5.805
 2205SOL    HW2 7515   1.419   0.349   5.722
 2206SOL     OW 7516   3.033   4.502   6.386
 2206SOL    HW1 7517   3.027   4.468   6.292
 2206SOL    HW2 7518   3.028   4.602   6.386
 2207SOL     OW 7519   3.044   4.568   0.242
 2207SOL    HW1 7520   2.945   4.586   0.245
 2207SOL    HW2 7521   3.060   4.469   0.246
 2208SOL     OW 7522   1.685   6.310   2.540
 2208SOL    HW1 7523   1.744   6.264   2.606
 2208SOL    HW2 7524   1.689   6.262   2.452
 2209SOL     OW 7525   1.588   6.044   5.560
 2209SOL    HW1 7526   1.623   6.049   5.653
 2209SOL    HW2 7527   1.654   6.086   5.497
 2210SOL     OW 7528   6.716   5.310   3.800
 2210SOL    HW1 7529   6.676   5.297   3.709
 2210SOL    HW2 7530   6.648   5.287   3.870
 2211SOL     OW 7531   5.227   0.421   0.122
 2211SOL    HW1 7532   5.291   0.487   0.082
 2211SOL    HW2 7533   5.152   0.469   0.166
 2212SOL     OW 7534   1.765   6.518   6.884
 2212SOL    HW1 7535   1.739   6.613   6.867
 2212SOL    HW2 7536   1.860   6.505   6.857
 2213SOL     OW 7537   3.639   2.676   5.261
 2213SOL    HW1 7538   3.550   2.710   5.291
 2213SOL    HW2 7539   3.647   2.579   5.283
 2214SOL     OW 7540   3.681   2.946   5.144
 2214SOL    HW1 7541   3.642   3.003   5.216
 2214SOL    HW2 7542   3.639   2.856   5.146
 2215SOL     OW 7543   6.874   1.905   0.091
 2215SOL    HW1 7544   6.775   1.917   0.088
 2215SOL    HW2 7545   6.918   1.992   0.112
 2216SOL     OW 7546   1.835   0.430   5.858
 2216SOL    HW1 7547   1.902   0.501   5.882
 2216SOL    HW2 7548   1.880   0.341   5.855
 2217SOL     OW 7549   3.678   6.767   1.399
 2217SOL    HW1 7550   3.752   6.702   1.418
 2217SOL    HW2 7551   3.593   6.732   1.436
 2218SOL     OW 7552   0.868   0.137   0.484
 2218SOL    HW1 7553   0.859   0.115   0.387
 2218SOL    HW2 7554   0.916   0.225   0.494
 2219SOL     OW 7555   6.230   1.895   2.192
 2219SOL    HW1 7556   6.267   1.813   2.236
 2219SOL    HW2 7557   6.275   1.908   2.103
 2220SOL     OW 7558   1.238   0.001   4.112
 2220SOL    HW1 7559   1.148   0.005   4.157
 2220SOL    HW2 7560   1.310   0.022   4.178
 2221SOL     OW 7561   5.855   0.912   5.222
 2221SOL    HW1 7562   5.891   0.823   5.193
 2221SOL    HW2 7563   5.828   0.965   5.142
 2222SOL     OW 7564   4.442   0.065   0.569
 2222SOL    HW1 7565   4.371   0.119   0.525
 2222SOL    HW2 7566   4.401   7.006   0.613
 2223SOL     OW 7567   5.971   0.662   4.574
 2223SOL    HW1 7568   6.065   0.677   4.543
 2223SOL    HW2 7569   5.914   0.739   4.547
 2224SOL     OW 7570   1.927   4.273   1.403
 2224SOL    HW1 7571   1.974   4.185   1.402
 2224SOL    HW2 7572   1.993   4.347   1.411
 2225SOL     OW 7573   6.259   6.411   2.876
 2225SOL    HW1 7574   6.219   6.380   2.962
 2225SOL    HW2 7575   6.186   6.422   2.808
 2226SOL     OW 7576   3.970   4.899   1.009
 2226SOL    HW1 7577   3.984   4.801   1.026
 2226SOL    HW2 7578   3.888   4.912   0.954
 2227SOL     OW 7579   5.627   3.568   0.780
 2227SOL    HW1 7580   5.569   3.622   0.718
 2227SOL    HW2 7581   5.648   3.622   0.861
 2228SOL     OW 7582   2.855   5.107   1.300
 2228SOL    HW1 7583   2.864   5.177   1.371
 2228SOL    HW2 7584   2.786   5.041   1.327
 2229SOL     OW 7585   4.384   1.675   4.458
 2229SOL    HW1 7586   4.374   1.646   4.553
 2229SOL    HW2 7587   4.478   1.657   4.428
 2230SOL     OW 7588   5.884   5.507   6.261
 2230SOL    HW1 7589   5.853   5.499   6.356
 2230SOL    HW2 7590   5.958   5.574   6.256
 2231SOL     OW 7591   0.527   0.638   2.216
 2231SOL    HW1 7592   0.453   0.696   2.182
 2231SOL    HW2 7593   0.587   0.611   2.141
 2232SOL     OW 7594   0.705   3.261   5.091
 2232SOL    HW1 7595   0.797   3.294   5.067
 2232SOL    HW2 7596   0.713   3.171   5.136
 2233SOL     OW 7597   2.572   4.521   1.082
 2233SOL    HW1 7598   2.594   4.618   1.089
 2233SOL    HW2 7599   2.530   4.503   0.993
 2234SOL     OW 7600   4.161   2.155   2.026
 2234SOL    HW1 7601   4.184   2.070   2.073
 2234SOL    HW2 7602   4.216   2.164   1.943
 2235SOL     OW 7603   2.121   0.667   1.500
 2235SOL    HW1 7604   2.026   0.694   1.515
 2235SOL    HW2 7605   2.164   0.731   1.436
 2236SOL     OW 7606   1.043   4.627   6.530
 2236SOL    HW1 7607   1.125   4.651   6.582
 2236SOL    HW2 7608   1.009   4.708   6.482
 2237SOL     OW 7609   5.158   5.172   4.034
 2237SOL    HW1 7610   5.079   5.217   3.993
 2237SOL    HW2 7611   5.196   5.106   3.969
 2238SOL     OW 7612   5.460   4.556   0.884
 2238SOL    HW1 7613   5.488   4.578   0.791
 2238SOL    HW2 7614   5.407   4.471   0.884
 2239SOL     OW 7615   3.254   4.912   3.045
 2239SOL    HW1 7616   3.265   4.840   3.113
 2239SOL    HW2 7617   3.190   4.881   2.974
 2240SOL     OW 7618   4.908   5.835   3.561
 2240SOL    HW1 7619   4.809   5.841   3.575
 2240SOL    HW2 7620   4.949   5.925   3.573
 2241SOL     OW 7621   0.061   6.805   2.620
 2241SOL    HW1 7622   0.143   6.747   2.623
 2241SOL    HW2 7623   0.030   6.823   2.713
 2242SOL     OW 7624   4.945   1.479   3.033
 2242SOL    HW1 7625   4.960   1.418   2.955
 2242SOL    HW2 7626   4.974   1.434   3.117
 2243SOL     OW 7627   2.777   6.140   5.530
 2243SOL    HW1 7628   2.731   6.054   5.510
 2243SOL    HW2 7629   2.710   6.210   5.553
 2244SOL     OW 7630   2.248   6.428   2.157
 2244SOL    HW1 7631   2.208   6.513   2.123
 2244SOL    HW2 7632   2.179   6.377   2.208
 2245SOL     OW 7633   0.525   2.042   2.301
 2245SOL    HW1 7634   0.456   2.066   2.233
 2245SOL    HW2 7635   0.480   2.002   2.381
 2246SOL     OW 7636   0.913   1.475   5.657
 2246SOL    HW1 7637   0.833   1.508   5.607
 2246SOL    HW2 7638   0.920   1.525   5.744
 2247SOL     OW 7639   2.875   3.407   5.047
 2247SOL    HW1 7640   2.855   3.502   5.069
 2247SOL    HW2 7641   2.794   3.351   5.060
 2248SOL     OW 7642   3.801   4.249   5.881
 2248SOL    HW1 7643   3.869   4.277   5.813
 2248SOL    HW2 7644   3.780   4.151   5.869
 2249SOL     OW 7645   6.227   6.773   2.715
 2249SOL    HW1 7646   6.270   6.727   2.793
 2249SOL    HW2 7647   6.247   6.722   2.631
 2250SOL     OW 7648   4.020   3.286   0.148
 2250SOL    HW1 7649   3.976   3.376   0.151
 2250SOL    HW2 7650   4.058   3.265   0.238
 2251SOL     OW 7651   5.222   1.049   0.230
 2251SOL    HW1 7652   5.141   1.061   0.288
 2251SOL    HW2 7653   5.226   0.955   0.197
 2252SOL     OW 7654   5.498   2.501   3.065
 2252SOL    HW1 7655   5.444   2.425   3.029
 2252SOL    HW2 7656   5.510   2.490   3.163
 2253SOL     OW 7657   1.352   3.504   6.534
 2253SOL    HW1 7658   1.283   3.440   6.569
 2253SOL    HW2 7659   1.422   3.453   6.484
 2254SOL     OW 7660   3.705   3.893   5.190
 2254SOL    HW1 7661   3.649   3.890   5.107
 2254SOL    HW2 7662   3.690   3.980   5.236
 2255SOL     OW 7663   4.896   2.586   6.833
 2255SOL    HW1 7664   4.943   2.664   6.792
 2255SOL    HW2 7665   4.960   2.534   6.890
 2256SOL     OW 7666   4.827   5.855   1.194
 2256SOL    HW1 7667   4.858   5.909   1.116
 2256SOL    HW2 7668   4.870   5.765   1.193
 2257SOL     OW 7669   0.350   2.164   4.179
 2257SOL    HW1 7670   0.327   2.121   4.092
 2257SOL    HW2 7671   0.299   2.250   4.188
 2258SOL     OW 7672   1.182   5.403   5.819
 2258SOL    HW1 7673   1.230   5.316   5.831
 2258SOL    HW2 7674   1.232   5.461   5.755
 2259SOL     OW 7675   5.103   4.178   6.698
 2259SOL    HW1 7676   5.147   4.130   6.774
 2259SOL    HW2 7677   5.005   4.190   6.718
 2260SOL     OW 7678   5.818   4.659   3.068
 2260SOL    HW1 7679   5.901   4.675   3.013
 2260SOL    HW2 7680   5.788   4.564   3.056
 2261SOL     OW 7681   6.615   5.717   0.468
 2261SOL    HW1 7682   6.643   5.718   0.372
 2261SOL    HW2 7683   6.652   5.798   0.514
 2262SOL     OW 7684   5.494   1.482   2.016
 2262SOL    HW1 7685   5.399   1.454   2.001
 2262SOL    HW2 7686   5.496   1.574   2.054
 2263SOL     OW 7687   2.765   5.643   6.835
 2263SOL    HW1 7688   2.814   5.557   6.823
 2263SOL    HW2 7689   2.787   5.683   6.924
 2264SOL     OW 7690   3.486   3.544   0.611
 2264SOL    HW1 7691   3.492   3.463   0.553
 2264SOL    HW2 7692   3.399   3.591   0.594
 2265SOL     OW 7693   0.857   0.962   4.324
 2265SOL    HW1 7694   0.875   1.052   4.285
 2265SOL    HW2 7695   0.843   0.970   4.423
 2266SOL     OW 7696   6.283   2.009   1.315
 2266SOL    HW1 7697   6.269   2.097   1.361
 2266SOL    HW2 7698   6.287   1.936   1.383
 2267SOL     OW 7699   5.046   2.530   4.943
 2267SOL    HW1 7700   5.090   2.525   4.853
 2267SOL    HW2 7701   4.982   2.607   4.945
 2268SOL     OW 7702   6.718   3.816   6.666
 2268SOL    HW1 7703   6.629   3.787   6.633
 2268SOL    HW2 7704   6.708   3.869   6.750
 2269SOL     OW 7705   6.050   5.903   4.963
 2269SOL    HW1 7706   6.044   5.902   5.063
 2269SOL    HW2 7707   6.134   5.857   4.935
 2270SOL     OW 7708   3.647   2.456   6.331
 2270SOL    HW1 7709   3.655   2.496   6.422
 2270SOL    HW2 7710   3.558   2.481   6.291
 2271SOL     OW 7711   6.296   4.440   0.661
 2271SOL    HW1 7712   6.263   4.401   0.575
 2271SOL    HW2 7713   6.383   4.486   0.645
 2272SOL     OW 7714   6.027   1.672   5.923
 2272SOL    HW1 7715   6.056   1.577   5.936
 2272SOL    HW2 7716   5.929   1.674   5.906
 2273SOL     OW 7717   1.857   0.360   2.022
 2273SOL    HW1 7718   1.895   0.321   2.106
 2273SOL    HW2 7719   1.771   0.408   2.044
 2274SOL     OW 7720   0.979   2.977   5.942
 2274SOL    HW1 7721   0.932   2.942   6.023
 2274SOL    HW2 7722   1.046   3.045   5.969
 2275SOL     OW 7723   6.033   0.667   3.879
 2275SOL    HW1 7724   5.972   0.596   3.843
 2275SOL    HW2 7725   6.122   0.626   3.899
 2276SOL     OW 7726   2.920   5.274   1.541
 2276SOL    HW1 7727   2.933   5.365   1.582
 2276SOL    HW2 7728   2.851   5.224   1.594
 2277SOL     OW 7729   3.126   3.635   5.496
 2277SOL    HW1 7730   3.092   3.695   5.568
 2277SOL    HW2 7731   3.066   3.640   5.417
 2278SOL     OW 7732   6.958   5.203   3.742
 2278SOL    HW1 7733   6.872   5.248   3.765
 2278SOL    HW2 7734   0.012   5.268   3.752
 2279SOL     OW 7735   4.651   6.063   4.728
 2279SOL    HW1 7736   4.734   6.113   4.701
 2279SOL    HW2 7737   4.636   5.988   4.664
 2280SOL     OW 7738   6.946   5.946   4.323
 2280SOL    HW1 7739   7.000   5.887   4.384
 2280SOL    HW2 7740   6.935   6.036   4.364
 2281SOL     OW 7741   3.387   1.363   1.237
 2281SOL    HW1 7742   3.359   1.433   1.303
 2281SOL    HW2 7743   3.445   1.405   1.168
 2282SOL     OW 7744   4.495   6.296   5.138
 2282SOL    HW1 7745   4.571   6.253   5.090
 2282SOL    HW2 7746   4.508   6.395   5.138
 2283SOL     OW 7747   6.604   4.112   2.001
 2283SOL    HW1 7748   6.566   4.025   2.030
 2283SOL    HW2 7749   6.565   4.139   1.914
 2284SOL     OW 7750   1.967   2.293   0.415
 2284SOL    HW1 7751   1.943   2.388   0.434
 2284SOL    HW2 7752   2.066   2.284   0.409
 2285SOL     OW 7753   1.825   2.562   0.869
 2285SOL    HW1 7754   1.859   2.594   0.780
 2285SOL    HW2 7755   1.889   2.589   0.941
 2286SOL     OW 7756   0.302   0.155   4.633
 2286SOL    HW1 7757   0.297   0.100   4.550
 2286SOL    HW2 7758   0.371   0.116   4.694
 2287SOL     OW 7759   1.808   1.600   2.988
 2287SOL    HW1 7760   1.798   1.549   3.074
 2287SOL    HW2 7761   1.798   1.697   3.006
 2288SOL     OW 7762   5.784   5.352   4.431
 2288SOL    HW1 7763   5.830   5.436   4.461
 2288SOL    HW2 7764   5.688   5.354   4.460
 2289SOL     OW 7765   6.698   4.668   2.609
 2289SOL    HW1 7766   6.650   4.596   2.561
 2289SOL    HW2 7767   6.757   4.717   2.545
 2290SOL     OW 7768   1.486   3.681   2.035
 2290SOL    HW1 7769   1.496   3.780   2.036
 2290SOL    HW2 7770   1.553   3.640   1.974
 2291SOL     OW 7771   2.350   2.497   6.555
 2291SOL    HW1 7772   2.269   2.485   6.613
 2291SOL    HW2 7773   2.411   2.420   6.568
 2292SOL     OW 7774   5.815   3.156   4.138
 2292SOL    HW1 7775   5.912   3.172   4.119
 2292SOL    HW2 7776   5.767   3.134   4.053
 2293SOL     OW 7777   5.545   6.482   0.954
 2293SOL    HW1 7778   5.523   6.388   0.930
 2293SOL    HW2 7779   5.568   6.487   1.052
 2294SOL     OW 7780   3.899   0.878   6.398
 2294SOL    HW1 7781   3.849   0.954   6.440
 2294SOL    HW2 7782   3.867   0.792   6.435
 2295SOL     OW 7783   0.524   1.586   2.884
 2295SOL    HW1 7784   0.494   1.526   2.958
 2295SOL    HW2 7785   0.574   1.532   2.816
 2296SOL     OW 7786   3.479   5.714   2.193
 2296SOL    HW1 7787   3.422   5.750   2.267
 2296SOL    HW2 7788   3.499   5.787   2.128
 2297SOL     OW 7789   5.133   4.260   5.264
 2297SOL    HW1 7790   5.053   4.319   5.254
 2297SOL    HW2 7791   5.176   4.246   5.174
 2298SOL     OW 7792   3.885   3.629   1.661
 2298SOL    HW1 7793   3.951   3.687   1.613
 2298SOL    HW2 7794   3.795   3.674   1.661
 2299SOL     OW 7795   4.665   4.569   5.026
 2299SOL    HW1 7796   4.721   4.486   5.032
 2299SOL    HW2 7797   4.670   4.606   4.933
 2300SOL     OW 7798   2.381   5.891   2.720
 2300SOL    HW1 7799   2.348   5.865   2.629
 2300SOL    HW2 7800   2.455   5.957   2.710
 2301SOL     OW 7801   3.324   2.933   3.068
 2301SOL    HW1 7802   3.323   2.979   3.157
 2301SOL    HW2 7803   3.298   2.837   3.080
 2302SOL     OW 7804   3.644   0.487   1.331
 2302SOL    HW1 7805   3.660   0.583   1.311
 2302SOL    HW2 7806   3.730   0.445   1.363
 2303SOL     OW 7807   2.345   3.144   6.857
 2303SOL    HW1 7808   2.413   3.188   6.915
 2303SOL    HW2 7809   2.325   3.052   6.892
 2304SOL     OW 7810   5.570   6.741   4.271
 2304SOL    HW1 7811   5.632   6.740   4.193
 2304SOL    HW2 7812   5.615   6.699   4.350
 2305SOL     OW 7813   2.784   0.091   2.217
 2305SOL    HW1 7814   2.726   0.079   2.298
 2305SOL    HW2 7815   2.727   0.116   2.139
 2306SOL     OW 7816   2.041   5.020   1.639
 2306SOL    HW1 7817   1.942   5.023   1.630
 2306SOL    HW2 7818   2.067   5.020   1.736
 2307SOL     OW 7819   0.053   3.277   4.476
 2307SOL    HW1 7820   7.018   3.201   4.508
 2307SOL    HW2 7821   0.063   3.272   4.377
 2308SOL     OW 7822   1.858   4.631   1.994
 2308SOL    HW1 7823   1.850   4.608   1.897
 2308SOL    HW2 7824   1.927   4.573   2.037
 2309SOL     OW 7825   1.508   0.836   5.861
 2309SOL    HW1 7826   1.431   0.782   5.830
 2309SOL    HW2 7827   1.590   0.779   5.864
 2310SOL     OW 7828   5.883   5.690   0.755
 2310SOL    HW1 7829   5.869   5.597   0.722
 2310SOL    HW2 7830   5.840   5.700   0.845
 2311SOL     OW 7831   2.275   0.322   1.325
 2311SOL    HW1 7832   2.192   0.288   1.370
 2311SOL    HW2 7833   2.347   0.335   1.393
 2312SOL     OW 7834   4.436   5.966   3.280
 2312SOL    HW1 7835   4.348   5.920   3.291
 2312SOL    HW2 7836   4.453   6.025   3.359
 2313SOL     OW 7837   5.711   5.472   1.450
 2313SOL    HW1 7838   5.696   5.566   1.419
 2313SOL    HW2 7839   5.766   5.473   1.533
 2314SOL     OW 7840   5.240   5.954   3.672
 2314SOL    HW1 7841   5.184   5.919   3.747
 2314SOL    HW2 7842   5.267   5.878   3.613
 2315SOL     OW 7843   5.339   3.083   6.580
 2315SOL    HW1 7844   5.245   3.055   6.559
 2315SOL    HW2 7845   5.338   3.171   6.627
 2316SOL     OW 7846   4.596   1.614   3.741
 2316SOL    HW1 7847   4.556   1.623   3.832
 2316SOL    HW2 7848   4.589   1.701   3.693
 2317SOL     OW 7849   0.844   6.460   3.117
 2317SOL    HW1 7850   0.939   6.486   3.099
 2317SOL    HW2 7851   0.824   6.472   3.214
 2318SOL     OW 7852   1.093   3.046   3.699
 2318SOL    HW1 7853   1.107   3.067   3.796
 2318SOL    HW2 7854   1.008   3.087   3.667
 2319SOL     OW 7855   1.595   4.617   3.892
 2319SOL    HW1 7856   1.610   4.710   3.927
 2319SOL    HW2 7857   1.506   4.584   3.925
 2320SOL     OW 7858   1.072   2.299   4.351
 2320SOL    HW1 7859   1.106   2.386   4.387
 2320SOL    HW2 7860   1.109   2.285   4.260
 2321SOL     OW 7861   2.793   6.960   6.471
 2321SOL    HW1 7862   2.732   0.011   6.437
 2321SOL    HW2 7863   2.845   6.995   6.549
 2322SOL     OW 7864   3.095   1.716   5.188
 2322SOL    HW1 7865   3.027   1.698   5.259
 2322SOL    HW2 7866   3.184   1.680   5.219
 2323SOL     OW 7867   2.334   5.173   1.937
 2323SOL    HW1 7868   2.387   5.216   2.010
 2323SOL    HW2 7869   2.367   5.205   1.849
 2324SOL     OW 7870   6.026   6.468   1.407
 2324SOL    HW1 7871   6.025   6.407   1.327
 2324SOL    HW2 7872   5.957   6.539   1.396
 2325SOL     OW 7873   1.441   4.501   2.304
 2325SOL    HW1 7874   1.473   4.443   2.378
 2325SOL    HW2 7875   1.490   4.477   2.220
 2326SOL     OW 7876   3.481   5.398   5.595
 2326SOL    HW1 7877   3.441   5.481   5.635
 2326SOL    HW2 7878   3.430   5.318   5.626
 2327SOL     OW 7879   6.107   3.370   5.352
 2327SOL    HW1 7880   6.189   3.418   5.384
 2327SOL    HW2 7881   6.026   3.420   5.382
 2328SOL     OW 7882   3.346   2.049   3.139
 2328SOL    HW1 7883   3.404   1.995   3.078
 2328SOL    HW2 7884   3.403   2.094   3.207
 2329SOL     OW 7885   1.655   3.537   4.794
 2329SOL    HW1 7886   1.589   3.500   4.729
 2329SOL    HW2 7887   1.612   3.546   4.884
 2330SOL     OW 7888   0.983   3.671   2.189
 2330SOL    HW1 7889   0.903   3.657   2.247
 2330SOL    HW2 7890   0.970   3.753   2.133
 2331SOL     OW 7891   6.138   4.345   1.015
 2331SOL    HW1 7892   6.047   4.355   0.976
 2331SOL    HW2 7893   6.189   4.277   0.962
 2332SOL     OW 7894   4.383   1.604   5.679
 2332SOL    HW1 7895   4.360   1.610   5.582
 2332SOL    HW2 7896   4.299   1.593   5.733
 2333SOL     OW 7897   0.215   5.991   3.087
 2333SOL    HW1 7898   0.180   5.919   3.027
 2333SOL    HW2 7899   0.149   6.066   3.091
 2334SOL     OW 7900   2.142   0.531   0.232
 2334SOL    HW1 7901   2.087   0.584   0.168
 2334SOL    HW2 7902   2.238   0.537   0.207
 2335SOL     OW 7903   6.181   1.259   3.250
 2335SOL    HW1 7904   6.199   1.161   3.249
 2335SOL    HW2 7905   6.162   1.291   3.157
 2336SOL     OW 7906   4.223   1.807   5.061
 2336SOL    HW1 7907   4.260   1.845   4.976
 2336SOL    HW2 7908   4.158   1.735   5.040
 2337SOL     OW 7909   4.253   0.772   3.208
 2337SOL    HW1 7910   4.185   0.759   3.280
 2337SOL    HW2 7911   4.344   0.750   3.244
 2338SOL     OW 7912   1.629   1.444   6.353
 2338SOL    HW1 7913   1.623   1.544   6.348
 2338SOL    HW2 7914   1.542   1.404   6.328
 2339SOL     OW 7915   3.414   4.205   5.268
 2339SOL    HW1 7916   3.470   4.146   5.325
 2339SOL    HW2 7917   3.403   4.163   5.177
 2340SOL     OW 7918   5.533   4.843   6.391
 2340SOL    HW1 7919   5.607   4.806   6.448
 2340SOL    HW2 7920   5.543   4.942   6.385
 2341SOL     OW 7921   5.707   4.279   1.457
 2341SOL    HW1 7922   5.680   4.312   1.547
 2341SOL    HW2 7923   5.787   4.219   1.465
 2342SOL     OW 7924   6.944   6.301   5.016
 2342SOL    HW1 7925   6.858   6.293   5.065
 2342SOL    HW2 7926   7.015   6.336   5.078
 2343SOL     OW 7927   1.692   6.684   2.200
 2343SOL    HW1 7928   1.718   6.592   2.168
 2343SOL    HW2 7929   1.593   6.688   2.210
 2344SOL     OW 7930   1.651   0.832   1.302
 2344SOL    HW1 7931   1.672   0.762   1.371
 2344SOL    HW2 7932   1.736   0.874   1.270
 2345SOL     OW 7933   2.184   5.114   5.465
 2345SOL    HW1 7934   2.277   5.128   5.499
 2345SOL    HW2 7935   2.185   5.046   5.392
 2346SOL     OW 7936   4.815   3.058   4.666
 2346SOL    HW1 7937   4.820   3.090   4.760
 2346SOL    HW2 7938   4.895   3.089   4.615
 2347SOL     OW 7939   2.272   3.635   1.668
 2347SOL    HW1 7940   2.185   3.602   1.632
 2347SOL    HW2 7941   2.299   3.578   1.746
 2348SOL     OW 7942   3.525   5.970   3.964
 2348SOL    HW1 7943   3.472   6.053   3.986
 2348SOL    HW2 7944   3.550   5.924   4.049
 2349SOL     OW 7945   0.766   5.141   6.228
 2349SOL    HW1 7946   0.809   5.225   6.193
 2349SOL    HW2 7947   0.774   5.068   6.160
 2350SOL     OW 7948   5.203   6.912   6.556
 2350SOL    HW1 7949   5.272   6.963   6.609
 2350SOL    HW2 7950   5.236   6.900   6.463
 2351SOL     OW 7951   4.205   5.043   2.111
 2351SOL    HW1 7952   4.178   5.131   2.151
 2351SOL    HW2 7953   4.266   4.996   2.174
 2352SOL     OW 7954   1.335   3.887   2.431
 2352SOL    HW1 7955   1.430   3.857   2.417
 2352SOL    HW2 7956   1.286   3.885   2.344
 2353SOL     OW 7957   2.839   4.855   4.883
 2353SOL    HW1 7958   2.814   4.765   4.920
 2353SOL    HW2 7959   2.767   4.887   4.822
 2354SOL     OW 7960   2.876   1.843   6.365
 2354SOL    HW1 7961   2.799   1.905   6.350
 2354SOL    HW2 7962   2.847   1.749   6.345
 2355SOL     OW 7963   1.443   5.549   6.764
 2355SOL    HW1 7964   1.374   5.606   6.719
 2355SOL    HW2 7965   1.526   5.549   6.709
 2356SOL     OW 7966   2.174   4.348   0.624
 2356SOL    HW1 7967   2.216   4.259   0.639
 2356SOL    HW2 7968   2.228   4.401   0.559
 2357SOL     OW 7969   4.244   5.223   3.862
 2357SOL    HW1 7970   4.293   5.180   3.937
 2357SOL    HW2 7971   4.239   5.160   3.785
 2358SOL     OW 7972   2.533   5.257   4.720
 2358SOL    HW1 7973   2.633   5.270   4.716
 2358SOL    HW2 7974   2.508   5.176   4.668
 2359SOL     OW 7975   0.148   0.996   5.578
 2359SOL    HW1 7976   0.107   1.087   5.571
 2359SOL    HW2 7977   0.219   0.997   5.649
 2360SOL     OW 7978   4.913   6.321   5.655
 2360SOL    HW1 7979   4.837   6.385   5.648
 2360SOL    HW2 7980   4.973   6.330   5.576
 2361SOL     OW 7981   3.186   6.754   4.663
 2361SOL    HW1 7982   3.117   6.766   4.733
 2361SOL    HW2 7983   3.158   6.801   4.579
 2362SOL     OW 7984   3.264   6.463   5.340
 2362SOL    HW1 7985   3.289   6.558   5.318
 2362SOL    HW2 7986   3.184   6.463   5.399
 2363SOL     OW 7987   4.384   2.638   5.579
 2363SOL    HW1 7988   4.480   2.633   5.554
 2363SOL    HW2 7989   4.372   2.699   5.657
 2364SOL     OW 7990   6.956   2.652   3.238
 2364SOL    HW1 7991   6.875   2.645   3.296
 2364SOL    HW2 7992   0.016   2.629   3.291
 2365SOL     OW 7993   5.879   2.252   6.243
 2365SOL    HW1 7994   5.792   2.300   6.248
 2365SOL    HW2 7995   5.924   2.274   6.157
 2366SOL     OW 7996   1.300   4.270   5.498
 2366SOL    HW1 7997   1.209   4.259   5.539
 2366SOL    HW2 7998   1.324   4.189   5.446
 2367SOL     OW 7999   2.825   3.714   6.952
 2367SOL    HW1 8000   2.735   3.699   6.993
 2367SOL    HW2 8001   2.827   3.674   6.860
 2368SOL     OW 8002   4.460   0.302   3.673
 2368SOL    HW1 8003   4.468   0.345   3.583
 2368SOL    HW2 8004   4.399   0.356   3.731
 2369SOL     OW 8005   2.139   2.411   4.824
 2369SOL    HW1 8006   2.209   2.480   4.803
 2369SOL    HW2 8007   2.048   2.452   4.816
 2370SOL     OW 8008   4.383   4.198   6.285
 2370SOL    HW1 8009   4.349   4.157   6.200
 2370SOL    HW2 8010   4.309   4.247   6.330
 2371SOL     OW 8011   1.306   6.378   1.847
 2371SOL    HW1 8012   1.320   6.463   1.796
 2371SOL    HW2 8013   1.350   6.303   1.798
 2372SOL     OW 8014   1.138   2.391   1.192
 2372SOL    HW1 8015   1.101   2.457   1.258
 2372SOL    HW2 8016   1.087   2.397   1.106
 2373SOL     OW 8017   5.852   0.401   6.890
 2373SOL    HW1 8018   5.925   0.410   6.958
 2373SOL    HW2 8019   5.893   0.394   6.799
 2374SOL     OW 8020   6.501   0.724   4.055
 2374SOL    HW1 8021   6.580   0.759   4.005
 2374SOL    HW2 8022   6.531   0.675   4.136
 2375SOL     OW 8023   1.489   6.795   4.459
 2375SOL    HW1 8024   1.523   6.872   4.513
 2375SOL    HW2 8025   1.563   6.759   4.403
 2376SOL     OW 8026   6.026   2.608   4.315
 2376SOL    HW1 8027   6.125   2.619   4.329
 2376SOL    HW2 8028   5.983   2.698   4.311
 2377SOL     OW 8029   3.295   4.148   3.559
 2377SOL    HW1 8030   3.329   4.183   3.646
 2377SOL    HW2 8031   3.319   4.212   3.485
 2378SOL     OW 8032   5.593   1.642   6.740
 2378SOL    HW1 8033   5.611   1.629   6.643
 2378SOL    HW2 8034   5.548   1.730   6.755
 2379SOL     OW 8035   0.072   1.427   6.161
 2379SOL    HW1 8036   0.080   1.510   6.215
 2379SOL    HW2 8037   0.124   1.353   6.204
 2380SOL     OW 8038   6.774   6.588   6.046
 2380SOL    HW1 8039   6.775   6.656   6.119
 2380SOL    HW2 8040   6.832   6.511   6.072
 2381SOL     OW 8041   2.313   4.308   4.120
 2381SOL    HW1 8042   2.241   4.253   4.078
 2381SOL    HW2 8043   2.344   4.378   4.055
 2382SOL     OW 8044   2.167   4.609   2.541
 2382SOL    HW1 8045   2.104   4.621   2.618
 2382SOL    HW2 8046   2.190   4.699   2.503
 2383SOL     OW 8047   5.425   5.964   6.828
 2383SOL    HW1 8048   5.326   5.953   6.818
 2383SOL    HW2 8049   5.445   6.048   6.878
 2384SOL     OW 8050   0.937   0.476   2.517
 2384SOL    HW1 8051   0.853   0.468   2.571
 2384SOL    HW2 8052   0.920   0.534   2.438
 2385SOL     OW 8053   6.250   0.166   0.774
 2385SOL    HW1 8054   6.244   0.216   0.860
 2385SOL    HW2 8055   6.161   0.124   0.754
 2386SOL     OW 8056   4.279   5.354   4.600
 2386SOL    HW1 8057   4.370   5.389   4.576
 2386SOL    HW2 8058   4.264   5.365   4.699
 2387SOL     OW 8059   6.818   2.802   4.205
 2387SOL    HW1 8060   6.867   2.721   4.237
 2387SOL    HW2 8061   6.785   2.787   4.112
 2388SOL     OW 8062   1.123   1.652   4.442
 2388SOL    HW1 8063   1.165   1.658   4.532
 2388SOL    HW2 8064   1.173   1.711   4.378
 2389SOL     OW 8065   5.023   4.167   3.674
 2389SOL    HW1 8066   5.102   4.111   3.700
 2389SOL    HW2 8067   5.046   4.220   3.593
 2390SOL     OW 8068   3.648   3.128   4.582
 2390SOL    HW1 8069   3.554   3.101   4.604
 2390SOL    HW2 8070   3.711   3.058   4.616
 2391SOL     OW 8071   4.205   4.093   5.712
 2391SOL    HW1 8072   4.256   4.144   5.781
 2391SOL    HW2 8073   4.214   3.995   5.730
 2392SOL     OW 8074   3.012   6.238   5.680
 2392SOL    HW1 8075   3.028   6.237   5.778
 2392SOL    HW2 8076   2.928   6.188   5.659
 2393SOL     OW 8077   3.501   5.434   0.834
 2393SOL    HW1 8078   3.498   5.522   0.881
 2393SOL    HW2 8079   3.500   5.360   0.901
 2394SOL     OW 8080   1.793   3.327   4.906
 2394SOL    HW1 8081   1.764   3.409   4.858
 2394SOL    HW2 8082   1.723   3.300   4.972
 2395SOL     OW 8083   6.632   2.279   6.988
 2395SOL    HW1 8084   6.690   2.238   6.918
 2395SOL    HW2 8085   6.641   2.229   0.053
 2396SOL     OW 8086   4.727   5.563   0.272
 2396SOL    HW1 8087   4.704   5.522   0.360
 2396SOL    HW2 8088   4.740   5.491   0.204
 2397SOL     OW 8089   0.019   4.675   0.601
 2397SOL    HW1 8090   6.990   4.600   0.645
 2397SOL    HW2 8091   6.974   4.736   0.555
 2398SOL     OW 8092   3.047   5.072   5.922
 2398SOL    HW1 8093   3.092   4.984   5.941
 2398SOL    HW2 8094   2.949   5.057   5.909
 2399SOL     OW 8095   4.520   1.550   1.879
 2399SOL    HW1 8096   4.436   1.598   1.902
 2399SOL    HW2 8097   4.558   1.587   1.794
 2400SOL     OW 8098   3.909   4.517   0.680
 2400SOL    HW1 8099   3.831   4.462   0.710
 2400SOL    HW2 8100   3.890   4.613   0.695
 2401SOL     OW 8101   3.958   0.626   5.752
 2401SOL    HW1 8102   4.002   0.539   5.773
 2401SOL    HW2 8103   4.026   0.699   5.751
 2402SOL     OW 8104   0.082   2.947   4.131
 2402SOL    HW1 8105   0.096   3.018   4.063
 2402SOL    HW2 8106   7.006   2.919   4.130
 2403SOL     OW 8107   2.696   2.812   6.789
 2403SOL    HW1 8108   2.730   2.724   6.823
 2403SOL    HW2 8109   2.740   2.887   6.839
 2404SOL     OW 8110   5.648   1.227   2.658
 2404SOL    HW1 8111   5.598   1.304   2.698
 2404SOL    HW2 8112   5.715   1.262   2.592
 2405SOL     OW 8113   3.686   3.741   4.787
 2405SOL    HW1 8114   3.673   3.716   4.691
 2405SOL    HW2 8115   3.743   3.823   4.793
 2406SOL     OW 8116   1.521   0.311   3.490
 2406SOL    HW1 8117   1.437   0.364   3.474
 2406SOL    HW2 8118   1.599   0.363   3.458
 2407SOL     OW 8119   4.905   2.320   3.294
 2407SOL    HW1 8120   4.874   2.254   3.361
 2407SOL    HW2 8121   4.828   2.348   3.237
 2408SOL     OW 8122   3.622   5.465   2.678
 2408SOL    HW1 8123   3.616   5.525   2.598
 2408SOL    HW2 8124   3.538   5.475   2.732
 2409SOL     OW 8125   1.877   2.885   1.947
 2409SOL    HW1 8126   1.892   2.934   2.033
 2409SOL    HW2 8127   1.797   2.825   1.956
 2410SOL     OW 8128   6.423   2.674   5.424
 2410SOL    HW1 8129   6.395   2.579   5.408
 2410SOL    HW2 8130   6.509   2.674   5.475
 2411SOL     OW 8131   4.251   4.996   5.646
 2411SOL    HW1 8132   4.200   5.079   5.669
 2411SOL    HW2 8133   4.342   5.000   5.688
 2412SOL     OW 8134   2.767   4.417   6.666
 2412SOL    HW1 8135   2.829   4.494   6.680
 2412SOL    HW2 8136   2.812   4.332   6.695
 2413SOL     OW 8137   6.606   3.058   6.962
 2413SOL    HW1 8138   6.695   3.012   6.955
 2413SOL    HW2 8139   6.551   3.015   0.012
 2414SOL     OW 8140   5.512   3.822   2.453
 2414SOL    HW1 8141   5.605   3.832   2.486
 2414SOL    HW2 8142   5.465   3.751   2.506
 2415SOL     OW 8143   1.177   0.182   0.674
 2415SOL    HW1 8144   1.231   0.133   0.742
 2415SOL    HW2 8145   1.111   0.120   0.633
 2416SOL     OW 8146   2.705   1.529   5.213
 2416SOL    HW1 8147   2.683   1.587   5.135
 2416SOL    HW2 8148   2.630   1.465   5.229
 2417SOL     OW 8149   4.249   2.927   0.496
 2417SOL    HW1 8150   4.163   2.915   0.446
 2417SOL    HW2 8151   4.236   2.996   0.568
 2418SOL     OW 8152   3.275   3.455   4.326
 2418SOL    HW1 8153   3.314   3.406   4.248
 2418SOL    HW2 8154   3.323   3.429   4.410
 2419SOL     OW 8155   0.546   6.762   3.981
 2419SOL    HW1 8156   0.563   6.860   3.988
 2419SOL    HW2 8157   0.458   6.741   4.025
 2420SOL     OW 8158   4.076   0.205   2.184
 2420SOL    HW1 8159   4.094   0.270   2.110
 2420SOL    HW2 8160   4.049   0.117   2.145
 2421SOL     OW 8161   2.682   0.417   4.637
 2421SOL    HW1 8162   2.768   0.367   4.626
 2421SOL    HW2 8163   2.670   0.481   4.561
 2422SOL     OW 8164   5.405   0.532   1.273
 2422SOL    HW1 8165   5.372   0.460   1.212
 2422SOL    HW2 8166   5.493   0.566   1.241
 2423SOL     OW 8167   1.102   6.275   3.223
 2423SOL    HW1 8168   1.153   6.234   3.298
 2423SOL    HW2 8169   1.139   6.245   3.136
 2424SOL     OW 8170   5.470   5.568   6.270
 2424SOL    HW1 8171   5.458   5.653   6.321
 2424SOL    HW2 8172   5.539   5.582   6.198
 2425SOL     OW 8173   6.225   0.077   4.585
 2425SOL    HW1 8174   6.132   0.048   4.563
 2425SOL    HW2 8175   6.281   0.076   4.503
 2426SOL     OW 8176   0.997   4.794   4.479
 2426SOL    HW1 8177   1.023   4.745   4.395
 2426SOL    HW2 8178   0.955   4.881   4.454
 2427SOL     OW 8179   6.571   5.570   0.190
 2427SOL    HW1 8180   6.600   5.655   0.147
 2427SOL    HW2 8181   6.555   5.501   0.119
 2428SOL     OW 8182   0.859   6.931   3.432
 2428SOL    HW1 8183   0.812   6.941   3.519
 2428SOL    HW2 8184   0.871   6.833   3.411
 2429SOL     OW 8185   6.563   5.762   3.406
 2429SOL    HW1 8186   6.508   5.706   3.344
 2429SOL    HW2 8187   6.550   5.858   3.385
 2430SOL     OW 8188   6.034   2.480   1.414
 2430SOL    HW1 8189   5.999   2.433   1.495
 2430SOL    HW2 8190   6.133   2.487   1.420
 2431SOL     OW 8191   4.228   0.228   1.888
 2431SOL    HW1 8192   4.272   0.138   1.883
 2431SOL    HW2 8193   4.239   0.275   1.801
 2432SOL     OW 8194   4.240   6.146   2.880
 2432SOL    HW1 8195   4.223   6.149   2.781
 2432SOL    HW2 8196   4.210   6.232   2.921
 2433SOL     OW 8197   3.178   6.844   0.562
 2433SOL    HW1 8198   3.102   6.836   0.497
 2433SOL    HW2 8199   3.151   6.906   0.636
 2434SOL     OW 8200   4.860   1.445   3.517
 2434SOL    HW1 8201   4.783   1.399   3.560
 2434SOL    HW2 8202   4.826   1.508   3.447
 2435SOL     OW 8203   4.608   5.420   6.669
 2435SOL    HW1 8204   4.520   5.467   6.661
 2435SOL    HW2 8205   4.665   5.443   6.590
 2436SOL     OW 8206   2.271   0.630   0.821
 2436SOL    HW1 8207   2.306   0.621   0.728
 2436SOL    HW2 8208   2.218   0.548   0.845
 2437SOL     OW 8209   5.130   5.349   0.531
 2437SOL    HW1 8210   5.120   5.251   0.549
 2437SOL    HW2 8211   5.102   5.369   0.437
 2438SOL     OW 8212   3.825   0.893   5.648
 2438SOL    HW1 8213   3.804   0.898   5.551
 2438SOL    HW2 8214   3.850   0.799   5.672
 2439SOL     OW 8215   1.245   4.008   0.060
 2439SOL    HW1 8216   1.253   3.909   0.048
 2439SOL    HW2 8217   1.258   4.032   0.156
 2440SOL     OW 8218   3.631   6.155   4.865
 2440SOL    HW1 8219   3.679   6.170   4.951
 2440SOL    HW2 8220   3.535   6.182   4.876
 2441SOL     OW 8221   6.468   1.485   6.719
 2441SOL    HW1 8222   6.453   1.526   6.629
 2441SOL    HW2 8223   6.411   1.403   6.729
 2442SOL     OW 8224   6.198   5.853   3.723
 2442SOL    HW1 8225   6.140   5.863   3.643
 2442SOL    HW2 8226   6.212   5.756   3.742
 2443SOL     OW 8227   3.024   7.014   6.656
 2443SOL    HW1 8228   3.040   0.066   6.722
 2443SOL    HW2 8229   3.021   6.926   6.702
 2444SOL     OW 8230   3.833   4.199   6.319
 2444SOL    HW1 8231   3.785   4.117   6.289
 2444SOL    HW2 8232   3.767   4.274   6.332
 2445SOL     OW 8233   0.028   1.368   2.373
 2445SOL    HW1 8234   6.979   1.373   2.445
 2445SOL    HW2 8235   0.101   1.306   2.402
 2446SOL     OW 8236   0.918   2.943   4.315
 2446SOL    HW1 8237   0.840   2.881   4.308
 2446SOL    HW2 8238   0.962   2.930   4.404
 2447SOL     OW 8239   2.922   0.957   0.845
 2447SOL    HW1 8240   2.975   0.998   0.918
 2447SOL    HW2 8241   2.841   1.013   0.827
 2448SOL     OW 8242   0.554   0.727   4.022
 2448SOL    HW1 8243   0.548   0.706   3.925
 2448SOL    HW2 8244   0.465   0.714   4.065
 2449SOL     OW 8245   6.346   4.448   2.902
 2449SOL    HW1 8246   6.322   4.357   2.868
 2449SOL    HW2 8247   6.364   4.508   2.824
 2450SOL     OW 8248   3.028   5.439   4.868
 2450SOL    HW1 8249   2.930   5.455   4.865
 2450SOL    HW2 8250   3.048   5.365   4.932
 2451SOL     OW 8251   0.763   0.394   3.647
 2451SOL    HW1 8252   0.826   0.318   3.665
 2451SOL    HW2 8253   0.675   0.358   3.615
 2452SOL     OW 8254   2.889   2.266   3.326
 2452SOL    HW1 8255   2.960   2.240   3.262
 2452SOL    HW2 8256   2.917   2.240   3.419
 2453SOL     OW 8257   6.268   3.170   0.794
 2453SOL    HW1 8258   6.364   3.148   0.810
 2453SOL    HW2 8259   6.224   3.193   0.881
 2454SOL     OW 8260   3.168   0.744   0.276
 2454SOL    HW1 8261   3.244   0.712   0.221
 2454SOL    HW2 8262   3.172   0.843   0.286
 2455SOL     OW 8263   5.026   0.791   1.149
 2455SOL    HW1 8264   5.075   0.854   1.209
 2455SOL    HW2 8265   4.976   0.725   1.204
 2456SOL     OW 8266   5.752   1.583   0.431
 2456SOL    HW1 8267   5.695   1.538   0.363
 2456SOL    HW2 8268   5.735   1.542   0.521
 2457SOL     OW 8269   6.691   5.940   6.380
 2457SOL    HW1 8270   6.615   5.947   6.315
 2457SOL    HW2 8271   6.733   5.849   6.372
 2458SOL     OW 8272   2.212   5.838   3.984
 2458SOL    HW1 8273   2.123   5.882   3.988
 2458SOL    HW2 8274   2.265   5.862   4.066
 2459SOL     OW 8275   2.681   6.053   5.903
 2459SOL    HW1 8276   2.759   6.076   5.961
 2459SOL    HW2 8277   2.706   5.977   5.843
 2460SOL     OW 8278   1.497   1.606   1.672
 2460SOL    HW1 8279   1.519   1.509   1.678
 2460SOL    HW2 8280   1.577   1.660   1.695
 2461SOL     OW 8281   5.008   0.084   2.886
 2461SOL    HW1 8282   4.997   0.026   2.966
 2461SOL    HW2 8283   5.084   0.147   2.900
 2462SOL     OW 8284   1.636   5.806   0.493
 2462SOL    HW1 8285   1.552   5.827   0.443
 2462SOL    HW2 8286   1.618   5.811   0.591
 2463SOL     OW 8287   6.498   2.609   4.885
 2463SOL    HW1 8288   6.543   2.547   4.949
 2463SOL    HW2 8289   6.551   2.694   4.878
 2464SOL     OW 8290   2.028   4.113   1.751
 2464SOL    HW1 8291   2.009   4.139   1.656
 2464SOL    HW2 8292   2.123   4.135   1.773
 2465SOL     OW 8293   0.692   0.278   2.021
 2465SOL    HW1 8294   0.781   0.276   1.976
 2465SOL    HW2 8295   0.703   0.316   2.113
 2466SOL     OW 8296   2.800   1.742   2.967
 2466SOL    HW1 8297   2.793   1.685   2.885
 2466SOL    HW2 8298   2.719   1.800   2.974
 2467SOL     OW 8299   5.261   1.351   4.378
 2467SOL    HW1 8300   5.280   1.325   4.473
 2467SOL    HW2 8301   5.254   1.450   4.372
 2468SOL     OW 8302   5.161   6.290   1.640
 2468SOL    HW1 8303   5.184   6.208   1.587
 2468SOL    HW2 8304   5.065   6.287   1.667
 2469SOL     OW 8305   4.371   4.160   5.520
 2469SOL    HW1 8306   4.291   4.133   5.573
 2469SOL    HW2 8307   4.343   4.219   5.444
 2470SOL     OW 8308   3.636   5.111   5.915
 2470SOL    HW1 8309   3.682   5.147   5.834
 2470SOL    HW2 8310   3.682   5.028   5.945
 2471SOL     OW 8311   2.616   5.950   1.180
 2471SOL    HW1 8312   2.698   5.895   1.199
 2471SOL    HW2 8313   2.540   5.916   1.234
 2472SOL     OW 8314   5.292   2.459   4.283
 2472SOL    HW1 8315   5.282   2.420   4.375
 2472SOL    HW2 8316   5.384   2.440   4.249
 2473SOL     OW 8317   2.095   3.864   5.077
 2473SOL    HW1 8318   2.011   3.910   5.106
 2473SOL    HW2 8319   2.169   3.931   5.070
 2474SOL     OW 8320   0.732   6.226   0.416
 2474SOL    HW1 8321   0.768   6.317   0.435
 2474SOL    HW2 8322   0.785   6.184   0.343
 2475SOL     OW 8323   5.160   0.790   1.485
 2475SOL    HW1 8324   5.248   0.765   1.524
 2475SOL    HW2 8325   5.174   0.846   1.403
 2476SOL     OW 8326   7.007   2.237   3.721
 2476SOL    HW1 8327   6.998   2.328   3.681
 2476SOL    HW2 8328   6.916   2.194   3.725
 2477SOL     OW 8329   4.897   1.727   2.737
 2477SOL    HW1 8330   4.913   1.820   2.704
 2477SOL    HW2 8331   4.973   1.698   2.794
 2478SOL     OW 8332   6.378   0.822   1.961
 2478SOL    HW1 8333   6.419   0.739   1.923
 2478SOL    HW2 8334   6.280   0.824   1.941
 2479SOL     OW 8335   1.557   3.888   1.302
 2479SOL    HW1 8336   1.643   3.902   1.253
 2479SOL    HW2 8337   1.484   3.940   1.258
 2480SOL     OW 8338   6.164   3.932   0.984
 2480SOL    HW1 8339   6.252   3.974   1.004
 2480SOL    HW2 8340   6.170   3.833   0.997
 2481SOL     OW 8341   3.065   1.291   0.271
 2481SOL    HW1 8342   3.103   1.380   0.299
 2481SOL    HW2 8343   2.985   1.306   0.214
 2482SOL     OW 8344   4.533   3.153   5.927
 2482SOL    HW1 8345   4.495   3.126   6.015
 2482SOL    HW2 8346   4.469   3.213   5.880
 2483SOL     OW 8347   2.473   2.266   0.097
 2483SOL    HW1 8348   2.390   2.239   0.147
 2483SOL    HW2 8349   2.450   2.338   0.030
 2484SOL     OW 8350   2.503   0.826   0.297
 2484SOL    HW1 8351   2.475   0.833   0.393
 2484SOL    HW2 8352   2.487   0.733   0.265
 2485SOL     OW 8353   5.646   3.665   2.041
 2485SOL    HW1 8354   5.580   3.719   2.093
 2485SOL    HW2 8355   5.659   3.705   1.951
 2486SOL     OW 8356   2.316   4.972   4.071
 2486SOL    HW1 8357   2.370   4.907   4.125
 2486SOL    HW2 8358   2.306   4.937   3.978
 2487SOL     OW 8359   3.920   5.832   6.937
 2487SOL    HW1 8360   3.902   5.929   6.957
 2487SOL    HW2 8361   3.897   5.813   6.842
 2488SOL     OW 8362   1.897   4.379   2.294
 2488SOL    HW1 8363   1.938   4.294   2.260
 2488SOL    HW2 8364   1.867   4.366   2.388
 2489SOL     OW 8365   1.828   5.475   3.319
 2489SOL    HW1 8366   1.810   5.573   3.329
 2489SOL    HW2 8367   1.745   5.428   3.290
 2490SOL     OW 8368   6.520   5.037   1.740
 2490SOL    HW1 8369   6.432   5.084   1.743
 2490SOL    HW2 8370   6.576   5.066   1.818
 2491SOL     OW 8371   2.801   5.493   1.141
 2491SOL    HW1 8372   2.736   5.476   1.214
 2491SOL    HW2 8373   2.875   5.551   1.175
 2492SOL     OW 8374   4.507   2.961   6.787
 2492SOL    HW1 8375   4.592   2.907   6.786
 2492SOL    HW2 8376   4.479   2.980   6.693
 2493SOL     OW 8377   6.337   0.349   2.291
 2493SOL    HW1 8378   6.309   0.286   2.219
 2493SOL    HW2 8379   6.434   0.333   2.313
 2494SOL     OW 8380   5.994   4.165   2.024
 2494SOL    HW1 8381   5.992   4.068   2.048
 2494SOL    HW2 8382   5.908   4.190   1.979
 2495SOL     OW 8383   5.434   0.539   4.881
 2495SOL    HW1 8384   5.524   0.495   4.878
 2495SOL    HW2 8385   5.412   0.576   4.790
 2496SOL     OW 8386   0.264   4.221   6.556
 2496SOL    HW1 8387   0.222   4.282   6.623
 2496SOL    HW2 8388   0.215   4.134   6.554
 2497SOL     OW 8389   0.149   1.415   0.828
 2497SOL    HW1 8390   0.201   1.465   0.758
 2497SOL    HW2 8391   0.057   1.395   0.792
 2498SOL     OW 8392   3.288   2.084   3.715
 2498SOL    HW1 8393   3.387   2.068   3.707
 2498SOL    HW2 8394   3.265   2.171   3.670
 2499SOL     OW 8395   4.975   2.420   4.447
 2499SOL    HW1 8396   4.898   2.401   4.508
 2499SOL    HW2 8397   4.978   2.350   4.375
 2500SOL     OW 8398   4.368   2.760   6.365
 2500SOL    HW1 8399   4.388   2.751   6.268
 2500SOL    HW2 8400   4.270   2.776   6.378
 2501SOL     OW 8401   6.774   5.865   6.765
 2501SOL    HW1 8402   6.696   5.805   6.749
 2501SOL    HW2 8403   6.752   5.931   6.837
 2502SOL     OW 8404   2.406   5.830   3.289
 2502SOL    HW1 8405   2.464   5.907   3.318
 2502SOL    HW2 8406   2.416   5.815   3.191
 2503SOL     OW 8407   3.192   5.121   5.327
 2503SOL    HW1 8408   3.128   5.196   5.311
 2503SOL    HW2 8409   3.146   5.034   5.308
 2504SOL     OW 8410   2.623   5.207   5.327
 2504SOL    HW1 8411   2.570   5.242   5.249
 2504SOL    HW2 8412   2.682   5.132   5.297
 2505SOL     OW 8413   1.694   5.869   4.047
 2505SOL    HW1 8414   1.639   5.819   4.113
 2505SOL    HW2 8415   1.634   5.916   3.982
 2506SOL     OW 8416   5.825   3.416   6.646
 2506SOL    HW1 8417   5.871   3.330   6.624
 2506SOL    HW2 8418   5.873   3.492   6.603
 2507SOL     OW 8419   1.070   3.998   0.602
 2507SOL    HW1 8420   0.978   4.037   0.613
 2507SOL    HW2 8421   1.113   3.987   0.691
 2508SOL     OW 8422   2.736   1.551   2.376
 2508SOL    HW1 8423   2.788   1.466   2.365
 2508SOL    HW2 8424   2.775   1.622   2.319
 2509SOL     OW 8425   5.893   2.420   2.679
 2509SOL    HW1 8426   5.822   2.437   2.747
 2509SOL    HW2 8427   5.871   2.470   2.595
 2510SOL     OW 8428   3.510   4.318   1.443
 2510SOL    HW1 8429   3.495   4.220   1.429
 2510SOL    HW2 8430   3.569   4.353   1.371
 2511SOL     OW 8431   2.389   1.857   3.998
 2511SOL    HW1 8432   2.467   1.912   4.029
 2511SOL    HW2 8433   2.340   1.821   4.077
 2512SOL     OW 8434   4.759   5.248   5.333
 2512SOL    HW1 8435   4.720   5.162   5.300
 2512SOL    HW2 8436   4.833   5.277   5.272
 2513SOL     OW 8437   1.116   3.249   5.276
 2513SOL    HW1 8438   1.120   3.170   5.216
 2513SOL    HW2 8439   1.208   3.272   5.307
 2514SOL     OW 8440   6.145   3.857   4.308
 2514SOL    HW1 8441   6.079   3.887   4.239
 2514SOL    HW2 8442   6.237   3.858   4.268
 2515SOL     OW 8443   1.547   6.752   0.106
 2515SOL    HW1 8444   1.627   6.801   0.072
 2515SOL    HW2 8445   1.473   6.818   0.125
 2516SOL     OW 8446   6.030   0.215   3.517
 2516SOL    HW1 8447   6.014   0.310   3.490
 2516SOL    HW2 8448   5.948   0.161   3.498
 2517SOL     OW 8449   1.202   5.638   5.988
 2517SOL    HW1 8450   1.189   5.554   5.936
 2517SOL    HW2 8451   1.169   5.625   6.082
 2518SOL     OW 8452   2.578   3.609   0.046
 2518SOL    HW1 8453   2.510   3.560   0.100
 2518SOL    HW2 8454   2.532   3.665   6.998
 2519SOL     OW 8455   4.439   5.950   3.788
 2519SOL    HW1 8456   4.428   5.998   3.701
 2519SOL    HW2 8457   4.536   5.946   3.812
 2520SOL     OW 8458   0.919   3.057   0.292
 2520SOL    HW1 8459   0.858   3.036   0.216
 2520SOL    HW2 8460   1.014   3.041   0.264
 2521SOL     OW 8461   1.173   6.370   5.798
 2521SOL    HW1 8462   1.272   6.383   5.792
 2521SOL    HW2 8463   1.128   6.417   5.722
 2522SOL     OW 8464   7.014   3.024   5.903
 2522SOL    HW1 8465   6.997   2.932   5.937
 2522SOL    HW2 8466   6.930   3.077   5.904
 2523SOL     OW 8467   0.084   2.947   1.302
 2523SOL    HW1 8468   0.054   3.042   1.306
 2523SOL    HW2 8469   0.006   2.886   1.316
 2524SOL     OW 8470   0.773   5.399   4.767
 2524SOL    HW1 8471   0.826   5.426   4.687
 2524SOL    HW2 8472   0.769   5.299   4.772
 2525SOL     OW 8473   1.087   2.579   4.266
 2525SOL    HW1 8474   1.154   2.537   4.205
 2525SOL    HW2 8475   0.995   2.563   4.229
 2526SOL     OW 8476   1.522   4.068   5.775
 2526SOL    HW1 8477   1.487   4.024   5.858
 2526SOL    HW2 8478   1.535   3.999   5.703
 2527SOL     OW 8479   5.307   6.787   5.454
 2527SOL    HW1 8480   5.308   6.752   5.548
 2527SOL    HW2 8481   5.374   6.738   5.399
 2528SOL     OW 8482   6.231   4.462   1.228
 2528SOL    HW1 8483   6.242   4.561   1.215
 2528SOL    HW2 8484   6.216   4.418   1.139
 2529SOL     OW 8485   6.808   5.720   6.467
 2529SOL    HW1 8486   6.808   5.686   6.561
 2529SOL    HW2 8487   6.882   5.675   6.415
 2530SOL     OW 8488   1.050   5.949   4.378
 2530SOL    HW1 8489   1.143   5.954   4.413
 2530SOL    HW2 8490   0.988   5.919   4.451
 2531SOL     OW 8491   5.235   5.658   4.050
 2531SOL    HW1 8492   5.208   5.603   3.971
 2531SOL    HW2 8493   5.200   5.616   4.134
 2532SOL     OW 8494   0.998   6.095   0.828
 2532SOL    HW1 8495   1.034   6.019   0.773
 2532SOL    HW2 8496   0.938   6.151   0.771
 2533SOL     OW 8497   4.300   6.977   3.187
 2533SOL    HW1 8498   4.345   6.947   3.103
 2533SOL    HW2 8499   4.357   0.024   3.233
 2534SOL     OW 8500   2.258   0.244   2.956
 2534SOL    HW1 8501   2.291   0.149   2.956
 2534SOL    HW2 8502   2.324   0.303   3.002
 2535SOL     OW 8503   2.561   2.873   6.543
 2535SOL    HW1 8504   2.623   2.843   6.615
 2535SOL    HW2 8505   2.553   2.800   6.474
 2536SOL     OW 8506   6.918   2.520   3.754
 2536SOL    HW1 8507   6.828   2.557   3.732
 2536SOL    HW2 8508   6.937   2.532   3.851
 2537SOL     OW 8509   5.321   6.848   6.325
 2537SOL    HW1 8510   5.249   6.781   6.304
 2537SOL    HW2 8511   5.389   6.847   6.252
 2538SOL     OW 8512   1.720   4.440   4.626
 2538SOL    HW1 8513   1.684   4.485   4.708
 2538SOL    HW2 8514   1.732   4.342   4.644
 2539SOL     OW 8515   4.349   0.045   5.757
 2539SOL    HW1 8516   4.354   0.114   5.830
 2539SOL    HW2 8517   4.279   0.072   5.690
 2540SOL     OW 8518   4.628   1.021   1.813
 2540SOL    HW1 8519   4.540   0.976   1.796
 2540SOL    HW2 8520   4.612   1.115   1.843
 2541SOL     OW 8521   1.660   6.845   5.361
 2541SOL    HW1 8522   1.717   6.777   5.407
 2541SOL    HW2 8523   1.565   6.812   5.357
 2542SOL     OW 8524   4.673   1.635   5.738
 2542SOL    HW1 8525   4.573   1.626   5.739
 2542SOL    HW2 8526   4.697   1.732   5.730
 2543SOL     OW 8527   1.769   1.407   3.221
 2543SOL    HW1 8528   1.842   1.348   3.188
 2543SOL    HW2 8529   1.680   1.367   3.198
 2544SOL     OW 8530   0.005   5.322   2.233
 2544SOL    HW1 8531   0.027   5.418   2.246
 2544SOL    HW2 8532   0.032   5.270   2.314
 2545SOL     OW 8533   2.042   1.030   0.897
 2545SOL    HW1 8534   2.108   1.096   0.932
 2545SOL    HW2 8535   2.057   0.941   0.941
 2546SOL     OW 8536   0.126   2.270   2.221
 2546SOL    HW1 8537   0.138   2.215   2.138
 2546SOL    HW2 8538   0.168   2.224   2.298
 2547SOL     OW 8539   5.958   5.166   0.184
 2547SOL    HW1 8540   5.976   5.207   0.274
 2547SOL    HW2 8541   5.865   5.129   0.183
 2548SOL     OW 8542   2.718   6.516   5.351
 2548SOL    HW1 8543   2.748   6.578   5.424
 2548SOL    HW2 8544   2.623   6.536   5.327
 2549SOL     OW 8545   2.325   1.710   1.350
 2549SOL    HW1 8546   2.395   1.771   1.386
 2549SOL    HW2 8547   2.295   1.742   1.261
 2550SOL     OW 8548   6.308   0.460   6.453
 2550SOL    HW1 8549   6.288   0.451   6.551
 2550SOL    HW2 8550   6.319   0.557   6.431
 2551SOL     OW 8551   2.563   5.671   0.313
 2551SOL    HW1 8552   2.518   5.639   0.229
 2551SOL    HW2 8553   2.658   5.693   0.293
 2552SOL     OW 8554   0.917   6.152   5.393
 2552SOL    HW1 8555   1.012   6.150   5.362
 2552SOL    HW2 8556   0.858   6.182   5.317
 2553SOL     OW 8557   3.012   3.582   0.071
 2553SOL    HW1 8558   2.938   3.623   0.018
 2553SOL    HW2 8559   2.988   3.488   0.095
 2554SOL     OW 8560   1.548   5.847   6.875
 2554SOL    HW1 8561   1.606   5.917   6.832
 2554SOL    HW2 8562   1.468   5.831   6.817
 2555SOL     OW 8563   5.934   6.020   5.965
 2555SOL    HW1 8564   5.959   6.104   6.013
 2555SOL    HW2 8565   5.898   6.043   5.875
 2556SOL     OW 8566   4.093   6.220   0.404
 2556SOL    HW1 8567   4.081   6.289   0.332
 2556SOL    HW2 8568   4.143   6.142   0.368
 2557SOL     OW 8569   2.221   2.204   6.581
 2557SOL    HW1 8570   2.212   2.213   6.680
 2557SOL    HW2 8571   2.280   2.126   6.560
 2558SOL     OW 8572   3.476   3.321   6.044
 2558SOL    HW1 8573   3.424   3.316   5.959
 2558SOL    HW2 8574   3.502   3.229   6.073
 2559SOL     OW 8575   6.303   2.926   4.625
 2559SOL    HW1 8576   6.376   2.919   4.693
 2559SOL    HW2 8577   6.250   2.842   4.623
 2560SOL     OW 8578   5.202   3.490   4.405
 2560SOL    HW1 8579   5.199   3.459   4.310
 2560SOL    HW2 8580   5.233   3.585   4.408
 2561SOL     OW 8581   3.597   0.274   3.753
 2561SOL    HW1 8582   3.652   0.338   3.699
 2561SOL    HW2 8583   3.645   0.252   3.837
 2562SOL     OW 8584   1.968   5.285   2.093
 2562SOL    HW1 8585   1.917   5.354   2.143
 2562SOL    HW2 8586   2.019   5.227   2.157
 2563SOL     OW 8587   4.219   1.850   6.760
 2563SOL    HW1 8588   4.163   1.920   6.804
 2563SOL    HW2 8589   4.184   1.759   6.784
 2564SOL     OW 8590   1.205   0.353   6.435
 2564SOL    HW1 8591   1.115   0.310   6.435
 2564SOL    HW2 8592   1.246   0.344   6.344
 2565SOL     OW 8593   6.822   0.744   0.477
 2565SOL    HW1 8594   6.779   0.719   0.563
 2565SOL    HW2 8595   6.922   0.741   0.487
 2566SOL     OW 8596   1.630   0.348   0.915
 2566SOL    HW1 8597   1.591   0.438   0.932
 2566SOL    HW2 8598   1.565   0.278   0.944
 2567SOL     OW 8599   1.183   1.769   2.195
 2567SOL    HW1 8600   1.199   1.699   2.125
 2567SOL    HW2 8601   1.085   1.781   2.208
 2568SOL     OW 8602   2.838   1.040   6.695
 2568SOL    HW1 8603   2.919   1.029   6.638
 2568SOL    HW2 8604   2.864   1.042   6.791
 2569SOL     OW 8605   2.908   0.752   2.150
 2569SOL    HW1 8606   2.904   0.794   2.240
 2569SOL    HW2 8607   2.867   0.661   2.153
 2570SOL     OW 8608   5.843   0.878   6.433
 2570SOL    HW1 8609   5.880   0.826   6.509
 2570SOL    HW2 8610   5.771   0.939   6.466
 2571SOL     OW 8611   2.738   3.718   5.399
 2571SOL    HW1 8612   2.777   3.785   5.462
 2571SOL    HW2 8613   2.791   3.633   5.404
 2572SOL     OW 8614   1.993   6.609   1.140
 2572SOL    HW1 8615   1.895   6.587   1.146
 2572SOL    HW2 8616   2.025   6.592   1.047
 2573SOL     OW 8617   6.256   1.852   2.670
 2573SOL    HW1 8618   6.271   1.932   2.727
 2573SOL    HW2 8619   6.342   1.826   2.626
 2574SOL     OW 8620   0.491   2.832   0.438
 2574SOL    HW1 8621   0.584   2.826   0.404
 2574SOL    HW2 8622   0.492   2.868   0.531
 2575SOL     OW 8623   5.337   4.233   0.158
 2575SOL    HW1 8624   5.248   4.201   0.189
 2575SOL    HW2 8625   5.373   4.171   0.089
 2576SOL     OW 8626   3.832   6.984   3.627
 2576SOL    HW1 8627   3.751   6.989   3.569
 2576SOL    HW2 8628   3.893   0.040   3.607
 2577SOL     OW 8629   4.393   6.245   2.367
 2577SOL    HW1 8630   4.355   6.322   2.315
 2577SOL    HW2 8631   4.453   6.281   2.439
 2578SOL     OW 8632   4.543   2.832   5.267
 2578SOL    HW1 8633   4.591   2.907   5.313
 2578SOL    HW2 8634   4.446   2.835   5.291
 2579SOL     OW 8635   1.088   0.685   3.715
 2579SOL    HW1 8636   1.122   0.688   3.809
 2579SOL    HW2 8637   1.140   0.618   3.662
 2580SOL     OW 8638   2.116   2.685   6.997
 2580SOL    HW1 8639   2.171   2.623   0.032
 2580SOL    HW2 8640   2.019   2.663   7.010
 2581SOL     OW 8641   6.628   4.495   1.912
 2581SOL    HW1 8642   6.683   4.474   1.831
 2581SOL    HW2 8643   6.532   4.507   1.884
 2582SOL     OW 8644   1.284   4.397   2.694
 2582SOL    HW1 8645   1.215   4.451   2.646
 2582SOL    HW2 8646   1.295   4.309   2.649
 2583SOL     OW 8647   0.638   1.922   1.066
 2583SOL    HW1 8648   0.675   1.928   1.159
 2583SOL    HW2 8649   0.683   1.847   1.018
 2584SOL     OW 8650   3.989   5.917   0.469
 2584SOL    HW1 8651   3.958   5.993   0.411
 2584SOL    HW2 8652   4.084   5.894   0.444
 2585SOL     OW 8653   3.463   0.819   6.965
 2585SOL    HW1 8654   3.425   0.754   0.010
 2585SOL    HW2 8655   3.465   0.910   7.006
 2586SOL     OW 8656   4.071   1.920   3.342
 2586SOL    HW1 8657   4.004   1.994   3.336
 2586SOL    HW2 8658   4.038   1.851   3.406
 2587SOL     OW 8659   6.761   0.576   3.695
 2587SOL    HW1 8660   6.713   0.655   3.735
 2587SOL    HW2 8661   6.701   0.531   3.629
 2588SOL     OW 8662   4.772   0.172   6.685
 2588SOL    HW1 8663   4.696   0.169   6.620
 2588SOL    HW2 8664   4.738   0.193   6.776
 2589SOL     OW 8665   0.449   5.902   5.565
 2589SOL    HW1 8666   0.457   5.803   5.554
 2589SOL    HW2 8667   0.421   5.943   5.478
 2590SOL     OW 8668   3.282   6.186   1.677
 2590SOL    HW1 8669   3.240   6.199   1.766
 2590SOL    HW2 8670   3.212   6.159   1.611
 2591SOL     OW 8671   6.775   5.883   2.106
 2591SOL    HW1 8672   6.730   5.796   2.084
 2591SOL    HW2 8673   6.709   5.958   2.099
 2592SOL     OW 8674   2.966   6.836   1.366
 2592SOL    HW1 8675   2.919   6.918   1.399
 2592SOL    HW2 8676   3.000   6.783   1.444
 2593SOL     OW 8677   2.635   6.447   1.466
 2593SOL    HW1 8678   2.660   6.441   1.370
 2593SOL    HW2 8679   2.553   6.392   1.483
 2594SOL     OW 8680   6.962   5.791   5.959
 2594SOL    HW1 8681   6.959   5.873   6.017
 2594SOL    HW2 8682   6.975   5.818   5.864
 2595SOL     OW 8683   6.348   1.228   5.138
 2595SOL    HW1 8684   6.369   1.221   5.041
 2595SOL    HW2 8685   6.364   1.321   5.169
 2596SOL     OW 8686   3.926   2.088   1.907
 2596SOL    HW1 8687   4.008   2.101   1.963
 2596SOL    HW2 8688   3.848   2.131   1.952
 2597SOL     OW 8689   2.050   3.761   6.590
 2597SOL    HW1 8690   2.102   3.767   6.506
 2597SOL    HW2 8691   2.061   3.669   6.630
 2598SOL     OW 8692   5.977   0.733   4.148
 2598SOL    HW1 8693   5.974   0.704   4.052
 2598SOL    HW2 8694   6.024   0.664   4.202
 2599SOL     OW 8695   2.863   0.437   0.776
 2599SOL    HW1 8696   2.788   0.392   0.726
 2599SOL    HW2 8697   2.908   0.370   0.835
 2600SOL     OW 8698   4.966   3.423   4.518
 2600SOL    HW1 8699   5.055   3.459   4.493
 2600SOL    HW2 8700   4.947   3.442   4.614
 2601SOL     OW 8701   2.543   1.792   6.424
 2601SOL    HW1 8702   2.536   1.788   6.524
 2601SOL    HW2 8703   2.585   1.709   6.389
 2602SOL     OW 8704   6.661   4.829   3.788
 2602SOL    HW1 8705   6.619   4.830   3.879
 2602SOL    HW2 8706   6.760   4.816   3.797
 2603SOL     OW 8707   2.301   2.076   2.604
 2603SOL    HW1 8708   2.364   2.014   2.559
 2603SOL    HW2 8709   2.235   2.111   2.538
 2604SOL     OW 8710   4.971   1.094   3.338
 2604SOL    HW1 8711   4.936   1.025   3.275
 2604SOL    HW2 8712   4.911   1.174   3.336
 2605SOL     OW 8713   2.449   4.413   3.110
 2605SOL    HW1 8714   2.486   4.447   3.196
 2605SOL    HW2 8715   2.418   4.318   3.122
 2606SOL     OW 8716   6.824   4.636   1.127
 2606SOL    HW1 8717   6.769   4.718   1.109
 2606SOL    HW2 8718   6.920   4.662   1.136
 2607SOL     OW 8719   0.277   1.106   6.145
 2607SOL    HW1 8720   0.292   1.196   6.106
 2607SOL    HW2 8721   0.334   1.094   6.226
 2608SOL     OW 8722   4.511   4.974   2.177
 2608SOL    HW1 8723   4.569   4.974   2.258
 2608SOL    HW2 8724   4.536   5.049   2.116
 2609SOL     OW 8725   0.304   1.377   1.677
 2609SOL    HW1 8726   0.353   1.362   1.764
 2609SOL    HW2 8727   0.217   1.423   1.695
 2610SOL     OW 8728   0.038   5.107   4.127
 2610SOL    HW1 8729   0.085   5.195   4.139
 2610SOL    HW2 8730   0.061   5.070   4.037
 2611SOL     OW 8731   4.441   6.182   1.001
 2611SOL    HW1 8732   4.505   6.197   1.077
 2611SOL    HW2 8733   4.423   6.084   0.992
 2612SOL     OW 8734   6.345   6.325   5.888
 2612SOL    HW1 8735   6.435   6.368   5.878
 2612SOL    HW2 8736   6.273   6.394   5.880
 2613SOL     OW 8737   2.561   6.540   0.790
 2613SOL    HW1 8738   2.518   6.488   0.716
 2613SOL    HW2 8739   2.643   6.490   0.821
 2614SOL     OW 8740   6.422   0.588   5.979
 2614SOL    HW1 8741   6.503   0.535   5.955
 2614SOL    HW2 8742   6.421   0.674   5.927
 2615SOL     OW 8743   6.337   3.697   3.701
 2615SOL    HW1 8744   6.313   3.789   3.730
 2615SOL    HW2 8745   6.394   3.701   3.620
 2616SOL     OW 8746   3.757   3.276   4.345
 2616SOL    HW1 8747   3.781   3.364   4.385
 2616SOL    HW2 8748   3.724   3.215   4.417
 2617SOL     OW 8749   3.938   6.965   0.631
 2617SOL    HW1 8750   3.841   6.967   0.606
 2617SOL    HW2 8751   3.961   0.025   0.684
 2618SOL     OW 8752   0.275   6.711   4.285
 2618SOL    HW1 8753   0.211   6.657   4.340
 2618SOL    HW2 8754   0.263   6.688   4.188
 2619SOL     OW 8755   4.080   1.450   2.912
 2619SOL    HW1 8756   3.988   1.478   2.887
 2619SOL    HW2 8757   4.091   1.352   2.897
 2620SOL     OW 8758   0.115   6.150   2.844
 2620SOL    HW1 8759   0.168   6.235   2.833
 2620SOL    HW2 8760   0.156   6.077   2.790
 2621SOL     OW 8761   1.360   5.769   2.355
 2621SOL    HW1 8762   1.436   5.831   2.372
 2621SOL    HW2 8763   1.316   5.746   2.442
 2622SOL     OW 8764   2.224   2.549   5.802
 2622SOL    HW1 8765   2.314   2.593   5.797
 2622SOL    HW2 8766   2.227   2.463   5.752
 2623SOL     OW 8767   2.432   1.196   5.616
 2623SOL    HW1 8768   2.412   1.197   5.519
 2623SOL    HW2 8769   2.470   1.107   5.641
 2624SOL     OW 8770   6.294   2.163   4.960
 2624SOL    HW1 8771   6.197   2.146   4.977
 2624SOL    HW2 8772   6.304   2.231   4.887
 2625SOL     OW 8773   2.477   1.922   5.572
 2625SOL    HW1 8774   2.388   1.966   5.556
 2625SOL    HW2 8775   2.508   1.945   5.664
 2626SOL     OW 8776   0.246   0.131   5.420
 2626SOL    HW1 8777   0.194   0.187   5.484
 2626SOL    HW2 8778   0.337   0.113   5.458
 2627SOL     OW 8779   1.268   1.485   5.245
 2627SOL    HW1 8780   1.338   1.465   5.314
 2627SOL    HW2 8781   1.246   1.401   5.195
 2628SOL     OW 8782   2.009   4.944   6.217
 2628SOL    HW1 8783   2.108   4.930   6.218
 2628SOL    HW2 8784   1.982   4.988   6.131
 2629SOL     OW 8785   3.134   4.098   1.930
 2629SOL    HW1 8786   3.069   4.136   1.865
 2629SOL    HW2 8787   3.090   4.024   1.982
 2630SOL     OW 8788   3.007   1.573   3.379
 2630SOL    HW1 8789   3.061   1.633   3.439
 2630SOL    HW2 8790   3.062   1.548   3.299
 2631SOL     OW 8791   4.966   0.442   4.987
 2631SOL    HW1 8792   5.018   0.527   4.986
 2631SOL    HW2 8793   4.996   0.385   5.063
 2632SOL     OW 8794   3.194   2.139   6.098
 2632SOL    HW1 8795   3.277   2.083   6.093
 2632SOL    HW2 8796   3.216   2.233   6.074
 2633SOL     OW 8797   6.512   1.177   4.852
 2633SOL    HW1 8798   6.597   1.152   4.806
 2633SOL    HW2 8799   6.489   1.272   4.830
 2634SOL     OW 8800   1.200   3.815   3.034
 2634SOL    HW1 8801   1.195   3.738   2.970
 2634SOL    HW2 8802   1.265   3.793   3.107
 2635SOL     OW 8803   6.279   5.773   5.578
 2635SOL    HW1 8804   6.212   5.740   5.645
 2635SOL    HW2 8805   6.232   5.831   5.510
 2636SOL     OW 8806   4.785   0.272   5.217
 2636SOL    HW1 8807   4.885   0.263   5.220
 2636SOL    HW2 8808   4.761   0.369   5.208
 2637SOL     OW 8809   5.443   1.593   3.482
 2637SOL    HW1 8810   5.423   1.689   3.497
 2637SOL    HW2 8811   5.365   1.537   3.510
 2638SOL     OW 8812   6.443   0.338   3.441
 2638SOL    HW1 8813   6.478   0.244   3.432
 2638SOL    HW2 8814   6.383   0.359   3.365
 2639SOL     OW 8815   0.803   6.917   1.307
 2639SOL    HW1 8816   0.893   6.884   1.277
 2639SOL    HW2 8817   0.789   7.010   1.274
 2640SOL     OW 8818   0.107   5.828   4.532
 2640SOL    HW1 8819   0.126   5.731   4.548
 2640SOL    HW2 8820   0.193   5.876   4.516
 2641SOL     OW 8821   4.946   3.124   2.155
 2641SOL    HW1 8822   4.861   3.080   2.125
 2641SOL    HW2 8823   4.925   3.189   2.228
 2642SOL     OW 8824   4.290   0.189   4.236
 2642SOL    HW1 8825   4.341   0.275   4.243
 2642SOL    HW2 8826   4.353   0.114   4.218
 2643SOL     OW 8827   6.912   3.393   2.407
 2643SOL    HW1 8828   6.943   3.487   2.389
 2643SOL    HW2 8829   6.815   3.395   2.434
 2644SOL     OW 8830   6.131   5.252   6.047
 2644SOL    HW1 8831   6.174   5.228   5.960
 2644SOL    HW2 8832   6.197   5.241   6.122
 2645SOL     OW 8833   4.473   5.498   4.951
 2645SOL    HW1 8834   4.484   5.597   4.942
 2645SOL    HW2 8835   4.493   5.470   5.046
 2646SOL     OW 8836   5.969   0.851   6.818
 2646SOL    HW1 8837   5.872   0.872   6.823
 2646SOL    HW2 8838   6.018   0.901   6.889
 2647SOL     OW 8839   6.406   0.370   1.735
 2647SOL    HW1 8840   6.310   0.349   1.717
 2647SOL    HW2 8841   6.453   0.288   1.768
 2648SOL     OW 8842   0.287   0.338   4.001
 2648SOL    HW1 8843   0.288   0.344   4.100
 2648SOL    HW2 8844   0.194   0.320   3.969
 2649SOL     OW 8845   5.914   3.130   6.643
 2649SOL    HW1 8846   5.981   3.136   6.718
 2649SOL    HW2 8847   5.841   3.068   6.669
 2650SOL     OW 8848   0.719   4.247   4.260
 2650SOL    HW1 8849   0.682   4.337   4.239
 2650SOL    HW2 8850   0.657   4.199   4.323
 2651SOL     OW 8851   0.737   1.289   0.186
 2651SOL    HW1 8852   0.733   1.239   0.273
 2651SOL    HW2 8853   0.817   1.349   0.186
 2652SOL     OW 8854   3.549   4.088   3.916
 2652SOL    HW1 8855   3.564   3.989   3.916
 2652SOL    HW2 8856   3.613   4.131   3.853
 2653SOL     OW 8857   5.270   6.618   5.705
 2653SOL    HW1 8858   5.199   6.547   5.707
 2653SOL    HW2 8859   5.359   6.578   5.727
 2654SOL     OW 8860   5.226   5.247   1.140
 2654SOL    HW1 8861   5.189   5.200   1.221
 2654SOL    HW2 8862   5.302   5.194   1.103
 2655SOL     OW 8863   4.677   5.537   3.995
 2655SOL    HW1 8864   4.715   5.593   3.921
 2655SOL    HW2 8865   4.580   5.522   3.979
 2656SOL     OW 8866   3.477   4.903   3.733
 2656SOL    HW1 8867   3.511   4.835   3.798
 2656SOL    HW2 8868   3.527   4.988   3.744
 2657SOL     OW 8869   1.313   3.702   6.380
 2657SOL    HW1 8870   1.339   3.623   6.435
 2657SOL    HW2 8871   1.221   3.732   6.406
 2658SOL     OW 8872   4.983   4.411   0.338
 2658SOL    HW1 8873   5.061   4.446   0.389
 2658SOL    HW2 8874   5.001   4.318   0.309
 2659SOL     OW 8875   5.949   3.098   4.793
 2659SOL    HW1 8876   6.047   3.113   4.782
 2659SOL    HW2 8877   5.929   3.000   4.783
 2660SOL     OW 8878   0.937   1.099   1.102
 2660SOL    HW1 8879   0.910   1.089   1.198
 2660SOL    HW2 8880   0.984   1.015   1.072
 2661SOL     OW 8881   2.345   0.109   0.910
 2661SOL    HW1 8882   2.345   0.201   0.949
 2661SOL    HW2 8883   2.429   0.095   0.857
 2662SOL     OW 8884   4.489   6.710   5.557
 2662SOL    HW1 8885   4.396   6.724   5.591
 2662SOL    HW2 8886   4.519   6.791   5.507
 2663SOL     OW 8887   2.874   4.228   0.818
 2663SOL    HW1 8888   2.804   4.209   0.749
 2663SOL    HW2 8889   2.853   4.176   0.901
 2664SOL     OW 8890   4.015   4.081   5.391
 2664SOL    HW1 8891   4.088   4.133   5.348
 2664SOL    HW2 8892   3.927   4.103   5.347
 2665SOL     OW 8893   2.677   2.932   5.347
 2665SOL    HW1 8894   2.639   2.914   5.438
 2665SOL    HW2 8895   2.604   2.965   5.286
 2666SOL     OW 8896   5.722   4.191   0.984
 2666SOL    HW1 8897   5.692   4.200   0.889
 2666SOL    HW2 8898   5.814   4.150   0.986
 2667SOL     OW 8899   1.429   6.193   4.301
 2667SOL    HW1 8900   1.425   6.200   4.202
 2667SOL    HW2 8901   1.490   6.264   4.338
 2668SOL     OW 8902   6.444   3.654   4.435
 2668SOL    HW1 8903   6.365   3.598   4.460
 2668SOL    HW2 8904   6.451   3.731   4.499
 2669SOL     OW 8905   2.741   4.531   5.319
 2669SOL    HW1 8906   2.647   4.553   5.292
 2669SOL    HW2 8907   2.802   4.547   5.242
 2670SOL     OW 8908   6.095   2.637   6.601
 2670SOL    HW1 8909   6.114   2.732   6.576
 2670SOL    HW2 8910   5.996   2.625   6.612
 2671SOL     OW 8911   3.803   5.216   6.251
 2671SOL    HW1 8912   3.760   5.302   6.280
 2671SOL    HW2 8913   3.860   5.182   6.326
 2672SOL     OW 8914   0.411   5.532   0.595
 2672SOL    HW1 8915   0.353   5.550   0.516
 2672SOL    HW2 8916   0.392   5.440   0.630
 2673SOL     OW 8917   6.253   1.215   3.824
 2673SOL    HW1 8918   6.200   1.192   3.743
 2673SOL    HW2 8919   6.194   1.210   3.905
 2674SOL     OW 8920   1.054   4.323   3.341
 2674SOL    HW1 8921   1.116   4.401   3.347
 2674SOL    HW2 8922   1.075   4.258   3.414
 2675SOL     OW 8923   6.641   5.301   3.540
 2675SOL    HW1 8924   6.546   5.274   3.556
 2675SOL    HW2 8925   6.649   5.342   3.449
 2676SOL     OW 8926   4.313   1.823   0.448
 2676SOL    HW1 8927   4.395   1.766   0.444
 2676SOL    HW2 8928   4.320   1.897   0.381
 2677SOL     OW 8929   3.157   3.429   0.411
 2677SOL    HW1 8930   3.218   3.364   0.456
 2677SOL    HW2 8931   3.195   3.521   0.418
 2678SOL     OW 8932   0.373   2.691   1.386
 2678SOL    HW1 8933   0.378   2.770   1.449
 2678SOL    HW2 8934   0.465   2.662   1.362
 2679SOL     OW 8935   3.315   4.896   1.062
 2679SOL    HW1 8936   3.317   4.850   0.974
 2679SOL    HW2 8937   3.409   4.912   1.093
 2680SOL     OW 8938   1.153   1.288   0.743
 2680SOL    HW1 8939   1.135   1.372   0.795
 2680SOL    HW2 8940   1.251   1.272   0.740
 2681SOL     OW 8941   1.151   2.813   4.884
 2681SOL    HW1 8942   1.164   2.771   4.974
 2681SOL    HW2 8943   1.238   2.847   4.849
 2682SOL     OW 8944   5.117   4.550   2.349
 2682SOL    HW1 8945   5.094   4.529   2.445
 2682SOL    HW2 8946   5.133   4.465   2.299
 2683SOL     OW 8947   2.818   4.724   1.251
 2683SOL    HW1 8948   2.880   4.801   1.264
 2683SOL    HW2 8949   2.854   4.643   1.298
 2684SOL     OW 8950   4.355   5.436   1.085
 2684SOL    HW1 8951   4.351   5.476   0.993
 2684SOL    HW2 8952   4.269   5.389   1.104
 2685SOL     OW 8953   6.530   6.214   6.648
 2685SOL    HW1 8954   6.439   6.221   6.689
 2685SOL    HW2 8955   6.521   6.214   6.548
 2686SOL     OW 8956   1.788   1.965   5.532
 2686SOL    HW1 8957   1.817   1.904   5.458
 2686SOL    HW2 8958   1.710   2.019   5.502
 2687SOL     OW 8959   4.817   4.094   2.051
 2687SOL    HW1 8960   4.741   4.159   2.052
 2687SOL    HW2 8961   4.820   4.047   1.963
 2688SOL     OW 8962   4.263   4.252   0.287
 2688SOL    HW1 8963   4.357   4.271   0.259
 2688SOL    HW2 8964   4.215   4.204   0.212
 2689SOL     OW 8965   1.778   3.589   3.711
 2689SOL    HW1 8966   1.831   3.510   3.680
 2689SOL    HW2 8967   1.690   3.558   3.748
 2690SOL     OW 8968   3.487   3.582   3.456
 2690SOL    HW1 8969   3.513   3.667   3.502
 2690SOL    HW2 8970   3.555   3.512   3.476
 2691SOL     OW 8971   1.273   5.590   1.884
 2691SOL    HW1 8972   1.297   5.664   1.821
 2691SOL    HW2 8973   1.268   5.504   1.833
 2692SOL     OW 8974   3.299   5.198   2.529
 2692SOL    HW1 8975   3.265   5.281   2.484
 2692SOL    HW2 8976   3.221   5.141   2.555
 2693SOL     OW 8977   2.016   5.001   2.596
 2693SOL    HW1 8978   2.081   5.077   2.606
 2693SOL    HW2 8979   1.925   5.031   2.622
 2694SOL     OW 8980   4.166   6.415   2.987
 2694SOL    HW1 8981   4.164   6.506   2.947
 2694SOL    HW2 8982   4.093   6.407   3.055
 2695SOL     OW 8983   5.157   0.282   2.344
 2695SOL    HW1 8984   5.172   0.371   2.386
 2695SOL    HW2 8985   5.245   0.235   2.334
 2696SOL     OW 8986   3.617   3.510   5.506
 2696SOL    HW1 8987   3.670   3.523   5.590
 2696SOL    HW2 8988   3.663   3.556   5.430
 2697SOL     OW 8989   3.480   1.875   2.995
 2697SOL    HW1 8990   3.568   1.836   2.966
 2697SOL    HW2 8991   3.407   1.811   2.974
 2698SOL     OW 8992   2.267   6.564   0.525
 2698SOL    HW1 8993   2.336   6.494   0.545
 2698SOL    HW2 8994   2.213   6.536   0.446
 2699SOL     OW 8995   2.778   6.862   0.529
 2699SOL    HW1 8996   2.842   6.906   0.592
 2699SOL    HW2 8997   2.685   6.890   0.551
 2700SOL     OW 8998   2.115   3.917   0.983
 2700SOL    HW1 8999   2.035   3.928   0.924
 2700SOL    HW2 9000   2.128   3.999   1.038
 2701SOL     OW 9001   4.937   1.155   6.475
 2701SOL    HW1 9002   4.901   1.238   6.518
 2701SOL    HW2 9003   4.876   1.127   6.401
 2702SOL     OW 9004   0.853   3.285   3.842
 2702SOL    HW1 9005   0.798   3.235   3.909
 2702SOL    HW2 9006   0.852   3.383   3.864
 2703SOL     OW 9007   1.862   0.724   2.063
 2703SOL    HW1 9008   1.793   0.658   2.033
 2703SOL    HW2 9009   1.889   0.782   1.987
 2704SOL     OW 9010   6.998   6.540   1.409
 2704SOL    HW1 9011   6.905   6.569   1.433
 2704SOL    HW2 9012   0.044   6.590   1.464
 2705SOL     OW 9013   0.003   5.569   4.281
 2705SOL    HW1 9014   6.984   5.592   4.370
 2705SOL    HW2 9015   0.043   5.478   4.285
 2706SOL     OW 9016   0.255   0.037   1.622
 2706SOL    HW1 9017   0.197   7.017   1.551
 2706SOL    HW2 9018   0.217   0.125   1.650
 2707SOL     OW 9019   3.026   0.122   4.301
 2707SOL    HW1 9020   2.966   0.201   4.314
 2707SOL    HW2 9021   3.071   0.128   4.212
 2708SOL     OW 9022   0.528   2.388   6.575
 2708SOL    HW1 9023   0.485   2.316   6.629
 2708SOL    HW2 9024   0.587   2.347   6.505
 2709SOL     OW 9025   6.763   6.496   0.067
 2709SOL    HW1 9026   6.804   6.517   7.000
 2709SOL    HW2 9027   6.737   6.580   0.114
 2710SOL     OW 9028   0.733   3.848   3.747
 2710SOL    HW1 9029   0.686   3.794   3.816
 2710SOL    HW2 9030   0.825   3.870   3.779
 2711SOL     OW 9031   2.450   1.388   4.088
 2711SOL    HW1 9032   2.507   1.328   4.033
 2711SOL    HW2 9033   2.405   1.455   4.029
 2712SOL     OW 9034   2.958   4.454   0.918
 2712SOL    HW1 9035   2.948   4.542   0.872
 2712SOL    HW2 9036   2.912   4.384   0.864
 2713SOL     OW 9037   2.423   2.283   4.507
 2713SOL    HW1 9038   2.466   2.369   4.535
 2713SOL    HW2 9039   2.471   2.246   4.427
 2714SOL     OW 9040   4.230   2.236   0.356
 2714SOL    HW1 9041   4.167   2.281   0.292
 2714SOL    HW2 9042   4.285   2.306   0.402
 2715SOL     OW 9043   5.089   1.606   1.130
 2715SOL    HW1 9044   5.035   1.683   1.095
 2715SOL    HW2 9045   5.062   1.522   1.082
 2716SOL     OW 9046   5.221   4.315   2.927
 2716SOL    HW1 9047   5.167   4.247   2.977
 2716SOL    HW2 9048   5.318   4.291   2.932
 2717SOL     OW 9049   1.194   5.661   2.161
 2717SOL    HW1 9050   1.256   5.626   2.091
 2717SOL    HW2 9051   1.247   5.698   2.237
 2718SOL     OW 9052   1.973   2.077   5.224
 2718SOL    HW1 9053   1.930   1.987   5.212
 2718SOL    HW2 9054   1.936   2.141   5.157
 2719SOL     OW 9055   6.888   5.769   1.137
 2719SOL    HW1 9056   6.882   5.691   1.075
 2719SOL    HW2 9057   6.943   5.841   1.095
 2720SOL     OW 9058   1.876   5.905   2.158
 2720SOL    HW1 9059   1.795   5.847   2.146
 2720SOL    HW2 9060   1.889   5.962   2.077
 2721SOL     OW 9061   2.947   0.366   3.870
 2721SOL    HW1 9062   2.895   0.415   3.939
 2721SOL    HW2 9063   3.043   0.394   3.875
 2722SOL     OW 9064   6.489   5.587   1.454
 2722SOL    HW1 9065   6.485   5.532   1.370
 2722SOL    HW2 9066   6.541   5.670   1.437
 2723SOL     OW 9067   1.011   0.020   6.118
 2723SOL    HW1 9068   1.071   0.011   6.038
 2723SOL    HW2 9069   0.918   7.011   6.094
 2724SOL     OW 9070   2.165   6.934   6.759
 2724SOL    HW1 9071   2.098   6.994   6.715
 2724SOL    HW2 9072   2.240   6.989   6.795
 2725SOL     OW 9073   5.314   5.041   4.515
 2725SOL    HW1 9074   5.254   5.008   4.588
 2725SOL    HW2 9075   5.333   4.966   4.452
 2726SOL     OW 9076   6.717   2.975   1.094
 2726SOL    HW1 9077   6.731   2.899   1.030
 2726SOL    HW2 9078   6.776   2.964   1.173
 2727SOL     OW 9079   0.528   5.085   2.998
 2727SOL    HW1 9080   0.500   4.990   2.986
 2727SOL    HW2 9081   0.525   5.132   2.910
 2728SOL     OW 9082   4.119   6.452   5.764
 2728SOL    HW1 9083   4.106   6.540   5.810
 2728SOL    HW2 9084   4.212   6.419   5.779
 2729SOL     OW 9085   6.698   6.416   1.114
 2729SOL    HW1 9086   6.786   6.375   1.141
 2729SOL    HW2 9087   6.715   6.496   1.057
 2730SOL     OW 9088   1.696   5.556   1.461
 2730SOL    HW1 9089   1.781   5.609   1.470
 2730SOL    HW2 9090   1.696   5.509   1.373
 2731SOL     OW 9091   3.955   3.273   2.462
 2731SOL    HW1 9092   3.882   3.209   2.438
 2731SOL    HW2 9093   3.918   3.346   2.520
 2732SOL     OW 9094   5.515   2.007   1.782
 2732SOL    HW1 9095   5.541   2.024   1.687
 2732SOL    HW2 9096   5.581   2.050   1.843
 2733SOL     OW 9097   6.907   6.924   4.248
 2733SOL    HW1 9098   6.853   6.933   4.332
 2733SOL    HW2 9099   6.967   7.004   4.239
 2734SOL     OW 9100   2.246   5.948   1.515
 2734SOL    HW1 9101   2.263   6.030   1.461
 2734SOL    HW2 9102   2.148   5.931   1.519
 2735SOL     OW 9103   1.048   3.545   2.584
 2735SOL    HW1 9104   0.964   3.519   2.632
 2735SOL    HW2 9105   1.086   3.627   2.625
 2736SOL     OW 9106   4.835   6.822   5.114
 2736SOL    HW1 9107   4.910   6.840   5.178
 2736SOL    HW2 9108   4.842   6.884   5.036
 2737SOL     OW 9109   3.468   3.292   5.486
 2737SOL    HW1 9110   3.528   3.360   5.528
 2737SOL    HW2 9111   3.373   3.321   5.495
 2738SOL     OW 9112   5.299   5.424   3.174
 2738SOL    HW1 9113   5.294   5.394   3.269
 2738SOL    HW2 9114   5.223   5.384   3.122
 2739SOL     OW 9115   0.226   5.164   1.380
 2739SOL    HW1 9116   0.143   5.203   1.338
 2739SOL    HW2 9117   0.307   5.206   1.339
 2740SOL     OW 9118   6.636   3.876   2.798
 2740SOL    HW1 9119   6.664   3.880   2.894
 2740SOL    HW2 9120   6.567   3.947   2.781
 2741SOL     OW 9121   6.291   0.412   5.549
 2741SOL    HW1 9122   6.328   0.500   5.579
 2741SOL    HW2 9123   6.232   0.425   5.469
 2742SOL     OW 9124   1.801   5.235   6.393
 2742SOL    HW1 9125   1.872   5.305   6.404
 2742SOL    HW2 9126   1.739   5.263   6.320
 2743SOL     OW 9127   6.743   5.291   2.141
 2743SOL    HW1 9128   6.690   5.376   2.135
 2743SOL    HW2 9129   6.839   5.312   2.159
 2744SOL     OW 9130   5.176   1.722   6.686
 2744SOL    HW1 9131   5.189   1.707   6.784
 2744SOL    HW2 9132   5.264   1.740   6.643
 2745SOL     OW 9133   0.278   6.717   5.862
 2745SOL    HW1 9134   0.283   6.811   5.894
 2745SOL    HW2 9135   0.198   6.672   5.903
 2746SOL     OW 9136   2.256   2.150   3.830
 2746SOL    HW1 9137   2.174   2.113   3.787
 2746SOL    HW2 9138   2.328   2.158   3.761
 2747SOL     OW 9139   6.143   3.848   6.161
 2747SOL    HW1 9140   6.058   3.886   6.124
 2747SOL    HW2 9141   6.161   3.888   6.251
 2748SOL     OW 9142   5.413   1.369   1.318
 2748SOL    HW1 9143   5.320   1.357   1.351
 2748SOL    HW2 9144   5.462   1.281   1.324
 2749SOL     OW 9145   6.440   4.835   3.222
 2749SOL    HW1 9146   6.456   4.784   3.306
 2749SOL    HW2 9147   6.509   4.908   3.214
 2750SOL     OW 9148   0.581   5.374   1.278
 2750SOL    HW1 9149   0.587   5.274   1.280
 2750SOL    HW2 9150   0.496   5.401   1.232
 2751SOL     OW 9151   0.379   6.427   1.434
 2751SOL    HW1 9152   0.306   6.381   1.484
 2751SOL    HW2 9153   0.420   6.498   1.491
 2752SOL     OW 9154   4.346   4.687   5.853
 2752SOL    HW1 9155   4.334   4.686   5.754
 2752SOL    HW2 9156   4.406   4.763   5.879
 2753SOL     OW 9157   0.263   6.591   5.235
 2753SOL    HW1 9158   0.181   6.548   5.199
 2753SOL    HW2 9159   0.343   6.535   5.212
 2754SOL     OW 9160   0.120   0.702   3.138
 2754SOL    HW1 9161   0.103   0.794   3.172
 2754SOL    HW2 9162   0.191   0.705   3.068
 2755SOL     OW 9163   2.025   6.764   3.598
 2755SOL    HW1 9164   1.930   6.795   3.611
 2755SOL    HW2 9165   2.082   6.841   3.571
 2756SOL     OW 9166   5.850   3.995   6.384
 2756SOL    HW1 9167   5.853   3.902   6.349
 2756SOL    HW2 9168   5.906   4.054   6.325
 2757SOL     OW 9169   2.188   1.153   6.313
 2757SOL    HW1 9170   2.251   1.098   6.258
 2757SOL    HW2 9171   2.185   1.247   6.277
 2758SOL     OW 9172   4.831   6.139   2.977
 2758SOL    HW1 9173   4.779   6.107   3.057
 2758SOL    HW2 9174   4.805   6.234   2.956
 2759SOL     OW 9175   5.003   5.594   5.485
 2759SOL    HW1 9176   4.944   5.522   5.522
 2759SOL    HW2 9177   5.008   5.669   5.551
 2760SOL     OW 9178   0.326   5.716   2.917
 2760SOL    HW1 9179   0.282   5.801   2.888
 2760SOL    HW2 9180   0.311   5.702   3.015
 2761SOL     OW 9181   2.099   4.168   5.086
 2761SOL    HW1 9182   2.190   4.127   5.075
 2761SOL    HW2 9183   2.106   4.250   5.143
 2762SOL     OW 9184   2.030   0.979   6.183
 2762SOL    HW1 9185   2.047   0.903   6.246
 2762SOL    HW2 9186   2.069   1.063   6.221
 2763SOL     OW 9187   4.594   2.377   5.087
 2763SOL    HW1 9188   4.692   2.376   5.104
 2763SOL    HW2 9189   4.574   2.445   5.016
 2764SOL     OW 9190   0.111   0.962   1.452
 2764SOL    HW1 9191   0.191   1.019   1.471
 2764SOL    HW2 9192   0.037   0.987   1.515
 2765SOL     OW 9193   6.420   6.834   0.546
 2765SOL    HW1 9194   6.453   6.918   0.589
 2765SOL    HW2 9195   6.364   6.858   0.467
 2766SOL     OW 9196   4.539   3.006   0.494
 2766SOL    HW1 9197   4.473   2.942   0.532
 2766SOL    HW2 9198   4.605   3.033   0.564
 2767SOL     OW 9199   6.654   5.431   0.551
 2767SOL    HW1 9200   6.617   5.508   0.498
 2767SOL    HW2 9201   6.730   5.391   0.500
 2768SOL     OW 9202   4.516   0.362   1.224
 2768SOL    HW1 9203   4.540   0.377   1.320
 2768SOL    HW2 9204   4.592   0.315   1.178
 2769SOL     OW 9205   1.704   4.493   6.451
 2769SOL    HW1 9206   1.668   4.460   6.364
 2769SOL    HW2 9207   1.629   4.530   6.507
 2770SOL     OW 9208   4.373   5.316   5.720
 2770SOL    HW1 9209   4.274   5.324   5.732
 2770SOL    HW2 9210   4.406   5.234   5.767
 2771SOL     OW 9211   5.893   1.227   4.679
 2771SOL    HW1 9212   5.813   1.168   4.687
 2771SOL    HW2 9213   5.974   1.171   4.659
 2772SOL     OW 9214   3.718   1.067   0.964
 2772SOL    HW1 9215   3.689   1.125   0.888
 2772SOL    HW2 9216   3.797   1.012   0.935
 2773SOL     OW 9217   6.516   2.178   4.625
 2773SOL    HW1 9218   6.477   2.113   4.560
 2773SOL    HW2 9219   6.524   2.135   4.715
 2774SOL     OW 9220   5.649   2.575   3.465
 2774SOL    HW1 9221   5.694   2.575   3.554
 2774SOL    HW2 9222   5.552   2.551   3.476
 2775SOL     OW 9223   6.912   3.827   5.650
 2775SOL    HW1 9224   6.823   3.800   5.614
 2775SOL    HW2 9225   6.900   3.899   5.718
 2776SOL     OW 9226   4.742   4.233   5.923
 2776SOL    HW1 9227   4.713   4.324   5.892
 2776SOL    HW2 9228   4.666   4.169   5.914
 2777SOL     OW 9229   2.992   1.926   1.477
 2777SOL    HW1 9230   2.935   1.980   1.538
 2777SOL    HW2 9231   2.995   1.969   1.387
 2778SOL     OW 9232   1.481   6.930   6.019
 2778SOL    HW1 9233   1.538   6.850   6.033
 2778SOL    HW2 9234   1.469   6.979   6.105
 2779SOL     OW 9235   5.483   6.270   2.482
 2779SOL    HW1 9236   5.437   6.205   2.542
 2779SOL    HW2 9237   5.447   6.261   2.389
 2780SOL     OW 9238   0.799   6.881   6.033
 2780SOL    HW1 9239   0.749   6.812   6.085
 2780SOL    HW2 9240   0.734   6.937   5.981
 2781SOL     OW 9241   5.981   0.253   1.836
 2781SOL    HW1 9242   5.907   0.185   1.829
 2781SOL    HW2 9243   5.946   0.336   1.878
 2782SOL     OW 9244   4.477   1.088   5.095
 2782SOL    HW1 9245   4.486   1.127   5.186
 2782SOL    HW2 9246   4.457   0.990   5.102
 2783SOL     OW 9247   5.290   4.151   2.427
 2783SOL    HW1 9248   5.267   4.217   2.498
 2783SOL    HW2 9249   5.388   4.131   2.430
 2784SOL     OW 9250   3.752   1.165   2.202
 2784SOL    HW1 9251   3.768   1.203   2.293
 2784SOL    HW2 9252   3.657   1.134   2.195
 2785SOL     OW 9253   5.699   2.244   0.961
 2785SOL    HW1 9254   5.716   2.342   0.967
 2785SOL    HW2 9255   5.633   2.217   1.031
 2786SOL     OW 9256   5.494   6.681   2.295
 2786SOL    HW1 9257   5.520   6.718   2.206
 2786SOL    HW2 9258   5.472   6.757   2.357
 2787SOL     OW 9259   5.573   6.768   5.633
 2787SOL    HW1 9260   5.528   6.854   5.656
 2787SOL    HW2 9261   5.555   6.701   5.706
 2788SOL     OW 9262   2.200   6.240   5.764
 2788SOL    HW1 9263   2.233   6.258   5.857
 2788SOL    HW2 9264   2.277   6.218   5.705
 2789SOL     OW 9265   1.875   2.174   4.106
 2789SOL    HW1 9266   1.935   2.120   4.046
 2789SOL    HW2 9267   1.816   2.113   4.158
 2790SOL     OW 9268   3.662   5.634   1.816
 2790SOL    HW1 9269   3.586   5.613   1.754
 2790SOL    HW2 9270   3.669   5.561   1.885
 2791SOL     OW 9271   0.490   2.768   2.369
 2791SOL    HW1 9272   0.473   2.847   2.310
 2791SOL    HW2 9273   0.469   2.792   2.464
 2792SOL     OW 9274   2.001   0.684   3.894
 2792SOL    HW1 9275   2.085   0.633   3.875
 2792SOL    HW2 9276   2.023   0.778   3.918
 2793SOL     OW 9277   5.255   3.827   1.317
 2793SOL    HW1 9278   5.258   3.773   1.233
 2793SOL    HW2 9279   5.165   3.818   1.360
 2794SOL     OW 9280   6.560   1.832   6.129
 2794SOL    HW1 9281   6.496   1.836   6.206
 2794SOL    HW2 9282   6.587   1.924   6.103
 2795SOL     OW 9283   0.889   3.433   1.103
 2795SOL    HW1 9284   0.867   3.344   1.143
 2795SOL    HW2 9285   0.963   3.476   1.155
 2796SOL     OW 9286   0.201   6.271   3.310
 2796SOL    HW1 9287   0.129   6.277   3.241
 2796SOL    HW2 9288   0.264   6.197   3.285
 2797SOL     OW 9289   5.243   5.318   5.285
 2797SOL    HW1 9290   5.315   5.350   5.223
 2797SOL    HW2 9291   5.260   5.353   5.377
 2798SOL     OW 9292   6.466   5.457   2.622
 2798SOL    HW1 9293   6.392   5.441   2.688
 2798SOL    HW2 9294   6.526   5.378   2.620
 2799SOL     OW 9295   5.578   5.339   5.770
 2799SOL    HW1 9296   5.541   5.368   5.858
 2799SOL    HW2 9297   5.520   5.269   5.730
 2800SOL     OW 9298   4.547   6.428   5.932
 2800SOL    HW1 9299   4.506   6.496   5.992
 2800SOL    HW2 9300   4.574   6.348   5.986
 2801SOL     OW 9301   0.191   5.244   5.822
 2801SOL    HW1 9302   0.227   5.314   5.884
 2801SOL    HW2 9303   0.143   5.287   5.746
 2802SOL     OW 9304   5.085   6.280   5.434
 2802SOL    HW1 9305   5.086   6.325   5.344
 2802SOL    HW2 9306   5.116   6.185   5.423
 2803SOL     OW 9307   3.955   5.171   6.490
 2803SOL    HW1 9308   3.905   5.096   6.533
 2803SOL    HW2 9309   4.044   5.182   6.536
 2804SOL     OW 9310   1.010   4.196   5.527
 2804SOL    HW1 9311   0.985   4.285   5.489
 2804SOL    HW2 9312   0.939   4.130   5.504
 2805SOL     OW 9313   6.076   3.609   2.812
 2805SOL    HW1 9314   6.091   3.624   2.714
 2805SOL    HW2 9315   5.978   3.609   2.831
 2806SOL     OW 9316   1.848   3.971   5.792
 2806SOL    HW1 9317   1.797   3.934   5.715
 2806SOL    HW2 9318   1.805   4.056   5.824
 2807SOL     OW 9319   3.779   6.788   3.947
 2807SOL    HW1 9320   3.806   6.729   4.022
 2807SOL    HW2 9321   3.846   6.781   3.873
 2808SOL     OW 9322   6.227   5.455   1.991
 2808SOL    HW1 9323   6.220   5.435   2.089
 2808SOL    HW2 9324   6.222   5.370   1.940
 2809SOL     OW 9325   5.201   2.801   0.729
 2809SOL    HW1 9326   5.237   2.892   0.708
 2809SOL    HW2 9327   5.222   2.778   0.824
 2810SOL     OW 9328   2.116   5.704   3.061
 2810SOL    HW1 9329   2.190   5.638   3.076
 2810SOL    HW2 9330   2.128   5.747   2.971
 2811SOL     OW 9331   1.619   2.013   3.919
 2811SOL    HW1 9332   1.623   2.053   4.010
 2811SOL    HW2 9333   1.523   1.993   3.896
 2812SOL     OW 9334   5.725   2.810   0.243
 2812SOL    HW1 9335   5.792   2.765   0.302
 2812SOL    HW2 9336   5.681   2.885   0.292
 2813SOL     OW 9337   1.061   1.091   6.851
 2813SOL    HW1 9338   1.091   0.997   6.870
 2813SOL    HW2 9339   0.967   1.103   6.883
 2814SOL     OW 9340   3.297   4.299   5.529
 2814SOL    HW1 9341   3.348   4.281   5.445
 2814SOL    HW2 9342   3.250   4.387   5.521
 2815SOL     OW 9343   0.264   5.052   6.281
 2815SOL    HW1 9344   0.201   5.089   6.213
 2815SOL    HW2 9345   0.265   4.952   6.274
 2816SOL     OW 9346   6.554   5.704   3.679
 2816SOL    HW1 9347   6.550   5.734   3.584
 2816SOL    HW2 9348   6.541   5.783   3.739
 2817SOL     OW 9349   3.219   0.279   1.872
 2817SOL    HW1 9350   3.206   0.180   1.872
 2817SOL    HW2 9351   3.236   0.310   1.965
 2818SOL     OW 9352   0.367   0.881   2.458
 2818SOL    HW1 9353   0.395   0.965   2.505
 2818SOL    HW2 9354   0.293   0.837   2.509
 2819SOL     OW 9355   2.301   0.493   1.621
 2819SOL    HW1 9356   2.268   0.467   1.712
 2819SOL    HW2 9357   2.232   0.549   1.575
 2820SOL     OW 9358   1.368   1.961   3.600
 2820SOL    HW1 9359   1.275   1.953   3.565
 2820SOL    HW2 9360   1.424   2.012   3.535
 2821SOL     OW 9361   4.057   5.102   5.915
 2821SOL    HW1 9362   4.054   5.146   5.826
 2821SOL    HW2 9363   4.011   5.160   5.983
 2822SOL     OW 9364   4.109   1.827   0.066
 2822SOL    HW1 9365   4.089   1.862   6.995
 2822SOL    HW2 9366   4.078   1.733   0.073
 2823SOL     OW 9367   5.108   1.066   0.792
 2823SOL    HW1 9368   5.194   1.070   0.842
 2823SOL    HW2 9369   5.113   1.127   0.712
 2824SOL     OW 9370   2.257   1.887   4.702
 2824SOL    HW1 9371   2.175   1.896   4.645
 2824SOL    HW2 9372   2.295   1.796   4.691
 2825SOL     OW 9373   5.464   6.586   6.543
 2825SOL    HW1 9374   5.401   6.663   6.547
 2825SOL    HW2 9375   5.448   6.534   6.459
 2826SOL     OW 9376   4.576   2.557   0.031
 2826SOL    HW1 9377   4.477   2.549   0.034
 2826SOL    HW2 9378   4.610   2.522   6.965
 2827SOL     OW 9379   0.425   1.129   6.379
 2827SOL    HW1 9380   0.512   1.095   6.344
 2827SOL    HW2 9381   0.443   1.203   6.445
 2828SOL     OW 9382   2.198   2.456   0.606
 2828SOL    HW1 9383   2.259   2.534   0.623
 2828SOL    HW2 9384   2.230   2.406   0.525
 2829SOL     OW 9385   3.375   3.004   3.600
 2829SOL    HW1 9386   3.418   3.087   3.636
 2829SOL    HW2 9387   3.350   2.944   3.676
 2830SOL     OW 9388   3.081   4.495   5.371
 2830SOL    HW1 9389   3.059   4.534   5.281
 2830SOL    HW2 9390   3.035   4.407   5.381
 2831SOL     OW 9391   0.835   3.457   3.119
 2831SOL    HW1 9392   0.847   3.360   3.142
 2831SOL    HW2 9393   0.740   3.483   3.136
 2832SOL     OW 9394   0.766   3.087   1.816
 2832SOL    HW1 9395   0.715   3.171   1.798
 2832SOL    HW2 9396   0.786   3.041   1.730
 2833SOL     OW 9397   2.897   1.529   2.661
 2833SOL    HW1 9398   2.892   1.459   2.590
 2833SOL    HW2 9399   2.805   1.549   2.694
 2834SOL     OW 9400   3.619   6.303   5.735
 2834SOL    HW1 9401   3.598   6.301   5.637
 2834SOL    HW2 9402   3.668   6.220   5.760
 2835SOL     OW 9403   0.555   6.824   1.256
 2835SOL    HW1 9404   0.651   6.844   1.275
 2835SOL    HW2 9405   0.536   6.843   1.159
 2836SOL     OW 9406   0.796   6.545   1.779
 2836SOL    HW1 9407   0.804   6.572   1.683
 2836SOL    HW2 9408   0.741   6.462   1.785
 2837SOL     OW 9409   5.008   4.523   2.603
 2837SOL    HW1 9410   4.924   4.576   2.594
 2837SOL    HW2 9411   5.055   4.550   2.687
 2838SOL     OW 9412   4.310   3.794   0.928
 2838SOL    HW1 9413   4.265   3.710   0.897
 2838SOL    HW2 9414   4.324   3.855   0.850
 2839SOL     OW 9415   6.893   2.154   2.783
 2839SOL    HW1 9416   6.974   2.125   2.835
 2839SOL    HW2 9417   6.812   2.148   2.841
 2840SOL     OW 9418   1.961   6.819   2.045
 2840SOL    HW1 9419   2.007   6.858   1.966
 2840SOL    HW2 9420   1.880   6.769   2.015
 2841SOL     OW 9421   6.201   2.174   6.287
 2841SOL    HW1 9422   6.151   2.088   6.280
 2841SOL    HW2 9423   6.147   2.241   6.338
 2842SOL     OW 9424   0.018   4.731   4.164
 2842SOL    HW1 9425   0.077   4.685   4.097
 2842SOL    HW2 9426   0.073   4.795   4.218
 2843SOL     OW 9427   2.738   2.041   3.187
 2843SOL    HW1 9428   2.793   2.107   3.237
 2843SOL    HW2 9429   2.754   1.949   3.224
 2844SOL     OW 9430   6.213   5.351   0.522
 2844SOL    HW1 9431   6.269   5.423   0.481
 2844SOL    HW2 9432   6.262   5.311   0.600
 2845SOL     OW 9433   5.536   2.931   2.247
 2845SOL    HW1 9434   5.459   2.904   2.190
 2845SOL    HW2 9435   5.582   3.010   2.206
 2846SOL     OW 9436   4.212   0.209   0.431
 2846SOL    HW1 9437   4.169   0.275   0.493
 2846SOL    HW2 9438   4.279   0.257   0.374
 2847SOL     OW 9439   5.145   4.105   3.078
 2847SOL    HW1 9440   5.211   4.032   3.093
 2847SOL    HW2 9441   5.052   4.067   3.081
 2848SOL     OW 9442   2.367   2.524   5.273
 2848SOL    HW1 9443   2.305   2.461   5.320
 2848SOL    HW2 9444   2.321   2.562   5.192
 2849SOL     OW 9445   3.920   0.349   0.980
 2849SOL    HW1 9446   3.891   0.444   0.990
 2849SOL    HW2 9447   3.932   0.308   1.071
 2850SOL     OW 9448   1.828   0.265   2.854
 2850SOL    HW1 9449   1.884   0.342   2.883
 2850SOL    HW2 9450   1.859   0.232   2.764
 2851SOL     OW 9451   5.941   2.314   6.565
 2851SOL    HW1 9452   6.019   2.355   6.519
 2851SOL    HW2 9453   5.918   2.227   6.522
 2852SOL     OW 9454   6.683   4.209   6.951
 2852SOL    HW1 9455   6.768   4.260   6.968
 2852SOL    HW2 9456   6.668   4.143   0.003
 2853SOL     OW 9457   1.786   2.427   5.955
 2853SOL    HW1 9458   1.761   2.491   6.028
 2853SOL    HW2 9459   1.878   2.391   5.972
 2854SOL     OW 9460   3.881   1.063   5.857
 2854SOL    HW1 9461   3.869   1.013   5.771
 2854SOL    HW2 9462   3.822   1.023   5.927
 2855SOL     OW 9463   1.512   1.789   5.552
 2855SOL    HW1 9464   1.535   1.880   5.586
 2855SOL    HW2 9465   1.516   1.789   5.452
 2856SOL     OW 9466   0.747   3.747   5.121
 2856SOL    HW1 9467   0.670   3.704   5.168
 2856SOL    HW2 9468   0.713   3.819   5.060
 2857SOL     OW 9469   0.828   2.489   1.071
 2857SOL    HW1 9470   0.838   2.555   0.997
 2857SOL    HW2 9471   0.773   2.411   1.040
 2858SOL     OW 9472   4.327   5.126   2.434
 2858SOL    HW1 9473   4.230   5.126   2.460
 2858SOL    HW2 9474   4.365   5.218   2.444
 2859SOL     OW 9475   6.608   0.346   6.505
 2859SOL    HW1 9476   6.527   0.316   6.555
 2859SOL    HW2 9477   6.583   0.421   6.444
 2860SOL     OW 9478   2.206   1.447   2.503
 2860SOL    HW1 9479   2.191   1.448   2.404
 2860SOL    HW2 9480   2.198   1.541   2.538
 2861SOL     OW 9481   2.926   5.743   5.119
 2861SOL    HW1 9482   3.024   5.761   5.127
 2861SOL    HW2 9483   2.903   5.722   5.024
 2862SOL     OW 9484   4.332   2.218   1.361
 2862SOL    HW1 9485   4.278   2.256   1.436
 2862SOL    HW2 9486   4.390   2.144   1.395
 2863SOL     OW 9487   4.754   1.361   6.659
 2863SOL    HW1 9488   4.670   1.415   6.665
 2863SOL    HW2 9489   4.731   1.265   6.644
 2864SOL     OW 9490   4.622   2.286   1.001
 2864SOL    HW1 9491   4.692   2.292   0.930
 2864SOL    HW2 9492   4.576   2.374   1.011
 2865SOL     OW 9493   4.427   6.280   4.189
 2865SOL    HW1 9494   4.368   6.226   4.129
 2865SOL    HW2 9495   4.450   6.226   4.270
 2866SOL     OW 9496   5.714   4.656   6.490
 2866SOL    HW1 9497   5.705   4.558   6.507
 2866SOL    HW2 9498   5.786   4.672   6.422
 2867SOL     OW 9499   6.078   6.420   2.680
 2867SOL    HW1 9500   5.985   6.418   2.643
 2867SOL    HW2 9501   6.144   6.414   2.606
 2868SOL     OW 9502   1.338   1.204   5.994
 2868SOL    HW1 9503   1.420   1.150   5.975
 2868SOL    HW2 9504   1.322   1.267   5.918
 2869SOL     OW 9505   6.763   1.073   2.882
 2869SOL    HW1 9506   6.730   1.110   2.795
 2869SOL    HW2 9507   6.702   1.000   2.913
 2870SOL     OW 9508   0.727   1.576   5.510
 2870SOL    HW1 9509   0.641   1.604   5.552
 2870SOL    HW2 9510   0.783   1.657   5.493
 2871SOL     OW 9511   5.940   1.010   0.215
 2871SOL    HW1 9512   5.873   0.935   0.213
 2871SOL    HW2 9513   5.894   1.095   0.242
 2872SOL     OW 9514   2.431   1.900   1.533
 2872SOL    HW1 9515   2.412   1.966   1.460
 2872SOL    HW2 9516   2.436   1.948   1.621
 2873SOL     OW 9517   6.292   6.605   2.049
 2873SOL    HW1 9518   6.359   6.552   1.998
 2873SOL    HW2 9519   6.276   6.692   2.003
 2874SOL     OW 9520   4.235   6.423   2.627
 2874SOL    HW1 9521   4.271   6.335   2.658
 2874SOL    HW2 9522   4.136   6.415   2.613
 2875SOL     OW 9523   5.562   6.680   0.764
 2875SOL    HW1 9524   5.556   6.628   0.849
 2875SOL    HW2 9525   5.540   6.620   0.687
 2876SOL     OW 9526   1.935   0.511   2.681
 2876SOL    HW1 9527   1.994   0.453   2.737
 2876SOL    HW2 9528   1.970   0.605   2.682
 2877SOL     OW 9529   2.747   1.266   5.771
 2877SOL    HW1 9530   2.745   1.245   5.868
 2877SOL    HW2 9531   2.706   1.191   5.719
 2878SOL     OW 9532   3.029   4.235   5.500
 2878SOL    HW1 9533   3.006   4.201   5.409
 2878SOL    HW2 9534   3.126   4.219   5.518
 2879SOL     OW 9535   5.147   5.390   6.144
 2879SOL    HW1 9536   5.145   5.475   6.091
 2879SOL    HW2 9537   5.054   5.370   6.177
 2880SOL     OW 9538   0.396   1.785   2.762
 2880SOL    HW1 9539   0.440   1.704   2.802
 2880SOL    HW2 9540   0.456   1.864   2.773
 2881SOL     OW 9541   4.177   5.759   6.986
 2881SOL    HW1 9542   4.168   5.681   0.026
 2881SOL    HW2 9543   4.092   5.770   6.933
 2882SOL     OW 9544   6.933   5.716   1.809
 2882SOL    HW1 9545   6.864   5.708   1.737
 2882SOL    HW2 9546   6.911   5.654   1.884
 2883SOL     OW 9547   5.939   0.009   4.010
 2883SOL    HW1 9548   6.037   7.015   4.010
 2883SOL    HW2 9549   5.919   0.102   3.977
 2884SOL     OW 9550   0.990   6.887   2.727
 2884SOL    HW1 9551   0.893   6.862   2.727
 2884SOL    HW2 9552   1.046   6.804   2.735
 2885SOL     OW 9553   1.580   3.363   3.830
 2885SOL    HW1 9554   1.537   3.273   3.835
 2885SOL    HW2 9555   1.676   3.355   3.856
 2886SOL     OW 9556   1.940   3.552   6.406
 2886SOL    HW1 9557   1.904   3.502   6.485
 2886SOL    HW2 9558   2.036   3.529   6.393
 2887SOL     OW 9559   0.567   6.869   5.158
 2887SOL    HW1 9560   0.570   6.862   5.258
 2887SOL    HW2 9561   0.550   6.779   5.118
 2888SOL     OW 9562   0.094   3.922   6.851
 2888SOL    HW1 9563   0.153   3.855   6.897
 2888SOL    HW2 9564   0.111   3.918   6.752
 2889SOL     OW 9565   2.840   6.250   2.325
 2889SOL    HW1 9566   2.910   6.306   2.282
 2889SOL    HW2 9567   2.766   6.232   2.260
 2890SOL     OW 9568   1.863   6.492   0.354
 2890SOL    HW1 9569   1.791   6.425   0.335
 2890SOL    HW2 9570   1.828   6.584   0.338
 2891SOL     OW 9571   0.330   4.353   3.330
 2891SOL    HW1 9572   0.354   4.340   3.234
 2891SOL    HW2 9573   0.384   4.428   3.368
 2892SOL     OW 9574   6.385   2.849   0.807
 2892SOL    HW1 9575   6.323   2.925   0.827
 2892SOL    HW2 9576   6.337   2.779   0.754
 2893SOL     OW 9577   0.640   5.391   4.296
 2893SOL    HW1 9578   0.657   5.449   4.216
 2893SOL    HW2 9579   0.543   5.395   4.320
 2894SOL     OW 9580   0.223   2.994   2.338
 2894SOL    HW1 9581   0.151   2.945   2.288
 2894SOL    HW2 9582   0.221   2.967   2.434
 2895SOL     OW 9583   4.908   0.854   5.225
 2895SOL    HW1 9584   4.903   0.863   5.125
 2895SOL    HW2 9585   4.816   0.863   5.263
 2896SOL     OW 9586   4.326   6.885   5.226
 2896SOL    HW1 9587   4.303   6.877   5.323
 2896SOL    HW2 9588   4.426   6.878   5.215
 2897SOL     OW 9589   4.206   4.933   2.840
 2897SOL    HW1 9590   4.244   4.966   2.926
 2897SOL    HW2 9591   4.130   4.992   2.813
 2898SOL     OW 9592   4.479   4.472   4.498
 2898SOL    HW1 9593   4.468   4.373   4.488
 2898SOL    HW2 9594   4.499   4.512   4.409
 2899SOL     OW 9595   0.764   1.773   0.625
 2899SOL    HW1 9596   0.799   1.694   0.575
 2899SOL    HW2 9597   0.757   1.852   0.563
 2900SOL     OW 9598   2.911   4.630   6.701
 2900SOL    HW1 9599   2.936   4.715   6.654
 2900SOL    HW2 9600   2.893   4.650   6.798
 2901SOL     OW 9601   2.595   4.854   3.089
 2901SOL    HW1 9602   2.600   4.946   3.048
 2901SOL    HW2 9603   2.501   4.837   3.118
 2902SOL     OW 9604   5.901   5.044   3.228
 2902SOL    HW1 9605   5.986   5.089   3.255
 2902SOL    HW2 9606   5.876   4.975   3.297
 2903SOL     OW 9607   4.481   6.615   0.693
 2903SOL    HW1 9608   4.441   6.543   0.636
 2903SOL    HW2 9609   4.579   6.619   0.677
 2904SOL     OW 9610   2.455   4.933   4.470
 2904SOL    HW1 9611   2.409   4.903   4.553
 2904SOL    HW2 9612   2.387   4.961   4.402
 2905SOL     OW 9613   1.479   4.120   4.491
 2905SOL    HW1 9614   1.526   4.177   4.423
 2905SOL    HW2 9615   1.526   4.033   4.500
 2906SOL     OW 9616   4.570   4.677   2.496
 2906SOL    HW1 9617   4.520   4.761   2.520
 2906SOL    HW2 9618   4.665   4.686   2.524
 2907SOL     OW 9619   0.421   1.956   3.632
 2907SOL    HW1 9620   0.453   1.865   3.605
 2907SOL    HW2 9621   0.325   1.967   3.607
 2908SOL     OW 9622   5.302   6.241   3.709
 2908SOL    HW1 9623   5.287   6.142   3.713
 2908SOL    HW2 9624   5.286   6.273   3.615
 2909SOL     OW 9625   1.665   6.031   3.802
 2909SOL    HW1 9626   1.756   6.071   3.817
 2909SOL    HW2 9627   1.672   5.955   3.738
 2910SOL     OW 9628   5.848   0.382   4.476
 2910SOL    HW1 9629   5.765   0.329   4.492
 2910SOL    HW2 9630   5.856   0.453   4.546
 2911SOL     OW 9631   1.754   6.206   3.249
 2911SOL    HW1 9632   1.801   6.291   3.223
 2911SOL    HW2 9633   1.813   6.153   3.310
 2912SOL     OW 9634   5.936   6.669   0.445
 2912SOL    HW1 9635   5.924   6.767   0.431
 2912SOL    HW2 9636   5.849   6.622   0.430
 2913SOL     OW 9637   3.908   4.841   1.983
 2913SOL    HW1 9638   3.963   4.775   1.933
 2913SOL    HW2 9639   3.815   4.806   1.993
 2914SOL     OW 9640   6.534   5.935   6.616
 2914SOL    HW1 9641   6.539   6.033   6.638
 2914SOL    HW2 9642   6.607   5.912   6.552
 2915SOL     OW 9643   3.208   2.177   3.459
 2915SOL    HW1 9644   3.123   2.191   3.510
 2915SOL    HW2 9645   3.194   2.206   3.364
 2916SOL     OW 9646   1.187   5.878   0.408
 2916SOL    HW1 9647   1.275   5.831   0.396
 2916SOL    HW2 9648   1.119   5.837   0.347
 2917SOL     OW 9649   2.555   6.957   3.451
 2917SOL    HW1 9650   2.500   6.884   3.412
 2917SOL    HW2 9651   2.495   0.006   3.491
 2918SOL     OW 9652   6.098   4.318   5.467
 2918SOL    HW1 9653   6.194   4.311   5.494
 2918SOL    HW2 9654   6.065   4.410   5.486
 2919SOL     OW 9655   5.909   0.413   2.272
 2919SOL    HW1 9656   5.842   0.453   2.334
 2919SOL    HW2 9657   5.985   0.477   2.259
 2920SOL     OW 9658   2.901   1.004   1.208
 2920SOL    HW1 9659   3.000   0.989   1.202
 2920SOL    HW2 9660   2.883   1.081   1.269
 2921SOL     OW 9661   0.545   6.477   4.519
 2921SOL    HW1 9662   0.504   6.540   4.584
 2921SOL    HW2 9663   0.578   6.527   4.439
 2922SOL     OW 9664   5.063   6.808   1.365
 2922SOL    HW1 9665   4.979   6.767   1.400
 2922SOL    HW2 9666   5.063   6.803   1.265
 2923SOL     OW 9667   6.024   5.380   3.023
 2923SOL    HW1 9668   6.043   5.476   3.043
 2923SOL    HW2 9669   6.071   5.323   3.090
 2924SOL     OW 9670   6.690   2.262   5.550
 2924SOL    HW1 9671   6.678   2.306   5.461
 2924SOL    HW2 9672   6.603   2.264   5.600
 2925SOL     OW 9673   5.851   1.820   0.525
 2925SOL    HW1 9674   5.792   1.888   0.569
 2925SOL    HW2 9675   5.796   1.743   0.494
 2926SOL     OW 9676   6.085   1.648   6.590
 2926SOL    HW1 9677   6.039   1.568   6.630
 2926SOL    HW2 9678   6.180   1.651   6.622
 2927SOL     OW 9679   1.454   4.294   1.594
 2927SOL    HW1 9680   1.526   4.321   1.529
 2927SOL    HW2 9681   1.404   4.375   1.624
 2928SOL     OW 9682   0.237   0.644   6.720
 2928SOL    HW1 9683   0.289   0.719   6.680
 2928SOL    HW2 9684   0.147   0.639   6.676
 2929SOL     OW 9685   1.330   2.514   6.252
 2929SOL    HW1 9686   1.386   2.591   6.282
 2929SOL    HW2 9687   1.242   2.549   6.217
 2930SOL     OW 9688   5.142   6.801   5.936
 2930SOL    HW1 9689   5.095   6.889   5.944
 2930SOL    HW2 9690   5.173   6.789   5.842
 2931SOL     OW 9691   5.311   4.777   7.004
 2931SOL    HW1 9692   5.308   4.707   6.932
 2931SOL    HW2 9693   5.406   4.803   7.020
 2932SOL     OW 9694   0.910   6.040   1.880
 2932SOL    HW1 9695   0.829   6.067   1.931
 2932SOL    HW2 9696   0.964   5.976   1.933
 2933SOL     OW 9697   1.728   5.710   2.404
 2933SOL    HW1 9698   1.778   5.682   2.486
 2933SOL    HW2 9699   1.663   5.783   2.427
 2934SOL     OW 9700   5.254   1.642   6.938
 2934SOL    HW1 9701   5.306   1.556   6.934
 2934SOL    HW2 9702   5.171   1.627   6.991
 2935SOL     OW 9703   6.878   2.384   6.278
 2935SOL    HW1 9704   6.869   2.285   6.281
 2935SOL    HW2 9705   6.798   2.426   6.322
 2936SOL     OW 9706   4.626   6.115   0.284
 2936SOL    HW1 9707   4.589   6.069   0.364
 2936SOL    HW2 9708   4.669   6.048   0.223
 2937SOL     OW 9709   5.660   4.659   1.692
 2937SOL    HW1 9710   5.571   4.636   1.654
 2937SOL    HW2 9711   5.714   4.708   1.624
 2938SOL     OW 9712   5.030   5.080   6.384
 2938SOL    HW1 9713   4.963   5.041   6.447
 2938SOL    HW2 9714   5.115   5.028   6.390
 2939SOL     OW 9715   2.556   0.778   2.335
 2939SOL    HW1 9716   2.494   0.738   2.402
 2939SOL    HW2 9717   2.586   0.708   2.270
 2940SOL     OW 9718   5.519   5.063   5.420
 2940SOL    HW1 9719   5.429   5.052   5.376
 2940SOL    HW2 9720   5.508   5.060   5.519
 2941SOL     OW 9721   1.723   2.377   4.259
 2941SOL    HW1 9722   1.796   2.319   4.224
 2941SOL    HW2 9723   1.661   2.321   4.316
 2942SOL     OW 9724   4.054   2.092   0.511
 2942SOL    HW1 9725   4.121   2.151   0.468
 2942SOL    HW2 9726   3.971   2.088   0.455
 2943SOL     OW 9727   5.588   4.037   3.732
 2943SOL    HW1 9728   5.614   4.072   3.822
 2943SOL    HW2 9729   5.574   3.938   3.738
 2944SOL     OW 9730   2.821   5.971   4.534
 2944SOL    HW1 9731   2.913   5.938   4.554
 2944SOL    HW2 9732   2.785   6.019   4.613
 2945SOL     OW 9733   3.549   3.337   2.355
 2945SOL    HW1 9734   3.481   3.297   2.294
 2945SOL    HW2 9735   3.504   3.398   2.420
 2946SOL     OW 9736   1.401   5.213   6.076
 2946SOL    HW1 9737   1.359   5.293   6.119
 2946SOL    HW2 9738   1.411   5.140   6.143
 2947SOL     OW 9739   0.102   5.233   1.698
 2947SOL    HW1 9740   0.143   5.142   1.705
 2947SOL    HW2 9741   0.170   5.298   1.664
 2948SOL     OW 9742   0.262   4.090   4.284
 2948SOL    HW1 9743   0.333   4.034   4.242
 2948SOL    HW2 9744   0.281   4.100   4.381
 2949SOL     OW 9745   1.373   5.487   0.980
 2949SOL    HW1 9746   1.387   5.514   0.885
 2949SOL    HW2 9747   1.308   5.550   1.023
 2950SOL     OW 9748   5.406   5.578   4.439
 2950SOL    HW1 9749   5.377   5.577   4.535
 2950SOL    HW2 9750   5.325   5.576   4.380
 2951SOL     OW 9751   5.135   1.695   2.468
 2951SOL    HW1 9752   5.197   1.706   2.545
 2951SOL    HW2 9753   5.061   1.633   2.492
 2952SOL     OW 9754   6.985   5.631   5.400
 2952SOL    HW1 9755   6.898   5.673   5.423
 2952SOL    HW2 9756   6.983   5.597   5.306
 2953SOL     OW 9757   6.055   3.976   2.403
 2953SOL    HW1 9758   6.083   4.071   2.404
 2953SOL    HW2 9759   6.086   3.933   2.318
 2954SOL     OW 9760   1.016   5.279   1.799
 2954SOL    HW1 9761   0.927   5.320   1.817
 2954SOL    HW2 9762   1.069   5.339   1.740
 2955SOL     OW 9763   0.817   4.279   1.497
 2955SOL    HW1 9764   0.862   4.214   1.558
 2955SOL    HW2 9765   0.829   4.250   1.402
 2956SOL     OW 9766   5.901   6.142   2.519
 2956SOL    HW1 9767   5.856   6.221   2.561
 2956SOL    HW2 9768   5.948   6.089   2.590
 2957SOL     OW 9769   5.381   4.275   1.448
 2957SOL    HW1 9770   5.476   4.251   1.429
 2957SOL    HW2 9771   5.321   4.203   1.416
 2958SOL     OW 9772   2.405   4.300   3.452
 2958SOL    HW1 9773   2.490   4.306   3.400
 2958SOL    HW2 9774   2.353   4.220   3.423
 2959SOL     OW 9775   4.851   3.776   1.008
 2959SOL    HW1 9776   4.802   3.830   1.076
 2959SOL    HW2 9777   4.785   3.735   0.944
 2960SOL     OW 9778   3.292   0.776   0.616
 2960SOL    HW1 9779   3.196   0.803   0.605
 2960SOL    HW2 9780   3.297   0.677   0.628
 2961SOL     OW 9781   6.121   4.712   3.245
 2961SOL    HW1 9782   6.126   4.658   3.161
 2961SOL    HW2 9783   6.146   4.807   3.224
 2962SOL     OW 9784   4.629   6.704   3.244
 2962SOL    HW1 9785   4.683   6.650   3.309
 2962SOL    HW2 9786   4.591   6.644   3.174
 2963SOL     OW 9787   1.607   1.099   6.386
 2963SOL    HW1 9788   1.683   1.063   6.332
 2963SOL    HW2 9789   1.550   1.157   6.328
 2964SOL     OW 9790   0.174   1.311   5.247
 2964SOL    HW1 9791   0.121   1.390   5.218
 2964SOL    HW2 9792   0.144   1.230   5.197
 2965SOL     OW 9793   0.511   0.883   4.426
 2965SOL    HW1 9794   0.588   0.914   4.371
 2965SOL    HW2 9795   0.491   0.787   4.404
 2966SOL     OW 9796   4.377   4.763   3.707
 2966SOL    HW1 9797   4.475   4.769   3.689
 2966SOL    HW2 9798   4.335   4.699   3.643
 2967SOL     OW 9799   6.101   0.912   4.880
 2967SOL    HW1 9800   6.006   0.937   4.897
 2967SOL    HW2 9801   6.137   0.861   4.958
 2968SOL     OW 9802   0.890   2.881   0.643
 2968SOL    HW1 9803   0.868   2.977   0.657
 2968SOL    HW2 9804   0.844   2.847   0.561
 2969SOL     OW 9805   4.999   2.670   4.351
 2969SOL    HW1 9806   5.001   2.572   4.369
 2969SOL    HW2 9807   4.905   2.701   4.343
 2970SOL     OW 9808   2.533   2.625   5.445
 2970SOL    HW1 9809   2.476   2.577   5.378
 2970SOL    HW2 9810   2.608   2.671   5.398
 2971SOL     OW 9811   5.059   4.146   0.262
 2971SOL    HW1 9812   4.992   4.126   0.190
 2971SOL    HW2 9813   5.043   4.086   0.340
 2972SOL     OW 9814   0.225   4.740   6.419
 2972SOL    HW1 9815   0.298   4.679   6.450
 2972SOL    HW2 9816   0.206   4.721   6.322
 2973SOL     OW 9817   5.054   5.808   1.645
 2973SOL    HW1 9818   5.006   5.815   1.733
 2973SOL    HW2 9819   5.042   5.893   1.594
 2974SOL     OW 9820   0.516   4.756   4.242
 2974SOL    HW1 9821   0.486   4.677   4.295
 2974SOL    HW2 9822   0.468   4.759   4.155
 2975SOL     OW 9823   5.191   3.842   4.138
 2975SOL    HW1 9824   5.134   3.791   4.203
 2975SOL    HW2 9825   5.158   3.936   4.131
 2976SOL     OW 9826   4.335   2.266   2.750
 2976SOL    HW1 9827   4.296   2.281   2.841
 2976SOL    HW2 9828   4.396   2.341   2.727
 2977SOL     OW 9829   1.805   0.449   2.425
 2977SOL    HW1 9830   1.780   0.353   2.414
 2977SOL    HW2 9831   1.858   0.461   2.509
 2978SOL     OW 9832   3.790   4.873   0.044
 2978SOL    HW1 9833   3.829   4.820   0.120
 2978SOL    HW2 9834   3.756   4.960   0.079
 2979SOL     OW 9835   3.831   1.150   3.772
 2979SOL    HW1 9836   3.894   1.224   3.748
 2979SOL    HW2 9837   3.880   1.063   3.770
 2980SOL     OW 9838   1.435   5.225   4.971
 2980SOL    HW1 9839   1.472   5.316   4.952
 2980SOL    HW2 9840   1.499   5.176   5.031
 2981SOL     OW 9841   3.024   0.973   6.123
 2981SOL    HW1 9842   3.064   0.881   6.118
 2981SOL    HW2 9843   3.096   1.040   6.142
 2982SOL     OW 9844   3.039   5.906   1.755
 2982SOL    HW1 9845   3.093   5.831   1.793
 2982SOL    HW2 9846   2.992   5.955   1.829
 2983SOL     OW 9847   6.179   2.371   2.726
 2983SOL    HW1 9848   6.088   2.402   2.699
 2983SOL    HW2 9849   6.234   2.353   2.644
 2984SOL     OW 9850   6.197   4.422   6.940
 2984SOL    HW1 9851   6.158   4.340   6.900
 2984SOL    HW2 9852   6.139   4.452   7.016
 2985SOL     OW 9853   2.076   2.640   4.587
 2985SOL    HW1 9854   1.999   2.672   4.532
 2985SOL    HW2 9855   2.048   2.633   4.683
 2986SOL     OW 9856   3.596   4.134   2.962
 2986SOL    HW1 9857   3.531   4.195   3.007
 2986SOL    HW2 9858   3.652   4.088   3.031
 2987SOL     OW 9859   1.088   1.894   3.902
 2987SOL    HW1 9860   1.063   1.928   3.993
 2987SOL    HW2 9861   1.007   1.854   3.859
 2988SOL     OW 9862   1.877   6.390   2.872
 2988SOL    HW1 9863   1.953   6.390   2.937
 2988SOL    HW2 9864   1.874   6.303   2.823
 2989SOL     OW 9865   5.275   5.501   5.514
 2989SOL    HW1 9866   5.188   5.550   5.521
 2989SOL    HW2 9867   5.298   5.462   5.604
 2990SOL     OW 9868   3.648   1.507   4.399
 2990SOL    HW1 9869   3.744   1.488   4.420
 2990SOL    HW2 9870   3.604   1.424   4.366
 2991SOL     OW 9871   6.618   3.782   5.732
 2991SOL    HW1 9872   6.586   3.791   5.826
 2991SOL    HW2 9873   6.650   3.871   5.699
 2992SOL     OW 9874   1.245   5.154   4.592
 2992SOL    HW1 9875   1.330   5.113   4.558
 2992SOL    HW2 9876   1.249   5.254   4.582
 2993SOL     OW 9877   0.155   4.896   1.403
 2993SOL    HW1 9878   0.180   4.849   1.488
 2993SOL    HW2 9879   0.181   4.992   1.410
 2994SOL     OW 9880   3.594   6.355   6.816
 2994SOL    HW1 9881   3.672   6.354   6.754
 2994SOL    HW2 9882   3.582   6.264   6.856
 2995SOL     OW 9883   3.466   1.349   6.667
 2995SOL    HW1 9884   3.414   1.433   6.652
 2995SOL    HW2 9885   3.553   1.370   6.711
 2996SOL     OW 9886   0.417   1.336   4.946
 2996SOL    HW1 9887   0.479   1.409   4.976
 2996SOL    HW2 9888   0.381   1.359   4.855
 2997SOL     OW 9889   5.173   6.771   2.939
 2997SOL    HW1 9890   5.176   6.806   2.845
 2997SOL    HW2 9891   5.177   6.671   2.938
 2998SOL     OW 9892   5.355   6.332   3.450
 2998SOL    HW1 9893   5.300   6.408   3.419
 2998SOL    HW2 9894   5.449   6.362   3.465
 2999SOL     OW 9895   2.320   5.204   4.957
 2999SOL    HW1 9896   2.263   5.283   4.937
 2999SOL    HW2 9897   2.303   5.132   4.890
 3000SOL     OW 9898   3.482   4.120   6.109
 3000SOL    HW1 9899   3.461   4.069   6.025
 3000SOL    HW2 9900   3.576   4.100   6.137
 3001SOL     OW 9901   6.659   0.897   6.124
 3001SOL    HW1 9902   6.727   0.956   6.080
 3001SOL    HW2 9903   6.680   0.802   6.103
 3002SOL     OW 9904   3.138   1.920   6.856
 3002SOL    HW1 9905   3.112   2.016   6.861
 3002SOL    HW2 9906   3.059   1.863   6.877
 3003SOL     OW 9907   1.435   6.725   0.884
 3003SOL    HW1 9908   1.448   6.771   0.972
 3003SOL    HW2 9909   1.355   6.764   0.838
 3004SOL     OW 9910   0.512   3.847   2.740
 3004SOL    HW1 9911   0.496   3.799   2.654
 3004SOL    HW2 9912   0.426   3.855   2.791
 3005SOL     OW 9913   1.647   3.066   6.852
 3005SOL    HW1 9914   1.637   3.006   6.772
 3005SOL    HW2 9915   1.557   3.096   6.882
 3006SOL     OW 9916   5.446   2.030   4.255
 3006SOL    HW1 9917   5.400   2.071   4.176
 3006SOL    HW2 9918   5.522   2.088   4.283
 3007SOL     OW 9919   5.775   3.938   0.855
 3007SOL    HW1 9920   5.797   3.864   0.919
 3007SOL    HW2 9921   5.677   3.935   0.835
 3008SOL     OW 9922   3.262   2.386   6.054
 3008SOL    HW1 9923   3.189   2.436   6.009
 3008SOL    HW2 9924   3.347   2.397   6.003
 3009SOL     OW 9925   6.610   2.384   2.685
 3009SOL    HW1 9926   6.615   2.467   2.741
 3009SOL    HW2 9927   6.604   2.304   2.744
 3010SOL     OW 9928   2.962   5.483   3.133
 3010SOL    HW1 9929   2.892   5.428   3.179
 3010SOL    HW2 9930   3.053   5.451   3.161
 3011SOL     OW 9931   5.855   1.062   2.756
 3011SOL    HW1 9932   5.767   1.101   2.731
 3011SOL    HW2 9933   5.887   1.104   2.841
 3012SOL     OW 9934   2.076   3.492   6.653
 3012SOL    HW1 9935   2.141   3.473   6.579
 3012SOL    HW2 9936   2.109   3.451   6.738
 3013SOL     OW 9937   5.010   5.677   3.804
 3013SOL    HW1 9938   5.012   5.760   3.859
 3013SOL    HW2 9939   4.964   5.696   3.717
 3014SOL     OW 9940   4.584   2.266   5.565
 3014SOL    HW1 9941   4.668   2.287   5.516
 3014SOL    HW2 9942   4.507   2.314   5.523
 3015SOL     OW 9943   2.573   1.748   0.169
 3015SOL    HW1 9944   2.522   1.665   0.190
 3015SOL    HW2 9945   2.566   1.768   0.071
 3016SOL     OW 9946   3.033   6.258   4.306
 3016SOL    HW1 9947   3.044   6.357   4.305
 3016SOL    HW2 9948   3.086   6.219   4.382
 3017SOL     OW 9949   6.290   5.732   2.007
 3017SOL    HW1 9950   6.269   5.634   2.002
 3017SOL    HW2 9951   6.298   5.770   1.915
 3018SOL     OW 9952   2.591   6.916   6.067
 3018SOL    HW1 9953   2.540   6.869   6.138
 3018SOL    HW2 9954   2.529   6.941   5.993
 3019SOL     OW 9955   0.397   6.684   6.644
 3019SOL    HW1 9956   0.318   6.727   6.601
 3019SOL    HW2 9957   0.380   6.586   6.655
 3020SOL     OW 9958   3.851   2.616   1.055
 3020SOL    HW1 9959   3.911   2.537   1.059
 3020SOL    HW2 9960   3.756   2.587   1.067
 3021SOL     OW 9961   3.301   6.915   5.737
 3021SOL    HW1 9962   3.283   7.011   5.760
 3021SOL    HW2 9963   3.399   6.901   5.728
 3022SOL     OW 9964   4.105   5.570   5.277
 3022SOL    HW1 9965   4.184   5.613   5.236
 3022SOL    HW2 9966   4.023   5.593   5.225
 3023SOL     OW 9967   4.271   6.696   3.153
 3023SOL    HW1 9968   4.199   6.659   3.211
 3023SOL    HW2 9969   4.291   6.790   3.181
 3024SOL     OW 9970   5.177   6.594   5.052
 3024SOL    HW1 9971   5.102   6.659   5.047
 3024SOL    HW2 9972   5.248   6.619   4.986
 3025SOL     OW 9973   4.500   6.512   0.942
 3025SOL    HW1 9974   4.491   6.526   0.843
 3025SOL    HW2 9975   4.446   6.433   0.970
 3026SOL     OW 9976   1.103   1.082   6.000
 3026SOL    HW1 9977   1.191   1.128   5.984
 3026SOL    HW2 9978   1.037   1.113   5.932
 3027SOL     OW 9979   4.476   1.498   2.972
 3027SOL    HW1 9980   4.394   1.540   3.011
 3027SOL    HW2 9981   4.539   1.569   2.941
 3028SOL     OW 9982   1.584   3.614   5.852
 3028SOL    HW1 9983   1.623   3.557   5.780
 3028SOL    HW2 9984   1.573   3.560   5.935
 3029SOL     OW 9985   0.442   2.970   5.254
 3029SOL    HW1 9986   0.528   2.981   5.203
 3029SOL    HW2 9987   0.400   3.059   5.269
 3030SOL     OW 9988   0.488   3.405   0.464
 3030SOL    HW1 9989   0.570   3.415   0.521
 3030SOL    HW2 9990   0.515   3.384   0.370
 3031SOL     OW 9991   6.943   4.776   1.607
 3031SOL    HW1 9992   7.004   4.743   1.679
 3031SOL    HW2 9993   6.943   4.711   1.531
 3032SOL     OW 9994   2.368   6.686   1.602
 3032SOL    HW1 9995   2.413   6.690   1.513
 3032SOL    HW2 9996   2.435   6.707   1.673
 3033SOL     OW 9997   5.401   1.153   1.540
 3033SOL    HW1 9998   5.374   1.213   1.615
 3033SOL    HW2 9999   5.420   1.061   1.576
 3034SOL     OW10000   1.136   0.314   2.783
 3034SOL    HW110001   1.193   0.269   2.851
 3034SOL    HW210002   1.076   0.381   2.828
 3035SOL     OW10003   0.217   2.726   5.927
 3035SOL    HW110004   0.292   2.778   5.967
 3035SOL    HW210005   0.253   2.650   5.873
 3036SOL     OW10006   1.955   1.367   5.712
 3036SOL    HW110007   1.885   1.366   5.641
 3036SOL    HW210008   2.005   1.453   5.709
 3037SOL     OW10009   6.284   5.629   6.712
 3037SOL    HW110010   6.220   5.568   6.758
 3037SOL    HW210011   6.304   5.593   6.621
 3038SOL     OW10012   5.063   5.811   5.657
 3038SOL    HW110013   5.146   5.787   5.708
 3038SOL    HW210014   5.013   5.882   5.707
 3039SOL     OW10015   0.617   3.524   1.189
 3039SOL    HW110016   0.693   3.585   1.168
 3039SOL    HW210017   0.641   3.464   1.265
 3040SOL     OW10018   3.055   4.089   5.805
 3040SOL    HW110019   2.963   4.052   5.818
 3040SOL    HW210020   3.074   4.159   5.874
 3041SOL     OW10021   2.352   3.262   5.310
 3041SOL    HW110022   2.423   3.329   5.329
 3041SOL    HW210023   2.391   3.183   5.263
 3042SOL     OW10024   6.065   6.013   2.680
 3042SOL    HW110025   6.049   5.940   2.613
 3042SOL    HW210026   6.105   5.973   2.763
 3043SOL     OW10027   2.701   4.317   1.196
 3043SOL    HW110028   2.659   4.389   1.141
 3043SOL    HW210029   2.739   4.246   1.135
 3044SOL     OW10030   3.289   5.292   6.194
 3044SOL    HW110031   3.230   5.317   6.117
 3044SOL    HW210032   3.352   5.220   6.165
 3045SOL     OW10033   4.948   6.880   3.384
 3045SOL    HW110034   4.908   6.789   3.374
 3045SOL    HW210035   4.999   6.903   3.301
 3046SOL     OW10036   2.914   0.923   5.714
 3046SOL    HW110037   2.878   0.833   5.736
 3046SOL    HW210038   3.002   0.914   5.667
 3047SOL     OW10039   5.980   0.400   1.462
 3047SOL    HW110040   5.965   0.498   1.449
 3047SOL    HW210041   5.894   0.355   1.481
 3048SOL     OW10042   3.944   2.137   1.443
 3048SOL    HW110043   3.888   2.186   1.509
 3048SOL    HW210044   3.885   2.086   1.380
 3049SOL     OW10045   1.259   0.076   2.875
 3049SOL    HW110046   1.216   7.014   2.909
 3049SOL    HW210047   1.274   0.139   2.951
 3050SOL     OW10048   2.996   1.811   2.327
 3050SOL    HW110049   2.952   1.850   2.408
 3050SOL    HW210050   2.927   1.775   2.265
 3051SOL     OW10051   1.872   6.182   6.174
 3051SOL    HW110052   1.956   6.144   6.213
 3051SOL    HW210053   1.895   6.248   6.103
 3052SOL     OW10054   4.999   5.556   1.829
 3052SOL    HW110055   4.915   5.530   1.781
 3052SOL    HW210056   5.074   5.563   1.763
 3053SOL     OW10057   0.176   2.551   0.974
 3053SOL    HW110058   0.103   2.494   0.935
 3053SOL    HW210059   0.152   2.576   1.067
 3054SOL     OW10060   6.202   2.216   1.479
 3054SOL    HW110061   6.239   2.307   1.497
 3054SOL    HW210062   6.170   2.175   1.565
 3055SOL     OW10063   5.061   0.232   5.128
 3055SOL    HW110064   5.086   0.182   5.045
 3055SOL    HW210065   5.131   0.216   5.198
 3056SOL     OW10066   5.816   1.044   5.651
 3056SOL    HW110067   5.733   1.008   5.608
 3056SOL    HW210068   5.888   1.051   5.582
 3057SOL     OW10069   4.179   5.640   3.564
 3057SOL    HW110070   4.085   5.673   3.576
 3057SOL    HW210071   4.182   5.542   3.578
 3058SOL     OW10072   0.037   4.524   1.575
 3058SOL    HW110073   0.130   4.515   1.611
 3058SOL    HW210074   0.011   4.438   1.530
 3059SOL     OW10075   2.860   2.263   4.368
 3059SOL    HW110076   2.941   2.210   4.396
 3059SOL    HW210077   2.818   2.304   4.449
 3060SOL     OW10078   1.244   5.323   0.360
 3060SOL    HW110079   1.204   5.293   0.273
 3060SOL    HW210080   1.278   5.243   0.410
 3061SOL     OW10081   6.704   5.863   5.753
 3061SOL    HW110082   6.633   5.797   5.731
 3061SOL    HW210083   6.666   5.955   5.751
 3062SOL     OW10084   2.430   0.591   1.178
 3062SOL    HW110085   2.403   0.654   1.251
 3062SOL    HW210086   2.465   0.506   1.219
 3063SOL     OW10087   1.870   5.104   1.930
 3063SOL    HW110088   1.968   5.090   1.940
 3063SOL    HW210089   1.840   5.174   1.994
 3064SOL     OW10090   5.321   3.430   0.724
 3064SOL    HW110091   5.353   3.517   0.761
 3064SOL    HW210092   5.312   3.363   0.798
 3065SOL     OW10093   1.478   1.901   6.277
 3065SOL    HW110094   1.427   1.893   6.362
 3065SOL    HW210095   1.464   1.993   6.239
 3066SOL     OW10096   5.258   4.461   0.502
 3066SOL    HW110097   5.314   4.524   0.449
 3066SOL    HW210098   5.307   4.374   0.515
 3067SOL     OW10099   4.156   1.084   5.899
 3067SOL    HW110100   4.206   1.122   5.821
 3067SOL    HW210101   4.059   1.103   5.888
 3068SOL     OW10102   0.130   6.844   0.684
 3068SOL    HW110103   0.187   6.831   0.603
 3068SOL    HW210104   0.142   6.767   0.746
 3069SOL     OW10105   6.735   6.812   2.179
 3069SOL    HW110106   6.829   6.825   2.148
 3069SOL    HW210107   6.732   6.737   2.245
 3070SOL     OW10108   3.037   1.339   6.810
 3070SOL    HW110109   3.072   1.372   6.722
 3070SOL    HW210110   3.081   1.252   6.832
 3071SOL     OW10111   6.867   6.470   3.944
 3071SOL    HW110112   6.957   6.482   3.902
 3071SOL    HW210113   6.832   6.560   3.973
 3072SOL     OW10114   2.172   5.792   6.351
 3072SOL    HW110115   2.272   5.797   6.352
 3072SOL    HW210116   2.142   5.720   6.413
 3073SOL     OW10117   6.672   4.025   4.365
 3073SOL    HW110118   6.715   4.114   4.347
 3073SOL    HW210119   6.696   3.962   4.291
 3074SOL     OW10120   0.213   4.277   1.529
 3074SOL    HW110121   0.117   4.249   1.529
 3074SOL    HW210122   0.228   4.346   1.600
 3075SOL     OW10123   2.791   5.533   1.804
 3075SOL    HW110124   2.835   5.514   1.892
 3075SOL    HW210125   2.854   5.585   1.746
 3076SOL     OW10126   5.994   0.664   3.499
 3076SOL    HW110127   6.084   0.706   3.506
 3076SOL    HW210128   5.995   0.594   3.428
 3077SOL     OW10129   5.777   4.263   1.908
 3077SOL    HW110130   5.754   4.311   1.823
 3077SOL    HW210131   5.718   4.298   1.982
 3078SOL     OW10132   0.139   3.554   3.083
 3078SOL    HW110133   0.120   3.466   3.127
 3078SOL    HW210134   0.221   3.594   3.123
 3079SOL     OW10135   2.772   2.161   2.938
 3079SOL    HW110136   2.732   2.104   3.010
 3079SOL    HW210137   2.706   2.170   2.863
 3080SOL     OW10138   5.508   5.418   2.158
 3080SOL    HW110139   5.563   5.335   2.164
 3080SOL    HW210140   5.423   5.405   2.208
 3081SOL     OW10141   1.250   3.107   6.028
 3081SOL    HW110142   1.315   3.156   5.969
 3081SOL    HW210143   1.245   3.152   6.117
 3082SOL     OW10144   2.005   6.065   4.214
 3082SOL    HW110145   2.098   6.032   4.233
 3082SOL    HW210146   1.975   6.029   4.125
 3083SOL     OW10147   3.117   6.043   3.990
 3083SOL    HW110148   3.031   6.094   3.998
 3083SOL    HW210149   3.154   6.027   4.081
 3084SOL     OW10150   6.994   3.963   4.903
 3084SOL    HW110151   7.014   3.917   4.816
 3084SOL    HW210152   6.895   3.969   4.914
 3085SOL     OW10153   5.921   3.981   0.411
 3085SOL    HW110154   5.968   3.991   0.499
 3085SOL    HW210155   5.957   3.900   0.363
 3086SOL     OW10156   5.503   1.324   0.998
 3086SOL    HW110157   5.595   1.292   0.974
 3086SOL    HW210158   5.500   1.349   1.095
 3087SOL     OW10159   1.823   6.336   4.034
 3087SOL    HW110160   1.812   6.289   3.947
 3087SOL    HW210161   1.915   6.317   4.070
 3088SOL     OW10162   2.176   5.047   4.500
 3088SOL    HW110163   2.093   4.996   4.475
 3088SOL    HW210164   2.181   5.130   4.445
 3089SOL     OW10165   3.246   1.850   4.976
 3089SOL    HW110166   3.217   1.763   5.017
 3089SOL    HW210167   3.253   1.920   5.047
 3090SOL     OW10168   2.264   1.845   2.173
 3090SOL    HW110169   2.310   1.847   2.084
 3090SOL    HW210170   2.248   1.939   2.205
 3091SOL     OW10171   1.585   1.335   1.099
 3091SOL    HW110172   1.664   1.282   1.129
 3091SOL    HW210173   1.578   1.419   1.153
 3092SOL     OW10174   5.687   0.993   0.810
 3092SOL    HW110175   5.619   0.960   0.876
 3092SOL    HW210176   5.768   0.935   0.815
 3093SOL     OW10177   5.841   6.154   6.739
 3093SOL    HW110178   5.798   6.144   6.649
 3093SOL    HW210179   5.929   6.106   6.739
 3094SOL     OW10180   1.947   0.381   4.024
 3094SOL    HW110181   2.009   0.445   3.978
 3094SOL    HW210182   1.921   0.309   3.960
 3095SOL     OW10183   2.089   4.348   6.001
 3095SOL    HW110184   2.179   4.379   6.031
 3095SOL    HW210185   2.096   4.253   5.970
 3096SOL     OW10186   0.820   5.129   5.649
 3096SOL    HW110187   0.807   5.109   5.552
 3096SOL    HW210188   0.912   5.101   5.677
 3097SOL     OW10189   5.301   3.266   6.824
 3097SOL    HW110190   5.399   3.247   6.817
 3097SOL    HW210191   5.286   3.365   6.830
 3098SOL     OW10192   2.109   2.676   0.906
 3098SOL    HW110193   2.162   2.760   0.919
 3098SOL    HW210194   2.099   2.658   0.808
 3099SOL     OW10195   0.961   6.595   4.488
 3099SOL    HW110196   0.986   6.618   4.394
 3099SOL    HW210197   0.968   6.496   4.501
 3100SOL     OW10198   0.005   6.913   3.573
 3100SOL    HW110199   0.031   6.822   3.542
 3100SOL    HW210200   6.927   6.916   3.586
 3101SOL     OW10201   6.098   6.054   6.770
 3101SOL    HW110202   6.082   6.066   6.868
 3101SOL    HW210203   6.181   6.000   6.755
 3102SOL     OW10204   6.543   6.524   1.919
 3102SOL    HW110205   6.503   6.524   1.828
 3102SOL    HW210206   6.630   6.574   1.918
 3103SOL     OW10207   4.302   1.192   1.917
 3103SOL    HW110208   4.294   1.282   1.959
 3103SOL    HW210209   4.370   1.194   1.844
 3104SOL     OW10210   4.500   0.457   5.958
 3104SOL    HW110211   4.429   0.483   5.892
 3104SOL    HW210212   4.555   0.537   5.981
 3105SOL     OW10213   5.978   4.141   1.456
 3105SOL    HW110214   5.981   4.234   1.420
 3105SOL    HW210215   6.068   4.099   1.446
 3106SOL     OW10216   5.292   0.266   4.133
 3106SOL    HW110217   5.329   0.174   4.135
 3106SOL    HW210218   5.226   0.277   4.207
 3107SOL     OW10219   3.888   1.359   5.216
 3107SOL    HW110220   3.934   1.445   5.193
 3107SOL    HW210221   3.794   1.378   5.243
 3108SOL     OW10222   1.861   5.781   4.316
 3108SOL    HW110223   1.912   5.854   4.362
 3108SOL    HW210224   1.816   5.819   4.235
 3109SOL     OW10225   5.708   6.113   3.494
 3109SOL    HW110226   5.657   6.196   3.471
 3109SOL    HW210227   5.806   6.131   3.486
 3110SOL     OW10228   1.177   3.484   3.193
 3110SOL    HW110229   1.164   3.414   3.264
 3110SOL    HW210230   1.100   3.547   3.194
 3111SOL     OW10231   7.020   4.548   2.978
 3111SOL    HW110232   6.931   4.580   2.944
 3111SOL    HW210233   0.024   4.463   2.930
 3112SOL     OW10234   3.507   2.978   6.671
 3112SOL    HW110235   3.495   2.948   6.576
 3112SOL    HW210236   3.585   2.930   6.711
 3113SOL     OW10237   3.130   4.858   3.421
 3113SOL    HW110238   3.165   4.771   3.456
 3113SOL    HW210239   3.207   4.918   3.399
 3114SOL     OW10240   3.665   1.896   0.513
 3114SOL    HW110241   3.703   1.816   0.560
 3114SOL    HW210242   3.739   1.957   0.486
 3115SOL     OW10243   4.391   4.534   6.220
 3115SOL    HW110244   4.456   4.475   6.269
 3115SOL    HW210245   4.408   4.630   6.245
 3116SOL     OW10246   6.844   2.794   0.294
 3116SOL    HW110247   6.803   2.745   0.217
 3116SOL    HW210248   6.918   2.852   0.261
 3117SOL     OW10249   4.723   3.826   5.287
 3117SOL    HW110250   4.686   3.745   5.242
 3117SOL    HW210251   4.815   3.806   5.321
 3118SOL     OW10252   0.457   5.396   2.076
 3118SOL    HW110253   0.370   5.439   2.051
 3118SOL    HW210254   0.531   5.439   2.025
 3119SOL     OW10255   2.061   3.037   6.960
 3119SOL    HW110256   2.067   3.083   0.028
 3119SOL    HW210257   2.146   2.987   6.943
 3120SOL     OW10258   2.878   0.236   6.344
 3120SOL    HW110259   2.900   0.302   6.272
 3120SOL    HW210260   2.898   0.276   6.434
 3121SOL     OW10261   0.223   1.156   4.138
 3121SOL    HW110262   0.257   1.099   4.213
 3121SOL    HW210263   0.127   1.133   4.121
 3122SOL     OW10264   4.377   5.838   6.433
 3122SOL    HW110265   4.319   5.757   6.430
 3122SOL    HW210266   4.431   5.843   6.349
 3123SOL     OW10267   2.287   2.154   2.873
 3123SOL    HW110268   2.283   2.121   2.778
 3123SOL    HW210269   2.216   2.223   2.886
 3124SOL     OW10270   4.915   6.395   4.880
 3124SOL    HW110271   4.866   6.471   4.922
 3124SOL    HW210272   5.009   6.422   4.861
 3125SOL     OW10273   0.827   3.400   5.317
 3125SOL    HW110274   0.812   3.372   5.412
 3125SOL    HW210275   0.768   3.345   5.257
 3126SOL     OW10276   5.784   4.088   5.307
 3126SOL    HW110277   5.700   4.034   5.313
 3126SOL    HW210278   5.823   4.100   5.399
 3127SOL     OW10279   2.028   2.640   6.327
 3127SOL    HW110280   2.113   2.692   6.334
 3127SOL    HW210281   2.042   2.548   6.364
 3128SOL     OW10282   2.556   0.313   6.313
 3128SOL    HW110283   2.505   0.373   6.251
 3128SOL    HW210284   2.601   0.369   6.383
 3129SOL     OW10285   6.150   3.560   6.948
 3129SOL    HW110286   6.232   3.566   6.891
 3129SOL    HW210287   6.131   3.464   6.969
 3130SOL     OW10288   2.141   4.498   2.295
 3130SOL    HW110289   2.045   4.500   2.267
 3130SOL    HW210290   2.148   4.527   2.391
 3131SOL     OW10291   0.303   3.084   1.667
 3131SOL    HW110292   0.251   3.008   1.706
 3131SOL    HW210293   0.247   3.167   1.667
 3132SOL     OW10294   4.262   5.499   6.239
 3132SOL    HW110295   4.204   5.418   6.230
 3132SOL    HW210296   4.356   5.471   6.256
 3133SOL     OW10297   3.079   0.848   3.232
 3133SOL    HW110298   3.055   0.753   3.216
 3133SOL    HW210299   3.169   0.853   3.275
 3134SOL     OW10300   4.643   3.830   1.601
 3134SOL    HW110301   4.649   3.877   1.513
 3134SOL    HW210302   4.554   3.848   1.643
 3135SOL     OW10303   4.345   0.231   5.965
 3135SOL    HW110304   4.407   0.304   5.995
 3135SOL    HW210305   4.251   0.263   5.971
 3136SOL     OW10306   5.477   0.556   2.241
 3136SOL    HW110307   5.495   0.531   2.336
 3136SOL    HW210308   5.379   0.576   2.230
 3137SOL     OW10309   6.451   0.566   2.625
 3137SOL    HW110310   6.353   0.567   2.604
 3137SOL    HW210311   6.482   0.471   2.633
 3138SOL     OW10312   0.196   5.173   2.858
 3138SOL    HW110313   0.218   5.252   2.915
 3138SOL    HW210314   0.174   5.204   2.766
 3139SOL     OW10315   4.423   5.422   0.390
 3139SOL    HW110316   4.351   5.355   0.409
 3139SOL    HW210317   4.395   5.481   0.314
 3140SOL     OW10318   0.123   6.392   0.147
 3140SOL    HW110319   0.071   6.478   0.143
 3140SOL    HW210320   0.131   6.354   0.056
 3141SOL     OW10321   0.802   7.017   6.719
 3141SOL    HW110322   0.704   0.008   6.699
 3141SOL    HW210323   0.855   0.012   6.636
 3142SOL     OW10324   3.473   0.092   2.874
 3142SOL    HW110325   3.382   0.094   2.914
 3142SOL    HW210326   3.499   7.018   2.854
 3143SOL     OW10327   6.526   2.012   0.558
 3143SOL    HW110328   6.625   2.025   0.549
 3143SOL    HW210329   6.479   2.064   0.486
 3144SOL     OW10330   4.144   3.700   1.111
 3144SOL    HW110331   4.203   3.756   1.053
 3144SOL    HW210332   4.089   3.759   1.171
 3145SOL     OW10333   2.394   5.982   2.230
 3145SOL    HW110334   2.401   5.925   2.312
 3145SOL    HW210335   2.297   5.994   2.206
 3146SOL     OW10336   0.871   1.646   4.587
 3146SOL    HW110337   0.962   1.653   4.545
 3146SOL    HW210338   0.813   1.587   4.531
 3147SOL     OW10339   3.026   5.720   0.830
 3147SOL    HW110340   3.069   5.757   0.913
 3147SOL    HW210341   3.077   5.640   0.799
 3148SOL     OW10342   6.475   0.093   3.756
 3148SOL    HW110343   6.412   0.076   3.680
 3148SOL    HW210344   6.499   0.006   3.800
 3149SOL     OW10345   3.593   0.324   5.779
 3149SOL    HW110346   3.617   0.421   5.770
 3149SOL    HW210347   3.498   0.316   5.807
 3150SOL     OW10348   6.682   5.577   5.126
 3150SOL    HW110349   6.623   5.503   5.157
 3150SOL    HW210350   6.666   5.659   5.182
 3151SOL     OW10351   0.142   0.727   4.556
 3151SOL    HW110352   0.161   0.759   4.648
 3151SOL    HW210353   0.228   0.714   4.507
 3152SOL     OW10354   0.794   5.586   1.309
 3152SOL    HW110355   0.729   5.510   1.303
 3152SOL    HW210356   0.798   5.621   1.402
 3153SOL     OW10357   6.285   5.354   0.909
 3153SOL    HW110358   6.315   5.284   0.973
 3153SOL    HW210359   6.335   5.344   0.823
 3154SOL     OW10360   0.470   1.453   6.323
 3154SOL    HW110361   0.394   1.438   6.385
 3154SOL    HW210362   0.551   1.480   6.375
 3155SOL     OW10363   6.405   4.134   0.383
 3155SOL    HW110364   6.451   4.181   0.308
 3155SOL    HW210365   6.344   4.198   0.430
 3156SOL     OW10366   3.434   2.989   2.640
 3156SOL    HW110367   3.396   3.024   2.725
 3156SOL    HW210368   3.532   2.969   2.652
 3157SOL     OW10369   2.599   1.420   4.896
 3157SOL    HW110370   2.589   1.514   4.930
 3157SOL    HW210371   2.696   1.401   4.879
 3158SOL     OW10372   3.324   1.385   3.566
 3158SOL    HW110373   3.250   1.336   3.611
 3158SOL    HW210374   3.336   1.475   3.609
 3159SOL     OW10375   6.152   0.823   0.170
 3159SOL    HW110376   6.101   0.908   0.180
 3159SOL    HW210377   6.103   0.749   0.217
 3160SOL     OW10378   0.572   6.147   5.646
 3160SOL    HW110379   0.542   6.057   5.616
 3160SOL    HW210380   0.664   6.141   5.685
 3161SOL     OW10381   2.335   2.764   2.930
 3161SOL    HW110382   2.268   2.828   2.894
 3161SOL    HW210383   2.290   2.677   2.952
 3162SOL     OW10384   1.160   5.830   1.629
 3162SOL    HW110385   1.115   5.916   1.607
 3162SOL    HW210386   1.092   5.765   1.665
 3163SOL     OW10387   4.569   3.211   6.521
 3163SOL    HW110388   4.597   3.239   6.429
 3163SOL    HW210389   4.531   3.118   6.516
 3164SOL     OW10390   4.051   5.944   1.247
 3164SOL    HW110391   3.965   5.968   1.292
 3164SOL    HW210392   4.031   5.905   1.157
 3165SOL     OW10393   1.217   0.060   0.932
 3165SOL    HW110394   1.132   0.044   0.982
 3165SOL    HW210395   1.221   0.000   0.852
 3166SOL     OW10396   4.025   1.715   4.145
 3166SOL    HW110397   4.023   1.682   4.240
 3166SOL    HW210398   3.969   1.655   4.088
 3167SOL     OW10399   6.522   4.571   0.693
 3167SOL    HW110400   6.618   4.562   0.668
 3167SOL    HW210401   6.509   4.653   0.748
 3168SOL     OW10402   4.960   3.096   0.543
 3168SOL    HW110403   4.970   3.194   0.529
 3168SOL    HW210404   4.960   3.049   0.455
 3169SOL     OW10405   1.570   4.288   4.287
 3169SOL    HW110406   1.559   4.266   4.190
 3169SOL    HW210407   1.537   4.381   4.304
 3170SOL     OW10408   4.405   6.055   1.507
 3170SOL    HW110409   4.464   6.003   1.445
 3170SOL    HW210410   4.423   6.153   1.494
 3171SOL     OW10411   0.198   1.104   2.699
 3171SOL    HW110412   0.183   1.195   2.738
 3171SOL    HW210413   0.125   1.042   2.728
 3172SOL     OW10414   0.119   5.794   0.573
 3172SOL    HW110415   0.149   5.707   0.534
 3172SOL    HW210416   0.199   5.845   0.606
 3173SOL     OW10417   3.173   2.098   0.513
 3173SOL    HW110418   3.161   2.196   0.529
 3173SOL    HW210419   3.264   2.080   0.475
 3174SOL     OW10420   3.158   2.372   0.514
 3174SOL    HW110421   3.152   2.397   0.611
 3174SOL    HW210422   3.221   2.434   0.468
 3175SOL     OW10423   6.419   0.540   1.522
 3175SOL    HW110424   6.425   0.638   1.540
 3175SOL    HW210425   6.411   0.491   1.609
 3176SOL     OW10426   1.594   3.983   6.063
 3176SOL    HW110427   1.544   3.897   6.075
 3176SOL    HW210428   1.691   3.963   6.047
 3177SOL     OW10429   4.882   4.004   3.924
 3177SOL    HW110430   4.959   4.023   3.985
 3177SOL    HW210431   4.867   3.906   3.918
 3178SOL     OW10432   6.262   2.349   0.502
 3178SOL    HW110433   6.215   2.310   0.581
 3178SOL    HW210434   6.332   2.285   0.471
 3179SOL     OW10435   0.946   3.001   2.521
 3179SOL    HW110436   0.901   3.091   2.516
 3179SOL    HW210437   0.975   2.974   2.429
 3180SOL     OW10438   5.516   0.733   6.778
 3180SOL    HW110439   5.529   0.637   6.805
 3180SOL    HW210440   5.439   0.739   6.714
 3181SOL     OW10441   0.115   2.267   3.080
 3181SOL    HW110442   0.110   2.203   3.004
 3181SOL    HW210443   0.036   2.329   3.077
 3182SOL     OW10444   2.665   0.432   6.559
 3182SOL    HW110445   2.684   0.522   6.600
 3182SOL    HW210446   2.719   0.362   6.605
 3183SOL     OW10447   5.227   3.969   2.084
 3183SOL    HW110448   5.168   4.003   2.011
 3183SOL    HW210449   5.177   3.973   2.171
 3184SOL     OW10450   1.002   3.524   2.904
 3184SOL    HW110451   1.088   3.475   2.900
 3184SOL    HW210452   0.951   3.496   2.986
 3185SOL     OW10453   5.350   5.715   6.658
 3185SOL    HW110454   5.360   5.812   6.681
 3185SOL    HW210455   5.256   5.687   6.674
 3186SOL     OW10456   3.703   2.047   1.345
 3186SOL    HW110457   3.612   2.071   1.380
 3186SOL    HW210458   3.704   1.951   1.319
 3187SOL     OW10459   4.665   4.514   0.825
 3187SOL    HW110460   4.606   4.513   0.906
 3187SOL    HW210461   4.610   4.530   0.743
 3188SOL     OW10462   1.588   0.293   4.184
 3188SOL    HW110463   1.601   0.284   4.086
 3188SOL    HW210464   1.677   0.297   4.230
 3189SOL     OW10465   1.711   1.557   1.445
 3189SOL    HW110466   1.663   1.557   1.357
 3189SOL    HW210467   1.674   1.484   1.502
 3190SOL     OW10468   0.482   5.614   0.294
 3190SOL    HW110469   0.426   5.532   0.296
 3190SOL    HW210470   0.572   5.592   0.256
 3191SOL     OW10471   4.944   5.649   0.938
 3191SOL    HW110472   4.877   5.577   0.920
 3191SOL    HW210473   4.979   5.638   1.031
 3192SOL     OW10474   0.483   2.790   1.833
 3192SOL    HW110475   0.461   2.852   1.908
 3192SOL    HW210476   0.501   2.699   1.869
 3193SOL     OW10477   3.810   1.012   6.973
 3193SOL    HW110478   3.716   1.044   6.967
 3193SOL    HW210479   3.872   1.090   6.982
 3194SOL     OW10480   1.601   2.236   6.513
 3194SOL    HW110481   1.566   2.144   6.531
 3194SOL    HW210482   1.692   2.230   6.473
 3195SOL     OW10483   3.331   1.073   3.389
 3195SOL    HW110484   3.426   1.103   3.397
 3195SOL    HW210485   3.307   1.063   3.293
 3196SOL     OW10486   0.561   0.486   6.216
 3196SOL    HW110487   0.472   0.487   6.263
 3196SOL    HW210488   0.577   0.576   6.174
 3197SOL     OW10489   2.767   6.518   3.761
 3197SOL    HW110490   2.673   6.552   3.759
 3197SOL    HW210491   2.813   6.544   3.676
 3198SOL     OW10492   6.111   2.728   4.645
 3198SOL    HW110493   6.075   2.662   4.579
 3198SOL    HW210494   6.037   2.762   4.702
 3199SOL     OW10495   5.065   3.991   2.377
 3199SOL    HW110496   5.154   4.024   2.407
 3199SOL    HW210497   5.000   4.068   2.376
 3200SOL     OW10498   6.414   3.107   2.177
 3200SOL    HW110499   6.461   3.027   2.214
 3200SOL    HW210500   6.364   3.081   2.095
 3201SOL     OW10501   5.976   4.922   4.367
 3201SOL    HW110502   5.987   4.978   4.449
 3201SOL    HW210503   5.888   4.874   4.370
 3202SOL     OW10504   0.663   4.624   2.008
 3202SOL    HW110505   0.717   4.582   1.935
 3202SOL    HW210506   0.702   4.598   2.096
 3203SOL     OW10507   6.459   2.204   0.369
 3203SOL    HW110508   6.374   2.164   0.334
 3203SOL    HW210509   6.529   2.200   0.297
 3204SOL     OW10510   4.330   6.385   3.223
 3204SOL    HW110511   4.284   6.435   3.150
 3204SOL    HW210512   4.273   6.307   3.251
 3205SOL     OW10513   6.455   2.583   6.197
 3205SOL    HW110514   6.363   2.612   6.226
 3205SOL    HW210515   6.507   2.554   6.277
 3206SOL     OW10516   1.624   5.217   6.589
 3206SOL    HW110517   1.690   5.225   6.514
 3206SOL    HW210518   1.532   5.220   6.552
 3207SOL     OW10519   0.861   0.689   6.100
 3207SOL    HW110520   0.763   0.682   6.078
 3207SOL    HW210521   0.888   0.609   6.154
 3208SOL     OW10522   4.544   5.620   5.837
 3208SOL    HW110523   4.637   5.650   5.856
 3208SOL    HW210524   4.484   5.700   5.832
 3209SOL     OW10525   4.391   5.687   3.422
 3209SOL    HW110526   4.310   5.658   3.472
 3209SOL    HW210527   4.364   5.746   3.346
 3210SOL     OW10528   1.038   4.754   1.500
 3210SOL    HW110529   1.108   4.791   1.561
 3210SOL    HW210530   0.947   4.781   1.532
 3211SOL     OW10531   1.944   3.569   0.915
 3211SOL    HW110532   1.888   3.568   0.998
 3211SOL    HW210533   1.907   3.635   0.850
 3212SOL     OW10534   2.950   0.360   1.067
 3212SOL    HW110535   2.915   0.423   1.136
 3212SOL    HW210536   2.877   0.298   1.038
 3213SOL     OW10537   1.058   6.388   1.200
 3213SOL    HW110538   1.145   6.417   1.160
 3213SOL    HW210539   1.027   6.303   1.158
 3214SOL     OW10540   4.487   5.016   0.543
 3214SOL    HW110541   4.509   5.103   0.499
 3214SOL    HW210542   4.488   5.028   0.643
 3215SOL     OW10543   6.857   2.812   1.325
 3215SOL    HW110544   6.850   2.887   1.391
 3215SOL    HW210545   6.783   2.747   1.340
 3216SOL     OW10546   6.393   5.134   0.313
 3216SOL    HW110547   6.349   5.173   0.394
 3216SOL    HW210548   6.328   5.076   0.263
 3217SOL     OW10549   6.865   5.585   2.434
 3217SOL    HW110550   6.881   5.577   2.335
 3217SOL    HW210551   6.951   5.569   2.482
 3218SOL     OW10552   4.306   1.992   3.485
 3218SOL    HW110553   4.386   2.047   3.460
 3218SOL    HW210554   4.245   1.986   3.406
 3219SOL     OW10555   0.085   2.450   3.430
 3219SOL    HW110556   0.163   2.421   3.374
 3219SOL    HW210557   0.116   2.465   3.524
 3220SOL     OW10558   6.767   5.425   6.476
 3220SOL    HW110559   6.733   5.497   6.415
 3220SOL    HW210560   6.701   5.410   6.550
 3221SOL     OW10561   3.816   0.829   1.695
 3221SOL    HW110562   3.738   0.805   1.638
 3221SOL    HW210563   3.787   0.841   1.790
 3222SOL     OW10564   3.433   1.655   2.344
 3222SOL    HW110565   3.388   1.605   2.418
 3222SOL    HW210566   3.368   1.672   2.270
 3223SOL     OW10567   2.025   6.913   6.404
 3223SOL    HW110568   1.926   6.924   6.397
 3223SOL    HW210569   2.050   6.821   6.373
 3224SOL     OW10570   4.058   3.856   6.281
 3224SOL    HW110571   4.102   3.766   6.290
 3224SOL    HW210572   4.102   3.907   6.207
 3225SOL     OW10573   5.109   2.743   6.711
 3225SOL    HW110574   5.165   2.766   6.631
 3225SOL    HW210575   5.169   2.715   6.786
 3226SOL     OW10576   2.243   1.366   3.258
 3226SOL    HW110577   2.171   1.432   3.282
 3226SOL    HW210578   2.248   1.295   3.328
 3227SOL     OW10579   3.194   2.590   0.011
 3227SOL    HW110580   3.128   2.528   6.990
 3227SOL    HW210581   3.235   2.546   0.091
 3228SOL     OW10582   6.984   4.211   2.622
 3228SOL    HW110583   6.982   4.229   2.524
 3228SOL    HW210584   6.896   4.237   2.662
 3229SOL     OW10585   4.314   0.112   4.512
 3229SOL    HW110586   4.286   0.029   4.561
 3229SOL    HW210587   4.268   0.115   4.423
 3230SOL     OW10588   1.888   3.612   5.291
 3230SOL    HW110589   1.988   3.604   5.290
 3230SOL    HW210590   1.847   3.521   5.286
 3231SOL     OW10591   2.909   1.257   1.341
 3231SOL    HW110592   2.865   1.331   1.393
 3231SOL    HW210593   3.008   1.264   1.351
 3232SOL     OW10594   4.689   5.799   4.969
 3232SOL    HW110595   4.689   5.794   5.068
 3232SOL    HW210596   4.599   5.829   4.937
 3233SOL     OW10597   1.058   2.958   1.510
 3233SOL    HW110598   0.970   2.951   1.556
 3233SOL    HW210599   1.053   2.913   1.421
 3234SOL     OW10600   0.101   1.822   0.061
 3234SOL    HW110601   0.151   1.853   7.001
 3234SOL    HW210602   0.009   1.861   0.060
 3235SOL     OW10603   5.797   0.821   2.035
 3235SOL    HW110604   5.742   0.742   2.007
 3235SOL    HW210605   5.781   0.838   2.132
 3236SOL     OW10606   1.935   3.333   0.281
 3236SOL    HW110607   1.849   3.381   0.263
 3236SOL    HW210608   1.983   3.379   0.356
 3237SOL     OW10609   5.019   1.412   3.993
 3237SOL    HW110610   5.100   1.418   4.051
 3237SOL    HW210611   5.044   1.368   3.906
 3238SOL     OW10612   6.802   5.539   0.883
 3238SOL    HW110613   6.832   5.571   0.793
 3238SOL    HW210614   6.709   5.502   0.876
 3239SOL     OW10615   7.018   1.584   1.908
 3239SOL    HW110616   6.985   1.552   1.819
 3239SOL    HW210617   7.000   1.515   1.977
 3240SOL     OW10618   6.955   6.901   6.550
 3240SOL    HW110619   6.931   6.959   6.628
 3240SOL    HW210620   6.983   6.959   6.473
 3241SOL     OW10621   4.293   1.781   5.322
 3241SOL    HW110622   4.246   1.701   5.361
 3241SOL    HW210623   4.248   1.808   5.237
 3242SOL     OW10624   3.945   4.162   6.844
 3242SOL    HW110625   3.887   4.225   6.792
 3242SOL    HW210626   3.888   4.100   6.898
 3243SOL     OW10627   4.364   4.225   0.743
 3243SOL    HW110628   4.277   4.254   0.784
 3243SOL    HW210629   4.346   4.162   0.667
 3244SOL     OW10630   4.807   5.353   0.124
 3244SOL    HW110631   4.765   5.267   0.155
 3244SOL    HW210632   4.851   5.338   0.035
 3245SOL     OW10633   5.351   3.063   4.948
 3245SOL    HW110634   5.328   2.969   4.975
 3245SOL    HW210635   5.266   3.113   4.927
 3246SOL     OW10636   5.539   0.115   2.357
 3246SOL    HW110637   5.629   0.155   2.343
 3246SOL    HW210638   5.469   0.184   2.337
 3247SOL     OW10639   5.652   4.988   2.631
 3247SOL    HW110640   5.572   4.964   2.576
 3247SOL    HW210641   5.634   5.073   2.681
 3248SOL     OW10642   6.234   3.662   0.989
 3248SOL    HW110643   6.303   3.608   0.941
 3248SOL    HW210644   6.241   3.643   1.087
 3249SOL     OW10645   4.022   3.240   4.332
 3249SOL    HW110646   3.926   3.267   4.328
 3249SOL    HW210647   4.047   3.219   4.427
 3250SOL     OW10648   5.394   6.554   1.999
 3250SOL    HW110649   5.403   6.641   1.950
 3250SOL    HW210650   5.337   6.567   2.080
 3251SOL     OW10651   3.240   0.616   3.561
 3251SOL    HW110652   3.268   0.675   3.486
 3251SOL    HW210653   3.254   0.520   3.536
 3252SOL     OW10654   2.310   1.476   3.008
 3252SOL    HW110655   2.305   1.428   3.096
 3252SOL    HW210656   2.219   1.481   2.968
 3253SOL     OW10657   4.981   4.302   1.951
 3253SOL    HW110658   4.941   4.239   2.018
 3253SOL    HW210659   5.041   4.252   1.890
 3254SOL     OW10660   4.731   5.825   5.269
 3254SOL    HW110661   4.735   5.917   5.309
 3254SOL    HW210662   4.824   5.789   5.261
 3255SOL     OW10663   5.728   5.818   0.183
 3255SOL    HW110664   5.654   5.871   0.223
 3255SOL    HW210665   5.772   5.872   0.111
 3256SOL     OW10666   3.117   1.278   0.697
 3256SOL    HW110667   3.075   1.362   0.662
 3256SOL    HW210668   3.205   1.300   0.739
 3257SOL     OW10669   1.661   1.888   2.044
 3257SOL    HW110670   1.717   1.807   2.028
 3257SOL    HW210671   1.670   1.917   2.139
 3258SOL     OW10672   4.268   4.645   1.920
 3258SOL    HW110673   4.298   4.681   2.009
 3258SOL    HW210674   4.171   4.624   1.923
 3259SOL     OW10675   4.880   5.435   4.177
 3259SOL    HW110676   4.788   5.455   4.141
 3259SOL    HW210677   4.886   5.467   4.272
 3260SOL     OW10678   1.719   2.297   0.914
 3260SOL    HW110679   1.751   2.384   0.877
 3260SOL    HW210680   1.797   2.236   0.926
 3261SOL     OW10681   5.909   0.418   0.912
 3261SOL    HW110682   5.824   0.464   0.936
 3261SOL    HW210683   5.915   0.408   0.813
 3262SOL     OW10684   3.166   1.827   2.861
 3262SOL    HW110685   3.140   1.793   2.771
 3262SOL    HW210686   3.230   1.764   2.904
 3263SOL     OW10687   2.473   0.739   3.489
 3263SOL    HW110688   2.380   0.774   3.482
 3263SOL    HW210689   2.476   0.664   3.555
 3264SOL     OW10690   1.495   4.260   1.063
 3264SOL    HW110691   1.455   4.189   1.121
 3264SOL    HW210692   1.433   4.338   1.057
 3265SOL     OW10693   5.695   0.534   6.461
 3265SOL    HW110694   5.791   0.522   6.435
 3265SOL    HW210695   5.689   0.598   6.537
 3266SOL     OW10696   1.895   4.121   0.893
 3266SOL    HW110697   1.961   4.193   0.915
 3266SOL    HW210698   1.898   4.103   0.795
 3267SOL     OW10699   3.665   6.970   0.545
 3267SOL    HW110700   3.610   6.913   0.484
 3267SOL    HW210701   3.615   6.984   0.631
 3268SOL     OW10702   1.306   3.417   1.086
 3268SOL    HW110703   1.282   3.451   0.995
 3268SOL    HW210704   1.224   3.387   1.134
 3269SOL     OW10705   4.700   5.872   2.418
 3269SOL    HW110706   4.674   5.796   2.358
 3269SOL    HW210707   4.786   5.849   2.464
 3270SOL     OW10708   1.055   4.384   6.390
 3270SOL    HW110709   1.098   4.313   6.446
 3270SOL    HW210710   1.076   4.474   6.428
 3271SOL     OW10711   5.773   3.880   2.783
 3271SOL    HW110712   5.766   3.866   2.685
 3271SOL    HW210713   5.790   3.792   2.828
 3272SOL     OW10714   3.465   4.780   6.169
 3272SOL    HW110715   3.536   4.729   6.218
 3272SOL    HW210716   3.461   4.749   6.074
 3273SOL     OW10717   1.055   6.485   0.780
 3273SOL    HW110718   1.009   6.562   0.736
 3273SOL    HW210719   0.988   6.414   0.801
 3274SOL     OW10720   4.852   0.489   1.100
 3274SOL    HW110721   4.840   0.455   1.193
 3274SOL    HW210722   4.802   0.575   1.089
 3275SOL     OW10723   6.611   1.683   6.349
 3275SOL    HW110724   6.522   1.654   6.384
 3275SOL    HW210725   6.599   1.726   6.260
 3276SOL     OW10726   2.333   5.797   0.349
 3276SOL    HW110727   2.267   5.727   0.377
 3276SOL    HW210728   2.419   5.754   0.322
 3277SOL     OW10729   3.972   6.582   6.837
 3277SOL    HW110730   3.911   6.508   6.809
 3277SOL    HW210731   4.036   6.548   6.907
 3278SOL     OW10732   0.940   1.241   5.482
 3278SOL    HW110733   0.899   1.301   5.551
 3278SOL    HW210734   0.955   1.293   5.398
 3279SOL     OW10735   5.584   0.487   6.828
 3279SOL    HW110736   5.521   0.442   6.764
 3279SOL    HW210737   5.669   0.435   6.833
 3280SOL     OW10738   4.026   4.943   4.549
 3280SOL    HW110739   3.960   5.014   4.526
 3280SOL    HW210740   3.995   4.892   4.629
 3281SOL     OW10741   2.125   5.664   2.011
 3281SOL    HW110742   2.137   5.567   1.991
 3281SOL    HW210743   2.166   5.718   1.938
 3282SOL     OW10744   0.148   4.510   5.398
 3282SOL    HW110745   0.079   4.447   5.435
 3282SOL    HW210746   0.112   4.603   5.399
 3283SOL     OW10747   3.958   0.911   0.839
 3283SOL    HW110748   3.929   0.924   0.744
 3283SOL    HW210749   4.042   0.963   0.855
 3284SOL     OW10750   0.085   5.157   0.189
 3284SOL    HW110751   0.125   5.245   0.163
 3284SOL    HW210752   0.071   5.155   0.288
 3285SOL     OW10753   4.830   2.709   3.364
 3285SOL    HW110754   4.758   2.738   3.302
 3285SOL    HW210755   4.907   2.673   3.312
 3286SOL     OW10756   3.719   3.275   2.766
 3286SOL    HW110757   3.777   3.207   2.811
 3286SOL    HW210758   3.772   3.323   2.697
 3287SOL     OW10759   0.450   0.523   6.832
 3287SOL    HW110760   0.372   0.570   6.790
 3287SOL    HW210761   0.486   0.579   6.906
 3288SOL     OW10762   0.562   5.356   6.150
 3288SOL    HW110763   0.656   5.338   6.121
 3288SOL    HW210764   0.550   5.323   6.244
 3289SOL     OW10765   2.705   6.661   6.083
 3289SOL    HW110766   2.691   6.759   6.074
 3289SOL    HW210767   2.745   6.641   6.172
 3290SOL     OW10768   0.611   0.003   1.902
 3290SOL    HW110769   0.680   0.007   1.830
 3290SOL    HW210770   0.621   0.082   1.962
 3291SOL     OW10771   1.879   6.996   0.848
 3291SOL    HW110772   1.902   0.072   0.849
 3291SOL    HW210773   1.938   6.949   0.781
 3292SOL     OW10774   0.669   0.917   0.887
 3292SOL    HW110775   0.712   0.855   0.953
 3292SOL    HW210776   0.691   1.011   0.911
 3293SOL     OW10777   0.306   3.387   2.253
 3293SOL    HW110778   0.223   3.331   2.258
 3293SOL    HW210779   0.330   3.403   2.158
 3294SOL     OW10780   6.368   1.614   6.919
 3294SOL    HW110781   6.421   1.580   6.842
 3294SOL    HW210782   6.424   1.612   7.002
 3295SOL     OW10783   1.607   3.058   2.308
 3295SOL    HW110784   1.682   3.034   2.369
 3295SOL    HW210785   1.531   3.094   2.362
 3296SOL     OW10786   1.686   6.961   2.166
 3296SOL    HW110787   1.736   7.010   2.237
 3296SOL    HW210788   1.701   6.862   2.176
 3297SOL     OW10789   2.626   0.652   4.463
 3297SOL    HW110790   2.538   0.647   4.417
 3297SOL    HW210791   2.677   0.731   4.428
 3298SOL     OW10792   5.655   1.577   4.928
 3298SOL    HW110793   5.752   1.595   4.946
 3298SOL    HW210794   5.608   1.556   5.013
 3299SOL     OW10795   2.786   5.344   3.268
 3299SOL    HW110796   2.691   5.320   3.246
 3299SOL    HW210797   2.828   5.270   3.321
 3300SOL     OW10798   6.601   0.683   5.374
 3300SOL    HW110799   6.527   0.644   5.428
 3300SOL    HW210800   6.573   0.772   5.338
 3301SOL     OW10801   1.853   3.170   3.464
 3301SOL    HW110802   1.846   3.245   3.530
 3301SOL    HW210803   1.770   3.115   3.467
 3302SOL     OW10804   6.815   4.619   5.486
 3302SOL    HW110805   6.846   4.550   5.552
 3302SOL    HW210806   6.750   4.680   5.531
 3303SOL     OW10807   3.411   3.510   1.441
 3303SOL    HW110808   3.328   3.466   1.406
 3303SOL    HW210809   3.459   3.446   1.501
 3304SOL     OW10810   0.601   6.137   4.068
 3304SOL    HW110811   0.675   6.192   4.107
 3304SOL    HW210812   0.589   6.053   4.123
 3305SOL     OW10813   2.067   1.505   2.870
 3305SOL    HW110814   1.990   1.518   2.932
 3305SOL    HW210815   2.054   1.421   2.818
 3306SOL     OW10816   1.691   5.392   5.171
 3306SOL    HW110817   1.635   5.431   5.098
 3306SOL    HW210818   1.633   5.355   5.243
 3307SOL     OW10819   0.048   5.621   0.028
 3307SOL    HW110820   6.973   5.615   7.020
 3307SOL    HW210821   0.082   5.713   0.010
 3308SOL     OW10822   3.014   6.499   0.385
 3308SOL    HW110823   3.062   6.420   0.423
 3308SOL    HW210824   2.919   6.499   0.416
 3309SOL     OW10825   6.899   6.282   2.725
 3309SOL    HW110826   6.962   6.289   2.648
 3309SOL    HW210827   6.944   6.236   2.801
 3310SOL     OW10828   0.230   3.088   6.130
 3310SOL    HW110829   0.324   3.085   6.097
 3310SOL    HW210830   0.170   3.043   6.063
 3311SOL     OW10831   2.124   4.397   1.685
 3311SOL    HW110832   2.103   4.407   1.588
 3311SOL    HW210833   2.222   4.408   1.700
 3312SOL     OW10834   4.331   4.263   5.915
 3312SOL    HW110835   4.410   4.316   5.944
 3312SOL    HW210836   4.247   4.307   5.947
 3313SOL     OW10837   0.609   5.415   3.355
 3313SOL    HW110838   0.697   5.412   3.307
 3313SOL    HW210839   0.615   5.361   3.439
 3314SOL     OW10840   2.944   1.280   3.417
 3314SOL    HW110841   2.958   1.379   3.408
 3314SOL    HW210842   2.898   1.245   3.336
 3315SOL     OW10843   6.700   3.483   5.123
 3315SOL    HW110844   6.604   3.469   5.146
 3315SOL    HW210845   6.710   3.566   5.069
 3316SOL     OW10846   5.111   1.321   6.241
 3316SOL    HW110847   5.136   1.240   6.294
 3316SOL    HW210848   5.167   1.399   6.269
 3317SOL     OW10849   4.395   3.136   1.728
 3317SOL    HW110850   4.319   3.071   1.731
 3317SOL    HW210851   4.475   3.096   1.773
 3318SOL     OW10852   2.519   1.236   1.100
 3318SOL    HW110853   2.564   1.303   1.041
 3318SOL    HW210854   2.553   1.144   1.078
 3319SOL     OW10855   6.681   1.115   3.715
 3319SOL    HW110856   6.605   1.178   3.700
 3319SOL    HW210857   6.767   1.161   3.695
 3320SOL     OW10858   5.680   6.880   4.901
 3320SOL    HW110859   5.719   6.804   4.952
 3320SOL    HW210860   5.684   6.963   4.956
 3321SOL     OW10861   4.668   1.740   0.362
 3321SOL    HW110862   4.602   1.677   0.321
 3321SOL    HW210863   4.706   1.799   0.291
 3322SOL     OW10864   5.561   3.181   0.772
 3322SOL    HW110865   5.563   3.253   0.703
 3322SOL    HW210866   5.558   3.092   0.728
 3323SOL     OW10867   2.891   2.976   0.557
 3323SOL    HW110868   2.902   3.053   0.619
 3323SOL    HW210869   2.821   2.914   0.593
 3324SOL     OW10870   3.122   5.619   0.110
 3324SOL    HW110871   3.114   5.605   0.209
 3324SOL    HW210872   3.212   5.657   0.089
 3325SOL     OW10873   1.384   3.114   6.924
 3325SOL    HW110874   1.361   3.046   6.994
 3325SOL    HW210875   1.380   3.206   6.964
 3326SOL     OW10876   5.111   2.212   1.906
 3326SOL    HW110877   5.117   2.122   1.948
 3326SOL    HW210878   5.204   2.248   1.891
 3327SOL     OW10879   2.815   6.279   1.934
 3327SOL    HW110880   2.812   6.331   1.849
 3327SOL    HW210881   2.728   6.233   1.949
 3328SOL     OW10882   4.093   1.478   0.722
 3328SOL    HW110883   4.145   1.450   0.641
 3328SOL    HW210884   4.044   1.399   0.759
 3329SOL     OW10885   4.887   6.879   4.243
 3329SOL    HW110886   4.952   6.871   4.168
 3329SOL    HW210887   4.936   6.902   4.327
 3330SOL     OW10888   6.385   4.540   1.747
 3330SOL    HW110889   6.396   4.552   1.649
 3330SOL    HW210890   6.291   4.514   1.768
 3331SOL     OW10891   1.933   3.217   0.984
 3331SOL    HW110892   1.939   3.299   1.042
 3331SOL    HW210893   2.025   3.180   0.969
 3332SOL     OW10894   6.448   4.734   0.152
 3332SOL    HW110895   6.446   4.830   0.123
 3332SOL    HW210896   6.543   4.703   0.158
 3333SOL     OW10897   3.587   4.093   0.045
 3333SOL    HW110898   3.525   4.169   0.028
 3333SOL    HW210899   3.680   4.127   0.059
 3334SOL     OW10900   2.837   3.888   1.134
 3334SOL    HW110901   2.895   3.864   1.212
 3334SOL    HW210902   2.855   3.825   1.058
 3335SOL     OW10903   4.816   6.570   5.409
 3335SOL    HW110904   4.811   6.481   5.363
 3335SOL    HW210905   4.758   6.569   5.490
 3336SOL     OW10906   1.696   6.433   4.639
 3336SOL    HW110907   1.754   6.359   4.674
 3336SOL    HW210908   1.606   6.397   4.616
 3337SOL     OW10909   2.937   3.832   2.377
 3337SOL    HW110910   2.976   3.763   2.438
 3337SOL    HW210911   2.939   3.921   2.422
 3338SOL     OW10912   5.765   3.313   2.395
 3338SOL    HW110913   5.863   3.331   2.385
 3338SOL    HW210914   5.751   3.247   2.469
 3339SOL     OW10915   0.330   0.096   6.535
 3339SOL    HW110916   0.406   0.113   6.597
 3339SOL    HW210917   0.326   7.020   6.512
 3340SOL     OW10918   4.069   1.739   2.768
 3340SOL    HW110919   3.971   1.736   2.785
 3340SOL    HW210920   4.113   1.797   2.836
 3341SOL     OW10921   0.898   5.634   3.240
 3341SOL    HW110922   0.938   5.623   3.331
 3341SOL    HW210923   0.876   5.544   3.202
 3342SOL     OW10924   1.808   6.611   4.036
 3342SOL    HW110925   1.818   6.512   4.028
 3342SOL    HW210926   1.885   6.657   3.991
 3343SOL     OW10927   5.482   3.492   6.896
 3343SOL    HW110928   5.508   3.413   6.951
 3343SOL    HW210929   5.463   3.570   6.955
 3344SOL     OW10930   5.991   3.190   3.909
 3344SOL    HW110931   6.048   3.109   3.902
 3344SOL    HW210932   6.044   3.265   3.948
 3345SOL     OW10933   1.959   3.248   5.743
 3345SOL    HW110934   2.053   3.281   5.733
 3345SOL    HW210935   1.948   3.163   5.691
 3346SOL     OW10936   1.788   1.022   0.307
 3346SOL    HW110937   1.712   1.086   0.300
 3346SOL    HW210938   1.860   1.049   0.243
 3347SOL     OW10939   0.692   3.447   5.904
 3347SOL    HW110940   0.706   3.349   5.895
 3347SOL    HW210941   0.737   3.495   5.828
 3348SOL     OW10942   3.624   3.921   4.452
 3348SOL    HW110943   3.622   4.020   4.443
 3348SOL    HW210944   3.531   3.885   4.458
 3349SOL     OW10945   1.321   5.209   3.059
 3349SOL    HW110946   1.320   5.128   3.119
 3349SOL    HW210947   1.356   5.184   2.969
 3350SOL     OW10948   0.600   2.577   5.924
 3350SOL    HW110949   0.612   2.637   5.845
 3350SOL    HW210950   0.682   2.580   5.981
 3351SOL     OW10951   4.695   0.876   2.303
 3351SOL    HW110952   4.636   0.828   2.238
 3351SOL    HW210953   4.643   0.896   2.387
 3352SOL     OW10954   6.998   2.460   0.605
 3352SOL    HW110955   0.061   2.442   0.554
 3352SOL    HW210956   6.982   2.559   0.608
 3353SOL     OW10957   2.852   5.735   1.593
 3353SOL    HW110958   2.894   5.794   1.661
 3353SOL    HW210959   2.754   5.753   1.589
 3354SOL     OW10960   4.749   2.502   5.887
 3354SOL    HW110961   4.818   2.476   5.820
 3354SOL    HW210962   4.783   2.483   5.979
 3355SOL     OW10963   2.121   2.204   6.210
 3355SOL    HW110964   2.082   2.234   6.123
 3355SOL    HW210965   2.110   2.276   6.278
 3356SOL     OW10966   0.492   5.028   5.356
 3356SOL    HW110967   0.421   5.052   5.289
 3356SOL    HW210968   0.490   5.093   5.431
 3357SOL     OW10969   2.158   3.898   2.125
 3357SOL    HW110970   2.171   3.831   2.197
 3357SOL    HW210971   2.174   3.856   2.036
 3358SOL     OW10972   4.913   1.415   1.002
 3358SOL    HW110973   4.959   1.415   0.914
 3358SOL    HW210974   4.884   1.509   1.024
 3359SOL     OW10975   0.296   6.673   2.727
 3359SOL    HW110976   0.393   6.669   2.704
 3359SOL    HW210977   0.286   6.700   2.823
 3360SOL     OW10978   1.728   1.704   0.009
 3360SOL    HW110979   1.805   1.696   0.073
 3360SOL    HW210980   1.664   1.773   0.043
 3361SOL     OW10981   0.786   5.164   4.199
 3361SOL    HW110982   0.728   5.085   4.184
 3361SOL    HW210983   0.729   5.246   4.209
 3362SOL     OW10984   3.679   1.226   2.900
 3362SOL    HW110985   3.614   1.232   2.976
 3362SOL    HW210986   3.693   1.130   2.877
 3363SOL     OW10987   6.194   0.131   2.074
 3363SOL    HW110988   6.120   0.115   2.009
 3363SOL    HW210989   6.157   0.169   2.159
 3364SOL     OW10990   1.007   5.025   3.750
 3364SOL    HW110991   0.992   5.081   3.832
 3364SOL    HW210992   1.100   4.987   3.753
 3365SOL     OW10993   6.733   2.358   5.312
 3365SOL    HW110994   6.803   2.428   5.329
 3365SOL    HW210995   6.670   2.391   5.242
 3366SOL     OW10996   6.320   5.878   5.146
 3366SOL    HW110997   6.332   5.976   5.159
 3366SOL    HW210998   6.272   5.839   5.224
 3367SOL     OW10999   3.733   2.922   2.289
 3367SOL    HW111000   3.707   3.000   2.346
 3367SOL    HW211001   3.832   2.907   2.296
 3368SOL     OW11002   0.845   5.460   6.173
 3368SOL    HW111003   0.888   5.475   6.084
 3368SOL    HW211004   0.910   5.413   6.233
 3369SOL     OW11005   3.815   2.184   0.427
 3369SOL    HW111006   3.794   2.250   0.499
 3369SOL    HW211007   3.772   2.213   0.342
 3370SOL     OW11008   0.514   6.098   0.520
 3370SOL    HW111009   0.595   6.150   0.491
 3370SOL    HW211010   0.521   6.005   0.486
 3371SOL     OW11011   2.591   2.646   1.788
 3371SOL    HW111012   2.502   2.684   1.811
 3371SOL    HW211013   2.626   2.592   1.865
 3372SOL     OW11014   0.410   2.109   1.790
 3372SOL    HW111015   0.345   2.087   1.717
 3372SOL    HW211016   0.473   2.032   1.803
 3373SOL     OW11017   6.940   1.536   3.658
 3373SOL    HW111018   0.016   1.540   3.636
 3373SOL    HW211019   6.907   1.628   3.680
 3374SOL     OW11020   1.740   5.931   4.665
 3374SOL    HW111021   1.673   5.867   4.702
 3374SOL    HW211022   1.706   5.969   4.579
 3375SOL     OW11023   0.058   4.331   6.750
 3375SOL    HW111024   7.006   4.393   6.721
 3375SOL    HW211025   0.134   4.384   6.787
 3376SOL     OW11026   4.076   3.754   4.178
 3376SOL    HW111027   4.111   3.662   4.197
 3376SOL    HW211028   4.032   3.791   4.260
 3377SOL     OW11029   7.004   5.917   6.360
 3377SOL    HW111030   6.922   5.864   6.382
 3377SOL    HW211031   0.036   5.933   6.443
 3378SOL     OW11032   0.745   1.231   0.478
 3378SOL    HW111033   0.830   1.276   0.502
 3378SOL    HW211034   0.673   1.258   0.542
 3379SOL     OW11035   6.840   6.988   6.092
 3379SOL    HW111036   6.850   6.929   6.012
 3379SOL    HW211037   6.748   6.979   6.130
 3380SOL     OW11038   5.404   6.208   4.748
 3380SOL    HW111039   5.351   6.135   4.703
 3380SOL    HW211040   5.381   6.211   4.845
 3381SOL     OW11041   0.790   2.976   1.541
 3381SOL    HW111042   0.749   3.029   1.467
 3381SOL    HW211043   0.718   2.924   1.588
 3382SOL     OW11044   0.853   2.577   0.628
 3382SOL    HW111045   0.756   2.558   0.643
 3382SOL    HW211046   0.908   2.518   0.688
 3383SOL     OW11047   4.566   5.933   1.317
 3383SOL    HW111048   4.660   5.915   1.291
 3383SOL    HW211049   4.513   5.849   1.312
 3384SOL     OW11050   2.759   3.239   6.264
 3384SOL    HW111051   2.859   3.239   6.271
 3384SOL    HW211052   2.720   3.296   6.336
 3385SOL     OW11053   6.653   3.185   4.510
 3385SOL    HW111054   6.620   3.263   4.458
 3385SOL    HW211055   6.615   3.101   4.472
 3386SOL     OW11056   5.877   4.356   0.007
 3386SOL    HW111057   5.831   4.376   0.093
 3386SOL    HW211058   5.837   4.410   6.954
 3387SOL     OW11059   3.000   0.242   3.032
 3387SOL    HW111060   3.073   0.276   3.091
 3387SOL    HW211061   2.912   0.252   3.078
 3388SOL     OW11062   5.251   2.943   1.557
 3388SOL    HW111063   5.310   3.024   1.548
 3388SOL    HW211064   5.298   2.874   1.611
 3389SOL     OW11065   5.756   5.294   6.441
 3389SOL    HW111066   5.677   5.280   6.381
 3389SOL    HW211067   5.827   5.227   6.420
 3390SOL     OW11068   5.812   6.120   6.458
 3390SOL    HW111069   5.902   6.152   6.428
 3390SOL    HW211070   5.806   6.021   6.446
 3391SOL     OW11071   4.890   3.130   4.910
 3391SOL    HW111072   4.864   3.045   4.955
 3391SOL    HW211073   4.861   3.208   4.967
 3392SOL     OW11074   2.458   0.517   3.668
 3392SOL    HW111075   2.516   0.554   3.741
 3392SOL    HW211076   2.503   0.439   3.626
 3393SOL     OW11077   0.418   6.150   0.094
 3393SOL    HW111078   0.392   6.097   0.175
 3393SOL    HW211079   0.487   6.100   0.042
 3394SOL     OW11080   5.523   3.491   1.688
 3394SOL    HW111081   5.609   3.542   1.689
 3394SOL    HW211082   5.484   3.489   1.780
 3395SOL     OW11083   5.109   3.577   3.350
 3395SOL    HW111084   5.194   3.526   3.361
 3395SOL    HW211085   5.037   3.514   3.319
 3396SOL     OW11086   5.692   1.897   3.271
 3396SOL    HW111087   5.661   1.850   3.188
 3396SOL    HW211088   5.685   1.835   3.349
 3397SOL     OW11089   2.847   6.662   5.819
 3397SOL    HW111090   2.788   6.591   5.858
 3397SOL    HW211091   2.845   6.742   5.878
 3398SOL     OW11092   1.260   6.572   4.866
 3398SOL    HW111093   1.358   6.588   4.871
 3398SOL    HW211094   1.237   6.492   4.923
 3399SOL     OW11095   5.758   4.072   3.373
 3399SOL    HW111096   5.664   4.106   3.372
 3399SOL    HW211097   5.794   4.076   3.466
 3400SOL     OW11098   4.289   3.249   5.838
 3400SOL    HW111099   4.196   3.213   5.846
 3400SOL    HW211100   4.287   3.336   5.788
 3401SOL     OW11101   1.002   2.867   1.237
 3401SOL    HW111102   0.943   2.947   1.234
 3401SOL    HW211103   0.946   2.785   1.249
 3402SOL     OW11104   4.374   5.974   6.880
 3402SOL    HW111105   4.288   5.932   6.906
 3402SOL    HW211106   4.420   5.915   6.812
 3403SOL     OW11107   2.917   5.751   5.558
 3403SOL    HW111108   2.939   5.662   5.516
 3403SOL    HW211109   3.001   5.801   5.577
 3404SOL     OW11110   5.184   1.356   6.916
 3404SOL    HW111111   5.113   1.409   6.871
 3404SOL    HW211112   5.272   1.373   6.872
 3405SOL     OW11113   6.745   4.053   5.581
 3405SOL    HW111114   6.777   4.135   5.533
 3405SOL    HW211115   6.736   3.977   5.517
 3406SOL     OW11116   0.931   3.877   2.029
 3406SOL    HW111117   0.873   3.831   1.961
 3406SOL    HW211118   0.890   3.965   2.053
 3407SOL     OW11119   1.424   5.015   6.258
 3407SOL    HW111120   1.483   4.994   6.336
 3407SOL    HW211121   1.387   4.930   6.220
 3408SOL     OW11122   5.169   4.064   4.803
 3408SOL    HW111123   5.092   4.069   4.738
 3408SOL    HW211124   5.254   4.052   4.752
 3409SOL     OW11125   3.349   6.923   6.693
 3409SOL    HW111126   3.300   6.993   6.640
 3409SOL    HW211127   3.326   6.832   6.657
 3410SOL     OW11128   6.585   0.029   1.096
 3410SOL    HW111129   6.525   0.012   1.174
 3410SOL    HW211130   6.583   0.127   1.074
 3411SOL     OW11131   0.802   3.365   2.113
 3411SOL    HW111132   0.874   3.376   2.044
 3411SOL    HW211133   0.826   3.418   2.194
 3412SOL     OW11134   4.626   3.214   0.726
 3412SOL    HW111135   4.551   3.277   0.747
 3412SOL    HW211136   4.711   3.249   0.767
 3413SOL     OW11137   5.737   1.267   0.903
 3413SOL    HW111138   5.791   1.339   0.946
 3413SOL    HW211139   5.788   1.181   0.904
 3414SOL     OW11140   3.621   1.409   6.398
 3414SOL    HW111141   3.609   1.346   6.475
 3414SOL    HW211142   3.687   1.371   6.333
 3415SOL     OW11143   2.086   3.395   4.477
 3415SOL    HW111144   2.108   3.449   4.559
 3415SOL    HW211145   2.101   3.451   4.396
 3416SOL     OW11146   6.471   5.925   0.702
 3416SOL    HW111147   6.486   6.014   0.659
 3416SOL    HW211148   6.485   5.932   0.800
 3417SOL     OW11149   0.696   6.643   2.960
 3417SOL    HW111150   0.722   6.565   3.018
 3417SOL    HW211151   0.652   6.610   2.877
 3418SOL     OW11152   3.218   6.320   3.792
 3418SOL    HW111153   3.220   6.227   3.755
 3418SOL    HW211154   3.163   6.378   3.732
 3419SOL     OW11155   2.696   5.876   5.448
 3419SOL    HW111156   2.707   5.888   5.349
 3419SOL    HW211157   2.785   5.857   5.489
 3420SOL     OW11158   5.772   3.333   4.349
 3420SOL    HW111159   5.730   3.259   4.298
 3420SOL    HW211160   5.851   3.298   4.399
 3421SOL     OW11161   4.760   1.110   5.192
 3421SOL    HW111162   4.683   1.051   5.166
 3421SOL    HW211163   4.771   1.182   5.123
 3422SOL     OW11164   2.628   0.569   0.876
 3422SOL    HW111165   2.611   0.664   0.903
 3422SOL    HW211166   2.726   0.551   0.880
 3423SOL     OW11167   0.397   4.688   6.775
 3423SOL    HW111168   0.441   4.777   6.792
 3423SOL    HW211169   0.425   4.655   6.685
 3424SOL     OW11170   2.750   6.814   0.889
 3424SOL    HW111171   2.664   6.801   0.840
 3424SOL    HW211172   2.826   6.786   0.831
 3425SOL     OW11173   5.271   5.374   2.288
 3425SOL    HW111174   5.214   5.457   2.287
 3425SOL    HW211175   5.249   5.319   2.369
 3426SOL     OW11176   3.692   2.670   0.427
 3426SOL    HW111177   3.780   2.647   0.385
 3426SOL    HW211178   3.631   2.709   0.358
 3427SOL     OW11179   6.997   0.863   7.016
 3427SOL    HW111180   6.899   0.868   0.017
 3427SOL    HW211181   7.008   0.861   6.916
 3428SOL     OW11182   2.164   5.442   0.266
 3428SOL    HW111183   2.182   5.493   0.182
 3428SOL    HW211184   2.140   5.505   0.339
 3429SOL     OW11185   1.037   1.868   0.886
 3429SOL    HW111186   0.946   1.829   0.901
 3429SOL    HW211187   1.029   1.967   0.877
 3430SOL     OW11188   1.687   6.398   5.283
 3430SOL    HW111189   1.640   6.459   5.219
 3430SOL    HW211190   1.701   6.446   5.370
 3431SOL     OW11191   1.716   0.175   1.240
 3431SOL    HW111192   1.634   0.183   1.182
 3431SOL    HW211193   1.778   0.251   1.220
 3432SOL     OW11194   1.976   2.869   6.771
 3432SOL    HW111195   2.014   2.902   6.684
 3432SOL    HW211196   1.996   2.935   6.844
 3433SOL     OW11197   1.308   0.325   5.423
 3433SOL    HW111198   1.308   0.419   5.457
 3433SOL    HW211199   1.254   0.268   5.485
 3434SOL     OW11200   4.332   1.355   1.477
 3434SOL    HW111201   4.311   1.393   1.387
 3434SOL    HW211202   4.256   1.371   1.540
 3435SOL     OW11203   1.012   1.637   1.214
 3435SOL    HW111204   1.099   1.591   1.236
 3435SOL    HW211205   1.030   1.715   1.155
 3436SOL     OW11206   4.559   6.642   6.923
 3436SOL    HW111207   4.487   6.710   6.908
 3436SOL    HW211208   4.643   6.670   6.876
 3437SOL     OW11209   2.061   0.261   5.496
 3437SOL    HW111210   2.045   0.232   5.402
 3437SOL    HW211211   2.035   0.357   5.506
 3438SOL     OW11212   1.313   2.923   0.060
 3438SOL    HW111213   1.316   2.871   6.996
 3438SOL    HW211214   1.384   2.891   0.122
 3439SOL     OW11215   2.218   5.871   4.636
 3439SOL    HW111216   2.281   5.795   4.653
 3439SOL    HW211217   2.126   5.844   4.663
 3440SOL     OW11218   3.155   3.613   1.209
 3440SOL    HW111219   3.078   3.673   1.231
 3440SOL    HW211220   3.161   3.541   1.278
 3441SOL     OW11221   5.892   5.825   5.551
 3441SOL    HW111222   5.918   5.832   5.454
 3441SOL    HW211223   5.970   5.849   5.608
 3442SOL     OW11224   2.195   4.658   2.053
 3442SOL    HW111225   2.184   4.562   2.028
 3442SOL    HW211226   2.194   4.666   2.153
 3443SOL     OW11227   4.144   6.091   1.517
 3443SOL    HW111228   4.122   6.051   1.428
 3443SOL    HW211229   4.242   6.087   1.533
 3444SOL     OW11230   5.219   5.141   6.876
 3444SOL    HW111231   5.255   5.232   6.858
 3444SOL    HW211232   5.201   5.130   6.974
 3445SOL     OW11233   6.385   5.575   3.195
 3445SOL    HW111234   6.331   5.557   3.113
 3445SOL    HW211235   6.447   5.498   3.212
 3446SOL     OW11236   6.901   1.301   2.578
 3446SOL    HW111237   6.819   1.243   2.577
 3446SOL    HW211238   6.911   1.342   2.669
 3447SOL     OW11239   5.867   5.356   0.776
 3447SOL    HW111240   5.853   5.275   0.720
 3447SOL    HW211241   5.962   5.359   0.807
 3448SOL     OW11242   3.372   0.630   0.120
 3448SOL    HW111243   3.322   0.549   0.088
 3448SOL    HW211244   3.470   0.608   0.128
 3449SOL     OW11245   5.558   5.936   4.543
 3449SOL    HW111246   5.641   5.886   4.518
 3449SOL    HW211247   5.521   5.899   4.628
 3450SOL     OW11248   0.012   2.582   6.432
 3450SOL    HW111249   7.015   2.676   6.403
 3450SOL    HW211250   6.965   2.521   6.391
 3451SOL     OW11251   2.394   5.837   0.744
 3451SOL    HW111252   2.444   5.785   0.674
 3451SOL    HW211253   2.385   5.782   0.827
 3452SOL     OW11254   5.934   0.766   6.033
 3452SOL    HW111255   5.991   0.838   5.993
 3452SOL    HW211256   5.868   0.806   6.095
 3453SOL     OW11257   6.962   5.992   6.636
 3453SOL    HW111258   6.896   5.935   6.685
 3453SOL    HW211259   6.915   6.042   6.563
 3454SOL     OW11260   1.202   2.707   5.144
 3454SOL    HW111261   1.219   2.739   5.237
 3454SOL    HW211262   1.125   2.643   5.143
 3455SOL     OW11263   2.810   2.184   4.809
 3455SOL    HW111264   2.868   2.107   4.833
 3455SOL    HW211265   2.835   2.217   4.718
 3456SOL     OW11266   5.511   5.389   1.841
 3456SOL    HW111267   5.541   5.306   1.795
 3456SOL    HW211268   5.545   5.390   1.935
 3457SOL     OW11269   2.798   5.190   3.002
 3457SOL    HW111270   2.868   5.129   3.040
 3457SOL    HW211271   2.800   5.277   3.051
 3458SOL     OW11272   4.951   0.713   2.383
 3458SOL    HW111273   5.009   0.790   2.408
 3458SOL    HW211274   4.874   0.746   2.329
 3459SOL     OW11275   5.677   3.215   3.092
 3459SOL    HW111276   5.775   3.199   3.079
 3459SOL    HW211277   5.655   3.204   3.189
 3460SOL     OW11278   2.463   3.249   0.556
 3460SOL    HW111279   2.558   3.259   0.585
 3460SOL    HW211280   2.412   3.331   0.579
 3461SOL     OW11281   4.965   4.798   4.870
 3461SOL    HW111282   4.930   4.853   4.946
 3461SOL    HW211283   4.894   4.736   4.838
 3462SOL     OW11284   0.228   4.832   3.343
 3462SOL    HW111285   0.187   4.775   3.271
 3462SOL    HW211286   0.229   4.782   3.429
 3463SOL     OW11287   1.260   4.159   2.277
 3463SOL    HW111288   1.223   4.117   2.194
 3463SOL    HW211289   1.220   4.249   2.290
 3464SOL     OW11290   6.862   4.194   6.103
 3464SOL    HW111291   6.952   4.231   6.078
 3464SOL    HW211292   6.871   4.135   6.183
 3465SOL     OW11293   1.645   1.911   2.323
 3465SOL    HW111294   1.677   1.982   2.386
 3465SOL    HW211295   1.561   1.870   2.360
 3466SOL     OW11296   6.998   4.824   0.308
 3466SOL    HW111297   0.011   4.879   0.231
 3466SOL    HW211298   0.039   4.748   0.325
 3467SOL     OW11299   2.047   2.559   0.313
 3467SOL    HW111300   2.122   2.495   0.329
 3467SOL    HW211301   2.085   2.649   0.290
 3468SOL     OW11302   4.843   6.302   2.590
 3468SOL    HW111303   4.912   6.262   2.650
 3468SOL    HW211304   4.836   6.400   2.609
 3469SOL     OW11305   5.544   0.496   2.501
 3469SOL    HW111306   5.484   0.529   2.574
 3469SOL    HW211307   5.587   0.410   2.530
 3470SOL     OW11308   5.963   4.086   1.076
 3470SOL    HW111309   6.012   4.011   1.031
 3470SOL    HW211310   5.978   4.081   1.174
 3471SOL     OW11311   4.277   5.104   4.441
 3471SOL    HW111312   4.238   5.029   4.494
 3471SOL    HW211313   4.280   5.186   4.497
 3472SOL     OW11314   2.529   1.041   2.414
 3472SOL    HW111315   2.518   0.947   2.383
 3472SOL    HW211316   2.458   1.098   2.373
 3473SOL     OW11317   0.559   2.555   0.963
 3473SOL    HW111318   0.628   2.570   1.034
 3473SOL    HW211319   0.476   2.605   0.987
 3474SOL     OW11320   1.505   5.003   2.273
 3474SOL    HW111321   1.458   5.014   2.361
 3474SOL    HW211322   1.547   4.913   2.270
 3475SOL     OW11323   0.533   5.229   3.795
 3475SOL    HW111324   0.472   5.151   3.787
 3475SOL    HW211325   0.573   5.251   3.706
 3476SOL     OW11326   3.347   1.417   3.292
 3476SOL    HW111327   3.273   1.461   3.241
 3476SOL    HW211328   3.312   1.382   3.379
 3477SOL     OW11329   2.890   5.071   1.027
 3477SOL    HW111330   2.874   5.167   1.002
 3477SOL    HW211331   2.900   5.063   1.126
 3478SOL     OW11332   2.241   6.093   4.837
 3478SOL    HW111333   2.154   6.084   4.885
 3478SOL    HW211334   2.249   6.021   4.768
 3479SOL     OW11335   1.773   0.763   3.007
 3479SOL    HW111336   1.685   0.735   2.969
 3479SOL    HW211337   1.768   0.860   3.033
 3480SOL     OW11338   0.030   6.919   5.029
 3480SOL    HW111339   6.973   6.973   4.998
 3480SOL    HW211340   0.050   6.940   5.124
 3481SOL     OW11341   4.702   0.437   0.620
 3481SOL    HW111342   4.777   0.429   0.685
 3481SOL    HW211343   4.615   0.431   0.668
 3482SOL     OW11344   6.086   1.429   1.965
 3482SOL    HW111345   6.026   1.494   2.011
 3482SOL    HW211346   6.144   1.383   2.032
 3483SOL     OW11347   4.477   1.848   1.359
 3483SOL    HW111348   4.388   1.886   1.334
 3483SOL    HW211349   4.505   1.882   1.449
 3484SOL     OW11350   1.285   3.707   0.474
 3484SOL    HW111351   1.215   3.660   0.527
 3484SOL    HW211352   1.243   3.774   0.414
 3485SOL     OW11353   1.858   1.080   4.483
 3485SOL    HW111354   1.890   1.080   4.389
 3485SOL    HW211355   1.791   1.154   4.495
 3486SOL     OW11356   2.996   1.160   2.858
 3486SOL    HW111357   2.977   1.088   2.924
 3486SOL    HW211358   2.911   1.186   2.812
 3487SOL     OW11359   5.635   2.589   6.084
 3487SOL    HW111360   5.697   2.667   6.074
 3487SOL    HW211361   5.541   2.622   6.085
 3488SOL     OW11362   6.024   1.763   4.708
 3488SOL    HW111363   5.988   1.669   4.712
 3488SOL    HW211364   6.093   1.774   4.779
 3489SOL     OW11365   3.129   0.087   1.016
 3489SOL    HW111366   3.056   0.137   1.062
 3489SOL    HW211367   3.120   7.010   1.036
 3490SOL     OW11368   4.151   4.513   0.283
 3490SOL    HW111369   4.058   4.507   0.247
 3490SOL    HW211370   4.198   4.427   0.266
 3491SOL     OW11371   5.297   2.791   5.063
 3491SOL    HW111372   5.213   2.765   5.111
 3491SOL    HW211373   5.372   2.799   5.128
 3492SOL     OW11374   0.274   5.693   1.362
 3492SOL    HW111375   0.222   5.727   1.441
 3492SOL    HW211376   0.211   5.675   1.286
 3493SOL     OW11377   5.282   4.119   6.417
 3493SOL    HW111378   5.301   4.150   6.510
 3493SOL    HW211379   5.350   4.051   6.390
 3494SOL     OW11380   4.030   0.687   1.684
 3494SOL    HW111381   4.081   0.722   1.605
 3494SOL    HW211382   3.947   0.742   1.696
 3495SOL     OW11383   5.187   5.554   2.600
 3495SOL    HW111384   5.131   5.573   2.519
 3495SOL    HW211385   5.161   5.616   2.674
 3496SOL     OW11386   6.752   4.083   0.792
 3496SOL    HW111387   6.684   4.154   0.775
 3496SOL    HW211388   6.728   4.001   0.740
 3497SOL     OW11389   3.484   0.641   3.702
 3497SOL    HW111390   3.398   0.624   3.653
 3497SOL    HW211391   3.561   0.607   3.647
 3498SOL     OW11392   2.515   2.071   1.043
 3498SOL    HW111393   2.580   2.041   1.112
 3498SOL    HW211394   2.563   2.091   0.958
 3499SOL     OW11395   4.703   2.742   4.385
 3499SOL    HW111396   4.649   2.666   4.348
 3499SOL    HW211397   4.705   2.735   4.485
 3500SOL     OW11398   1.526   3.391   4.408
 3500SOL    HW111399   1.513   3.443   4.323
 3500SOL    HW211400   1.614   3.415   4.449
 3501SOL     OW11401   1.670   5.218   4.158
 3501SOL    HW111402   1.724   5.134   4.165
 3501SOL    HW211403   1.636   5.243   4.248
 3502SOL     OW11404   5.750   2.453   2.430
 3502SOL    HW111405   5.786   2.363   2.407
 3502SOL    HW211406   5.652   2.455   2.411
 3503SOL     OW11407   6.608   6.323   4.866
 3503SOL    HW111408   6.666   6.289   4.792
 3503SOL    HW211409   6.635   6.416   4.890
 3504SOL     OW11410   2.068   2.080   1.321
 3504SOL    HW111411   2.165   2.058   1.321
 3504SOL    HW211412   2.028   2.054   1.409
 3505SOL     OW11413   5.620   4.850   5.119
 3505SOL    HW111414   5.591   4.813   5.031
 3505SOL    HW211415   5.563   4.810   5.192
 3506SOL     OW11416   4.820   5.426   6.038
 3506SOL    HW111417   4.746   5.382   5.987
 3506SOL    HW211418   4.819   5.395   6.133
 3507SOL     OW11419   1.777   1.312   7.009
 3507SOL    HW111420   1.780   1.384   0.057
 3507SOL    HW211421   1.781   1.223   0.033
 3508SOL     OW11422   3.076   2.560   5.959
 3508SOL    HW111423   3.089   2.645   6.011
 3508SOL    HW211424   3.049   2.583   5.865
 3509SOL     OW11425   6.092   6.951   5.709
 3509SOL    HW111426   6.007   6.976   5.662
 3509SOL    HW211427   6.092   6.991   5.801
 3510SOL     OW11428   1.901   2.789   1.217
 3510SOL    HW111429   1.826   2.726   1.200
 3510SOL    HW211430   1.867   2.883   1.213
 3511SOL     OW11431   1.823   4.987   0.494
 3511SOL    HW111432   1.795   5.000   0.589
 3511SOL    HW211433   1.797   5.068   0.441
 3512SOL     OW11434   0.387   5.283   0.675
 3512SOL    HW111435   0.344   5.210   0.622
 3512SOL    HW211436   0.438   5.243   0.751
 3513SOL     OW11437   6.251   3.479   0.623
 3513SOL    HW111438   6.158   3.505   0.649
 3513SOL    HW211439   6.250   3.387   0.584
 3514SOL     OW11440   0.886   1.580   2.322
 3514SOL    HW111441   0.887   1.677   2.297
 3514SOL    HW211442   0.964   1.534   2.279
 3515SOL     OW11443   4.148   6.170   3.281
 3515SOL    HW111444   4.090   6.158   3.361
 3515SOL    HW211445   4.124   6.101   3.212
 3516SOL     OW11446   4.769   6.915   0.667
 3516SOL    HW111447   4.772   6.955   0.576
 3516SOL    HW211448   4.759   6.815   0.660
 3517SOL     OW11449   0.877   2.118   0.893
 3517SOL    HW111450   0.805   2.180   0.923
 3517SOL    HW211451   0.893   2.132   0.795
 3518SOL     OW11452   5.836   3.773   4.977
 3518SOL    HW111453   5.786   3.819   4.903
 3518SOL    HW211454   5.851   3.677   4.953
 3519SOL     OW11455   0.883   0.960   6.138
 3519SOL    HW111456   0.974   0.968   6.096
 3519SOL    HW211457   0.864   0.863   6.156
 3520SOL     OW11458   3.015   5.511   6.843
 3520SOL    HW111459   3.046   5.606   6.847
 3520SOL    HW211460   3.081   5.456   6.793
 3521SOL     OW11461   5.703   3.239   6.978
 3521SOL    HW111462   5.659   3.254   0.046
 3521SOL    HW211463   5.645   3.180   6.921
 3522SOL     OW11464   6.424   4.417   2.100
 3522SOL    HW111465   6.357   4.352   2.063
 3522SOL    HW211466   6.511   4.407   2.050
 3523SOL     OW11467   3.043   5.083   5.650
 3523SOL    HW111468   3.038   5.080   5.750
 3523SOL    HW211469   2.959   5.123   5.613
 3524SOL     OW11470   3.221   0.928   1.242
 3524SOL    HW111471   3.269   0.995   1.185
 3524SOL    HW211472   3.278   0.846   1.251
 3525SOL     OW11473   0.997   4.030   2.372
 3525SOL    HW111474   0.939   4.062   2.297
 3525SOL    HW211475   1.093   4.037   2.344
 3526SOL     OW11476   2.696   6.030   3.799
 3526SOL    HW111477   2.683   6.121   3.760
 3526SOL    HW211478   2.719   6.039   3.896
 3527SOL     OW11479   6.280   3.000   6.367
 3527SOL    HW111480   6.379   3.006   6.381
 3527SOL    HW211481   6.261   2.958   6.279
 3528SOL     OW11482   1.012   5.155   4.047
 3528SOL    HW111483   0.989   5.213   3.969
 3528SOL    HW211484   0.931   5.144   4.105
 3529SOL     OW11485   4.743   0.275   5.952
 3529SOL    HW111486   4.682   0.201   5.982
 3529SOL    HW211487   4.703   0.363   5.976
 3530SOL     OW11488   1.632   5.076   3.565
 3530SOL    HW111489   1.716   5.120   3.533
 3530SOL    HW211490   1.620   5.095   3.662
 3531SOL     OW11491   4.644   3.668   0.848
 3531SOL    HW111492   4.657   3.631   0.756
 3531SOL    HW211493   4.621   3.765   0.842
 3532SOL     OW11494   2.635   1.144   1.501
 3532SOL    HW111495   2.649   1.110   1.407
 3532SOL    HW211496   2.651   1.242   1.503
 3533SOL     OW11497   1.570   1.791   2.783
 3533SOL    HW111498   1.635   1.745   2.723
 3533SOL    HW211499   1.568   1.889   2.762
 3534SOL     OW11500   5.541   0.898   5.201
 3534SOL    HW111501   5.501   0.882   5.292
 3534SOL    HW211502   5.585   0.814   5.169
 3535SOL     OW11503   0.782   5.887   0.411
 3535SOL    HW111504   0.686   5.890   0.437
 3535SOL    HW211505   0.805   5.971   0.361
 3536SOL     OW11506   2.163   1.978   4.312
 3536SOL    HW111507   2.214   2.036   4.249
 3536SOL    HW211508   2.198   1.884   4.308
 3537SOL     OW11509   2.484   5.050   0.788
 3537SOL    HW111510   2.402   5.108   0.790
 3537SOL    HW211511   2.481   4.992   0.707
 3538SOL     OW11512   1.111   0.813   5.444
 3538SOL    HW111513   1.059   0.891   5.479
 3538SOL    HW211514   1.116   0.818   5.344
 3539SOL     OW11515   6.010   3.574   6.510
 3539SOL    HW111516   6.076   3.637   6.551
 3539SOL    HW211517   6.059   3.495   6.472
 3540SOL     OW11518   1.721   2.359   5.460
 3540SOL    HW111519   1.816   2.335   5.480
 3540SOL    HW211520   1.718   2.417   5.378
 3541SOL     OW11521   2.184   2.566   6.099
 3541SOL    HW111522   2.100   2.605   6.137
 3541SOL    HW211523   2.161   2.511   6.019
 3542SOL     OW11524   0.734   4.027   1.647
 3542SOL    HW111525   0.833   4.026   1.655
 3542SOL    HW211526   0.694   4.052   1.736
 3543SOL     OW11527   0.739   3.854   5.795
 3543SOL    HW111528   0.740   3.754   5.799
 3543SOL    HW211529   0.767   3.883   5.703
 3544SOL     OW11530   2.017   5.126   6.565
 3544SOL    HW111531   2.043   5.221   6.584
 3544SOL    HW211532   1.954   5.125   6.487
 3545SOL     OW11533   3.917   5.161   0.482
 3545SOL    HW111534   3.842   5.188   0.422
 3545SOL    HW211535   3.942   5.066   0.463
 3546SOL     OW11536   6.935   4.837   2.686
 3546SOL    HW111537   6.941   4.926   2.731
 3546SOL    HW211538   6.982   4.768   2.742
 3547SOL     OW11539   6.255   4.897   4.744
 3547SOL    HW111540   6.191   4.823   4.724
 3547SOL    HW211541   6.248   4.923   4.840
 3548SOL     OW11542   4.656   0.381   5.670
 3548SOL    HW111543   4.678   0.476   5.691
 3548SOL    HW211544   4.613   0.339   5.750
 3549SOL     OW11545   0.695   4.694   6.068
 3549SOL    HW111546   0.767   4.634   6.103
 3549SOL    HW211547   0.652   4.652   5.989
 3550SOL     OW11548   6.184   2.642   4.077
 3550SOL    HW111549   6.249   2.574   4.044
 3550SOL    HW211550   6.106   2.597   4.119
 3551SOL     OW11551   3.439   2.051   3.407
 3551SOL    HW111552   3.357   2.103   3.431
 3551SOL    HW211553   3.452   1.976   3.472
 3552SOL     OW11554   6.153   0.026   1.530
 3552SOL    HW111555   6.128   0.103   1.588
 3552SOL    HW211556   6.081   0.008   1.464
 3553SOL     OW11557   4.010   5.421   0.528
 3553SOL    HW111558   4.006   5.328   0.490
 3553SOL    HW211559   4.030   5.486   0.455
 3554SOL     OW11560   4.516   1.963   0.941
 3554SOL    HW111561   4.568   1.959   1.026
 3554SOL    HW211562   4.469   2.051   0.935
 3555SOL     OW11563   0.441   3.749   4.710
 3555SOL    HW111564   0.395   3.691   4.776
 3555SOL    HW211565   0.446   3.843   4.745
 3556SOL     OW11566   4.259   0.666   4.219
 3556SOL    HW111567   4.306   0.700   4.137
 3556SOL    HW211568   4.260   0.736   4.290
 3557SOL     OW11569   0.998   0.346   4.062
 3557SOL    HW111570   0.898   0.354   4.062
 3557SOL    HW211571   1.031   0.341   4.157
 3558SOL     OW11572   1.590   5.927   2.450
 3558SOL    HW111573   1.571   5.955   2.544
 3558SOL    HW211574   1.638   6.000   2.401
 3559SOL     OW11575   0.744   6.476   5.273
 3559SOL    HW111576   0.836   6.489   5.311
 3559SOL    HW211577   0.699   6.400   5.319
 3560SOL     OW11578   2.290   5.348   2.279
 3560SOL    HW111579   2.279   5.316   2.373
 3560SOL    HW211580   2.212   5.404   2.253
 3561SOL     OW11581   4.656   4.065   5.177
 3561SOL    HW111582   4.714   4.073   5.095
 3561SOL    HW211583   4.661   3.971   5.212
 3562SOL     OW11584   3.725   0.832   3.030
 3562SOL    HW111585   3.657   0.856   3.100
 3562SOL    HW211586   3.809   0.803   3.074
 3563SOL     OW11587   6.291   1.879   0.695
 3563SOL    HW111588   6.380   1.902   0.655
 3563SOL    HW211589   6.263   1.951   0.758
 3564SOL     OW11590   1.041   4.325   3.051
 3564SOL    HW111591   1.073   4.238   3.015
 3564SOL    HW211592   1.073   4.336   3.145
 3565SOL     OW11593   3.115   5.879   4.592
 3565SOL    HW111594   3.096   5.894   4.689
 3565SOL    HW211595   3.181   5.805   4.583
 3566SOL     OW11596   6.540   3.022   6.345
 3566SOL    HW111597   6.607   2.965   6.392
 3566SOL    HW211598   6.574   3.045   6.253
 3567SOL     OW11599   0.391   1.943   6.358
 3567SOL    HW111600   0.420   1.878   6.288
 3567SOL    HW211601   0.449   1.933   6.438
 3568SOL     OW11602   4.821   3.988   4.230
 3568SOL    HW111603   4.812   4.025   4.138
 3568SOL    HW211604   4.763   4.040   4.292
 3569SOL     OW11605   2.136   1.891   5.903
 3569SOL    HW111606   2.196   1.811   5.896
 3569SOL    HW211607   2.099   1.897   5.996
 3570SOL     OW11608   5.011   0.451   5.806
 3570SOL    HW111609   5.047   0.496   5.724
 3570SOL    HW211610   4.976   0.361   5.782
 3571SOL     OW11611   0.854   5.559   5.638
 3571SOL    HW111612   0.887   5.618   5.711
 3571SOL    HW211613   0.781   5.500   5.674
 3572SOL     OW11614   6.176   3.901   2.792
 3572SOL    HW111615   6.252   3.856   2.839
 3572SOL    HW211616   6.094   3.844   2.797
 3573SOL     OW11617   0.448   5.241   3.235
 3573SOL    HW111618   0.494   5.180   3.170
 3573SOL    HW211619   0.516   5.297   3.282
 3574SOL     OW11620   0.503   3.837   1.074
 3574SOL    HW111621   0.419   3.800   1.114
 3574SOL    HW211622   0.576   3.769   1.080
 3575SOL     OW11623   4.852   4.925   2.790
 3575SOL    HW111624   4.943   4.962   2.773
 3575SOL    HW211625   4.857   4.853   2.859
 3576SOL     OW11626   0.400   2.050   5.833
 3576SOL    HW111627   0.325   2.030   5.896
 3576SOL    HW211628   0.434   2.143   5.848
 3577SOL     OW11629   1.850   2.094   5.890
 3577SOL    HW111630   1.838   1.995   5.895
 3577SOL    HW211631   1.807   2.129   5.806
 3578SOL     OW11632   3.467   2.272   0.629
 3578SOL    HW111633   3.548   2.322   0.597
 3578SOL    HW211634   3.409   2.334   0.682
 3579SOL     OW11635   6.278   2.675   4.390
 3579SOL    HW111636   6.354   2.661   4.454
 3579SOL    HW211637   6.292   2.760   4.339
 3580SOL     OW11638   5.526   2.959   1.960
 3580SOL    HW111639   5.502   3.054   1.978
 3580SOL    HW211640   5.466   2.922   1.889
 3581SOL     OW11641   1.096   5.955   3.435
 3581SOL    HW111642   1.174   6.011   3.406
 3581SOL    HW211643   1.059   5.907   3.356
 3582SOL     OW11644   0.907   2.754   5.818
 3582SOL    HW111645   0.951   2.833   5.859
 3582SOL    HW211646   0.929   2.672   5.870
 3583SOL     OW11647   0.700   3.884   6.779
 3583SOL    HW111648   0.665   3.852   6.867
 3583SOL    HW211649   0.688   3.811   6.711
 3584SOL     OW11650   5.577   5.454   7.005
 3584SOL    HW111651   5.568   5.498   0.074
 3584SOL    HW211652   5.671   5.422   6.993
 3585SOL     OW11653   3.579   0.699   4.804
 3585SOL    HW111654   3.633   0.744   4.875
 3585SOL    HW211655   3.544   0.767   4.740
 3586SOL     OW11656   6.666   1.841   4.718
 3586SOL    HW111657   6.640   1.933   4.748
 3586SOL    HW211658   6.711   1.792   4.793
 3587SOL     OW11659   2.574   5.138   6.444
 3587SOL    HW111660   2.560   5.118   6.541
 3587SOL    HW211661   2.665   5.109   6.416
 3588SOL     OW11662   1.221   2.413   5.806
 3588SOL    HW111663   1.248   2.449   5.717
 3588SOL    HW211664   1.299   2.415   5.869
 3589SOL     OW11665   4.056   1.216   4.717
 3589SOL    HW111666   4.111   1.298   4.731
 3589SOL    HW211667   4.115   1.140   4.688
 3590SOL     OW11668   1.149   3.065   6.792
 3590SOL    HW111669   1.149   2.971   6.758
 3590SOL    HW211670   1.233   3.081   6.843
 3591SOL     OW11671   5.099   3.917   6.559
 3591SOL    HW111672   5.195   3.893   6.551
 3591SOL    HW211673   5.089   4.016   6.572
 3592SOL     OW11674   0.094   4.762   1.837
 3592SOL    HW111675   0.090   4.667   1.867
 3592SOL    HW211676   0.062   4.822   1.911
 3593SOL     OW11677   0.809   5.802   4.940
 3593SOL    HW111678   0.735   5.784   4.876
 3593SOL    HW211679   0.770   5.834   5.027
 3594SOL     OW11680   4.503   0.188   3.019
 3594SOL    HW111681   4.486   0.115   2.952
 3594SOL    HW211682   4.591   0.231   2.998
 3595SOL     OW11683   3.352   5.722   7.013
 3595SOL    HW111684   3.359   5.805   0.047
 3595SOL    HW211685   3.429   5.662   0.012
 3596SOL     OW11686   6.220   3.065   3.468
 3596SOL    HW111687   6.228   3.083   3.370
 3596SOL    HW211688   6.183   3.145   3.514
 3597SOL     OW11689   1.460   2.009   4.963
 3597SOL    HW111690   1.459   2.046   4.870
 3597SOL    HW211691   1.366   1.993   4.994
 3598SOL     OW11692   1.047   5.274   6.172
 3598SOL    HW111693   1.065   5.176   6.162
 3598SOL    HW211694   1.006   5.309   6.088
 3599SOL     OW11695   0.046   2.207   6.658
 3599SOL    HW111696   0.041   2.179   6.562
 3599SOL    HW211697   0.033   2.306   6.665
 3600SOL     OW11698   0.922   3.451   1.554
 3600SOL    HW111699   0.941   3.364   1.599
 3600SOL    HW211700   0.848   3.439   1.488
 3601SOL     OW11701   5.546   4.028   6.326
 3601SOL    HW111702   5.542   4.059   6.231
 3601SOL    HW211703   5.634   3.984   6.342
 3602SOL     OW11704   2.144   2.835   0.332
 3602SOL    HW111705   2.175   2.868   0.421
 3602SOL    HW211706   2.144   2.910   0.267
 3603SOL     OW11707   3.801   0.449   3.627
 3603SOL    HW111708   3.802   0.461   3.726
 3603SOL    HW211709   3.891   0.473   3.590
 3604SOL     OW11710   6.431   5.160   3.404
 3604SOL    HW111711   6.399   5.114   3.487
 3604SOL    HW211712   6.486   5.096   3.350
 3605SOL     OW11713   6.426   3.482   5.198
 3605SOL    HW111714   6.426   3.516   5.292
 3605SOL    HW211715   6.368   3.539   5.141
 3606SOL     OW11716   7.008   0.335   4.575
 3606SOL    HW111717   6.980   0.420   4.530
 3606SOL    HW211718   0.078   0.346   4.614
 3607SOL     OW11719   5.803   5.666   1.640
 3607SOL    HW111720   5.710   5.694   1.663
 3607SOL    HW211721   5.845   5.735   1.581
 3608SOL     OW11722   5.921   2.654   3.821
 3608SOL    HW111723   5.979   2.687   3.746
 3608SOL    HW211724   5.949   2.561   3.845
 3609SOL     OW11725   1.099   6.607   4.223
 3609SOL    HW111726   1.156   6.661   4.160
 3609SOL    HW211727   1.125   6.511   4.217
 3610SOL     OW11728   1.726   0.190   5.661
 3610SOL    HW111729   1.809   0.200   5.715
 3610SOL    HW211730   1.656   0.143   5.715
 3611SOL     OW11731   3.928   5.828   5.442
 3611SOL    HW111732   3.935   5.778   5.529
 3611SOL    HW211733   3.980   5.780   5.372
 3612SOL     OW11734   6.742   6.914   6.883
 3612SOL    HW111735   6.678   6.974   6.932
 3612SOL    HW211736   6.749   6.827   6.932
 3613SOL     OW11737   4.602   4.576   2.243
 3613SOL    HW111738   4.533   4.633   2.197
 3613SOL    HW211739   4.584   4.577   2.342
 3614SOL     OW11740   4.089   3.176   1.532
 3614SOL    HW111741   4.039   3.249   1.579
 3614SOL    HW211742   4.166   3.216   1.482
 3615SOL     OW11743   5.085   5.681   6.683
 3615SOL    HW111744   5.078   5.620   6.762
 3615SOL    HW211745   5.020   5.756   6.693
 3616SOL     OW11746   0.788   2.151   0.057
 3616SOL    HW111747   0.770   2.121   0.151
 3616SOL    HW211748   0.858   2.224   0.059
 3617SOL     OW11749   3.591   1.169   6.945
 3617SOL    HW111750   3.506   1.117   6.950
 3617SOL    HW211751   3.574   1.258   6.903
 3618SOL     OW11752   2.036   2.554   5.142
 3618SOL    HW111753   2.123   2.602   5.129
 3618SOL    HW211754   1.974   2.575   5.067
 3619SOL     OW11755   5.701   2.499   4.570
 3619SOL    HW111756   5.683   2.572   4.504
 3619SOL    HW211757   5.800   2.486   4.579
 3620SOL     OW11758   6.260   6.521   6.253
 3620SOL    HW111759   6.349   6.567   6.247
 3620SOL    HW211760   6.266   6.433   6.206
 3621SOL     OW11761   3.329   3.024   5.098
 3621SOL    HW111762   3.382   2.960   5.153
 3621SOL    HW211763   3.251   3.057   5.151
 3622SOL     OW11764   1.521   1.777   5.262
 3622SOL    HW111765   1.428   1.801   5.287
 3622SOL    HW211766   1.525   1.755   5.165
 3623SOL     OW11767   6.120   5.637   4.320
 3623SOL    HW111768   6.080   5.693   4.247
 3623SOL    HW211769   6.183   5.570   4.280
 3624SOL     OW11770   1.475   7.015   1.981
 3624SOL    HW111771   1.553   6.976   2.030
 3624SOL    HW211772   1.491   0.092   1.967
 3625SOL     OW11773   6.562   2.595   6.648
 3625SOL    HW111774   6.501   2.535   6.597
 3625SOL    HW211775   6.535   2.690   6.634
 3626SOL     OW11776   1.716   2.253   5.711
 3626SOL    HW111777   1.712   2.289   5.618
 3626SOL    HW211778   1.720   2.329   5.776
 3627SOL     OW11779   3.163   3.432   2.469
 3627SOL    HW111780   3.144   3.426   2.567
 3627SOL    HW211781   3.127   3.351   2.423
 3628SOL     OW11782   1.712   1.431   2.016
 3628SOL    HW111783   1.612   1.424   2.014
 3628SOL    HW211784   1.746   1.387   2.100
 3629SOL     OW11785   6.558   0.947   5.296
 3629SOL    HW111786   6.463   0.977   5.289
 3629SOL    HW211787   6.608   1.008   5.357
 3630SOL     OW11788   5.192   2.986   4.259
 3630SOL    HW111789   5.239   2.907   4.297
 3630SOL    HW211790   5.159   3.045   4.333
 3631SOL     OW11791   2.557   1.095   3.405
 3631SOL    HW111792   2.592   1.002   3.416
 3631SOL    HW211793   2.605   1.140   3.330
 3632SOL     OW11794   5.272   5.530   1.123
 3632SOL    HW111795   5.272   5.572   1.214
 3632SOL    HW211796   5.239   5.436   1.130
 3633SOL     OW11797   4.034   1.766   5.936
 3633SOL    HW111798   4.040   1.793   6.032
 3633SOL    HW211799   3.938   1.757   5.910
 3634SOL     OW11800   1.915   4.558   5.002
 3634SOL    HW111801   1.909   4.463   4.971
 3634SOL    HW211802   1.824   4.589   5.030
 3635SOL     OW11803   3.447   0.156   0.518
 3635SOL    HW111804   3.513   0.087   0.486
 3635SOL    HW211805   3.479   0.247   0.493
 3636SOL     OW11806   0.032   5.956   1.033
 3636SOL    HW111807   0.036   5.976   0.935
 3636SOL    HW211808   0.014   6.040   1.084
 3637SOL     OW11809   0.276   1.849   2.163
 3637SOL    HW111810   0.316   1.758   2.155
 3637SOL    HW211811   0.215   1.853   2.242
 3638SOL     OW11812   0.650   4.465   2.984
 3638SOL    HW111813   0.722   4.480   2.916
 3638SOL    HW211814   0.682   4.499   3.073
 3639SOL     OW11815   3.731   4.959   0.872
 3639SOL    HW111816   3.701   5.006   0.955
 3639SOL    HW211817   3.730   5.023   0.795
 3640SOL     OW11818   4.398   0.581   0.174
 3640SOL    HW111819   4.309   0.537   0.158
 3640SOL    HW211820   4.463   0.513   0.206
 3641SOL     OW11821   4.960   3.535   2.124
 3641SOL    HW111822   4.975   3.575   2.034
 3641SOL    HW211823   4.911   3.601   2.181
 3642SOL     OW11824   5.717   1.156   0.235
 3642SOL    HW111825   5.669   1.080   0.278
 3642SOL    HW211826   5.758   1.214   0.305
 3643SOL     OW11827   3.623   5.657   4.359
 3643SOL    HW111828   3.570   5.613   4.431
 3643SOL    HW211829   3.690   5.593   4.322
 3644SOL     OW11830   0.301   0.937   1.774
 3644SOL    HW111831   0.206   0.914   1.792
 3644SOL    HW211832   0.361   0.869   1.815
 3645SOL     OW11833   0.580   2.987   3.771
 3645SOL    HW111834   0.562   2.900   3.816
 3645SOL    HW211835   0.671   2.984   3.730
 3646SOL     OW11836   1.175   4.174   6.500
 3646SOL    HW111837   1.164   4.075   6.486
 3646SOL    HW211838   1.270   4.194   6.524
 3647SOL     OW11839   2.675   5.374   6.097
 3647SOL    HW111840   2.601   5.359   6.162
 3647SOL    HW211841   2.636   5.391   6.006
 3648SOL     OW11842   4.234   4.956   1.866
 3648SOL    HW111843   4.157   4.986   1.809
 3648SOL    HW211844   4.213   4.975   1.962
 3649SOL     OW11845   5.283   3.319   1.265
 3649SOL    HW111846   5.207   3.255   1.260
 3649SOL    HW211847   5.367   3.270   1.289
 3650SOL     OW11848   6.590   6.039   1.333
 3650SOL    HW111849   6.532   6.057   1.253
 3650SOL    HW211850   6.669   6.100   1.331
 3651SOL     OW11851   0.758   6.682   4.729
 3651SOL    HW111852   0.724   6.655   4.639
 3651SOL    HW211853   0.839   6.628   4.752
 3652SOL     OW11854   6.007   6.518   3.569
 3652SOL    HW111855   6.106   6.518   3.563
 3652SOL    HW211856   5.979   6.528   3.665
 3653SOL     OW11857   0.867   1.816   3.737
 3653SOL    HW111858   0.808   1.897   3.739
 3653SOL    HW211859   0.825   1.743   3.792
 3654SOL     OW11860   3.296   4.361   0.569
 3654SOL    HW111861   3.383   4.317   0.589
 3654SOL    HW211862   3.225   4.292   0.560
 3655SOL     OW11863   2.526   6.237   4.172
 3655SOL    HW111864   2.495   6.313   4.229
 3655SOL    HW211865   2.625   6.242   4.161
 3656SOL     OW11866   0.379   4.684   1.237
 3656SOL    HW111867   0.384   4.608   1.172
 3656SOL    HW211868   0.292   4.681   1.286
 3657SOL     OW11869   5.236   5.669   5.828
 3657SOL    HW111870   5.329   5.633   5.822
 3657SOL    HW211871   5.223   5.714   5.916
 3658SOL     OW11872   1.879   5.218   5.982
 3658SOL    HW111873   1.978   5.211   5.996
 3658SOL    HW211874   1.842   5.128   5.959
 3659SOL     OW11875   2.623   3.836   6.013
 3659SOL    HW111876   2.546   3.878   5.965
 3659SOL    HW211877   2.667   3.905   6.070
 3660SOL     OW11878   5.658   5.850   3.554
 3660SOL    HW111879   5.582   5.845   3.618
 3660SOL    HW211880   5.675   5.945   3.529
 3661SOL     OW11881   5.828   0.626   5.402
 3661SOL    HW111882   5.870   0.670   5.481
 3661SOL    HW211883   5.881   0.545   5.377
 3662SOL     OW11884   3.718   0.894   3.581
 3662SOL    HW111885   3.660   0.813   3.574
 3662SOL    HW211886   3.666   0.968   3.623
 3663SOL     OW11887   2.041   2.037   0.067
 3663SOL    HW111888   2.118   1.975   0.081
 3663SOL    HW211889   1.999   2.019   6.999
 3664SOL     OW11890   4.791   2.389   1.413
 3664SOL    HW111891   4.832   2.445   1.341
 3664SOL    HW211892   4.863   2.348   1.468
 3665SOL     OW11893   1.384   6.393   5.058
 3665SOL    HW111894   1.411   6.301   5.030
 3665SOL    HW211895   1.462   6.438   5.102
 3666SOL     OW11896   0.471   3.282   3.122
 3666SOL    HW111897   0.516   3.346   3.185
 3666SOL    HW211898   0.501   3.302   3.029
 3667SOL     OW11899   1.094   1.470   3.454
 3667SOL    HW111900   1.017   1.511   3.502
 3667SOL    HW211901   1.118   1.383   3.497
 3668SOL     OW11902   1.491   1.115   0.957
 3668SOL    HW111903   1.441   1.165   0.887
 3668SOL    HW211904   1.548   1.179   1.009
 3669SOL     OW11905   5.223   1.437   3.564
 3669SOL    HW111906   5.149   1.474   3.621
 3669SOL    HW211907   5.198   1.345   3.533
 3670SOL     OW11908   1.803   5.788   0.213
 3670SOL    HW111909   1.733   5.816   0.147
 3670SOL    HW211910   1.771   5.807   0.306
 3671SOL     OW11911   6.966   1.989   4.287
 3671SOL    HW111912   6.913   1.974   4.371
 3671SOL    HW211913   6.908   2.030   4.217
 3672SOL     OW11914   4.997   1.636   1.412
 3672SOL    HW111915   5.021   1.699   1.487
 3672SOL    HW211916   4.993   1.686   1.326
 3673SOL     OW11917   3.673   6.224   0.121
 3673SOL    HW111918   3.653   6.320   0.140
 3673SOL    HW211919   3.703   6.179   0.205
 3674SOL     OW11920   1.098   5.517   5.511
 3674SOL    HW111921   1.172   5.583   5.495
 3674SOL    HW211922   1.032   5.556   5.575
 3675SOL     OW11923   2.255   2.981   3.810
 3675SOL    HW111924   2.305   2.895   3.804
 3675SOL    HW211925   2.198   2.993   3.729
 3676SOL     OW11926   5.946   4.617   2.773
 3676SOL    HW111927   6.011   4.543   2.757
 3676SOL    HW211928   5.860   4.597   2.726
 3677SOL     OW11929   2.420   6.043   3.977
 3677SOL    HW111930   2.486   6.020   3.906
 3677SOL    HW211931   2.467   6.084   4.055
 3678SOL     OW11932   0.403   1.633   4.156
 3678SOL    HW111933   0.353   1.552   4.125
 3678SOL    HW211934   0.376   1.656   4.249
 3679SOL     OW11935   0.642   0.784   3.411
 3679SOL    HW111936   0.661   0.780   3.509
 3679SOL    HW211937   0.560   0.839   3.395
 3680SOL     OW11938   5.136   3.309   4.156
 3680SOL    HW111939   5.223   3.323   4.109
 3680SOL    HW211940   5.136   3.219   4.200
 3681SOL     OW11941   0.034   0.713   6.175
 3681SOL    HW111942   0.104   0.685   6.110
 3681SOL    HW211943   0.019   0.812   6.168
 3682SOL     OW11944   5.093   2.422   6.979
 3682SOL    HW111945   5.161   2.367   6.931
 3682SOL    HW211946   5.129   2.448   0.048
 3683SOL     OW11947   6.574   1.678   3.943
 3683SOL    HW111948   6.483   1.638   3.931
 3683SOL    HW211949   6.642   1.622   3.896
 3684SOL     OW11950   1.084   4.735   6.869
 3684SOL    HW111951   1.151   4.783   6.813
 3684SOL    HW211952   1.127   4.655   6.911
 3685SOL     OW11953   1.932   6.384   6.585
 3685SOL    HW111954   1.886   6.451   6.527
 3685SOL    HW211955   1.866   6.313   6.612
 3686SOL     OW11956   5.183   5.519   4.296
 3686SOL    HW111957   5.103   5.536   4.353
 3686SOL    HW211958   5.197   5.420   4.287
 3687SOL     OW11959   3.840   5.804   4.557
 3687SOL    HW111960   3.771   5.763   4.496
 3687SOL    HW211961   3.931   5.782   4.524
 3688SOL     OW11962   0.760   3.305   6.541
 3688SOL    HW111963   0.675   3.288   6.590
 3688SOL    HW211964   0.788   3.400   6.553
 3689SOL     OW11965   2.443   0.019   5.823
 3689SOL    HW111966   2.362   6.991   5.857
 3689SOL    HW211967   2.461   7.013   5.728
 3690SOL     OW11968   4.345   5.839   0.169
 3690SOL    HW111969   4.435   5.802   0.146
 3690SOL    HW211970   4.285   5.836   0.089
 3691SOL     OW11971   2.278   1.741   6.182
 3691SOL    HW111972   2.325   1.664   6.223
 3691SOL    HW211973   2.179   1.724   6.182
 3692SOL     OW11974   6.600   5.317   5.460
 3692SOL    HW111975   6.686   5.299   5.412
 3692SOL    HW211976   6.524   5.300   5.398
 3693SOL     OW11977   2.185   3.879   3.180
 3693SOL    HW111978   2.205   3.781   3.189
 3693SOL    HW211979   2.126   3.893   3.100
 3694SOL     OW11980   0.772   6.448   2.303
 3694SOL    HW111981   0.805   6.357   2.279
 3694SOL    HW211982   0.850   6.509   2.318
 3695SOL     OW11983   5.385   3.169   2.071
 3695SOL    HW111984   5.372   3.183   2.169
 3695SOL    HW211985   5.367   3.254   2.022
 3696SOL     OW11986   4.001   6.815   4.463
 3696SOL    HW111987   3.906   6.832   4.491
 3696SOL    HW211988   4.015   6.717   4.452
 3697SOL     OW11989   0.147   6.441   2.778
 3697SOL    HW111990   0.218   6.507   2.753
 3697SOL    HW211991   0.092   6.420   2.697
 3698SOL     OW11992   2.819   0.868   4.398
 3698SOL    HW111993   2.877   0.867   4.480
 3698SOL    HW211994   2.800   0.963   4.372
 3699SOL     OW11995   1.760   2.471   4.575
 3699SOL    HW111996   1.663   2.449   4.568
 3699SOL    HW211997   1.810   2.426   4.501
 3700SOL     OW11998   0.837   5.338   4.480
 3700SOL    HW111999   0.841   5.240   4.499
 3700SOL    HW212000   0.770   5.356   4.408
 3701SOL     OW12001   1.337   1.432   4.215
 3701SOL    HW112002   1.319   1.510   4.155
 3701SOL    HW212003   1.422   1.388   4.187
 3702SOL     OW12004   5.768   6.790   3.249
 3702SOL    HW112005   5.782   6.713   3.312
 3702SOL    HW212006   5.812   6.770   3.162
 3703SOL     OW12007   5.709   0.092   5.975
 3703SOL    HW112008   5.676   0.107   5.882
 3703SOL    HW212009   5.707   0.178   6.025
 3704SOL     OW12010   3.526   1.443   1.014
 3704SOL    HW112011   3.455   1.400   0.958
 3704SOL    HW212012   3.615   1.406   0.988
 3705SOL     OW12013   5.150   4.183   4.377
 3705SOL    HW112014   5.097   4.119   4.433
 3705SOL    HW212015   5.162   4.269   4.426
 3706SOL     OW12016   1.531   4.120   0.397
 3706SOL    HW112017   1.433   4.118   0.414
 3706SOL    HW212018   1.553   4.193   0.332
 3707SOL     OW12019   5.015   4.855   4.016
 3707SOL    HW112020   5.053   4.897   3.934
 3707SOL    HW212021   5.076   4.873   4.093
 3708SOL     OW12022   6.480   0.826   6.578
 3708SOL    HW112023   6.458   0.877   6.661
 3708SOL    HW212024   6.395   0.803   6.530
 3709SOL     OW12025   3.558   1.054   1.218
 3709SOL    HW112026   3.615   1.055   1.136
 3709SOL    HW212027   3.576   0.970   1.270
 3710SOL     OW12028   6.514   5.688   5.696
 3710SOL    HW112029   6.519   5.590   5.678
 3710SOL    HW212030   6.429   5.725   5.659
 3711SOL     OW12031   1.157   6.345   4.211
 3711SOL    HW112032   1.152   6.342   4.112
 3711SOL    HW212033   1.234   6.290   4.242
 3712SOL     OW12034   0.701   5.386   5.760
 3712SOL    HW112035   0.744   5.319   5.700
 3712SOL    HW212036   0.602   5.379   5.753
 3713SOL     OW12037   0.716   6.399   5.888
 3713SOL    HW112038   0.736   6.321   5.946
 3713SOL    HW212039   0.663   6.369   5.809
 3714SOL     OW12040   5.706   5.658   6.104
 3714SOL    HW112041   5.773   5.584   6.106
 3714SOL    HW212042   5.702   5.701   6.193
 3715SOL     OW12043   0.754   3.954   2.461
 3715SOL    HW112044   0.850   3.973   2.442
 3715SOL    HW212045   0.721   4.015   2.534
 3716SOL     OW12046   6.284   6.520   4.185
 3716SOL    HW112047   6.200   6.469   4.204
 3716SOL    HW212048   6.359   6.455   4.171
 3717SOL     OW12049   0.036   6.494   6.584
 3717SOL    HW112050   0.067   6.425   6.519
 3717SOL    HW212051   6.957   6.494   6.588
 3718SOL     OW12052   0.803   0.795   6.674
 3718SOL    HW112053   0.736   0.868   6.660
 3718SOL    HW212054   0.835   0.762   6.585
 3719SOL     OW12055   5.356   4.050   1.704
 3719SOL    HW112056   5.407   4.040   1.790
 3719SOL    HW212057   5.311   4.139   1.702
 3720SOL     OW12058   5.646   2.717   6.803
 3720SOL    HW112059   5.727   2.680   6.849
 3720SOL    HW212060   5.571   2.724   6.868
 3721SOL     OW12061   6.048   4.564   1.585
 3721SOL    HW112062   5.990   4.638   1.551
 3721SOL    HW212063   6.065   4.577   1.683
 3722SOL     OW12064   5.793   5.904   0.602
 3722SOL    HW112065   5.833   5.822   0.642
 3722SOL    HW212066   5.714   5.878   0.546
 3723SOL     OW12067   5.607   4.775   1.336
 3723SOL    HW112068   5.612   4.865   1.293
 3723SOL    HW212069   5.583   4.706   1.267
 3724SOL     OW12070   1.962   4.574   4.599
 3724SOL    HW112071   1.925   4.558   4.507
 3724SOL    HW212072   1.912   4.517   4.664
 3725SOL     OW12073   6.858   5.320   0.365
 3725SOL    HW112074   6.929   5.259   0.399
 3725SOL    HW212075   6.894   5.413   0.357
 3726SOL     OW12076   6.068   3.254   0.308
 3726SOL    HW112077   6.117   3.236   0.394
 3726SOL    HW212078   6.015   3.173   0.283
 3727SOL     OW12079   6.438   1.506   5.213
 3727SOL    HW112080   6.529   1.464   5.212
 3727SOL    HW212081   6.427   1.558   5.298
 3728SOL     OW12082   1.850   3.698   5.876
 3728SOL    HW112083   1.752   3.680   5.872
 3728SOL    HW212084   1.871   3.781   5.826
 3729SOL     OW12085   1.566   2.092   4.701
 3729SOL    HW112086   1.496   2.022   4.694
 3729SOL    HW212087   1.656   2.049   4.698
 3730SOL     OW12088   2.798   5.178   5.571
 3730SOL    HW112089   2.791   5.278   5.570
 3730SOL    HW212090   2.782   5.142   5.479
 3731SOL     OW12091   0.531   1.551   0.471
 3731SOL    HW112092   0.477   1.474   0.439
 3731SOL    HW212093   0.605   1.570   0.406
 3732SOL     OW12094   2.859   1.744   0.227
 3732SOL    HW112095   2.902   1.731   0.316
 3732SOL    HW212096   2.760   1.728   0.235
 3733SOL     OW12097   1.573   3.355   3.181
 3733SOL    HW112098   1.523   3.275   3.147
 3733SOL    HW212099   1.560   3.432   3.118
 3734SOL     OW12100   5.348   0.343   1.103
 3734SOL    HW112101   5.259   0.366   1.063
 3734SOL    HW212102   5.339   0.264   1.162
 3735SOL     OW12103   2.759   0.758   3.044
 3735SOL    HW112104   2.833   0.705   3.086
 3735SOL    HW212105   2.683   0.766   3.108
 3736SOL     OW12106   6.939   2.191   1.135
 3736SOL    HW112107   6.968   2.100   1.108
 3736SOL    HW212108   6.847   2.187   1.172
 3737SOL     OW12109   5.251   1.057   4.016
 3737SOL    HW112110   5.335   1.038   4.066
 3737SOL    HW212111   5.269   1.054   3.917
 3738SOL     OW12112   0.234   0.391   2.007
 3738SOL    HW112113   0.173   0.441   1.946
 3738SOL    HW212114   0.329   0.411   1.983
 3739SOL     OW12115   2.184   5.613   0.523
 3739SOL    HW112116   2.101   5.651   0.562
 3739SOL    HW212117   2.235   5.564   0.594
 3740SOL     OW12118   6.573   0.786   0.682
 3740SOL    HW112119   6.595   0.701   0.730
 3740SOL    HW212120   6.478   0.783   0.650
 3741SOL     OW12121   5.561   3.110   6.252
 3741SOL    HW112122   5.537   3.196   6.298
 3741SOL    HW212123   5.590   3.130   6.158
 3742SOL     OW12124   2.637   2.091   6.549
 3742SOL    HW112125   2.678   2.026   6.613
 3742SOL    HW212126   2.628   2.047   6.459
 3743SOL     OW12127   5.976   3.443   0.497
 3743SOL    HW112128   6.018   3.395   0.420
 3743SOL    HW212129   5.961   3.380   0.572
 3744SOL     OW12130   1.732   6.182   1.852
 3744SOL    HW112131   1.676   6.141   1.924
 3744SOL    HW212132   1.811   6.123   1.834
 3745SOL     OW12133   4.622   4.850   1.855
 3745SOL    HW112134   4.692   4.919   1.872
 3745SOL    HW212135   4.634   4.774   1.918
 3746SOL     OW12136   6.105   0.922   3.803
 3746SOL    HW112137   6.016   0.945   3.766
 3746SOL    HW212138   6.107   0.825   3.828
 3747SOL     OW12139   2.533   6.105   5.239
 3747SOL    HW112140   2.626   6.069   5.240
 3747SOL    HW212141   2.507   6.126   5.145
 3748SOL     OW12142   5.458   0.883   1.680
 3748SOL    HW112143   5.410   0.830   1.750
 3748SOL    HW212144   5.549   0.908   1.713
 3749SOL     OW12145   1.630   5.491   3.575
 3749SOL    HW112146   1.633   5.585   3.542
 3749SOL    HW212147   1.536   5.457   3.570
 3750SOL     OW12148   6.463   4.582   1.500
 3750SOL    HW112149   6.397   4.637   1.449
 3750SOL    HW212150   6.543   4.638   1.522
 3751SOL     OW12151   6.472   3.381   1.187
 3751SOL    HW112152   6.529   3.447   1.138
 3751SOL    HW212153   6.400   3.348   1.127
 3752SOL     OW12154   6.351   6.543   0.357
 3752SOL    HW112155   6.380   6.515   0.265
 3752SOL    HW212156   6.338   6.462   0.414
 3753SOL     OW12157   6.663   0.278   4.203
 3753SOL    HW112158   6.568   0.304   4.191
 3753SOL    HW212159   6.714   0.300   4.119
 3754SOL     OW12160   3.838   0.209   1.236
 3754SOL    HW112161   3.845   0.150   1.316
 3754SOL    HW212162   3.842   0.305   1.265
 3755SOL     OW12163   4.810   5.517   4.419
 3755SOL    HW112164   4.820   5.610   4.385
 3755SOL    HW212165   4.855   5.508   4.508
 3756SOL     OW12166   2.191   5.532   6.777
 3756SOL    HW112167   2.152   5.544   6.686
 3756SOL    HW212168   2.128   5.478   6.833
 3757SOL     OW12169   4.724   6.318   6.256
 3757SOL    HW112170   4.777   6.380   6.199
 3757SOL    HW212171   4.633   6.356   6.271
 3758SOL     OW12172   2.534   1.284   5.298
 3758SOL    HW112173   2.563   1.329   5.382
 3758SOL    HW212174   2.457   1.223   5.317
 3759SOL     OW12175   4.681   5.901   6.479
 3759SOL    HW112176   4.738   5.982   6.461
 3759SOL    HW212177   4.624   5.882   6.400
 3760SOL     OW12178   1.637   1.243   4.635
 3760SOL    HW112179   1.575   1.164   4.633
 3760SOL    HW212180   1.684   1.246   4.723
 3761SOL     OW12181   1.171   1.263   4.642
 3761SOL    HW112182   1.226   1.261   4.726
 3761SOL    HW212183   1.227   1.298   4.567
 3762SOL     OW12184   1.025   3.699   0.963
 3762SOL    HW112185   1.062   3.673   0.874
 3762SOL    HW212186   0.990   3.793   0.959
 3763SOL     OW12187   6.619   3.624   1.068
 3763SOL    HW112188   6.706   3.619   1.116
 3763SOL    HW212189   6.596   3.719   1.049
 3764SOL     OW12190   2.003   6.901   2.873
 3764SOL    HW112191   1.951   6.953   2.941
 3764SOL    HW212192   1.969   6.922   2.781
 3765SOL     OW12193   5.384   1.017   0.663
 3765SOL    HW112194   5.384   1.045   0.759
 3765SOL    HW212195   5.430   1.087   0.608
 3766SOL     OW12196   1.432   1.308   3.703
 3766SOL    HW112197   1.516   1.301   3.757
 3766SOL    HW212198   1.454   1.343   3.612
 3767SOL     OW12199   1.920   4.758   0.240
 3767SOL    HW112200   1.960   4.814   0.167
 3767SOL    HW212201   1.842   4.807   0.280
 3768SOL     OW12202   1.386   6.374   4.608
 3768SOL    HW112203   1.370   6.452   4.547
 3768SOL    HW212204   1.299   6.346   4.649
 3769SOL     OW12205   6.477   6.043   5.572
 3769SOL    HW112206   6.499   6.065   5.667
 3769SOL    HW212207   6.405   5.973   5.570
 3770SOL     OW12208   1.942   1.649   6.203
 3770SOL    HW112209   1.881   1.713   6.156
 3770SOL    HW212210   1.955   1.568   6.147
 3771SOL     OW12211   5.902   3.429   6.953
 3771SOL    HW112212   5.831   3.359   6.965
 3771SOL    HW212213   5.913   3.447   6.855
 3772SOL     OW12214   0.261   0.734   6.341
 3772SOL    HW112215   0.169   0.739   6.300
 3772SOL    HW212216   0.285   0.638   6.355
 3773SOL     OW12217   6.147   2.699   6.175
 3773SOL    HW112218   6.179   2.791   6.154
 3773SOL    HW212219   6.062   2.705   6.227
 3774SOL     OW12220   0.028   6.016   0.781
 3774SOL    HW112221   0.044   5.917   0.776
 3774SOL    HW212222   6.965   6.038   0.730
 3775SOL     OW12223   4.676   5.219   2.093
 3775SOL    HW112224   4.596   5.270   2.125
 3775SOL    HW212225   4.758   5.274   2.105
 3776SOL     OW12226   4.661   1.528   0.005
 3776SOL    HW112227   4.736   1.467   0.032
 3776SOL    HW212228   4.692   1.588   6.952
 3777SOL     OW12229   3.467   5.745   3.765
 3777SOL    HW112230   3.421   5.660   3.791
 3777SOL    HW212231   3.476   5.804   3.845
 3778SOL     OW12232   3.533   5.028   2.603
 3778SOL    HW112233   3.473   4.984   2.671
 3778SOL    HW212234   3.492   5.114   2.574
 3779SOL     OW12235   1.663   4.447   0.492
 3779SOL    HW112236   1.635   4.492   0.407
 3779SOL    HW212237   1.735   4.501   0.536
 3780SOL     OW12238   6.250   5.394   5.468
 3780SOL    HW112239   6.256   5.313   5.410
 3780SOL    HW212240   6.338   5.411   5.511
 3781SOL     OW12241   0.718   5.703   4.485
 3781SOL    HW112242   0.758   5.615   4.459
 3781SOL    HW212243   0.660   5.691   4.565
 3782SOL     OW12244   2.233   0.462   3.816
 3782SOL    HW112245   2.322   0.490   3.782
 3782SOL    HW212246   2.243   0.381   3.874
 3783SOL     OW12247   5.913   5.684   3.237
 3783SOL    HW112248   5.852   5.657   3.311
 3783SOL    HW212249   5.860   5.705   3.155
 3784SOL     OW12250   4.637   2.573   2.933
 3784SOL    HW112251   4.618   2.493   2.875
 3784SOL    HW212252   4.664   2.650   2.875
 3785SOL     OW12253   2.361   2.748   6.016
 3785SOL    HW112254   2.321   2.839   6.006
 3785SOL    HW212255   2.289   2.683   6.038
 3786SOL     OW12256   2.081   5.375   3.096
 3786SOL    HW112257   2.150   5.446   3.079
 3786SOL    HW212258   2.071   5.363   3.195
 3787SOL     OW12259   6.037   1.141   2.514
 3787SOL    HW112260   5.986   1.215   2.472
 3787SOL    HW212261   5.982   1.099   2.586
 3788SOL     OW12262   0.791   4.656   4.681
 3788SOL    HW112263   0.845   4.574   4.703
 3788SOL    HW212264   0.834   4.705   4.606
 3789SOL     OW12265   0.380   3.073   4.777
 3789SOL    HW112266   0.318   3.002   4.811
 3789SOL    HW212267   0.383   3.149   4.841
 3790SOL     OW12268   1.495   4.457   5.585
 3790SOL    HW112269   1.434   4.535   5.602
 3790SOL    HW212270   1.441   4.378   5.556
 3791SOL     OW12271   5.393   0.630   0.023
 3791SOL    HW112272   5.333   0.706   0.046
 3791SOL    HW212273   5.417   0.635   6.947
 3792SOL     OW12274   0.988   2.457   4.933
 3792SOL    HW112275   0.966   2.541   4.883
 3792SOL    HW212276   1.017   2.480   5.025
 3793SOL     OW12277   4.768   6.788   2.033
 3793SOL    HW112278   4.816   6.876   2.023
 3793SOL    HW212279   4.827   6.723   2.079
 3794SOL     OW12280   2.393   3.640   0.747
 3794SOL    HW112281   2.421   3.725   0.701
 3794SOL    HW212282   2.317   3.660   0.809
 3795SOL     OW12283   4.210   6.498   7.014
 3795SOL    HW112284   4.215   6.598   7.012
 3795SOL    HW212285   4.303   6.461   7.016
 3796SOL     OW12286   3.065   2.124   2.564
 3796SOL    HW112287   3.063   2.165   2.655
 3796SOL    HW212288   3.159   2.114   2.533
 3797SOL     OW12289   0.185   3.791   1.426
 3797SOL    HW112290   0.185   3.759   1.331
 3797SOL    HW212291   0.276   3.826   1.449
 3798SOL     OW12292   2.649   5.623   3.030
 3798SOL    HW112293   2.656   5.550   3.097
 3798SOL    HW212294   2.612   5.587   2.944
 3799SOL     OW12295   0.083   2.489   4.024
 3799SOL    HW112296   0.134   2.544   3.958
 3799SOL    HW212297   0.070   2.397   3.988
 3800SOL     OW12298   5.732   3.695   3.864
 3800SOL    HW112299   5.727   3.634   3.943
 3800SOL    HW212300   5.640   3.708   3.827
 3801SOL     OW12301   5.992   6.956   2.484
 3801SOL    HW112302   6.015   6.859   2.473
 3801SOL    HW212303   5.921   6.965   2.554
 3802SOL     OW12304   1.155   2.319   2.744
 3802SOL    HW112305   1.206   2.248   2.792
 3802SOL    HW212306   1.195   2.334   2.654
 3803SOL     OW12307   3.346   2.724   1.513
 3803SOL    HW112308   3.355   2.727   1.613
 3803SOL    HW212309   3.417   2.666   1.475
 3804SOL     OW12310   4.924   1.610   3.796
 3804SOL    HW112311   4.865   1.576   3.722
 3804SOL    HW212312   4.939   1.538   3.863
 3805SOL     OW12313   2.704   2.833   1.609
 3805SOL    HW112314   2.669   2.765   1.673
 3805SOL    HW212315   2.750   2.786   1.533
 3806SOL     OW12316   3.653   3.902   6.494
 3806SOL    HW112317   3.737   3.868   6.536
 3806SOL    HW212318   3.593   3.825   6.473
 3807SOL     OW12319   1.516   6.016   2.700
 3807SOL    HW112320   1.417   6.024   2.704
 3807SOL    HW212321   1.556   6.043   2.788
 3808SOL     OW12322   4.430   0.975   0.939
 3808SOL    HW112323   4.522   0.978   0.978
 3808SOL    HW212324   4.431   0.923   0.854
 3809SOL     OW12325   5.045   3.189   1.055
 3809SOL    HW112326   5.056   3.207   1.152
 3809SOL    HW212327   5.030   3.091   1.040
 3810SOL     OW12328   4.534   2.577   3.987
 3810SOL    HW112329   4.594   2.497   3.988
 3810SOL    HW212330   4.577   2.652   3.937
 3811SOL     OW12331   1.144   4.445   4.062
 3811SOL    HW112332   1.070   4.404   4.009
 3811SOL    HW212333   1.133   4.423   4.159
 3812SOL     OW12334   5.103   6.081   4.431
 3812SOL    HW112335   5.168   6.063   4.505
 3812SOL    HW212336   5.089   6.179   4.421
 3813SOL     OW12337   4.788   4.294   0.489
 3813SOL    HW112338   4.787   4.194   0.482
 3813SOL    HW212339   4.845   4.331   0.416
 3814SOL     OW12340   0.094   0.115   6.965
 3814SOL    HW112341   0.030   0.131   0.019
 3814SOL    HW212342   0.134   0.202   6.936
 3815SOL     OW12343   4.985   2.412   0.614
 3815SOL    HW112344   5.085   2.409   0.624
 3815SOL    HW212345   4.962   2.413   0.516
 3816SOL     OW12346   1.175   6.339   0.188
 3816SOL    HW112347   1.177   6.257   0.245
 3816SOL    HW212348   1.146   6.315   0.095
 3817SOL     OW12349   5.401   4.007   2.732
 3817SOL    HW112350   5.420   4.064   2.812
 3817SOL    HW212351   5.456   4.040   2.654
 3818SOL     OW12352   6.406   0.763   7.007
 3818SOL    HW112353   6.475   0.804   0.046
 3818SOL    HW212354   6.315   0.786   0.018
 3819SOL     OW12355   5.310   5.180   1.923
 3819SOL    HW112356   5.248   5.138   1.857
 3819SOL    HW212357   5.316   5.278   1.905
 3820SOL     OW12358   5.627   6.441   3.832
 3820SOL    HW112359   5.642   6.420   3.735
 3820SOL    HW212360   5.529   6.453   3.849
 3821SOL     OW12361   2.519   1.543   1.064
 3821SOL    HW112362   2.503   1.641   1.068
 3821SOL    HW212363   2.443   1.495   1.108
 3822SOL     OW12364   2.021   0.218   1.453
 3822SOL    HW112365   1.958   0.219   1.531
 3822SOL    HW212366   1.993   0.288   1.387
 3823SOL     OW12367   3.360   2.978   5.809
 3823SOL    HW112368   3.393   2.887   5.785
 3823SOL    HW212369   3.262   2.975   5.830
 3824SOL     OW12370   6.003   2.058   1.246
 3824SOL    HW112371   6.094   2.033   1.279
 3824SOL    HW212372   5.934   2.004   1.295
 3825SOL     OW12373   0.571   6.073   1.062
 3825SOL    HW112374   0.570   5.990   1.118
 3825SOL    HW212375   0.478   6.111   1.058
 3826SOL     OW12376   0.894   3.022   6.878
 3826SOL    HW112377   0.835   2.993   6.803
 3826SOL    HW212378   0.965   3.082   6.843
 3827SOL     OW12379   2.311   2.391   1.514
 3827SOL    HW112380   2.236   2.331   1.487
 3827SOL    HW212381   2.325   2.383   1.613
 3828SOL     OW12382   3.737   2.802   1.849
 3828SOL    HW112383   3.755   2.724   1.787
 3828SOL    HW212384   3.662   2.779   1.910
 3829SOL     OW12385   1.207   4.649   3.701
 3829SOL    HW112386   1.152   4.666   3.783
 3829SOL    HW212387   1.248   4.558   3.706
 3830SOL     OW12388   0.641   1.485   4.433
 3830SOL    HW112389   0.568   1.552   4.444
 3830SOL    HW212390   0.669   1.480   4.337
 3831SOL     OW12391   4.841   2.408   1.881
 3831SOL    HW112392   4.757   2.431   1.832
 3831SOL    HW212393   4.825   2.412   1.980
 3832SOL     OW12394   6.161   0.891   2.525
 3832SOL    HW112395   6.109   0.974   2.503
 3832SOL    HW212396   6.209   0.860   2.442
 3833SOL     OW12397   0.430   6.351   5.751
 3833SOL    HW112398   0.465   6.264   5.717
 3833SOL    HW212399   0.355   6.382   5.693
 3834SOL     OW12400   4.785   3.616   1.742
 3834SOL    HW112401   4.732   3.685   1.692
 3834SOL    HW212402   4.725   3.541   1.770
 3835SOL     OW12403   3.099   5.290   4.088
 3835SOL    HW112404   3.010   5.311   4.130
 3835SOL    HW212405   3.172   5.309   4.153
 3836SOL     OW12406   1.655   3.895   5.587
 3836SOL    HW112407   1.664   3.977   5.530
 3836SOL    HW212408   1.711   3.821   5.548
 3837SOL     OW12409   4.837   4.461   6.587
 3837SOL    HW112410   4.801   4.368   6.586
 3837SOL    HW212411   4.790   4.515   6.516
 3838SOL     OW12412   6.848   3.563   4.786
 3838SOL    HW112413   6.807   3.472   4.795
 3838SOL    HW212414   6.802   3.627   4.847
 3839SOL     OW12415   4.476   0.682   3.352
 3839SOL    HW112416   4.416   0.676   3.432
 3839SOL    HW212417   4.556   0.623   3.366
 3840SOL     OW12418   1.997   0.756   5.695
 3840SOL    HW112419   2.006   0.801   5.784
 3840SOL    HW212420   1.907   0.775   5.657
 3841SOL     OW12421   0.278   3.539   5.541
 3841SOL    HW112422   0.309   3.634   5.532
 3841SOL    HW212423   0.181   3.537   5.562
 3842SOL     OW12424   1.782   3.637   6.792
 3842SOL    HW112425   1.709   3.569   6.779
 3842SOL    HW212426   1.870   3.590   6.797
 3843SOL     OW12427   6.323   4.316   2.629
 3843SOL    HW112428   6.380   4.238   2.656
 3843SOL    HW212429   6.380   4.389   2.593
 3844SOL     OW12430   0.706   2.671   6.196
 3844SOL    HW112431   0.635   2.711   6.254
 3844SOL    HW212432   0.771   2.742   6.169
 3845SOL     OW12433   3.935   3.223   3.873
 3845SOL    HW112434   3.839   3.250   3.866
 3845SOL    HW212435   3.966   3.185   3.786
 3846SOL     OW12436   0.709   5.481   3.911
 3846SOL    HW112437   0.654   5.467   3.993
 3846SOL    HW212438   0.650   5.511   3.836
 3847SOL     OW12439   6.248   0.749   4.508
 3847SOL    HW112440   6.294   0.813   4.570
 3847SOL    HW212441   6.314   0.684   4.472
 3848SOL     OW12442   3.142   5.574   2.807
 3848SOL    HW112443   3.056   5.534   2.778
 3848SOL    HW212444   3.140   5.588   2.906
 3849SOL     OW12445   0.901   1.803   5.463
 3849SOL    HW112446   0.903   1.881   5.399
 3849SOL    HW212447   0.979   1.744   5.446
 3850SOL     OW12448   2.746   3.417   1.082
 3850SOL    HW112449   2.693   3.370   1.153
 3850SOL    HW212450   2.749   3.515   1.103
 3851SOL     OW12451   1.811   4.413   2.565
 3851SOL    HW112452   1.826   4.381   2.659
 3851SOL    HW212453   1.761   4.500   2.567
 3852SOL     OW12454   4.561   6.734   3.938
 3852SOL    HW112455   4.620   6.688   3.872
 3852SOL    HW212456   4.541   6.672   4.014
 3853SOL     OW12457   0.900   3.303   3.417
 3853SOL    HW112458   0.854   3.269   3.335
 3853SOL    HW212459   0.837   3.359   3.470
 3854SOL     OW12460   1.188   3.551   2.299
 3854SOL    HW112461   1.103   3.601   2.283
 3854SOL    HW212462   1.187   3.510   2.390
 3855SOL     OW12463   5.303   6.471   6.863
 3855SOL    HW112464   5.319   6.532   6.785
 3855SOL    HW212465   5.216   6.424   6.850
 3856SOL     OW12466   6.982   6.514   5.463
 3856SOL    HW112467   6.993   6.522   5.364
 3856SOL    HW212468   0.025   6.445   5.498
 3857SOL     OW12469   0.650   6.063   5.934
 3857SOL    HW112470   0.656   5.968   5.903
 3857SOL    HW212471   0.742   6.096   5.956
 3858SOL     OW12472   1.391   6.677   5.723
 3858SOL    HW112473   1.341   6.647   5.805
 3858SOL    HW212474   1.459   6.746   5.749
 3859SOL     OW12475   6.368   2.533   3.037
 3859SOL    HW112476   6.466   2.528   3.015
 3859SOL    HW212477   6.323   2.595   2.973
 3860SOL     OW12478   2.177   0.487   5.731
 3860SOL    HW112479   2.108   0.415   5.730
 3860SOL    HW212480   2.268   0.446   5.724
 3861SOL     OW12481   4.669   4.522   3.043
 3861SOL    HW112482   4.607   4.486   2.973
 3861SOL    HW212483   4.695   4.449   3.106
 3862SOL     OW12484   0.958   0.254   5.142
 3862SOL    HW112485   0.941   0.157   5.125
 3862SOL    HW212486   1.054   0.275   5.124
 3863SOL     OW12487   4.600   2.851   6.121
 3863SOL    HW112488   4.698   2.835   6.128
 3863SOL    HW212489   4.555   2.767   6.092
 3864SOL     OW12490   2.741   0.477   5.406
 3864SOL    HW112491   2.808   0.545   5.437
 3864SOL    HW212492   2.724   0.489   5.309
 3865SOL     OW12493   3.451   6.624   0.567
 3865SOL    HW112494   3.522   6.554   0.555
 3865SOL    HW212495   3.368   6.582   0.604
 3866SOL     OW12496   4.055   1.087   1.493
 3866SOL    HW112497   4.033   1.107   1.589
 3866SOL    HW212498   4.075   1.172   1.445
 3867SOL     OW12499   1.398   4.157   3.535
 3867SOL    HW112500   1.419   4.069   3.578
 3867SOL    HW212501   1.477   4.187   3.481
 3868SOL     OW12502   3.262   0.056   0.708
 3868SOL    HW112503   3.297   0.067   0.801
 3868SOL    HW212504   3.332   0.085   0.642
 3869SOL     OW12505   6.886   3.057   5.162
 3869SOL    HW112506   6.964   3.059   5.224
 3869SOL    HW212507   6.836   2.971   5.172
 3870SOL     OW12508   4.312   4.734   0.234
 3870SOL    HW112509   4.266   4.649   0.259
 3870SOL    HW212510   4.302   4.801   0.308
 3871SOL     OW12511   4.484   0.190   2.293
 3871SOL    HW112512   4.566   0.200   2.237
 3871SOL    HW212513   4.464   0.278   2.338
 3872SOL     OW12514   3.869   3.208   2.101
 3872SOL    HW112515   3.953   3.252   2.069
 3872SOL    HW212516   3.829   3.263   2.174
 3873SOL     OW12517   6.941   3.939   1.197
 3873SOL    HW112518   6.941   3.948   1.297
 3873SOL    HW212519   6.887   3.859   1.171
 3874SOL     OW12520   3.474   5.835   6.591
 3874SOL    HW112521   3.490   5.779   6.673
 3874SOL    HW212522   3.424   5.917   6.617
 3875SOL     OW12523   1.354   3.241   1.853
 3875SOL    HW112524   1.291   3.163   1.860
 3875SOL    HW212525   1.344   3.299   1.935
 3876SOL     OW12526   6.001   4.832   0.060
 3876SOL    HW112527   5.910   4.806   0.094
 3876SOL    HW212528   5.991   4.899   7.008
 3877SOL     OW12529   6.875   2.958   6.949
 3877SOL    HW112530   6.942   3.012   6.999
 3877SOL    HW212531   6.922   2.900   6.881
 3878SOL     OW12532   2.218   6.648   5.636
 3878SOL    HW112533   2.140   6.708   5.616
 3878SOL    HW212534   2.210   6.564   5.581
 3879SOL     OW12535   5.415   6.678   1.296
 3879SOL    HW112536   5.438   6.676   1.394
 3879SOL    HW212537   5.330   6.729   1.284
 3880SOL     OW12538   6.269   4.419   3.676
 3880SOL    HW112539   6.259   4.489   3.605
 3880SOL    HW212540   6.328   4.454   3.749
 3881SOL     OW12541   0.858   4.524   0.980
 3881SOL    HW112542   0.822   4.526   1.073
 3881SOL    HW212543   0.948   4.567   0.978
 3882SOL     OW12544   6.299   1.519   4.567
 3882SOL    HW112545   6.213   1.498   4.613
 3882SOL    HW212546   6.320   1.447   4.500
 3883SOL     OW12547   4.654   0.901   3.401
 3883SOL    HW112548   4.576   0.839   3.392
 3883SOL    HW212549   4.662   0.956   3.318
 3884SOL     OW12550   1.302   5.530   3.581
 3884SOL    HW112551   1.313   5.608   3.643
 3884SOL    HW212552   1.290   5.446   3.635
 3885SOL     OW12553   6.622   0.792   3.789
 3885SOL    HW112554   6.526   0.822   3.789
 3885SOL    HW212555   6.679   0.864   3.750
 3886SOL     OW12556   6.733   5.956   5.164
 3886SOL    HW112557   6.813   5.961   5.104
 3886SOL    HW212558   6.722   6.042   5.212
 3887SOL     OW12559   5.622   1.364   5.367
 3887SOL    HW112560   5.640   1.455   5.330
 3887SOL    HW212561   5.605   1.301   5.291
 3888SOL     OW12562   0.887   0.311   6.616
 3888SOL    HW112563   0.803   0.314   6.562
 3888SOL    HW212564   0.933   0.224   6.601
 3889SOL     OW12565   6.961   2.771   5.988
 3889SOL    HW112566   7.012   2.706   5.931
 3889SOL    HW212567   7.001   2.774   6.080
 3890SOL     OW12568   6.277   5.630   2.483
 3890SOL    HW112569   6.300   5.672   2.395
 3890SOL    HW212570   6.353   5.572   2.513
 3891SOL     OW12571   5.467   4.809   4.881
 3891SOL    HW112572   5.405   4.888   4.888
 3891SOL    HW212573   5.514   4.811   4.793
 3892SOL     OW12574   0.364   1.910   2.490
 3892SOL    HW112575   0.349   1.872   2.581
 3892SOL    HW212576   0.295   1.876   2.427
 3893SOL     OW12577   3.193   5.434   1.977
 3893SOL    HW112578   3.194   5.340   1.942
 3893SOL    HW212579   3.270   5.447   2.039
 3894SOL     OW12580   2.645   2.150   0.791
 3894SOL    HW112581   2.725   2.098   0.760
 3894SOL    HW212582   2.675   2.230   0.842
 3895SOL     OW12583   1.072   0.649   5.173
 3895SOL    HW112584   1.062   0.674   5.076
 3895SOL    HW212585   1.168   0.628   5.192
 3896SOL     OW12586   0.246   2.166   6.250
 3896SOL    HW112587   0.158   2.163   6.298
 3896SOL    HW212588   0.314   2.115   6.303
 3897SOL     OW12589   3.656   6.623   1.989
 3897SOL    HW112590   3.564   6.635   2.025
 3897SOL    HW212591   3.720   6.681   2.040
 3898SOL     OW12592   3.290   3.754   3.737
 3898SOL    HW112593   3.317   3.703   3.819
 3898SOL    HW212594   3.217   3.818   3.761
 3899SOL     OW12595   5.177   0.826   4.407
 3899SOL    HW112596   5.255   0.829   4.344
 3899SOL    HW212597   5.162   0.732   4.438
 3900SOL     OW12598   5.091   3.139   2.988
 3900SOL    HW112599   5.174   3.176   3.029
 3900SOL    HW212600   5.062   3.058   3.038
 3901SOL     OW12601   3.083   6.528   5.961
 3901SOL    HW112602   3.149   6.601   5.945
 3901SOL    HW212603   3.006   6.539   5.898
 3902SOL     OW12604   5.383   3.588   1.905
 3902SOL    HW112605   5.440   3.644   1.965
 3902SOL    HW212606   5.316   3.537   1.960
 3903SOL     OW12607   4.965   3.654   6.787
 3903SOL    HW112608   4.891   3.595   6.820
 3903SOL    HW212609   4.967   3.652   6.687
 3904SOL     OW12610   2.043   0.387   6.146
 3904SOL    HW112611   1.958   0.333   6.145
 3904SOL    HW212612   2.027   0.474   6.099
 3905SOL     OW12613   5.964   6.459   6.232
 3905SOL    HW112614   6.057   6.457   6.269
 3905SOL    HW212615   5.900   6.421   6.299
 3906SOL     OW12616   1.673   4.785   5.703
 3906SOL    HW112617   1.729   4.752   5.780
 3906SOL    HW212618   1.598   4.721   5.687
 3907SOL     OW12619   6.737   0.999   3.997
 3907SOL    HW112620   6.799   0.921   3.985
 3907SOL    HW212621   6.666   0.996   3.927
 3908SOL     OW12622   1.731   1.393   6.599
 3908SOL    HW112623   1.725   1.469   6.664
 3908SOL    HW212624   1.707   1.425   6.508
 3909SOL     OW12625   6.863   4.317   6.496
 3909SOL    HW112626   6.833   4.244   6.434
 3909SOL    HW212627   6.959   4.337   6.479
 3910SOL     OW12628   3.385   3.866   1.927
 3910SOL    HW112629   3.421   3.795   1.867
 3910SOL    HW212630   3.375   3.829   2.019
 3911SOL     OW12631   5.012   1.070   0.397
 3911SOL    HW112632   5.044   1.129   0.471
 3911SOL    HW212633   4.916   1.091   0.377
 3912SOL     OW12634   3.971   0.885   6.122
 3912SOL    HW112635   3.966   0.861   6.219
 3912SOL    HW212636   4.035   0.960   6.109
 3913SOL     OW12637   2.888   6.361   6.882
 3913SOL    HW112638   2.966   6.423   6.881
 3913SOL    HW212639   2.901   6.289   6.813
 3914SOL     OW12640   5.017   0.553   1.375
 3914SOL    HW112641   5.076   0.625   1.412
 3914SOL    HW212642   5.071   0.472   1.355
 3915SOL     OW12643   4.680   6.850   0.150
 3915SOL    HW112644   4.748   6.845   0.223
 3915SOL    HW212645   4.631   6.763   0.144
 3916SOL     OW12646   2.640   0.046   2.953
 3916SOL    HW112647   2.681   0.026   3.042
 3916SOL    HW212648   2.702   0.016   2.880
 3917SOL     OW12649   1.234   4.330   1.304
 3917SOL    HW112650   1.233   4.397   1.378
 3917SOL    HW212651   1.259   4.374   1.218
 3918SOL     OW12652   3.581   6.563   1.131
 3918SOL    HW112653   3.675   6.595   1.119
 3918SOL    HW212654   3.517   6.636   1.106
 3919SOL     OW12655   3.472   0.336   6.816
 3919SOL    HW112656   3.555   0.315   6.868
 3919SOL    HW212657   3.402   0.373   6.877
 3920SOL     OW12658   2.905   0.746   6.536
 3920SOL    HW112659   2.818   0.750   6.586
 3920SOL    HW212660   2.902   0.807   6.457
 3921SOL     OW12661   0.294   1.967   6.943
 3921SOL    HW112662   0.313   1.976   0.020
 3921SOL    HW212663   0.380   1.958   6.892
 3922SOL     OW12664   4.917   4.993   1.568
 3922SOL    HW112665   4.945   4.901   1.595
 3922SOL    HW212666   4.841   5.023   1.625
 3923SOL     OW12667   5.469   2.169   1.092
 3923SOL    HW112668   5.383   2.211   1.120
 3923SOL    HW212669   5.460   2.070   1.095
 3924SOL     OW12670   0.561   4.910   2.693
 3924SOL    HW112671   0.587   5.005   2.676
 3924SOL    HW212672   0.494   4.907   2.767
 3925SOL     OW12673   4.638   4.845   1.033
 3925SOL    HW112674   4.625   4.940   1.064
 3925SOL    HW212675   4.588   4.783   1.093
 3926SOL     OW12676   0.240   0.157   5.087
 3926SOL    HW112677   0.240   0.140   5.185
 3926SOL    HW212678   0.303   0.233   5.067
 3927SOL     OW12679   0.180   2.746   4.496
 3927SOL    HW112680   0.251   2.812   4.522
 3927SOL    HW212681   0.187   2.727   4.398
 3928SOL     OW12682   3.125   5.726   3.120
 3928SOL    HW112683   3.208   5.686   3.158
 3928SOL    HW212684   3.050   5.660   3.127
 3929SOL     OW12685   0.257   1.007   6.867
 3929SOL    HW112686   0.244   1.019   6.966
 3929SOL    HW212687   0.180   0.956   6.830
 3930SOL     OW12688   0.884   2.156   3.730
 3930SOL    HW112689   0.882   2.171   3.829
 3930SOL    HW212690   0.836   2.230   3.684
 3931SOL     OW12691   1.839   1.690   1.988
 3931SOL    HW112692   1.919   1.691   1.929
 3931SOL    HW212693   1.810   1.595   2.004
 3932SOL     OW12694   2.140   4.775   3.831
 3932SOL    HW112695   2.191   4.695   3.862
 3932SOL    HW212696   2.042   4.756   3.834
 3933SOL     OW12697   1.725   0.190   0.018
 3933SOL    HW112698   1.685   0.282   0.021
 3933SOL    HW212699   1.814   0.194   6.993
 3934SOL     OW12700   6.843   1.209   3.194
 3934SOL    HW112701   6.793   1.279   3.143
 3934SOL    HW212702   6.803   1.120   3.177
 3935SOL     OW12703   0.640   1.372   5.802
 3935SOL    HW112704   0.553   1.332   5.774
 3935SOL    HW212705   0.636   1.397   5.899
 3936SOL     OW12706   6.746   6.047   5.434
 3936SOL    HW112707   6.785   5.957   5.418
 3936SOL    HW212708   6.655   6.038   5.474
 3937SOL     OW12709   6.696   6.664   2.449
 3937SOL    HW112710   6.708   6.585   2.510
 3937SOL    HW212711   6.701   6.748   2.503
 3938SOL     OW12712   6.292   4.340   4.405
 3938SOL    HW112713   6.354   4.417   4.398
 3938SOL    HW212714   6.230   4.353   4.482
 3939SOL     OW12715   3.001   1.695   3.804
 3939SOL    HW112716   2.992   1.793   3.824
 3939SOL    HW212717   2.946   1.673   3.723
 3940SOL     OW12718   2.745   4.799   1.840
 3940SOL    HW112719   2.772   4.716   1.889
 3940SOL    HW212720   2.663   4.781   1.786
 3941SOL     OW12721   5.890   0.101   4.721
 3941SOL    HW112722   5.814   0.161   4.695
 3941SOL    HW212723   5.898   0.027   4.654
 3942SOL     OW12724   0.570   6.295   5.404
 3942SOL    HW112725   0.529   6.381   5.435
 3942SOL    HW212726   0.569   6.229   5.479
 3943SOL     OW12727   0.798   3.286   2.488
 3943SOL    HW112728   0.782   3.313   2.583
 3943SOL    HW212729   0.714   3.300   2.435
 3944SOL     OW12730   5.885   3.722   5.884
 3944SOL    HW112731   5.887   3.622   5.887
 3944SOL    HW212732   5.966   3.755   5.836
 3945SOL     OW12733   1.092   2.376   3.431
 3945SOL    HW112734   1.105   2.405   3.336
 3945SOL    HW212735   1.150   2.431   3.491
 3946SOL     OW12736   0.451   3.631   6.792
 3946SOL    HW112737   0.436   3.671   6.883
 3946SOL    HW212738   0.545   3.647   6.764
 3947SOL     OW12739   5.899   5.080   0.637
 3947SOL    HW112740   5.966   5.008   0.657
 3947SOL    HW212741   5.914   5.114   0.544
 3948SOL     OW12742   1.692   3.834   6.618
 3948SOL    HW112743   1.709   3.769   6.692
 3948SOL    HW212744   1.766   3.902   6.616
 3949SOL     OW12745   6.572   6.797   3.731
 3949SOL    HW112746   6.652   6.773   3.786
 3949SOL    HW212747   6.600   6.857   3.655
 3950SOL     OW12748   4.127   3.907   1.687
 3950SOL    HW112749   4.138   3.817   1.645
 3950SOL    HW212750   4.217   3.946   1.706
 3951SOL     OW12751   0.423   1.327   6.582
 3951SOL    HW112752   0.479   1.377   6.648
 3951SOL    HW212753   0.335   1.305   6.623
 3952SOL     OW12754   6.099   3.338   4.455
 3952SOL    HW112755   6.027   3.297   4.511
 3952SOL    HW212756   6.175   3.273   4.445
 3953SOL     OW12757   3.467   3.992   5.874
 3953SOL    HW112758   3.555   3.985   5.828
 3953SOL    HW212759   3.414   4.068   5.836
 3954SOL     OW12760   5.471   4.887   5.869
 3954SOL    HW112761   5.549   4.830   5.846
 3954SOL    HW212762   5.405   4.834   5.922
 3955SOL     OW12763   5.136   6.152   0.033
 3955SOL    HW112764   5.140   6.243   7.014
 3955SOL    HW212765   5.108   6.086   6.984
 3956SOL     OW12766   0.764   2.566   5.173
 3956SOL    HW112767   0.777   2.653   5.126
 3956SOL    HW212768   0.734   2.583   5.267
 3957SOL     OW12769   3.547   6.073   3.145
 3957SOL    HW112770   3.536   6.000   3.213
 3957SOL    HW212771   3.573   6.034   3.057
 3958SOL     OW12772   6.277   6.253   6.797
 3958SOL    HW112773   6.219   6.176   6.773
 3958SOL    HW212774   6.296   6.253   6.895
 3959SOL     OW12775   3.295   6.558   1.398
 3959SOL    HW112776   3.198   6.556   1.419
 3959SOL    HW212777   3.344   6.496   1.459
 3960SOL     OW12778   5.648   2.380   6.278
 3960SOL    HW112779   5.625   2.371   6.375
 3960SOL    HW212780   5.602   2.460   6.240
 3961SOL     OW12781   5.061   1.745   1.686
 3961SOL    HW112782   4.971   1.786   1.699
 3961SOL    HW212783   5.131   1.812   1.712
 3962SOL     OW12784   0.608   5.924   0.085
 3962SOL    HW112785   0.517   5.888   0.107
 3962SOL    HW212786   0.647   5.966   0.167
 3963SOL     OW12787   5.693   4.834   3.535
 3963SOL    HW112788   5.777   4.837   3.480
 3963SOL    HW212789   5.635   4.912   3.511
 3964SOL     OW12790   4.066   5.267   5.080
 3964SOL    HW112791   4.121   5.187   5.103
 3964SOL    HW212792   3.971   5.239   5.068
 3965SOL     OW12793   3.478   5.057   6.153
 3965SOL    HW112794   3.554   5.067   6.089
 3965SOL    HW212795   3.462   4.960   6.171
 3966SOL     OW12796   6.752   4.914   0.144
 3966SOL    HW112797   6.720   4.852   0.073
 3966SOL    HW212798   6.808   4.864   0.210
 3967SOL     OW12799   1.272   4.866   2.576
 3967SOL    HW112800   1.368   4.876   2.602
 3967SOL    HW212801   1.266   4.851   2.477
 3968SOL     OW12802   5.900   0.774   1.147
 3968SOL    HW112803   6.000   0.773   1.151
 3968SOL    HW212804   5.871   0.755   1.053
 3969SOL     OW12805   0.632   4.473   2.574
 3969SOL    HW112806   0.656   4.386   2.531
 3969SOL    HW212807   0.541   4.501   2.543
 3970SOL     OW12808   5.270   5.343   3.424
 3970SOL    HW112809   5.299   5.411   3.492
 3970SOL    HW212810   5.202   5.283   3.465
 3971SOL     OW12811   2.984   5.139   2.171
 3971SOL    HW112812   3.083   5.123   2.177
 3971SOL    HW212813   2.937   5.080   2.236
 3972SOL     OW12814   0.670   5.925   0.836
 3972SOL    HW112815   0.767   5.945   0.824
 3972SOL    HW212816   0.641   5.954   0.927
 3973SOL     OW12817   2.882   3.659   5.162
 3973SOL    HW112818   2.968   3.687   5.121
 3973SOL    HW212819   2.839   3.737   5.208
 3974SOL     OW12820   0.562   0.698   6.049
 3974SOL    HW112821   0.545   0.646   5.965
 3974SOL    HW212822   0.502   0.777   6.053
 3975SOL     OW12823   6.136   0.055   5.949
 3975SOL    HW112824   6.116   0.124   5.879
 3975SOL    HW212825   6.230   0.065   5.980
 3976SOL     OW12826   0.821   5.100   0.986
 3976SOL    HW112827   0.837   5.198   0.987
 3976SOL    HW212828   0.733   5.081   0.941
 3977SOL     OW12829   3.149   5.014   6.252
 3977SOL    HW112830   3.165   5.103   6.294
 3977SOL    HW212831   3.182   5.015   6.157
 3978SOL     OW12832   5.045   6.996   4.463
 3978SOL    HW112833   5.136   6.965   4.489
 3978SOL    HW212834   5.042   0.075   4.462
 3979SOL     OW12835   2.341   6.052   1.796
 3979SOL    HW112836   2.335   6.083   1.701
 3979SOL    HW212837   2.263   6.088   1.848
 3980SOL     OW12838   0.160   4.056   6.264
 3980SOL    HW112839   0.163   4.026   6.360
 3980SOL    HW212840   0.220   4.135   6.252
 3981SOL     OW12841   1.158   1.983   6.102
 3981SOL    HW112842   1.189   2.064   6.053
 3981SOL    HW212843   1.167   1.903   6.042
 3982SOL     OW12844   2.591   0.663   3.857
 3982SOL    HW112845   2.690   0.656   3.853
 3982SOL    HW212846   2.564   0.759   3.848
 3983SOL     OW12847   3.539   5.913   4.271
 3983SOL    HW112848   3.557   5.817   4.295
 3983SOL    HW212849   3.537   5.968   4.354
 3984SOL     OW12850   2.489   0.639   1.791
 3984SOL    HW112851   2.453   0.724   1.830
 3984SOL    HW212852   2.414   0.588   1.749
 3985SOL     OW12853   2.210   4.306   6.695
 3985SOL    HW112854   2.203   4.313   6.595
 3985SOL    HW212855   2.119   4.298   6.735
 3986SOL     OW12856   0.279   1.778   3.418
 3986SOL    HW112857   0.232   1.855   3.374
 3986SOL    HW212858   0.336   1.732   3.351
 3987SOL     OW12859   1.229   5.277   5.144
 3987SOL    HW112860   1.301   5.265   5.077
 3987SOL    HW212861   1.152   5.217   5.121
 3988SOL     OW12862   3.389   2.190   5.601
 3988SOL    HW112863   3.378   2.224   5.507
 3988SOL    HW212864   3.301   2.193   5.648
 3989SOL     OW12865   5.635   0.437   5.918
 3989SOL    HW112866   5.633   0.533   5.948
 3989SOL    HW212867   5.570   0.425   5.843
 3990SOL     OW12868   5.946   1.719   4.027
 3990SOL    HW112869   5.869   1.676   4.075
 3990SOL    HW212870   6.001   1.771   4.092
 3991SOL     OW12871   6.617   2.607   3.629
 3991SOL    HW112872   6.622   2.507   3.633
 3991SOL    HW212873   6.544   2.640   3.689
 3992SOL     OW12874   4.611   2.700   6.476
 3992SOL    HW112875   4.526   2.714   6.426
 3992SOL    HW212876   4.605   2.743   6.566
 3993SOL     OW12877   2.233   1.828   3.327
 3993SOL    HW112878   2.205   1.898   3.261
 3993SOL    HW212879   2.250   1.871   3.416
 3994SOL     OW12880   1.902   2.548   4.810
 3994SOL    HW112881   1.865   2.522   4.721
 3994SOL    HW212882   1.831   2.539   4.879
 3995SOL     OW12883   2.268   4.510   3.894
 3995SOL    HW112884   2.188   4.452   3.880
 3995SOL    HW212885   2.297   4.548   3.806
 3996SOL     OW12886   1.466   0.975   5.141
 3996SOL    HW112887   1.494   0.989   5.045
 3996SOL    HW212888   1.367   0.978   5.147
 3997SOL     OW12889   4.962   3.663   3.762
 3997SOL    HW112890   4.952   3.709   3.849
 3997SOL    HW212891   4.955   3.729   3.687
 3998SOL     OW12892   5.292   2.179   2.219
 3998SOL    HW112893   5.250   2.255   2.269
 3998SOL    HW212894   5.254   2.092   2.252
 3999SOL     OW12895   5.902   3.468   3.435
 3999SOL    HW112896   5.980   3.485   3.374
 3999SOL    HW212897   5.935   3.457   3.529
 4000SOL     OW12898   3.122   5.431   2.387
 4000SOL    HW112899   3.080   5.353   2.341
 4000SOL    HW212900   3.062   5.511   2.377
 4001SOL     OW12901   2.276   2.718   5.077
 4001SOL    HW112902   2.312   2.663   5.001
 4001SOL    HW212903   2.320   2.808   5.077
 4002SOL     OW12904   3.949   3.760   5.654
 4002SOL    HW112905   3.977   3.809   5.737
 4002SOL    HW212906   3.879   3.693   5.678
 4003SOL     OW12907   2.121   0.892   5.918
 4003SOL    HW112908   2.094   0.905   6.014
 4003SOL    HW212909   2.158   0.977   5.882
 4004SOL     OW12910   5.910   3.130   4.509
 4004SOL    HW112911   5.838   3.064   4.491
 4004SOL    HW212912   5.930   3.133   4.607
 4005SOL     OW12913   5.154   4.642   0.940
 4005SOL    HW112914   5.164   4.558   0.994
 4005SOL    HW212915   5.132   4.620   0.846
 4006SOL     OW12916   4.848   4.757   2.576
 4006SOL    HW112917   4.839   4.812   2.660
 4006SOL    HW212918   4.874   4.816   2.500
 4007SOL     OW12919   0.788   2.779   2.530
 4007SOL    HW112920   0.693   2.795   2.557
 4007SOL    HW212921   0.838   2.865   2.532
 4008SOL     OW12922   3.402   1.155   6.081
 4008SOL    HW112923   3.361   1.182   5.994
 4008SOL    HW212924   3.330   1.132   6.146
 4009SOL     OW12925   4.170   2.670   0.634
 4009SOL    HW112926   4.094   2.719   0.674
 4009SOL    HW212927   4.240   2.735   0.603
 4010SOL     OW12928   2.468   3.401   1.485
 4010SOL    HW112929   2.370   3.408   1.505
 4010SOL    HW212930   2.519   3.394   1.570
 4011SOL     OW12931   0.493   6.599   1.988
 4011SOL    HW112932   0.454   6.558   1.905
 4011SOL    HW212933   0.589   6.621   1.971
 4012SOL     OW12934   4.287   5.585   2.499
 4012SOL    HW112935   4.327   5.496   2.523
 4012SOL    HW212936   4.329   5.656   2.556
 4013SOL     OW12937   2.698   0.523   1.328
 4013SOL    HW112938   2.687   0.459   1.252
 4013SOL    HW212939   2.753   0.601   1.298
 4014SOL     OW12940   4.160   5.432   4.060
 4014SOL    HW112941   4.063   5.452   4.069
 4014SOL    HW212942   4.178   5.387   3.973
 4015SOL     OW12943   4.071   4.473   6.489
 4015SOL    HW112944   4.080   4.564   6.450
 4015SOL    HW212945   4.123   4.467   6.574
 4016SOL     OW12946   1.881   5.567   0.347
 4016SOL    HW112947   1.924   5.599   0.432
 4016SOL    HW212948   1.882   5.641   0.280
 4017SOL     OW12949   0.433   6.883   6.401
 4017SOL    HW112950   0.510   6.826   6.430
 4017SOL    HW212951   0.368   6.827   6.348
 4018SOL     OW12952   4.986   6.431   0.628
 4018SOL    HW112953   4.936   6.345   0.635
 4018SOL    HW212954   5.057   6.435   0.698
 4019SOL     OW12955   6.418   3.988   2.648
 4019SOL    HW112956   6.327   4.010   2.683
 4019SOL    HW212957   6.414   3.902   2.597
 4020SOL     OW12958   0.544   2.790   5.724
 4020SOL    HW112959   0.465   2.815   5.779
 4020SOL    HW212960   0.521   2.800   5.627
 4021SOL     OW12961   3.386   3.869   5.553
 4021SOL    HW112962   3.443   3.945   5.522
 4021SOL    HW212963   3.364   3.810   5.476
 4022SOL     OW12964   4.547   6.772   6.433
 4022SOL    HW112965   4.630   6.722   6.459
 4022SOL    HW212966   4.467   6.721   6.463
 4023SOL     OW12967   6.903   0.804   3.954
 4023SOL    HW112968   6.885   0.705   3.957
 4023SOL    HW212969   6.978   0.821   3.890
 4024SOL     OW12970   2.380   5.698   4.223
 4024SOL    HW112971   2.327   5.618   4.194
 4024SOL    HW212972   2.426   5.738   4.143
 4025SOL     OW12973   0.950   6.486   3.992
 4025SOL    HW112974   0.965   6.547   4.071
 4025SOL    HW212975   1.034   6.435   3.974
 4026SOL     OW12976   6.148   6.986   3.029
 4026SOL    HW112977   6.076   6.935   2.981
 4026SOL    HW212978   6.216   6.923   3.065
 4027SOL     OW12979   2.978   2.650   0.624
 4027SOL    HW112980   3.043   2.725   0.632
 4027SOL    HW212981   3.021   2.565   0.652
 4028SOL     OW12982   3.254   1.818   3.273
 4028SOL    HW112983   3.294   1.909   3.258
 4028SOL    HW212984   3.200   1.793   3.193
 4029SOL     OW12985   3.328   4.741   5.699
 4029SOL    HW112986   3.287   4.830   5.716
 4029SOL    HW212987   3.385   4.715   5.777
 4030SOL     OW12988   0.829   1.874   1.746
 4030SOL    HW112989   0.850   1.776   1.742
 4030SOL    HW212990   0.731   1.888   1.733
 4031SOL     OW12991   5.051   6.082   3.281
 4031SOL    HW112992   5.132   6.127   3.242
 4031SOL    HW212993   5.066   5.983   3.282
 4032SOL     OW12994   6.190   0.425   2.544
 4032SOL    HW112995   6.168   0.347   2.602
 4032SOL    HW212996   6.245   0.394   2.466
 4033SOL     OW12997   2.577   3.651   1.422
 4033SOL    HW112998   2.637   3.688   1.493
 4033SOL    HW212999   2.526   3.573   1.459
 4034SOL     OW13000   6.351   1.426   4.171
 4034SOL    HW113001   6.408   1.491   4.221
 4034SOL    HW213002   6.362   1.335   4.210
 4035SOL     OW13003   6.548   2.425   0.496
 4035SOL    HW113004   6.509   2.348   0.445
 4035SOL    HW213005   6.644   2.406   0.516
 4036SOL     OW13006   4.834   6.131   2.238
 4036SOL    HW113007   4.754   6.150   2.296
 4036SOL    HW213008   4.804   6.117   2.144
 4037SOL     OW13009   2.568   1.710   0.697
 4037SOL    HW113010   2.622   1.780   0.651
 4037SOL    HW213011   2.622   1.628   0.710
 4038SOL     OW13012   4.613   3.321   1.630
 4038SOL    HW113013   4.536   3.263   1.658
 4038SOL    HW213014   4.648   3.288   1.542
 4039SOL     OW13015   5.393   4.536   1.613
 4039SOL    HW113016   5.450   4.460   1.583
 4039SOL    HW213017   5.311   4.501   1.658
 4040SOL     OW13018   3.658   7.010   5.971
 4040SOL    HW113019   3.714   0.063   5.935
 4040SOL    HW213020   3.716   6.947   6.024
 4041SOL     OW13021   1.388   4.967   1.315
 4041SOL    HW113022   1.300   4.939   1.277
 4041SOL    HW213023   1.457   4.899   1.292
 4042SOL     OW13024   5.991   5.928   3.100
 4042SOL    HW113025   5.987   5.841   3.149
 4042SOL    HW213026   6.063   5.924   3.030
 4043SOL     OW13027   5.783   1.626   4.224
 4043SOL    HW113028   5.722   1.570   4.279
 4043SOL    HW213029   5.845   1.677   4.284
 4044SOL     OW13030   4.967   6.972   3.664
 4044SOL    HW113031   4.889   6.992   3.723
 4044SOL    HW213032   4.934   6.942   3.574
 4045SOL     OW13033   2.933   5.556   5.321
 4045SOL    HW113034   2.912   5.622   5.249
 4045SOL    HW213035   2.855   5.548   5.383
 4046SOL     OW13036   1.607   2.092   4.200
 4046SOL    HW113037   1.572   1.999   4.210
 4046SOL    HW213038   1.574   2.148   4.276
 4047SOL     OW13039   2.107   2.327   0.813
 4047SOL    HW113040   2.157   2.385   0.749
 4047SOL    HW213041   2.102   2.372   0.902
 4048SOL     OW13042   5.574   1.766   1.864
 4048SOL    HW113043   5.549   1.858   1.834
 4048SOL    HW213044   5.541   1.699   1.797
 4049SOL     OW13045   5.970   5.105   6.332
 4049SOL    HW113046   6.051   5.046   6.322
 4049SOL    HW213047   5.925   5.116   6.244
 4050SOL     OW13048   1.397   6.799   1.182
 4050SOL    HW113049   1.479   6.850   1.209
 4050SOL    HW213050   1.362   6.748   1.261
 4051SOL     OW13051   4.064   2.026   6.898
 4051SOL    HW113052   4.114   2.106   6.932
 4051SOL    HW213053   3.972   2.054   6.868
 4052SOL     OW13054   6.691   1.524   2.818
 4052SOL    HW113055   6.615   1.464   2.791
 4052SOL    HW213056   6.731   1.566   2.736
 4053SOL     OW13057   2.959   5.629   4.018
 4053SOL    HW113058   2.951   5.714   3.965
 4053SOL    HW213059   2.912   5.555   3.971
 4054SOL     OW13060   6.145   3.619   1.592
 4054SOL    HW113061   6.153   3.542   1.529
 4054SOL    HW213062   6.111   3.586   1.680
 4055SOL     OW13063   3.253   3.300   6.573
 4055SOL    HW113064   3.167   3.333   6.612
 4055SOL    HW213065   3.324   3.304   6.642
 4056SOL     OW13066   3.451   4.118   1.130
 4056SOL    HW113067   3.543   4.092   1.102
 4056SOL    HW213068   3.412   4.047   1.188
 4057SOL     OW13069   5.793   2.894   1.326
 4057SOL    HW113070   5.789   2.957   1.403
 4057SOL    HW213071   5.806   2.801   1.360
 4058SOL     OW13072   1.611   6.915   4.205
 4058SOL    HW113073   1.601   6.815   4.207
 4058SOL    HW213074   1.530   6.957   4.247
 4059SOL     OW13075   1.556   2.170   3.501
 4059SOL    HW113076   1.619   2.095   3.481
 4059SOL    HW213077   1.555   2.188   3.599
 4060SOL     OW13078   5.450   5.796   4.792
 4060SOL    HW113079   5.542   5.776   4.826
 4060SOL    HW213080   5.399   5.711   4.783
 4061SOL     OW13081   3.166   4.746   1.836
 4061SOL    HW113082   3.139   4.828   1.786
 4061SOL    HW213083   3.090   4.681   1.838
 4062SOL     OW13084   2.034   2.571   1.980
 4062SOL    HW113085   1.939   2.576   1.950
 4062SOL    HW213086   2.064   2.475   1.977
 4063SOL     OW13087   6.419   5.496   6.240
 4063SOL    HW113088   6.513   5.528   6.229
 4063SOL    HW213089   6.362   5.536   6.168
 4064SOL     OW13090   2.147   0.096   3.812
 4064SOL    HW113091   2.120   0.168   3.748
 4064SOL    HW213092   2.068   0.040   3.835
 4065SOL     OW13093   0.125   0.133   1.097
 4065SOL    HW113094   0.213   0.113   1.054
 4065SOL    HW213095   0.077   0.047   1.117
 4066SOL     OW13096   5.525   5.057   3.490
 4066SOL    HW113097   5.489   5.030   3.401
 4066SOL    HW213098   5.576   5.143   3.482
 4067SOL     OW13099   6.526   3.478   3.421
 4067SOL    HW113100   6.466   3.399   3.434
 4067SOL    HW213101   6.470   3.560   3.405
 4068SOL     OW13102   3.082   0.668   4.790
 4068SOL    HW113103   3.130   0.589   4.828
 4068SOL    HW213104   2.983   0.657   4.804
 4069SOL     OW13105   2.785   4.996   5.865
 4069SOL    HW113106   2.771   4.967   5.771
 4069SOL    HW213107   2.706   5.049   5.895
 4070SOL     OW13108   0.423   3.090   2.137
 4070SOL    HW113109   0.419   3.003   2.087
 4070SOL    HW213110   0.373   3.082   2.223
 4071SOL     OW13111   1.291   0.608   5.452
 4071SOL    HW113112   1.222   0.676   5.478
 4071SOL    HW213113   1.331   0.633   5.364
 4072SOL     OW13114   0.338   5.882   4.223
 4072SOL    HW113115   0.283   5.801   4.240
 4072SOL    HW213116   0.310   5.956   4.285
 4073SOL     OW13117   2.476   6.090   6.325
 4073SOL    HW113118   2.514   6.163   6.383
 4073SOL    HW213119   2.422   6.130   6.251
 4074SOL     OW13120   6.588   2.750   1.601
 4074SOL    HW113121   6.656   2.822   1.615
 4074SOL    HW213122   6.632   2.660   1.607
 4075SOL     OW13123   3.791   1.701   2.224
 4075SOL    HW113124   3.731   1.772   2.186
 4075SOL    HW213125   3.859   1.675   2.155
 4076SOL     OW13126   3.098   2.893   5.513
 4076SOL    HW113127   3.064   2.855   5.427
 4076SOL    HW213128   3.198   2.894   5.512
 4077SOL     OW13129   3.627   0.845   0.680
 4077SOL    HW113130   3.692   0.897   0.735
 4077SOL    HW213131   3.556   0.905   0.645
 4078SOL     OW13132   0.024   5.840   2.306
 4078SOL    HW113133   0.123   5.851   2.303
 4078SOL    HW213134   7.001   5.917   2.261
 4079SOL     OW13135   1.427   2.275   4.083
 4079SOL    HW113136   1.472   2.344   4.028
 4079SOL    HW213137   1.495   2.211   4.119
 4080SOL     OW13138   2.879   4.168   6.704
 4080SOL    HW113139   2.812   4.094   6.698
 4080SOL    HW213140   2.936   4.168   6.622
 4081SOL     OW13141   2.444   2.046   4.647
 4081SOL    HW113142   2.407   2.131   4.610
 4081SOL    HW213143   2.370   1.983   4.667
 4082SOL     OW13144   1.624   3.176   0.270
 4082SOL    HW113145   1.567   3.195   0.350
 4082SOL    HW213146   1.611   3.081   0.241
 4083SOL     OW13147   6.864   4.350   1.772
 4083SOL    HW113148   6.931   4.310   1.835
 4083SOL    HW213149   6.891   4.330   1.678
 4084SOL     OW13150   4.461   2.493   3.632
 4084SOL    HW113151   4.464   2.591   3.652
 4084SOL    HW213152   4.510   2.474   3.548
 4085SOL     OW13153   2.217   6.024   1.166
 4085SOL    HW113154   2.295   6.016   1.103
 4085SOL    HW213155   2.173   6.113   1.153
 4086SOL     OW13156   0.513   5.338   1.650
 4086SOL    HW113157   0.591   5.309   1.594
 4086SOL    HW213158   0.440   5.372   1.591
 4087SOL     OW13159   1.501   1.615   3.366
 4087SOL    HW113160   1.505   1.636   3.464
 4087SOL    HW213161   1.415   1.649   3.328
 4088SOL     OW13162   5.710   0.867   6.893
 4088SOL    HW113163   5.673   0.893   6.982
 4088SOL    HW213164   5.646   0.805   6.848
 4089SOL     OW13165   5.355   4.888   3.891
 4089SOL    HW113166   5.362   4.911   3.988
 4089SOL    HW213167   5.446   4.883   3.851
 4090SOL     OW13168   1.211   5.272   5.421
 4090SOL    HW113169   1.251   5.291   5.331
 4090SOL    HW213170   1.173   5.356   5.458
 4091SOL     OW13171   0.427   6.342   6.851
 4091SOL    HW113172   0.460   6.418   6.908
 4091SOL    HW213173   0.453   6.359   6.756
 4092SOL     OW13174   5.725   2.667   4.295
 4092SOL    HW113175   5.784   2.695   4.219
 4092SOL    HW213176   5.630   2.687   4.272
 4093SOL     OW13177   4.518   5.894   2.091
 4093SOL    HW113178   4.420   5.909   2.103
 4093SOL    HW213179   4.560   5.979   2.057
 4094SOL     OW13180   1.871   5.458   5.454
 4094SOL    HW113181   1.868   5.364   5.488
 4094SOL    HW213182   1.779   5.495   5.450
 4095SOL     OW13183   0.737   4.156   0.788
 4095SOL    HW113184   0.798   4.136   0.866
 4095SOL    HW213185   0.648   4.114   0.805
 4096SOL     OW13186   4.609   0.769   6.179
 4096SOL    HW113187   4.622   0.678   6.219
 4096SOL    HW213188   4.600   0.760   6.079
 4097SOL     OW13189   3.957   4.866   4.806
 4097SOL    HW113190   3.960   4.901   4.899
 4097SOL    HW213191   3.863   4.844   4.781
 4098SOL     OW13192   6.829   2.205   2.003
 4098SOL    HW113193   6.783   2.269   1.942
 4098SOL    HW213194   6.832   2.243   2.096
 4099SOL     OW13195   3.789   5.004   1.517
 4099SOL    HW113196   3.881   5.033   1.544
 4099SOL    HW213197   3.727   5.082   1.522
 4100SOL     OW13198   7.001   6.679   4.353
 4100SOL    HW113199   6.934   6.613   4.387
 4100SOL    HW213200   6.957   6.739   4.286
 4101SOL     OW13201   6.637   1.263   6.681
 4101SOL    HW113202   6.703   1.294   6.613
 4101SOL    HW213203   6.685   1.234   6.764
 4102SOL     OW13204   0.428   1.339   0.364
 4102SOL    HW113205   0.498   1.267   0.358
 4102SOL    HW213206   0.369   1.334   0.284
 4103SOL     OW13207   0.445   0.036   0.262
 4103SOL    HW113208   0.442   0.099   0.184
 4103SOL    HW213209   0.502   0.075   0.334
 4104SOL     OW13210   6.730   5.220   3.101
 4104SOL    HW113211   6.748   5.209   3.003
 4104SOL    HW213212   6.811   5.194   3.153
 4105SOL     OW13213   5.298   0.130   1.781
 4105SOL    HW113214   5.222   0.065   1.782
 4105SOL    HW213215   5.267   0.218   1.747
 4106SOL     OW13216   6.391   3.242   2.855
 4106SOL    HW113217   6.349   3.329   2.883
 4106SOL    HW213218   6.483   3.236   2.893
 4107SOL     OW13219   0.927   5.358   1.025
 4107SOL    HW113220   0.993   5.365   0.950
 4107SOL    HW213221   0.876   5.444   1.032
 4108SOL     OW13222   6.351   5.297   4.851
 4108SOL    HW113223   6.316   5.256   4.767
 4108SOL    HW213224   6.366   5.394   4.837
 4109SOL     OW13225   6.139   6.466   4.594
 4109SOL    HW113226   6.046   6.432   4.609
 4109SOL    HW213227   6.192   6.397   4.544
 4110SOL     OW13228   4.216   3.814   5.723
 4110SOL    HW113229   4.315   3.813   5.740
 4110SOL    HW213230   4.198   3.771   5.634
 4111SOL     OW13231   5.327   3.718   6.985
 4111SOL    HW113232   5.348   3.762   6.898
 4111SOL    HW213233   5.318   3.788   0.036
 4112SOL     OW13234   4.896   6.216   4.669
 4112SOL    HW113235   4.893   6.304   4.718
 4112SOL    HW213236   4.950   6.151   4.722
 4113SOL     OW13237   5.222   5.856   5.238
 4113SOL    HW113238   5.315   5.822   5.251
 4113SOL    HW213239   5.196   5.914   5.316
 4114SOL     OW13240   4.142   2.142   3.861
 4114SOL    HW113241   4.203   2.217   3.886
 4114SOL    HW213242   4.076   2.127   3.934
 4115SOL     OW13243   3.602   5.164   2.127
 4115SOL    HW113244   3.624   5.106   2.049
 4115SOL    HW213245   3.507   5.150   2.154
 4116SOL     OW13246   3.670   1.505   2.392
 4116SOL    HW113247   3.583   1.554   2.399
 4116SOL    HW213248   3.723   1.543   2.316
 4117SOL     OW13249   1.592   3.374   2.370
 4117SOL    HW113250   1.561   3.469   2.366
 4117SOL    HW213251   1.550   3.322   2.297
 4118SOL     OW13252   4.611   5.263   0.502
 4118SOL    HW113253   4.540   5.322   0.466
 4118SOL    HW213254   4.627   5.284   0.598
 4119SOL     OW13255   3.528   1.819   4.093
 4119SOL    HW113256   3.538   1.918   4.097
 4119SOL    HW213257   3.552   1.780   4.182
 4120SOL     OW13258   3.913   0.551   6.605
 4120SOL    HW113259   3.844   0.610   6.563
 4120SOL    HW213260   3.875   0.460   6.619
 4121SOL     OW13261   6.125   0.365   4.645
 4121SOL    HW113262   6.069   0.300   4.595
 4121SOL    HW213263   6.216   0.368   4.606
 4122SOL     OW13264   1.143   6.022   3.982
 4122SOL    HW113265   1.078   6.011   4.058
 4122SOL    HW213266   1.100   5.991   3.897
 4123SOL     OW13267   4.296   4.731   5.256
 4123SOL    HW113268   4.226   4.686   5.311
 4123SOL    HW213269   4.335   4.808   5.307
 4124SOL     OW13270   0.110   6.510   0.516
 4124SOL    HW113271   0.171   6.431   0.524
 4124SOL    HW213272   0.164   6.591   0.492
 4125SOL     OW13273   4.918   1.334   1.905
 4125SOL    HW113274   4.964   1.283   1.832
 4125SOL    HW213275   4.959   1.309   1.993
 4126SOL     OW13276   1.741   3.846   3.646
 4126SOL    HW113277   1.801   3.871   3.570
 4126SOL    HW213278   1.751   3.749   3.665
 4127SOL     OW13279   5.499   4.724   5.324
 4127SOL    HW113280   5.481   4.756   5.417
 4127SOL    HW213281   5.413   4.713   5.275
 4128SOL     OW13282   1.112   2.969   1.922
 4128SOL    HW113283   1.133   2.888   1.976
 4128SOL    HW213284   1.160   2.965   1.835
 4129SOL     OW13285   3.890   0.745   6.969
 4129SOL    HW113286   3.988   0.728   6.964
 4129SOL    HW213287   3.874   0.842   6.986
 4130SOL     OW13288   6.535   3.389   0.464
 4130SOL    HW113289   6.500   3.301   0.430
 4130SOL    HW213290   6.550   3.383   0.563
 4131SOL     OW13291   0.296   1.983   3.951
 4131SOL    HW113292   0.209   1.935   3.962
 4131SOL    HW213293   0.371   1.916   3.956
 4132SOL     OW13294   4.686   4.243   3.588
 4132SOL    HW113295   4.633   4.316   3.631
 4132SOL    HW213296   4.657   4.231   3.494
 4133SOL     OW13297   3.091   5.818   1.114
 4133SOL    HW113298   3.132   5.828   1.204
 4133SOL    HW213299   3.101   5.903   1.063
 4134SOL     OW13300   2.718   4.088   1.035
 4134SOL    HW113301   2.765   4.012   1.079
 4134SOL    HW213302   2.626   4.059   1.008
 4135SOL     OW13303   0.954   1.950   2.665
 4135SOL    HW113304   0.911   1.971   2.577
 4135SOL    HW213305   0.908   1.870   2.706
 4136SOL     OW13306   1.359   2.879   3.339
 4136SOL    HW113307   1.283   2.818   3.316
 4136SOL    HW213308   1.351   2.906   3.435
 4137SOL     OW13309   1.325   4.048   1.575
 4137SOL    HW113310   1.399   3.989   1.605
 4137SOL    HW213311   1.359   4.141   1.561
 4138SOL     OW13312   4.399   5.839   2.601
 4138SOL    HW113313   4.491   5.833   2.640
 4138SOL    HW213314   4.403   5.889   2.515
 4139SOL     OW13315   2.317   1.688   5.553
 4139SOL    HW113316   2.379   1.767   5.549
 4139SOL    HW213317   2.368   1.608   5.584
 4140SOL     OW13318   3.118   6.802   5.512
 4140SOL    HW113319   3.116   6.874   5.443
 4140SOL    HW213320   3.167   6.834   5.593
 4141SOL     OW13321   5.439   6.354   0.452
 4141SOL    HW113322   5.406   6.315   0.366
 4141SOL    HW213323   5.434   6.284   0.524
 4142SOL     OW13324   6.874   4.394   0.947
 4142SOL    HW113325   6.865   4.450   1.029
 4142SOL    HW213326   6.851   4.299   0.969
 4143SOL     OW13327   5.344   1.864   0.810
 4143SOL    HW113328   5.259   1.914   0.796
 4143SOL    HW213329   5.380   1.885   0.901
 4144SOL     OW13330   5.433   2.231   0.277
 4144SOL    HW113331   5.454   2.186   0.365
 4144SOL    HW213332   5.335   2.251   0.273
 4145SOL     OW13333   0.457   6.627   1.636
 4145SOL    HW113334   0.552   6.613   1.609
 4145SOL    HW213335   0.446   6.717   1.678
 4146SOL     OW13336   6.544   0.198   3.181
 4146SOL    HW113337   6.622   0.254   3.151
 4146SOL    HW213338   6.577   0.108   3.209
 4147SOL     OW13339   5.069   4.563   6.075
 4147SOL    HW113340   5.014   4.541   6.156
 4147SOL    HW213341   5.161   4.525   6.086
 4148SOL     OW13342   1.258   0.457   4.493
 4148SOL    HW113343   1.224   0.547   4.468
 4148SOL    HW213344   1.267   0.451   4.593
 4149SOL     OW13345   0.092   3.754   0.583
 4149SOL    HW113346   0.168   3.705   0.542
 4149SOL    HW213347   0.122   3.795   0.670
 4150SOL     OW13348   0.952   0.030   5.810
 4150SOL    HW113349   0.875   0.092   5.798
 4150SOL    HW213350   0.917   6.958   5.827
 4151SOL     OW13351   3.035   6.428   5.485
 4151SOL    HW113352   2.973   6.505   5.500
 4151SOL    HW213353   3.037   6.371   5.568
 4152SOL     OW13354   4.421   5.664   0.540
 4152SOL    HW113355   4.520   5.675   0.553
 4152SOL    HW213356   4.401   5.569   0.518
 4153SOL     OW13357   5.608   5.086   0.009
 4153SOL    HW113358   5.584   4.991   7.013
 4153SOL    HW213359   5.602   5.138   6.945
 4154SOL     OW13360   0.117   5.404   3.510
 4154SOL    HW113361   0.147   5.326   3.455
 4154SOL    HW213362   0.130   5.383   3.607
 4155SOL     OW13363   0.792   1.321   2.497
 4155SOL    HW113364   0.759   1.409   2.464
 4155SOL    HW213365   0.854   1.281   2.430
 4156SOL     OW13366   5.942   5.627   5.130
 4156SOL    HW113367   5.855   5.590   5.098
 4156SOL    HW213368   6.013   5.608   5.062
 4157SOL     OW13369   4.858   5.076   3.685
 4157SOL    HW113370   4.927   5.005   3.698
 4157SOL    HW213371   4.885   5.158   3.735
 4158SOL     OW13372   6.992   3.191   1.347
 4158SOL    HW113373   0.016   3.258   1.406
 4158SOL    HW213374   6.898   3.177   1.377
 4159SOL     OW13375   2.140   3.726   3.602
 4159SOL    HW113376   2.144   3.632   3.567
 4159SOL    HW213377   2.112   3.725   3.698
 4160SOL     OW13378   6.050   0.885   0.511
 4160SOL    HW113379   5.983   0.869   0.438
 4160SOL    HW213380   6.028   0.971   0.558
 4161SOL     OW13381   1.231   1.746   1.020
 4161SOL    HW113382   1.293   1.691   0.963
 4161SOL    HW213383   1.172   1.801   0.961
 4162SOL     OW13384   0.115   5.899   7.006
 4162SOL    HW113385   0.076   5.991   7.006
 4162SOL    HW213386   0.160   5.882   6.919
 4163SOL     OW13387   4.806   6.955   3.068
 4163SOL    HW113388   4.840   0.014   3.118
 4163SOL    HW213389   4.740   6.905   3.124
 4164SOL     OW13390   1.561   6.674   6.052
 4164SOL    HW113391   1.602   6.648   5.965
 4164SOL    HW213392   1.477   6.622   6.067
 4165SOL     OW13393   3.935   0.065   6.132
 4165SOL    HW113394   3.970   0.153   6.103
 4165SOL    HW213395   3.960   7.015   6.066
 4166SOL     OW13396   5.581   2.633   0.400
 4166SOL    HW113397   5.656   2.691   0.433
 4166SOL    HW213398   5.580   2.548   0.453
 4167SOL     OW13399   1.766   4.269   1.141
 4167SOL    HW113400   1.798   4.245   1.233
 4167SOL    HW213401   1.734   4.186   1.095
 4168SOL     OW13402   6.800   4.371   1.427
 4168SOL    HW113403   6.703   4.349   1.419
 4168SOL    HW213404   6.812   4.470   1.437
 4169SOL     OW13405   5.836   4.507   5.095
 4169SOL    HW113406   5.765   4.491   5.163
 4169SOL    HW213407   5.834   4.432   5.028
 4170SOL     OW13408   4.558   4.027   5.888
 4170SOL    HW113409   4.547   3.960   5.815
 4170SOL    HW213410   4.471   4.076   5.901
 4171SOL     OW13411   6.426   6.247   0.635
 4171SOL    HW113412   6.335   6.258   0.675
 4171SOL    HW213413   6.419   6.252   0.535
 4172SOL     OW13414   1.145   1.978   5.604
 4172SOL    HW113415   1.064   2.001   5.658
 4172SOL    HW213416   1.224   2.028   5.639
 4173SOL     OW13417   5.347   3.908   5.216
 4173SOL    HW113418   5.259   3.886   5.175
 4173SOL    HW213419   5.332   3.962   5.299
 4174SOL     OW13420   5.473   0.720   3.199
 4174SOL    HW113421   5.507   0.753   3.286
 4174SOL    HW213422   5.413   0.789   3.158
 4175SOL     OW13423   2.223   5.945   4.370
 4175SOL    HW113424   2.284   5.881   4.325
 4175SOL    HW213425   2.196   5.909   4.459
 4176SOL     OW13426   3.120   5.914   2.132
 4176SOL    HW113427   3.059   5.973   2.079
 4176SOL    HW213428   3.168   5.969   2.200
 4177SOL     OW13429   6.431   4.629   4.916
 4177SOL    HW113430   6.398   4.609   4.824
 4177SOL    HW213431   6.490   4.554   4.947
 4178SOL     OW13432   4.851   0.706   3.906
 4178SOL    HW113433   4.880   0.801   3.917
 4178SOL    HW213434   4.868   0.656   3.991
 4179SOL     OW13435   4.786   2.912   3.542
 4179SOL    HW113436   4.866   2.970   3.558
 4179SOL    HW213437   4.798   2.860   3.458
 4180SOL     OW13438   5.622   4.260   0.733
 4180SOL    HW113439   5.525   4.262   0.758
 4180SOL    HW213440   5.633   4.295   0.640
 4181SOL     OW13441   2.680   1.399   0.890
 4181SOL    HW113442   2.625   1.470   0.934
 4181SOL    HW213443   2.763   1.384   0.943
 4182SOL     OW13444   1.040   6.684   3.317
 4182SOL    HW113445   1.041   6.698   3.218
 4182SOL    HW213446   1.117   6.625   3.343
 4183SOL     OW13447   3.366   1.354   0.059
 4183SOL    HW113448   3.332   1.402   6.999
 4183SOL    HW213449   3.326   1.394   0.141
 4184SOL     OW13450   4.743   5.528   1.365
 4184SOL    HW113451   4.683   5.465   1.315
 4184SOL    HW213452   4.688   5.599   1.409
 4185SOL     OW13453   0.375   4.991   2.250
 4185SOL    HW113454   0.394   4.960   2.343
 4185SOL    HW213455   0.332   4.917   2.198
 4186SOL     OW13456   2.021   4.964   0.069
 4186SOL    HW113457   2.020   5.064   0.066
 4186SOL    HW213458   2.083   4.930   7.020
 4187SOL     OW13459   3.388   3.652   5.365
 4187SOL    HW113460   3.305   3.615   5.405
 4187SOL    HW213461   3.467   3.598   5.394
 4188SOL     OW13462   4.831   6.655   4.564
 4188SOL    HW113463   4.747   6.660   4.618
 4188SOL    HW213464   4.808   6.656   4.467
 4189SOL     OW13465   3.166   5.359   5.577
 4189SOL    HW113466   3.172   5.261   5.559
 4189SOL    HW213467   3.104   5.374   5.655
 4190SOL     OW13468   1.190   0.804   6.905
 4190SOL    HW113469   1.278   0.811   6.858
 4190SOL    HW213470   1.191   0.726   6.967
 4191SOL     OW13471   5.047   3.948   3.456
 4191SOL    HW113472   5.146   3.959   3.444
 4191SOL    HW213473   5.000   3.981   3.374
 4192SOL     OW13474   1.142   0.718   4.512
 4192SOL    HW113475   1.087   0.696   4.432
 4192SOL    HW213476   1.162   0.816   4.513
 4193SOL     OW13477   1.326   0.786   1.729
 4193SOL    HW113478   1.270   0.851   1.780
 4193SOL    HW213479   1.277   0.755   1.648
 4194SOL     OW13480   5.584   0.248   5.105
 4194SOL    HW113481   5.552   0.314   5.172
 4194SOL    HW213482   5.616   0.166   5.151
 4195SOL     OW13483   3.821   6.539   1.608
 4195SOL    HW113484   3.797   6.452   1.651
 4195SOL    HW213485   3.866   6.521   1.520
 4196SOL     OW13486   5.927   1.967   3.429
 4196SOL    HW113487   5.877   1.979   3.515
 4196SOL    HW213488   5.867   1.927   3.360
 4197SOL     OW13489   4.920   5.848   6.161
 4197SOL    HW113490   4.881   5.768   6.114
 4197SOL    HW213491   4.911   5.928   6.102
 4198SOL     OW13492   5.753   2.310   0.164
 4198SOL    HW113493   5.731   2.229   0.109
 4198SOL    HW213494   5.685   2.381   0.147
 4199SOL     OW13495   2.266   3.004   5.973
 4199SOL    HW113496   2.225   2.999   5.882
 4199SOL    HW213497   2.197   3.032   6.040
 4200SOL     OW13498   3.744   6.690   5.960
 4200SOL    HW113499   3.725   6.732   6.049
 4200SOL    HW213500   3.724   6.592   5.964
 4201SOL     OW13501   5.800   5.857   3.845
 4201SOL    HW113502   5.703   5.867   3.824
 4201SOL    HW213503   5.839   5.785   3.786
 4202SOL     OW13504   4.029   5.309   6.124
 4202SOL    HW113505   4.007   5.406   6.108
 4202SOL    HW213506   3.947   5.261   6.157
 4203SOL     OW13507   4.994   4.922   0.257
 4203SOL    HW113508   4.911   4.883   0.296
 4203SOL    HW213509   5.023   5.000   0.313
 4204SOL     OW13510   4.075   3.570   2.623
 4204SOL    HW113511   4.086   3.667   2.600
 4204SOL    HW213512   4.137   3.516   2.567
 4205SOL     OW13513   3.679   5.732   3.599
 4205SOL    HW113514   3.622   5.735   3.681
 4205SOL    HW213515   3.652   5.655   3.542
 4206SOL     OW13516   6.667   0.073   6.329
 4206SOL    HW113517   6.687   0.146   6.394
 4206SOL    HW213518   6.642   7.010   6.378
 4207SOL     OW13519   1.552   1.576   1.210
 4207SOL    HW113520   1.594   1.608   1.125
 4207SOL    HW213521   1.483   1.642   1.240
 4208SOL     OW13522   0.990   3.702   6.074
 4208SOL    HW113523   0.979   3.794   6.112
 4208SOL    HW213524   0.912   3.645   6.100
 4209SOL     OW13525   0.500   0.786   5.200
 4209SOL    HW113526   0.547   0.737   5.274
 4209SOL    HW213527   0.430   0.846   5.239
 4210SOL     OW13528   2.901   3.324   2.630
 4210SOL    HW113529   2.944   3.277   2.553
 4210SOL    HW213530   2.887   3.421   2.607
 4211SOL     OW13531   4.045   5.446   5.795
 4211SOL    HW113532   4.136   5.484   5.813
 4211SOL    HW213533   3.979   5.483   5.860
 4212SOL     OW13534   5.972   1.863   2.814
 4212SOL    HW113535   6.059   1.853   2.765
 4212SOL    HW213536   5.941   1.958   2.807
 4213SOL     OW13537   2.232   1.192   1.492
 4213SOL    HW113538   2.303   1.254   1.526
 4213SOL    HW213539   2.142   1.226   1.520
 4214SOL     OW13540   1.935   4.579   5.343
 4214SOL    HW113541   1.891   4.538   5.423
 4214SOL    HW213542   1.972   4.506   5.285
 4215SOL     OW13543   6.960   6.008   4.976
 4215SOL    HW113544   6.915   5.995   4.887
 4215SOL    HW213545   6.959   6.105   5.000
 4216SOL     OW13546   1.026   2.025   2.916
 4216SOL    HW113547   1.016   2.009   2.818
 4216SOL    HW213548   1.122   2.042   2.938
 4217SOL     OW13549   0.699   0.770   2.414
 4217SOL    HW113550   0.678   0.789   2.510
 4217SOL    HW213551   0.637   0.699   2.379
 4218SOL     OW13552   4.389   0.871   1.880
 4218SOL    HW113553   4.402   0.837   1.787
 4218SOL    HW213554   4.421   0.803   1.945
 4219SOL     OW13555   2.518   5.216   3.606
 4219SOL    HW113556   2.607   5.261   3.601
 4219SOL    HW213557   2.531   5.118   3.623
 4220SOL     OW13558   5.265   2.983   3.926
 4220SOL    HW113559   5.223   3.062   3.880
 4220SOL    HW213560   5.220   2.968   4.014
 4221SOL     OW13561   6.141   5.392   6.867
 4221SOL    HW113562   6.162   5.317   6.804
 4221SOL    HW213563   6.042   5.405   6.873
 4222SOL     OW13564   6.093   1.375   3.016
 4222SOL    HW113565   6.097   1.283   2.978
 4222SOL    HW213566   5.997   1.405   3.021
 4223SOL     OW13567   3.416   3.757   5.991
 4223SOL    HW113568   3.454   3.837   5.945
 4223SOL    HW213569   3.410   3.680   5.927
 4224SOL     OW13570   4.983   3.391   3.825
 4224SOL    HW113571   4.947   3.372   3.916
 4224SOL    HW213572   4.987   3.490   3.811
 4225SOL     OW13573   3.712   0.942   6.054
 4225SOL    HW113574   3.802   0.900   6.068
 4225SOL    HW213575   3.671   0.961   6.144
 4226SOL     OW13576   0.915   0.631   2.124
 4226SOL    HW113577   0.932   0.687   2.205
 4226SOL    HW213578   0.845   0.563   2.144
 4227SOL     OW13579   3.787   4.501   6.910
 4227SOL    HW113580   3.692   4.519   6.935
 4227SOL    HW213581   3.789   4.441   6.830
 4228SOL     OW13582   0.529   3.752   4.433
 4228SOL    HW113583   0.457   3.771   4.500
 4228SOL    HW213584   0.618   3.754   4.478
 4229SOL     OW13585   4.872   5.343   5.557
 4229SOL    HW113586   4.789   5.358   5.610
 4229SOL    HW213587   4.848   5.303   5.468
 4230SOL     OW13588   1.435   0.662   3.920
 4230SOL    HW113589   1.355   0.611   3.954
 4230SOL    HW213590   1.519   0.614   3.947
 4231SOL     OW13591   5.960   5.868   5.232
 4231SOL    HW113592   5.869   5.908   5.238
 4231SOL    HW213593   5.954   5.778   5.189
 4232SOL     OW13594   6.561   4.833   2.788
 4232SOL    HW113595   6.625   4.797   2.719
 4232SOL    HW213596   6.611   4.864   2.868
 4233SOL     OW13597   6.462   0.283   6.736
 4233SOL    HW113598   6.502   0.299   6.827
 4233SOL    HW213599   6.480   0.189   6.708
 4234SOL     OW13600   2.282   6.705   5.913
 4234SOL    HW113601   2.241   6.673   5.828
 4234SOL    HW213602   2.325   6.628   5.960
 4235SOL     OW13603   5.579   3.461   5.919
 4235SOL    HW113604   5.676   3.470   5.898
 4235SOL    HW213605   5.529   3.539   5.882
 4236SOL     OW13606   0.165   3.884   3.306
 4236SOL    HW113607   0.258   3.913   3.283
 4236SOL    HW213608   0.121   3.954   3.362
 4237SOL     OW13609   6.365   5.564   2.929
 4237SOL    HW113610   6.290   5.608   2.879
 4237SOL    HW213611   6.381   5.472   2.891
 4238SOL     OW13612   3.040   5.110   2.597
 4238SOL    HW113613   2.944   5.134   2.604
 4238SOL    HW213614   3.050   5.023   2.549
 4239SOL     OW13615   5.305   1.507   3.205
 4239SOL    HW113616   5.211   1.491   3.232
 4239SOL    HW213617   5.350   1.566   3.273
 4240SOL     OW13618   2.035   0.812   0.397
 4240SOL    HW113619   2.057   0.851   0.486
 4240SOL    HW213620   1.941   0.776   0.399
 4241SOL     OW13621   6.019   0.626   0.304
 4241SOL    HW113622   6.036   0.541   0.355
 4241SOL    HW213623   5.924   0.654   0.315
 4242SOL     OW13624   1.967   0.505   3.290
 4242SOL    HW113625   2.014   0.515   3.378
 4242SOL    HW213626   1.965   0.593   3.243
 4243SOL     OW13627   6.142   3.853   3.367
 4243SOL    HW113628   6.171   3.934   3.316
 4243SOL    HW213629   6.043   3.844   3.362
 4244SOL     OW13630   5.103   4.488   1.745
 4244SOL    HW113631   5.005   4.498   1.759
 4244SOL    HW213632   5.150   4.480   1.833
 4245SOL     OW13633   6.463   1.063   6.173
 4245SOL    HW113634   6.379   1.011   6.154
 4245SOL    HW213635   6.542   1.003   6.163
 4246SOL     OW13636   5.978   3.225   2.697
 4246SOL    HW113637   5.966   3.277   2.782
 4246SOL    HW213638   5.894   3.175   2.677
 4247SOL     OW13639   2.167   4.784   3.275
 4247SOL    HW113640   2.178   4.684   3.281
 4247SOL    HW213641   2.208   4.827   3.355
 4248SOL     OW13642   1.906   1.450   3.844
 4248SOL    HW113643   1.873   1.391   3.918
 4248SOL    HW213644   1.831   1.467   3.779
 4249SOL     OW13645   5.180   1.691   3.898
 4249SOL    HW113646   5.101   1.642   3.861
 4249SOL    HW213647   5.150   1.755   3.969
 4250SOL     OW13648   6.967   6.263   4.126
 4250SOL    HW113649   6.902   6.338   4.116
 4250SOL    HW213650   6.933   6.183   4.076
 4251SOL     OW13651   5.851   3.532   1.399
 4251SOL    HW113652   5.884   3.513   1.307
 4251SOL    HW213653   5.751   3.543   1.397
 4252SOL     OW13654   6.792   6.748   6.271
 4252SOL    HW113655   6.786   6.673   6.337
 4252SOL    HW213656   6.798   6.835   6.320
 4253SOL     OW13657   3.405   6.768   0.817
 4253SOL    HW113658   3.430   6.858   0.782
 4253SOL    HW213659   3.390   6.705   0.740
 4254SOL     OW13660   1.326   3.169   2.277
 4254SOL    HW113661   1.313   3.079   2.235
 4254SOL    HW213662   1.275   3.173   2.363
 4255SOL     OW13663   6.811   4.608   4.155
 4255SOL    HW113664   6.819   4.514   4.122
 4255SOL    HW213665   6.902   4.649   4.160
 4256SOL     OW13666   1.396   6.251   1.216
 4256SOL    HW113667   1.331   6.326   1.227
 4256SOL    HW213668   1.359   6.184   1.152
 4257SOL     OW13669   3.499   0.816   4.188
 4257SOL    HW113670   3.571   0.750   4.166
 4257SOL    HW213671   3.420   0.767   4.226
 4258SOL     OW13672   3.538   5.587   1.461
 4258SOL    HW113673   3.458   5.619   1.511
 4258SOL    HW213674   3.514   5.575   1.364
 4259SOL     OW13675   1.481   0.841   1.101
 4259SOL    HW113676   1.546   0.830   1.175
 4259SOL    HW213677   1.488   0.933   1.063
 4260SOL     OW13678   5.587   0.321   2.723
 4260SOL    HW113679   5.651   0.381   2.771
 4260SOL    HW213680   5.595   0.228   2.758
 4261SOL     OW13681   2.086   1.295   2.693
 4261SOL    HW113682   2.100   1.197   2.682
 4261SOL    HW213683   2.125   1.344   2.615
 4262SOL     OW13684   0.616   3.799   0.000
 4262SOL    HW113685   0.593   3.721   0.060
 4262SOL    HW213686   0.559   3.877   0.024
 4263SOL     OW13687   2.971   0.593   3.173
 4263SOL    HW113688   2.969   0.596   3.073
 4263SOL    HW213689   2.936   0.506   3.205
 4264SOL     OW13690   6.309   1.985   4.485
 4264SOL    HW113691   6.366   1.904   4.493
 4264SOL    HW213692   6.238   1.970   4.416
 4265SOL     OW13693   4.178   1.026   0.563
 4265SOL    HW113694   4.246   0.993   0.628
 4265SOL    HW213695   4.220   1.034   0.472
 4266SOL     OW13696   1.567   6.718   6.336
 4266SOL    HW113697   1.568   6.690   6.240
 4266SOL    HW213698   1.570   6.637   6.394
 4267SOL     OW13699   2.156   3.804   4.037
 4267SOL    HW113700   2.092   3.770   3.968
 4267SOL    HW213701   2.243   3.827   3.994
 4268SOL     OW13702   1.293   5.771   6.671
 4268SOL    HW113703   1.209   5.747   6.623
 4268SOL    HW213704   1.273   5.840   6.741
 4269SOL     OW13705   3.405   0.379   2.728
 4269SOL    HW113706   3.364   0.292   2.701
 4269SOL    HW213707   3.427   0.377   2.825
 4270SOL     OW13708   4.103   3.502   2.890
 4270SOL    HW113709   4.101   3.530   2.794
 4270SOL    HW213710   4.071   3.407   2.897
 4271SOL     OW13711   6.443   1.073   6.712
 4271SOL    HW113712   6.495   1.147   6.669
 4271SOL    HW213713   6.469   1.065   6.808
 4272SOL     OW13714   6.803   1.925   4.494
 4272SOL    HW113715   6.873   1.882   4.552
 4272SOL    HW213716   6.713   1.909   4.533
 4273SOL     OW13717   4.184   0.065   4.955
 4273SOL    HW113718   4.180   6.988   4.936
 4273SOL    HW213719   4.153   0.115   4.875
 4274SOL     OW13720   2.024   0.544   1.011
 4274SOL    HW113721   2.083   0.618   1.046
 4274SOL    HW213722   2.069   0.456   1.024
 4275SOL     OW13723   6.644   1.982   4.271
 4275SOL    HW113724   6.688   1.950   4.355
 4275SOL    HW213725   6.638   2.082   4.272
 4276SOL     OW13726   2.619   4.979   3.900
 4276SOL    HW113727   2.641   5.017   3.810
 4276SOL    HW213728   2.653   4.885   3.905
 4277SOL     OW13729   6.531   4.664   3.412
 4277SOL    HW113730   6.559   4.605   3.336
 4277SOL    HW213731   6.566   4.627   3.498
 4278SOL     OW13732   0.384   6.631   4.651
 4278SOL    HW113733   0.353   6.723   4.674
 4278SOL    HW213734   0.306   6.569   4.651
 4279SOL     OW13735   3.246   1.005   3.653
 4279SOL    HW113736   3.264   1.028   3.557
 4279SOL    HW213737   3.333   1.003   3.703
 4280SOL     OW13738   5.793   6.869   6.026
 4280SOL    HW113739   5.846   6.862   6.110
 4280SOL    HW213740   5.746   6.958   6.023
 4281SOL     OW13741   6.784   4.587   2.876
 4281SOL    HW113742   6.760   4.598   2.780
 4281SOL    HW213743   6.752   4.666   2.928
 4282SOL     OW13744   3.414   4.470   0.193
 4282SOL    HW113745   3.464   4.510   0.270
 4282SOL    HW213746   3.325   4.437   0.225
 4283SOL     OW13747   2.202   0.810   3.524
 4283SOL    HW113748   2.256   0.876   3.577
 4283SOL    HW213749   2.112   0.800   3.567
 4284SOL     OW13750   3.764   3.993   1.278
 4284SOL    HW113751   3.698   3.922   1.255
 4284SOL    HW213752   3.758   4.014   1.375
 4285SOL     OW13753   2.304   0.728   5.598
 4285SOL    HW113754   2.251   0.643   5.592
 4285SOL    HW213755   2.255   0.793   5.656
 4286SOL     OW13756   5.769   6.542   6.039
 4286SOL    HW113757   5.806   6.624   5.995
 4286SOL    HW213758   5.824   6.521   6.120
 4287SOL     OW13759   5.145   0.411   6.061
 4287SOL    HW113760   5.238   0.377   6.075
 4287SOL    HW213761   5.134   0.443   5.967
 4288SOL     OW13762   0.631   5.457   2.920
 4288SOL    HW113763   0.680   5.523   2.863
 4288SOL    HW213764   0.598   5.382   2.863
 4289SOL     OW13765   6.859   3.079   6.178
 4289SOL    HW113766   6.764   3.080   6.147
 4289SOL    HW213767   6.893   3.173   6.181
 4290SOL     OW13768   1.340   6.684   4.065
 4290SOL    HW113769   1.416   6.645   4.117
 4290SOL    HW213770   1.373   6.760   4.009
 4291SOL     OW13771   4.493   3.812   6.854
 4291SOL    HW113772   4.502   3.726   6.805
 4291SOL    HW213773   4.402   3.818   6.896
 4292SOL     OW13774   6.050   2.960   0.229
 4292SOL    HW113775   5.994   2.887   0.191
 4292SOL    HW213776   6.052   2.951   0.329
 4293SOL     OW13777   2.879   2.978   6.965
 4293SOL    HW113778   2.905   3.067   6.928
 4293SOL    HW213779   2.962   2.922   6.978
 4294SOL     OW13780   2.049   1.856   6.415
 4294SOL    HW113781   2.132   1.882   6.465
 4294SOL    HW213782   2.025   1.762   6.438
 4295SOL     OW13783   3.527   5.882   4.795
 4295SOL    HW113784   3.553   5.978   4.782
 4295SOL    HW213785   3.537   5.858   4.892
 4296SOL     OW13786   3.445   6.852   0.436
 4296SOL    HW113787   3.356   6.885   0.467
 4296SOL    HW213788   3.471   6.772   0.490
 4297SOL     OW13789   5.832   0.145   1.086
 4297SOL    HW113790   5.824   0.074   1.016
 4297SOL    HW213791   5.820   0.235   1.043
 4298SOL     OW13792   4.298   5.449   0.821
 4298SOL    HW113793   4.254   5.525   0.773
 4298SOL    HW213794   4.228   5.386   0.856
 4299SOL     OW13795   1.786   3.386   6.559
 4299SOL    HW113796   1.866   3.337   6.595
 4299SOL    HW213797   1.714   3.387   6.628
 4300SOL     OW13798   2.617   0.035   0.327
 4300SOL    HW113799   2.612   6.983   0.258
 4300SOL    HW213800   2.631   7.015   0.417
 4301SOL     OW13801   4.775   0.072   1.199
 4301SOL    HW113802   4.726   0.054   1.284
 4301SOL    HW213803   4.727   0.143   1.147
 4302SOL     OW13804   0.064   0.114   5.969
 4302SOL    HW113805   0.013   0.123   5.884
 4302SOL    HW213806   0.014   0.055   6.032
 4303SOL     OW13807   0.063   4.958   4.374
 4303SOL    HW113808   6.985   4.942   4.370
 4303SOL    HW213809   0.088   5.032   4.312
 4304SOL     OW13810   3.110   3.014   2.607
 4304SOL    HW113811   3.206   3.011   2.581
 4304SOL    HW213812   3.100   2.985   2.702
 4305SOL     OW13813   0.885   6.786   5.703
 4305SOL    HW113814   0.926   6.748   5.786
 4305SOL    HW213815   0.787   6.802   5.719
 4306SOL     OW13816   4.168   5.087   4.774
 4306SOL    HW113817   4.176   5.030   4.856
 4306SOL    HW213818   4.102   5.047   4.711
 4307SOL     OW13819   6.550   4.100   5.859
 4307SOL    HW113820   6.478   4.110   5.791
 4307SOL    HW213821   6.629   4.154   5.832
 4308SOL     OW13822   6.275   4.938   1.488
 4308SOL    HW113823   6.268   5.018   1.547
 4308SOL    HW213824   6.192   4.931   1.431
 4309SOL     OW13825   1.103   1.322   1.109
 4309SOL    HW113826   1.054   1.240   1.139
 4309SOL    HW213827   1.037   1.390   1.077
 4310SOL     OW13828   1.639   2.455   1.613
 4310SOL    HW113829   1.595   2.416   1.694
 4310SOL    HW213830   1.648   2.384   1.543
 4311SOL     OW13831   1.205   6.357   2.498
 4311SOL    HW113832   1.126   6.311   2.538
 4311SOL    HW213833   1.262   6.290   2.450
 4312SOL     OW13834   1.325   6.117   2.002
 4312SOL    HW113835   1.238   6.122   2.052
 4312SOL    HW213836   1.351   6.208   1.971
 4313SOL     OW13837   4.796   1.718   0.761
 4313SOL    HW113838   4.704   1.690   0.735
 4313SOL    HW213839   4.810   1.813   0.735
 4314SOL     OW13840   5.347   1.430   4.645
 4314SOL    HW113841   5.397   1.517   4.652
 4314SOL    HW213842   5.387   1.363   4.707
 4315SOL     OW13843   2.328   0.156   3.352
 4315SOL    HW113844   2.424   0.182   3.362
 4315SOL    HW213845   2.311   0.129   3.258
 4316SOL     OW13846   5.053   0.988   1.668
 4316SOL    HW113847   5.098   0.943   1.591
 4316SOL    HW213848   4.955   0.969   1.664
 4317SOL     OW13849   5.153   2.072   5.597
 4317SOL    HW113850   5.183   2.149   5.540
 4317SOL    HW213851   5.076   2.027   5.554
 4318SOL     OW13852   0.439   2.154   4.668
 4318SOL    HW113853   0.529   2.122   4.636
 4318SOL    HW213854   0.444   2.174   4.766
 4319SOL     OW13855   1.906   1.541   0.757
 4319SOL    HW113856   1.891   1.487   0.840
 4319SOL    HW213857   1.942   1.631   0.782
 4320SOL     OW13858   4.140   5.018   0.785
 4320SOL    HW113859   4.096   4.967   0.858
 4320SOL    HW213860   4.092   5.105   0.771
 4321SOL     OW13861   0.340   5.375   4.957
 4321SOL    HW113862   0.264   5.401   5.017
 4321SOL    HW213863   0.308   5.313   4.887
 4322SOL     OW13864   6.327   2.717   6.988
 4322SOL    HW113865   6.244   2.670   7.020
 4322SOL    HW213866   6.403   2.651   6.984
 4323SOL     OW13867   4.548   3.999   0.104
 4323SOL    HW113868   4.565   3.956   0.192
 4323SOL    HW213869   4.570   3.935   0.030
 4324SOL     OW13870   5.961   4.366   6.132
 4324SOL    HW113871   5.869   4.389   6.098
 4324SOL    HW213872   6.024   4.440   6.108
 4325SOL     OW13873   3.066   1.568   1.735
 4325SOL    HW113874   3.150   1.622   1.744
 4325SOL    HW213875   3.090   1.476   1.705
 4326SOL     OW13876   4.912   4.281   2.616
 4326SOL    HW113877   4.814   4.281   2.594
 4326SOL    HW213878   4.955   4.361   2.575
 4327SOL     OW13879   5.343   6.134   1.789
 4327SOL    HW113880   5.363   6.144   1.887
 4327SOL    HW213881   5.265   6.192   1.765
 4328SOL     OW13882   4.625   4.421   5.656
 4328SOL    HW113883   4.649   4.329   5.626
 4328SOL    HW213884   4.562   4.415   5.734
 4329SOL     OW13885   4.985   2.384   5.776
 4329SOL    HW113886   4.952   2.352   5.864
 4329SOL    HW213887   5.064   2.444   5.789
 4330SOL     OW13888   1.880   6.206   4.720
 4330SOL    HW113889   1.908   6.206   4.816
 4330SOL    HW213890   1.854   6.114   4.692
 4331SOL     OW13891   6.625   1.456   2.267
 4331SOL    HW113892   6.585   1.438   2.177
 4331SOL    HW213893   6.702   1.519   2.257
 4332SOL     OW13894   5.044   2.491   2.889
 4332SOL    HW113895   5.131   2.538   2.870
 4332SOL    HW213896   4.974   2.524   2.826
 4333SOL     OW13897   4.228   1.248   5.669
 4333SOL    HW113898   4.240   1.170   5.607
 4333SOL    HW213899   4.317   1.291   5.686
 4334SOL     OW13900   2.282   2.668   2.470
 4334SOL    HW113901   2.268   2.740   2.402
 4334SOL    HW213902   2.199   2.657   2.525
 4335SOL     OW13903   3.489   4.069   2.304
 4335SOL    HW113904   3.486   4.140   2.234
 4335SOL    HW213905   3.464   4.108   2.393
 4336SOL     OW13906   3.296   6.874   6.228
 4336SOL    HW113907   3.284   6.841   6.135
 4336SOL    HW213908   3.206   6.887   6.271
 4337SOL     OW13909   1.201   4.378   0.486
 4337SOL    HW113910   1.128   4.403   0.550
 4337SOL    HW213911   1.201   4.442   0.409
 4338SOL     OW13912   6.472   6.638   6.699
 4338SOL    HW113913   6.385   6.591   6.690
 4338SOL    HW213914   6.482   6.674   6.792
 4339SOL     OW13915   4.226   3.636   5.488
 4339SOL    HW113916   4.300   3.616   5.424
 4339SOL    HW213917   4.166   3.706   5.449
 4340SOL     OW13918   6.532   3.129   1.248
 4340SOL    HW113919   6.510   3.225   1.228
 4340SOL    HW213920   6.616   3.104   1.201
 4341SOL     OW13921   1.025   5.657   1.818
 4341SOL    HW113922   0.971   5.577   1.791
 4341SOL    HW213923   1.114   5.627   1.852
 4342SOL     OW13924   4.800   4.271   3.115
 4342SOL    HW113925   4.784   4.219   3.031
 4342SOL    HW213926   4.893   4.305   3.116
 4343SOL     OW13927   3.112   6.322   4.617
 4343SOL    HW113928   3.069   6.238   4.650
 4343SOL    HW213929   3.059   6.401   4.649
 4344SOL     OW13930   0.417   4.028   2.329
 4344SOL    HW113931   0.423   3.998   2.234
 4344SOL    HW213932   0.465   4.115   2.339
 4345SOL     OW13933   3.624   4.281   5.606
 4345SOL    HW113934   3.717   4.258   5.635
 4345SOL    HW213935   3.621   4.376   5.575
 4346SOL     OW13936   1.916   3.692   3.195
 4346SOL    HW113937   1.817   3.679   3.209
 4346SOL    HW213938   1.930   3.765   3.128
 4347SOL     OW13939   5.755   6.891   2.614
 4347SOL    HW113940   5.677   6.943   2.650
 4347SOL    HW213941   5.723   6.808   2.569
 4348SOL     OW13942   0.287   5.636   3.589
 4348SOL    HW113943   0.311   5.663   3.496
 4348SOL    HW213944   0.188   5.642   3.601
 4349SOL     OW13945   6.079   2.250   3.355
 4349SOL    HW113946   6.124   2.316   3.294
 4349SOL    HW213947   6.071   2.162   3.308
 4350SOL     OW13948   3.656   1.638   3.924
 4350SOL    HW113949   3.624   1.711   3.984
 4350SOL    HW213950   3.581   1.574   3.907
 4351SOL     OW13951   1.422   6.100   1.435
 4351SOL    HW113952   1.323   6.099   1.452
 4351SOL    HW213953   1.440   6.132   1.342
 4352SOL     OW13954   6.346   3.890   2.371
 4352SOL    HW113955   6.258   3.908   2.414
 4352SOL    HW213956   6.382   3.975   2.332
 4353SOL     OW13957   4.081   2.495   6.475
 4353SOL    HW113958   4.063   2.410   6.524
 4353SOL    HW213959   4.074   2.480   6.377
 4354SOL     OW13960   1.745   0.997   6.171
 4354SOL    HW113961   1.799   0.959   6.096
 4354SOL    HW213962   1.790   1.080   6.205
 4355SOL     OW13963   2.736   6.970   2.746
 4355SOL    HW113964   2.706   0.029   2.694
 4355SOL    HW213965   2.786   6.908   2.687
 4356SOL     OW13966   5.190   3.523   6.839
 4356SOL    HW113967   5.103   3.572   6.828
 4356SOL    HW213968   5.259   3.585   6.876
 4357SOL     OW13969   6.473   0.839   1.561
 4357SOL    HW113970   6.418   0.886   1.493
 4357SOL    HW213971   6.498   0.903   1.634
 4358SOL     OW13972   6.960   0.768   0.918
 4358SOL    HW113973   6.880   0.828   0.917
 4358SOL    HW213974   0.013   0.813   0.968
 4359SOL     OW13975   1.030   1.361   6.042
 4359SOL    HW113976   0.980   1.337   5.959
 4359SOL    HW213977   1.075   1.280   6.079
 4360SOL     OW13978   0.934   3.904   4.154
 4360SOL    HW113979   0.892   3.932   4.068
 4360SOL    HW213980   1.018   3.853   4.135
 4361SOL     OW13981   2.114   3.724   1.902
 4361SOL    HW113982   2.152   3.646   1.952
 4361SOL    HW213983   2.163   3.733   1.815
 4362SOL     OW13984   6.813   5.104   3.490
 4362SOL    HW113985   6.882   5.115   3.562
 4362SOL    HW213986   6.745   5.177   3.497
 4363SOL     OW13987   5.203   2.229   1.171
 4363SOL    HW113988   5.195   2.179   1.258
 4363SOL    HW213989   5.130   2.201   1.109
 4364SOL     OW13990   3.057   3.950   3.565
 4364SOL    HW113991   2.989   4.024   3.567
 4364SOL    HW213992   3.149   3.990   3.567
 4365SOL     OW13993   3.033   0.771   1.885
 4365SOL    HW113994   3.080   0.683   1.894
 4365SOL    HW213995   2.979   0.788   1.967
 4366SOL     OW13996   6.765   6.742   6.645
 4366SOL    HW113997   6.704   6.800   6.700
 4366SOL    HW213998   6.843   6.797   6.613
 4367SOL     OW13999   2.708   4.708   3.983
 4367SOL    HW114000   2.779   4.705   4.053
 4367SOL    HW214001   2.644   4.632   3.998
 4368SOL     OW14002   4.087   6.118   1.799
 4368SOL    HW114003   4.000   6.077   1.824
 4368SOL    HW214004   4.105   6.101   1.702
 4369SOL     OW14005   4.646   5.227   2.676
 4369SOL    HW114006   4.612   5.160   2.742
 4369SOL    HW214007   4.723   5.277   2.716
 4370SOL     OW14008   3.765   4.579   1.709
 4370SOL    HW114009   3.799   4.644   1.641
 4370SOL    HW214010   3.694   4.624   1.765
 4371SOL     OW14011   1.909   2.318   2.313
 4371SOL    HW114012   1.970   2.256   2.362
 4371SOL    HW214013   1.898   2.287   2.219
 4372SOL     OW14014   2.629   1.981   4.455
 4372SOL    HW114015   2.691   2.057   4.434
 4372SOL    HW214016   2.566   2.010   4.528
 4373SOL     OW14017   5.423   1.435   6.810
 4373SOL    HW114018   5.473   1.355   6.779
 4373SOL    HW214019   5.481   1.516   6.805
 4374SOL     OW14020   0.844   1.907   1.283
 4374SOL    HW114021   0.914   1.841   1.307
 4374SOL    HW214022   0.881   1.975   1.220
 4375SOL     OW14023   4.049   6.652   3.343
 4375SOL    HW114024   3.993   6.667   3.425
 4375SOL    HW214025   4.032   6.560   3.308
 4376SOL     OW14026   6.455   0.290   2.739
 4376SOL    HW114027   6.433   0.203   2.784
 4376SOL    HW214028   6.553   0.292   2.717
 4377SOL     OW14029   5.690   5.679   6.792
 4377SOL    HW114030   5.616   5.636   6.844
 4377SOL    HW214031   5.768   5.695   6.852
 4378SOL     OW14032   1.691   2.971   2.906
 4378SOL    HW114033   1.725   2.991   2.814
 4378SOL    HW214034   1.768   2.970   2.970
 4379SOL     OW14035   2.659   2.055   2.561
 4379SOL    HW114036   2.726   2.104   2.505
 4379SOL    HW214037   2.622   2.116   2.630
 4380SOL     OW14038   1.388   6.560   3.186
 4380SOL    HW114039   1.487   6.566   3.202
 4380SOL    HW214040   1.342   6.544   3.273
 4381SOL     OW14041   2.220   3.943   5.319
 4381SOL    HW114042   2.293   3.964   5.254
 4381SOL    HW214043   2.203   3.845   5.319
 4382SOL     OW14044   6.208   3.392   6.441
 4382SOL    HW114045   6.219   3.387   6.540
 4382SOL    HW214046   6.161   3.311   6.407
 4383SOL     OW14047   0.814   2.258   5.925
 4383SOL    HW114048   0.811   2.229   5.830
 4383SOL    HW214049   0.859   2.347   5.932
 4384SOL     OW14050   5.559   1.478   6.184
 4384SOL    HW114051   5.471   1.524   6.175
 4384SOL    HW214052   5.568   1.408   6.113
 4385SOL     OW14053   6.204   2.634   5.140
 4385SOL    HW114054   6.221   2.668   5.048
 4385SOL    HW214055   6.137   2.693   5.185
 4386SOL     OW14056   2.427   3.453   6.831
 4386SOL    HW114057   2.418   3.552   6.838
 4386SOL    HW214058   2.337   3.411   6.846
 4387SOL     OW14059   0.049   0.872   1.884
 4387SOL    HW114060   0.042   0.838   1.978
 4387SOL    HW214061   6.992   0.839   1.831
 4388SOL     OW14062   5.382   1.718   6.503
 4388SOL    HW114063   5.440   1.789   6.543
 4388SOL    HW214064   5.431   1.631   6.502
 4389SOL     OW14065   6.740   3.675   0.739
 4389SOL    HW114066   6.784   3.643   0.823
 4389SOL    HW214067   6.645   3.700   0.758
 4390SOL     OW14068   3.487   1.123   2.174
 4390SOL    HW114069   3.440   1.077   2.099
 4390SOL    HW214070   3.501   1.219   2.151
 4391SOL     OW14071   1.680   5.536   6.619
 4391SOL    HW114072   1.718   5.460   6.566
 4391SOL    HW214073   1.662   5.613   6.558
 4392SOL     OW14074   6.915   3.359   6.171
 4392SOL    HW114075   7.015   3.361   6.168
 4392SOL    HW214076   6.879   3.417   6.098
 4393SOL     OW14077   6.082   0.224   2.304
 4393SOL    HW114078   6.079   0.155   2.376
 4393SOL    HW214079   6.007   0.288   2.317
 4394SOL     OW14080   5.650   5.738   2.694
 4394SOL    HW114081   5.586   5.704   2.625
 4394SOL    HW214082   5.686   5.827   2.665
 4395SOL     OW14083   3.508   0.474   1.896
 4395SOL    HW114084   3.504   0.377   1.922
 4395SOL    HW214085   3.565   0.484   1.815
 4396SOL     OW14086   2.322   2.408   3.979
 4396SOL    HW114087   2.352   2.430   4.072
 4396SOL    HW214088   2.317   2.309   3.968
 4397SOL     OW14089   0.339   1.114   4.487
 4397SOL    HW114090   0.398   1.034   4.477
 4397SOL    HW214091   0.385   1.183   4.542
 4398SOL     OW14092   0.696   4.862   4.839
 4398SOL    HW114093   0.747   4.797   4.782
 4398SOL    HW214094   0.753   4.890   4.917
 4399SOL     OW14095   1.974   1.275   1.588
 4399SOL    HW114096   1.929   1.305   1.672
 4399SOL    HW214097   1.967   1.348   1.519
 4400SOL     OW14098   3.509   6.600   5.791
 4400SOL    HW114099   3.428   6.609   5.850
 4400SOL    HW214100   3.541   6.506   5.793
 4401SOL     OW14101   4.970   6.871   6.659
 4401SOL    HW114102   4.931   6.954   6.700
 4401SOL    HW214103   5.056   6.894   6.614
 4402SOL     OW14104   2.705   7.009   1.075
 4402SOL    HW114105   2.742   6.936   1.017
 4402SOL    HW214106   2.637   6.972   1.138
 4403SOL     OW14107   0.736   0.379   3.949
 4403SOL    HW114108   0.696   0.314   3.884
 4403SOL    HW214109   0.786   0.450   3.898
 4404SOL     OW14110   0.201   3.956   5.773
 4404SOL    HW114111   0.119   3.928   5.822
 4404SOL    HW214112   0.281   3.914   5.815
 4405SOL     OW14113   1.698   4.541   1.223
 4405SOL    HW114114   1.791   4.556   1.256
 4405SOL    HW214115   1.687   4.446   1.196
 4406SOL     OW14116   6.908   3.904   0.452
 4406SOL    HW114117   6.972   3.829   0.471
 4406SOL    HW214118   6.816   3.875   0.479
 4407SOL     OW14119   0.048   4.833   1.122
 4407SOL    HW114120   0.091   4.880   1.199
 4407SOL    HW214121   7.007   4.897   1.076
 4408SOL     OW14122   3.092   1.366   1.575
 4408SOL    HW114123   3.000   1.330   1.591
 4408SOL    HW214124   3.151   1.294   1.539
 4409SOL     OW14125   4.595   0.029   1.756
 4409SOL    HW114126   4.572   0.082   1.675
 4409SOL    HW214127   4.660   0.080   1.812
 4410SOL     OW14128   1.262   5.974   6.852
 4410SOL    HW114129   1.192   6.036   6.818
 4410SOL    HW214130   1.285   5.998   6.946
 4411SOL     OW14131   3.292   4.155   3.825
 4411SOL    HW114132   3.381   4.158   3.870
 4411SOL    HW214133   3.236   4.083   3.866
 4412SOL     OW14134   4.165   6.775   4.884
 4412SOL    HW114135   4.189   6.685   4.922
 4412SOL    HW214136   4.068   6.776   4.861
 4413SOL     OW14137   5.511   5.644   5.108
 4413SOL    HW114138   5.507   5.686   5.198
 4413SOL    HW214139   5.595   5.590   5.100
 4414SOL     OW14140   3.803   4.578   1.304
 4414SOL    HW114141   3.771   4.483   1.296
 4414SOL    HW214142   3.738   4.630   1.360
 4415SOL     OW14143   3.632   3.270   6.945
 4415SOL    HW114144   3.675   3.179   6.950
 4415SOL    HW214145   3.568   3.280   7.021
 4416SOL     OW14146   2.069   0.404   4.279
 4416SOL    HW114147   2.025   0.393   4.190
 4416SOL    HW214148   2.013   0.359   4.349
 4417SOL     OW14149   6.059   4.382   3.256
 4417SOL    HW114150   6.083   4.479   3.254
 4417SOL    HW214151   6.036   4.356   3.349
 4418SOL     OW14152   5.878   1.367   2.497
 4418SOL    HW114153   5.913   1.431   2.429
 4418SOL    HW214154   5.904   1.398   2.589
 4419SOL     OW14155   5.875   5.556   0.237
 4419SOL    HW114156   5.864   5.482   0.170
 4419SOL    HW214157   5.862   5.644   0.192
 4420SOL     OW14158   5.071   1.250   1.704
 4420SOL    HW114159   5.075   1.152   1.685
 4420SOL    HW214160   5.045   1.299   1.620
 4421SOL     OW14161   1.687   0.809   5.351
 4421SOL    HW114162   1.685   0.741   5.277
 4421SOL    HW214163   1.669   0.900   5.313
 4422SOL     OW14164   3.148   4.418   6.152
 4422SOL    HW114165   3.100   4.386   6.071
 4422SOL    HW214166   3.153   4.518   6.151
 4423SOL     OW14167   1.576   2.994   5.801
 4423SOL    HW114168   1.561   2.947   5.888
 4423SOL    HW214169   1.493   2.988   5.745
 4424SOL     OW14170   5.338   0.706   4.198
 4424SOL    HW114171   5.384   0.792   4.177
 4424SOL    HW214172   5.305   0.664   4.113
 4425SOL     OW14173   3.742   5.066   0.294
 4425SOL    HW114174   3.680   4.996   0.259
 4425SOL    HW214175   3.712   5.156   0.261
 4426SOL     OW14176   0.148   1.187   4.974
 4426SOL    HW114177   0.069   1.230   4.932
 4426SOL    HW214178   0.220   1.255   4.988
 4427SOL     OW14179   0.366   6.096   2.473
 4427SOL    HW114180   0.294   6.087   2.404
 4427SOL    HW214181   0.424   6.015   2.472
 4428SOL     OW14182   2.706   6.512   1.797
 4428SOL    HW114183   2.680   6.572   1.873
 4428SOL    HW214184   2.634   6.513   1.727
 4429SOL     OW14185   3.135   0.285   2.502
 4429SOL    HW114186   3.228   0.321   2.508
 4429SOL    HW214187   3.112   0.265   2.407
 4430SOL     OW14188   4.962   3.523   4.778
 4430SOL    HW114189   5.054   3.509   4.815
 4430SOL    HW214190   4.897   3.535   4.853
 4431SOL     OW14191   2.268   1.159   2.345
 4431SOL    HW114192   2.196   1.208   2.297
 4431SOL    HW214193   2.241   1.063   2.358
 4432SOL     OW14194   3.814   4.110   4.983
 4432SOL    HW114195   3.822   4.088   4.885
 4432SOL    HW214196   3.893   4.072   5.031
 4433SOL     OW14197   4.805   1.032   4.665
 4433SOL    HW114198   4.722   0.995   4.708
 4433SOL    HW214199   4.885   1.008   4.719
 4434SOL     OW14200   4.423   1.914   4.323
 4434SOL    HW114201   4.376   1.833   4.359
 4434SOL    HW214202   4.489   1.947   4.390
 4435SOL     OW14203   4.413   3.001   1.464
 4435SOL    HW114204   4.487   3.067   1.459
 4435SOL    HW214205   4.380   2.995   1.558
 4436SOL     OW14206   4.152   1.098   0.955
 4436SOL    HW114207   4.242   1.065   0.925
 4436SOL    HW214208   4.142   1.083   1.053
 4437SOL     OW14209   5.772   1.313   3.211
 4437SOL    HW114210   5.844   1.353   3.268
 4437SOL    HW214211   5.684   1.319   3.258
 4438SOL     OW14212   5.197   0.164   0.230
 4438SOL    HW114213   5.211   0.261   0.209
 4438SOL    HW214214   5.255   0.109   0.170
 4439SOL     OW14215   0.163   5.809   1.587
 4439SOL    HW114216   0.217   5.798   1.670
 4439SOL    HW214217   0.071   5.774   1.603
 4440SOL     OW14218   1.918   5.626   0.615
 4440SOL    HW114219   1.986   5.565   0.657
 4440SOL    HW214220   1.861   5.666   0.687
 4441SOL     OW14221   6.682   2.148   2.940
 4441SOL    HW114222   6.634   2.165   3.026
 4441SOL    HW214223   6.642   2.068   2.895
 4442SOL     OW14224   2.583   5.717   4.631
 4442SOL    HW114225   2.504   5.682   4.682
 4442SOL    HW214226   2.552   5.756   4.544
 4443SOL     OW14227   0.170   2.762   0.553
 4443SOL    HW114228   0.071   2.757   0.569
 4443SOL    HW214229   0.191   2.846   0.503
 4444SOL     OW14230   3.067   5.132   6.481
 4444SOL    HW114231   3.036   5.048   6.435
 4444SOL    HW214232   3.152   5.114   6.529
 4445SOL     OW14233   0.510   0.603   1.193
 4445SOL    HW114234   0.414   0.592   1.220
 4445SOL    HW214235   0.524   0.560   1.104
 4446SOL     OW14236   6.090   1.247   2.168
 4446SOL    HW114237   6.169   1.191   2.193
 4446SOL    HW214238   6.006   1.204   2.201
 4447SOL     OW14239   5.365   3.844   6.513
 4447SOL    HW114240   5.419   3.762   6.532
 4447SOL    HW214241   5.411   3.900   6.445
 4448SOL     OW14242   3.104   4.117   1.118
 4448SOL    HW114243   3.079   4.169   1.200
 4448SOL    HW214244   3.026   4.060   1.090
 4449SOL     OW14245   5.135   0.504   5.543
 4449SOL    HW114246   5.169   0.418   5.505
 4449SOL    HW214247   5.130   0.573   5.471
 4450SOL     OW14248   3.708   2.988   4.032
 4450SOL    HW114249   3.808   2.979   4.032
 4450SOL    HW214250   3.683   3.080   4.063
 4451SOL     OW14251   5.623   4.124   3.988
 4451SOL    HW114252   5.713   4.080   3.986
 4451SOL    HW214253   5.569   4.089   4.065
 4452SOL     OW14254   5.338   6.238   4.389
 4452SOL    HW114255   5.258   6.282   4.430
 4452SOL    HW214256   5.330   6.139   4.398
 4453SOL     OW14257   0.622   2.548   1.905
 4453SOL    HW114258   0.687   2.538   1.980
 4453SOL    HW214259   0.546   2.486   1.918
 4454SOL     OW14260   0.872   1.831   6.692
 4454SOL    HW114261   0.945   1.896   6.714
 4454SOL    HW214262   0.897   1.780   6.610
 4455SOL     OW14263   4.050   6.119   6.322
 4455SOL    HW114264   4.111   6.063   6.379
 4455SOL    HW214265   4.057   6.089   6.227
 4456SOL     OW14266   3.777   5.315   1.824
 4456SOL    HW114267   3.687   5.352   1.847
 4456SOL    HW214268   3.779   5.218   1.846
 4457SOL     OW14269   4.679   1.877   1.179
 4457SOL    HW114270   4.684   1.977   1.180
 4457SOL    HW214271   4.592   1.849   1.222
 4458SOL     OW14272   1.567   3.119   6.298
 4458SOL    HW114273   1.566   3.133   6.199
 4458SOL    HW214274   1.649   3.067   6.324
 4459SOL     OW14275   4.567   0.536   4.438
 4459SOL    HW114276   4.538   0.440   4.447
 4459SOL    HW214277   4.533   0.572   4.351
 4460SOL     OW14278   2.921   2.811   5.330
 4460SOL    HW114279   2.886   2.735   5.384
 4460SOL    HW214280   2.862   2.891   5.343
 4461SOL     OW14281   1.638   1.365   1.600
 4461SOL    HW114282   1.715   1.373   1.664
 4461SOL    HW214283   1.578   1.290   1.629
 4462SOL     OW14284   6.107   4.750   2.117
 4462SOL    HW114285   6.116   4.813   2.041
 4462SOL    HW214286   6.082   4.800   2.200
 4463SOL     OW14287   5.363   1.868   6.194
 4463SOL    HW114288   5.370   1.897   6.290
 4463SOL    HW214289   5.371   1.769   6.189
 4464SOL     OW14290   6.661   4.860   1.099
 4464SOL    HW114291   6.581   4.866   1.159
 4464SOL    HW214292   6.718   4.941   1.111
 4465SOL     OW14293   2.736   5.183   1.714
 4465SOL    HW114294   2.775   5.136   1.793
 4465SOL    HW214295   2.677   5.258   1.744
 4466SOL     OW14296   2.142   2.037   3.163
 4466SOL    HW114297   2.236   2.064   3.145
 4466SOL    HW214298   2.089   2.116   3.194
 4467SOL     OW14299   1.901   6.866   2.580
 4467SOL    HW114300   1.809   6.859   2.541
 4467SOL    HW214301   1.933   6.775   2.606
 4468SOL     OW14302   2.203   3.144   0.876
 4468SOL    HW114303   2.236   3.194   0.956
 4468SOL    HW214304   2.235   3.049   0.881
 4469SOL     OW14305   4.360   0.836   1.591
 4469SOL    HW114306   4.323   0.816   1.500
 4469SOL    HW214307   4.297   0.896   1.640
 4470SOL     OW14308   5.731   1.976   2.539
 4470SOL    HW114309   5.723   2.038   2.616
 4470SOL    HW214310   5.824   1.938   2.537
 4471SOL     OW14311   0.438   1.736   6.854
 4471SOL    HW114312   0.471   1.747   6.948
 4471SOL    HW214313   0.400   1.644   6.843
 4472SOL     OW14314   1.308   2.958   3.584
 4472SOL    HW114315   1.331   2.868   3.622
 4472SOL    HW214316   1.226   2.993   3.629
 4473SOL     OW14317   6.627   2.422   4.582
 4473SOL    HW114318   6.564   2.346   4.595
 4473SOL    HW214319   6.651   2.430   4.485
 4474SOL     OW14320   2.988   1.093   1.611
 4474SOL    HW114321   2.902   1.061   1.573
 4474SOL    HW214322   3.058   1.023   1.600
 4475SOL     OW14323   1.652   3.965   2.994
 4475SOL    HW114324   1.712   4.005   3.064
 4475SOL    HW214325   1.557   3.977   3.022
 4476SOL     OW14326   3.988   6.815   3.789
 4476SOL    HW114327   4.087   6.817   3.780
 4476SOL    HW214328   3.949   6.892   3.738
 4477SOL     OW14329   1.695   0.083   5.369
 4477SOL    HW114330   1.716   0.111   5.462
 4477SOL    HW214331   1.689   7.004   5.365
 4478SOL     OW14332   3.896   6.738   2.511
 4478SOL    HW114333   3.919   6.831   2.538
 4478SOL    HW214334   3.932   6.673   2.578
 4479SOL     OW14335   1.481   1.109   1.420
 4479SOL    HW114336   1.567   1.159   1.430
 4479SOL    HW214337   1.496   1.025   1.367
 4480SOL     OW14338   2.331   3.630   5.870
 4480SOL    HW114339   2.239   3.602   5.844
 4480SOL    HW214340   2.391   3.625   5.791
 4481SOL     OW14341   2.441   6.053   5.689
 4481SOL    HW114342   2.513   6.074   5.755
 4481SOL    HW214343   2.446   5.957   5.662
 4482SOL     OW14344   0.987   4.657   4.235
 4482SOL    HW114345   1.026   4.567   4.255
 4482SOL    HW214346   0.908   4.647   4.175
 4483SOL     OW14347   5.197   3.374   1.755
 4483SOL    HW114348   5.143   3.425   1.822
 4483SOL    HW214349   5.219   3.284   1.791
 4484SOL     OW14350   3.078   2.927   5.858
 4484SOL    HW114351   2.984   2.960   5.850
 4484SOL    HW214352   3.089   2.878   5.945
 4485SOL     OW14353   5.009   1.739   4.958
 4485SOL    HW114354   4.941   1.678   5.000
 4485SOL    HW214355   4.965   1.824   4.930
 4486SOL     OW14356   5.189   4.920   4.780
 4486SOL    HW114357   5.103   4.886   4.817
 4486SOL    HW214358   5.223   4.995   4.837
 4487SOL     OW14359   2.238   2.823   6.350
 4487SOL    HW114360   2.216   2.896   6.284
 4487SOL    HW214361   2.332   2.836   6.383
 4488SOL     OW14362   6.557   2.885   6.605
 4488SOL    HW114363   6.480   2.918   6.550
 4488SOL    HW214364   6.643   2.913   6.563
 4489SOL     OW14365   6.002   5.359   3.951
 4489SOL    HW114366   5.994   5.279   3.891
 4489SOL    HW214367   5.915   5.373   3.999
 4490SOL     OW14368   6.357   2.852   3.191
 4490SOL    HW114369   6.296   2.788   3.237
 4490SOL    HW214370   6.323   2.945   3.203
 4491SOL     OW14371   6.786   2.166   4.876
 4491SOL    HW114372   6.687   2.152   4.867
 4491SOL    HW214373   6.812   2.249   4.828
 4492SOL     OW14374   5.743   3.991   1.946
 4492SOL    HW114375   5.750   4.081   1.902
 4492SOL    HW214376   5.772   3.920   1.882
 4493SOL     OW14377   4.326   5.996   5.447
 4493SOL    HW114378   4.397   6.065   5.465
 4493SOL    HW214379   4.287   6.013   5.356
 4494SOL     OW14380   6.671   1.198   5.767
 4494SOL    HW114381   6.718   1.160   5.846
 4494SOL    HW214382   6.573   1.204   5.785
 4495SOL     OW14383   4.213   6.518   4.143
 4495SOL    HW114384   4.239   6.604   4.100
 4495SOL    HW214385   4.237   6.522   4.240
 4496SOL     OW14386   5.649   5.395   1.077
 4496SOL    HW114387   5.635   5.349   1.165
 4496SOL    HW214388   5.648   5.494   1.090
 4497SOL     OW14389   4.648   1.118   6.607
 4497SOL    HW114390   4.690   1.049   6.549
 4497SOL    HW214391   4.554   1.134   6.576
 4498SOL     OW14392   6.662   3.582   0.170
 4498SOL    HW114393   6.589   3.550   0.109
 4498SOL    HW214394   6.692   3.506   0.228
 4499SOL     OW14395   6.479   3.498   4.762
 4499SOL    HW114396   6.499   3.528   4.668
 4499SOL    HW214397   6.564   3.471   4.806
 4500SOL     OW14398   2.988   3.365   4.012
 4500SOL    HW114399   2.928   3.400   3.939
 4500SOL    HW214400   2.984   3.427   4.090
 4501SOL     OW14401   0.490   3.542   4.239
 4501SOL    HW114402   0.542   3.484   4.301
 4501SOL    HW214403   0.479   3.633   4.280
 4502SOL     OW14404   1.053   2.770   6.750
 4502SOL    HW114405   1.070   2.711   6.671
 4502SOL    HW214406   0.982   2.836   6.728
 4503SOL     OW14407   3.110   6.935   1.677
 4503SOL    HW114408   3.155   6.937   1.766
 4503SOL    HW214409   3.165   6.988   1.611
 4504SOL     OW14410   6.702   1.175   4.667
 4504SOL    HW114411   6.794   1.161   4.705
 4504SOL    HW214412   6.707   1.240   4.591
 4505SOL     OW14413   5.666   5.188   1.745
 4505SOL    HW114414   5.670   5.122   1.820
 4505SOL    HW214415   5.758   5.202   1.708
 4506SOL     OW14416   4.349   2.353   3.881
 4506SOL    HW114417   4.360   2.421   3.953
 4506SOL    HW214418   4.398   2.383   3.799
 4507SOL     OW14419   5.419   5.023   2.102
 4507SOL    HW114420   5.370   5.083   2.038
 4507SOL    HW214421   5.387   4.929   2.090
 4508SOL     OW14422   0.874   4.835   6.371
 4508SOL    HW114423   0.800   4.883   6.419
 4508SOL    HW214424   0.845   4.741   6.350
 4509SOL     OW14425   4.948   2.182   2.581
 4509SOL    HW114426   4.959   2.238   2.499
 4509SOL    HW214427   4.908   2.093   2.556
 4510SOL     OW14428   4.636   1.107   4.236
 4510SOL    HW114429   4.631   1.116   4.137
 4510SOL    HW214430   4.590   1.023   4.265
 4511SOL     OW14431   0.191   3.128   6.797
 4511SOL    HW114432   0.219   3.181   6.717
 4511SOL    HW214433   0.242   3.042   6.800
 4512SOL     OW14434   2.961   0.277   5.034
 4512SOL    HW114435   2.874   0.327   5.028
 4512SOL    HW214436   3.036   0.338   5.007
 4513SOL     OW14437   6.327   4.829   0.481
 4513SOL    HW114438   6.265   4.762   0.440
 4513SOL    HW214439   6.421   4.809   0.452
 4514SOL     OW14440   4.395   1.154   6.525
 4514SOL    HW114441   4.346   1.069   6.547
 4514SOL    HW214442   4.329   1.228   6.511
 4515SOL     OW14443   0.183   2.041   5.990
 4515SOL    HW114444   0.216   2.078   6.077
 4515SOL    HW214445   0.110   2.099   5.955
 4516SOL     OW14446   1.562   0.415   0.080
 4516SOL    HW114447   1.600   0.412   0.172
 4516SOL    HW214448   1.587   0.502   0.037
 4517SOL     OW14449   3.701   0.684   6.482
 4517SOL    HW114450   3.663   0.661   6.572
 4517SOL    HW214451   3.645   0.643   6.410
 4518SOL     OW14452   0.095   0.269   2.786
 4518SOL    HW114453   0.062   0.272   2.691
 4518SOL    HW214454   0.028   0.220   2.843
 4519SOL     OW14455   6.309   0.869   1.119
 4519SOL    HW114456   6.287   0.862   1.022
 4519SOL    HW214457   6.278   0.787   1.167
 4520SOL     OW14458   4.596   6.644   4.726
 4520SOL    HW114459   4.514   6.701   4.734
 4520SOL    HW214460   4.576   6.564   4.669
 4521SOL     OW14461   6.150   1.921   4.258
 4521SOL    HW114462   6.215   1.859   4.214
 4521SOL    HW214463   6.105   1.977   4.188
 4522SOL     OW14464   6.338   6.790   3.140
 4522SOL    HW114465   6.364   6.724   3.069
 4522SOL    HW214466   6.253   6.759   3.184
 4523SOL     OW14467   0.891   4.179   0.329
 4523SOL    HW114468   0.899   4.277   0.346
 4523SOL    HW214469   0.839   4.137   0.404
 4524SOL     OW14470   5.921   2.334   3.559
 4524SOL    HW114471   5.986   2.370   3.627
 4524SOL    HW214472   5.971   2.306   3.477
 4525SOL     OW14473   4.978   1.205   4.356
 4525SOL    HW114474   4.933   1.236   4.440
 4525SOL    HW214475   5.073   1.238   4.356
 4526SOL     OW14476   6.581   0.504   1.291
 4526SOL    HW114477   6.565   0.505   1.390
 4526SOL    HW214478   6.679   0.490   1.273
 4527SOL     OW14479   5.198   1.171   3.508
 4527SOL    HW114480   5.119   1.137   3.456
 4527SOL    HW214481   5.279   1.169   3.449
 4528SOL     OW14482   4.755   0.198   7.006
 4528SOL    HW114483   4.844   0.239   0.006
 4528SOL    HW214484   4.717   0.157   0.068
 4529SOL     OW14485   3.106   0.937   5.501
 4529SOL    HW114486   3.178   0.868   5.506
 4529SOL    HW214487   3.036   0.907   5.436
 4530SOL     OW14488   1.839   3.854   6.144
 4530SOL    HW114489   1.801   3.807   6.224
 4530SOL    HW214490   1.862   3.787   6.073
 4531SOL     OW14491   0.241   3.583   4.846
 4531SOL    HW114492   0.255   3.554   4.941
 4531SOL    HW214493   0.225   3.502   4.789
 4532SOL     OW14494   6.192   1.969   3.390
 4532SOL    HW114495   6.092   1.976   3.394
 4532SOL    HW214496   6.221   1.885   3.435
 4533SOL     OW14497   1.444   1.339   2.056
 4533SOL    HW114498   1.430   1.428   2.100
 4533SOL    HW214499   1.392   1.335   1.971
 4534SOL     OW14500   5.036   3.986   4.517
 4534SOL    HW114501   5.016   3.927   4.439
 4534SOL    HW214502   4.951   4.020   4.556
 4535SOL     OW14503   4.820   1.114   2.330
 4535SOL    HW114504   4.758   1.040   2.304
 4535SOL    HW214505   4.912   1.092   2.298
 4536SOL     OW14506   4.406   1.039   3.861
 4536SOL    HW114507   4.486   1.100   3.860
 4536SOL    HW214508   4.324   1.092   3.882
 4537SOL     OW14509   3.920   3.202   6.117
 4537SOL    HW114510   4.017   3.177   6.111
 4537SOL    HW214511   3.895   3.256   6.037
 4538SOL     OW14512   1.865   0.016   4.196
 4538SOL    HW114513   1.907   7.008   4.110
 4538SOL    HW214514   1.768   7.012   4.195
 4539SOL     OW14515   2.286   0.215   5.194
 4539SOL    HW114516   2.232   0.247   5.117
 4539SOL    HW214517   2.350   0.144   5.164
 4540SOL     OW14518   3.298   2.518   5.643
 4540SOL    HW114519   3.221   2.579   5.624
 4540SOL    HW214520   3.264   2.426   5.664
 4541SOL     OW14521   6.007   1.717   1.071
 4541SOL    HW114522   6.095   1.707   1.118
 4541SOL    HW214523   5.934   1.725   1.139
 4542SOL     OW14524   6.983   1.412   2.830
 4542SOL    HW114525   6.908   1.455   2.881
 4542SOL    HW214526   0.015   1.483   2.782
 4543SOL     OW14527   4.810   1.863   1.704
 4543SOL    HW114528   4.715   1.842   1.728
 4543SOL    HW214529   4.840   1.944   1.754
 4544SOL     OW14530   2.756   6.333   6.077
 4544SOL    HW114531   2.762   6.264   6.149
 4544SOL    HW214532   2.784   6.422   6.115
 4545SOL     OW14533   5.232   3.522   4.881
 4545SOL    HW114534   5.275   3.458   4.817
 4545SOL    HW214535   5.263   3.615   4.861
 4546SOL     OW14536   1.623   1.376   6.050
 4546SOL    HW114537   1.625   1.289   6.000
 4546SOL    HW214538   1.562   1.368   6.129
 4547SOL     OW14539   5.769   2.382   3.277
 4547SOL    HW114540   5.757   2.444   3.355
 4547SOL    HW214541   5.794   2.435   3.196
 4548SOL     OW14542   1.049   4.402   4.342
 4548SOL    HW114543   0.962   4.369   4.378
 4548SOL    HW214544   1.124   4.357   4.389
 4549SOL     OW14545   6.569   4.204   1.740
 4549SOL    HW114546   6.658   4.242   1.764
 4549SOL    HW214547   6.563   4.191   1.641
 4550SOL     OW14548   1.418   5.612   3.301
 4550SOL    HW114549   1.408   5.656   3.390
 4550SOL    HW214550   1.442   5.681   3.232
 4551SOL     OW14551   6.882   1.831   5.499
 4551SOL    HW114552   6.882   1.862   5.404
 4551SOL    HW214553   6.965   1.863   5.545
 4552SOL     OW14554   6.136   2.900   0.529
 4552SOL    HW114555   6.186   2.986   0.536
 4552SOL    HW214556   6.196   2.824   0.556
 4553SOL     OW14557   3.522   4.832   6.595
 4553SOL    HW114558   3.584   4.817   6.517
 4553SOL    HW214559   3.428   4.821   6.565
 4554SOL     OW14560   5.641   0.663   1.288
 4554SOL    HW114561   5.721   0.705   1.246
 4554SOL    HW214562   5.666   0.622   1.375
 4555SOL     OW14563   3.088   1.647   5.975
 4555SOL    HW114564   3.081   1.746   5.988
 4555SOL    HW214565   3.093   1.627   5.877
 4556SOL     OW14566   5.062   2.504   4.096
 4556SOL    HW114567   5.125   2.529   4.170
 4556SOL    HW214568   5.113   2.457   4.024
 4557SOL     OW14569   4.571   6.574   5.209
 4557SOL    HW114570   4.666   6.548   5.192
 4557SOL    HW214571   4.545   6.544   5.301
 4558SOL     OW14572   0.687   4.158   4.748
 4558SOL    HW114573   0.647   4.245   4.776
 4558SOL    HW214574   0.776   4.175   4.704
 4559SOL     OW14575   6.960   3.762   2.154
 4559SOL    HW114576   6.876   3.755   2.101
 4559SOL    HW214577   0.004   3.693   2.124
 4560SOL     OW14578   5.146   4.772   2.182
 4560SOL    HW114579   5.116   4.841   2.248
 4560SOL    HW214580   5.133   4.681   2.221
 4561SOL     OW14581   2.529   1.530   2.174
 4561SOL    HW114582   2.519   1.537   2.074
 4561SOL    HW214583   2.625   1.518   2.197
 4562SOL     OW14584   3.075   5.985   4.838
 4562SOL    HW114585   3.010   6.052   4.875
 4562SOL    HW214586   3.093   5.914   4.906
 4563SOL     OW14587   0.304   3.176   1.097
 4563SOL    HW114588   0.329   3.082   1.073
 4563SOL    HW214589   0.321   3.191   1.195
 4564SOL     OW14590   6.775   6.714   1.216
 4564SOL    HW114591   6.865   6.686   1.182
 4564SOL    HW214592   6.752   6.661   1.297
 4565SOL     OW14593   0.381   1.422   5.444
 4565SOL    HW114594   0.425   1.500   5.399
 4565SOL    HW214595   0.335   1.365   5.375
 4566SOL     OW14596   6.750   2.304   0.924
 4566SOL    HW114597   6.699   2.230   0.969
 4566SOL    HW214598   6.709   2.392   0.947
 4567SOL     OW14599   6.347   0.626   6.777
 4567SOL    HW114600   6.378   0.670   6.861
 4567SOL    HW214601   6.424   0.580   6.733
 4568SOL     OW14602   2.117   3.873   5.679
 4568SOL    HW114603   2.058   3.935   5.627
 4568SOL    HW214604   2.208   3.870   5.639
 4569SOL     OW14605   1.840   1.645   3.335
 4569SOL    HW114606   1.831   1.642   3.434
 4569SOL    HW214607   1.789   1.569   3.294
 4570SOL     OW14608   0.550   6.657   3.474
 4570SOL    HW114609   0.544   6.561   3.446
 4570SOL    HW214610   0.503   6.670   3.561
 4571SOL     OW14611   3.990   3.848   5.937
 4571SOL    HW114612   3.974   3.767   5.993
 4571SOL    HW214613   4.086   3.851   5.907
 4572SOL     OW14614   1.374   6.692   6.679
 4572SOL    HW114615   1.277   6.685   6.658
 4572SOL    HW214616   1.427   6.651   6.605
 4573SOL     OW14617   6.328   6.598   0.677
 4573SOL    HW114618   6.383   6.666   0.629
 4573SOL    HW214619   6.371   6.576   0.765
 4574SOL     OW14620   6.388   3.464   0.890
 4574SOL    HW114621   6.332   3.386   0.918
 4574SOL    HW214622   6.426   3.447   0.799
 4575SOL     OW14623   6.145   1.659   6.318
 4575SOL    HW114624   6.097   1.724   6.259
 4575SOL    HW214625   6.111   1.669   6.412
 4576SOL     OW14626   2.401   6.270   5.979
 4576SOL    HW114627   2.491   6.296   5.944
 4576SOL    HW214628   2.380   6.324   6.060
 4577SOL     OW14629   0.931   2.089   4.487
 4577SOL    HW114630   0.915   2.134   4.575
 4577SOL    HW214631   1.009   2.131   4.442
 4578SOL     OW14632   0.853   3.578   4.912
 4578SOL    HW114633   0.836   3.644   4.986
 4578SOL    HW214634   0.894   3.496   4.950
 4579SOL     OW14635   4.891   1.743   3.092
 4579SOL    HW114636   4.893   1.652   3.050
 4579SOL    HW214637   4.946   1.743   3.175
 4580SOL     OW14638   5.268   4.804   0.248
 4580SOL    HW114639   5.173   4.831   0.261
 4580SOL    HW214640   5.282   4.776   0.153
 4581SOL     OW14641   2.595   4.576   2.936
 4581SOL    HW114642   2.538   4.655   2.958
 4581SOL    HW214643   2.581   4.504   3.003
 4582SOL     OW14644   5.748   6.531   4.849
 4582SOL    HW114645   5.786   6.579   4.929
 4582SOL    HW214646   5.783   6.574   4.766
 4583SOL     OW14647   2.297   2.252   5.784
 4583SOL    HW114648   2.373   2.265   5.848
 4583SOL    HW214649   2.314   2.172   5.728
 4584SOL     OW14650   0.289   5.435   6.061
 4584SOL    HW114651   0.205   5.389   6.087
 4584SOL    HW214652   0.355   5.431   6.136
 4585SOL     OW14653   2.550   6.761   2.858
 4585SOL    HW114654   2.619   6.826   2.824
 4585SOL    HW214655   2.461   6.784   2.818
 4586SOL     OW14656   3.265   5.227   0.747
 4586SOL    HW114657   3.323   5.295   0.702
 4586SOL    HW214658   3.252   5.253   0.842
 4587SOL     OW14659   3.654   3.777   2.280
 4587SOL    HW114660   3.651   3.750   2.376
 4587SOL    HW214661   3.615   3.868   2.269
 4588SOL     OW14662   3.552   4.051   5.480
 4588SOL    HW114663   3.648   4.025   5.469
 4588SOL    HW214664   3.547   4.139   5.528
 4589SOL     OW14665   6.244   0.768   2.294
 4589SOL    HW114666   6.333   0.723   2.283
 4589SOL    HW214667   6.173   0.710   2.255
 4590SOL     OW14668   5.105   5.629   0.524
 4590SOL    HW114669   5.083   5.534   0.546
 4590SOL    HW214670   5.020   5.682   0.517
 4591SOL     OW14671   0.275   6.054   4.429
 4591SOL    HW114672   0.302   6.147   4.456
 4591SOL    HW214673   0.197   6.058   4.368
 4592SOL     OW14674   3.296   1.695   1.804
 4592SOL    HW114675   3.237   1.774   1.820
 4592SOL    HW214676   3.370   1.721   1.742
 4593SOL     OW14677   4.773   5.360   3.675
 4593SOL    HW114678   4.679   5.345   3.704
 4593SOL    HW214679   4.798   5.290   3.607
 4594SOL     OW14680   2.913   1.348   2.419
 4594SOL    HW114681   3.005   1.340   2.381
 4594SOL    HW214682   2.876   1.257   2.438
 4595SOL     OW14683   4.080   2.796   6.419
 4595SOL    HW114684   4.083   2.840   6.508
 4595SOL    HW214685   4.022   2.714   6.424
 4596SOL     OW14686   5.991   6.857   1.918
 4596SOL    HW114687   6.090   6.863   1.931
 4596SOL    HW214688   5.945   6.909   1.989
 4597SOL     OW14689   4.222   4.917   6.241
 4597SOL    HW114690   4.210   4.840   6.178
 4597SOL    HW214691   4.184   4.893   6.331
 4598SOL     OW14692   2.186   6.293   6.726
 4598SOL    HW114693   2.120   6.298   6.651
 4598SOL    HW214694   2.172   6.371   6.787
 4599SOL     OW14695   0.404   5.786   0.699
 4599SOL    HW114696   0.446   5.826   0.781
 4599SOL    HW214697   0.411   5.686   0.703
 4600SOL     OW14698   1.516   4.556   5.301
 4600SOL    HW114699   1.578   4.629   5.274
 4600SOL    HW214700   1.533   4.531   5.397
 4601SOL     OW14701   1.910   0.374   5.173
 4601SOL    HW114702   1.976   0.356   5.100
 4601SOL    HW214703   1.825   0.325   5.154
 4602SOL     OW14704   1.209   5.698   1.098
 4602SOL    HW114705   1.238   5.712   1.192
 4602SOL    HW214706   1.200   5.787   1.052
 4603SOL     OW14707   3.266   6.502   0.702
 4603SOL    HW114708   3.213   6.439   0.644
 4603SOL    HW214709   3.235   6.493   0.797
 4604SOL     OW14710   4.656   0.242   1.022
 4604SOL    HW114711   4.642   0.182   0.943
 4604SOL    HW214712   4.735   0.301   1.005
 4605SOL     OW14713   3.311   0.374   3.463
 4605SOL    HW114714   3.305   0.341   3.558
 4605SOL    HW214715   3.358   0.306   3.407
 4606SOL     OW14716   1.310   0.194   1.837
 4606SOL    HW114717   1.227   0.238   1.803
 4606SOL    HW214718   1.286   0.108   1.882
 4607SOL     OW14719   2.015   2.506   1.434
 4607SOL    HW114720   2.034   2.590   1.485
 4607SOL    HW214721   2.073   2.502   1.353
 4608SOL     OW14722   0.818   6.035   3.421
 4608SOL    HW114723   0.808   6.045   3.322
 4608SOL    HW214724   0.907   5.993   3.441
 4609SOL     OW14725   4.436   5.117   6.680
 4609SOL    HW114726   4.486   5.195   6.717
 4609SOL    HW214727   4.347   5.110   6.724
 4610SOL     OW14728   5.235   3.073   0.636
 4610SOL    HW114729   5.140   3.079   0.605
 4610SOL    HW214730   5.250   3.137   0.711
 4611SOL     OW14731   0.251   6.150   5.684
 4611SOL    HW114732   0.186   6.176   5.756
 4611SOL    HW214733   0.263   6.227   5.621
 4612SOL     OW14734   1.265   6.025   0.117
 4612SOL    HW114735   1.332   6.100   0.116
 4612SOL    HW214736   1.295   5.954   0.181
 4613SOL     OW14737   2.600   6.194   2.175
 4613SOL    HW114738   2.537   6.152   2.240
 4613SOL    HW214739   2.556   6.202   2.085
 4614SOL     OW14740   6.817   3.256   5.006
 4614SOL    HW114741   6.779   3.325   5.067
 4614SOL    HW214742   6.857   3.182   5.060
 4615SOL     OW14743   2.054   0.288   0.265
 4615SOL    HW114744   2.096   0.378   0.253
 4615SOL    HW214745   2.071   0.232   0.184
 4616SOL     OW14746   6.750   0.433   5.193
 4616SOL    HW114747   6.795   0.497   5.255
 4616SOL    HW214748   6.675   0.480   5.146
 4617SOL     OW14749   0.826   2.525   2.107
 4617SOL    HW114750   0.887   2.514   2.185
 4617SOL    HW214751   0.808   2.622   2.092
 4618SOL     OW14752   2.128   3.030   5.136
 4618SOL    HW114753   2.219   3.000   5.108
 4618SOL    HW214754   2.107   3.117   5.091
 4619SOL     OW14755   3.453   6.326   3.583
 4619SOL    HW114756   3.497   6.237   3.595
 4619SOL    HW214757   3.438   6.368   3.673
 4620SOL     OW14758   2.223   4.897   0.244
 4620SOL    HW114759   2.151   4.927   0.182
 4620SOL    HW214760   2.312   4.923   0.206
 4621SOL     OW14761   5.637   1.346   2.222
 4621SOL    HW114762   5.691   1.265   2.201
 4621SOL    HW214763   5.609   1.391   2.137
 4622SOL     OW14764   2.236   4.856   0.690
 4622SOL    HW114765   2.153   4.840   0.636
 4622SOL    HW214766   2.311   4.882   0.629
 4623SOL     OW14767   5.978   0.001   0.107
 4623SOL    HW114768   5.885   0.022   0.075
 4623SOL    HW214769   6.033   6.987   0.031
 4624SOL     OW14770   5.165   6.458   3.216
 4624SOL    HW114771   5.214   6.385   3.169
 4624SOL    HW214772   5.072   6.465   3.179
 4625SOL     OW14773   1.726   4.011   1.079
 4625SOL    HW114774   1.645   3.990   1.024
 4625SOL    HW214775   1.798   4.049   1.020
 4626SOL     OW14776   5.117   5.028   2.373
 4626SOL    HW114777   5.207   5.006   2.412
 4626SOL    HW214778   5.130   5.093   2.297
 4627SOL     OW14779   2.707   4.639   4.403
 4627SOL    HW114780   2.726   4.651   4.501
 4627SOL    HW214781   2.653   4.556   4.389
 4628SOL     OW14782   6.122   4.614   3.978
 4628SOL    HW114783   6.121   4.712   3.997
 4628SOL    HW214784   6.109   4.563   4.063
 4629SOL     OW14785   2.041   5.069   5.695
 4629SOL    HW114786   2.099   5.082   5.614
 4629SOL    HW214787   1.947   5.095   5.672
 4630SOL     OW14788   3.690   5.264   2.377
 4630SOL    HW114789   3.667   5.228   2.286
 4630SOL    HW214790   3.646   5.352   2.391
 4631SOL     OW14791   2.173   6.215   2.617
 4631SOL    HW114792   2.271   6.201   2.603
 4631SOL    HW214793   2.153   6.221   2.715
 4632SOL     OW14794   3.996   5.147   2.795
 4632SOL    HW114795   3.923   5.135   2.862
 4632SOL    HW214796   3.959   5.189   2.712
 4633SOL     OW14797   5.469   0.649   4.605
 4633SOL    HW114798   5.373   0.633   4.584
 4633SOL    HW214799   5.522   0.652   4.521
 4634SOL     OW14800   2.819   5.031   6.343
 4634SOL    HW114801   2.872   5.111   6.313
 4634SOL    HW214802   2.753   5.006   6.273
 4635SOL     OW14803   5.223   4.099   1.280
 4635SOL    HW114804   5.236   4.004   1.306
 4635SOL    HW214805   5.127   4.124   1.291
 4636SOL     OW14806   1.671   4.862   0.318
 4636SOL    HW114807   1.604   4.918   0.270
 4636SOL    HW214808   1.697   4.906   0.404
 4637SOL     OW14809   1.212   6.893   0.739
 4637SOL    HW114810   1.114   6.896   0.722
 4637SOL    HW214811   1.261   6.892   0.651
 4638SOL     OW14812   5.115   3.920   6.897
 4638SOL    HW114813   5.211   3.918   6.868
 4638SOL    HW214814   5.066   3.843   6.856
 4639SOL     OW14815   3.065   4.633   5.928
 4639SOL    HW114816   2.970   4.624   5.960
 4639SOL    HW214817   3.073   4.592   5.837
 4640SOL     OW14818   4.821   3.930   3.596
 4640SOL    HW114819   4.910   3.962   3.562
 4640SOL    HW214820   4.776   3.876   3.524
 4641SOL     OW14821   2.168   0.074   5.646
 4641SOL    HW114822   2.253   0.049   5.601
 4641SOL    HW214823   2.129   0.155   5.601
 4642SOL     OW14824   0.116   5.691   3.862
 4642SOL    HW114825   0.033   5.728   3.902
 4642SOL    HW214826   0.183   5.764   3.849
 4643SOL     OW14827   5.814   3.102   1.489
 4643SOL    HW114828   5.843   3.101   1.585
 4643SOL    HW214829   5.741   3.169   1.477
 4644SOL     OW14830   0.086   5.056   4.774
 4644SOL    HW114831   0.185   5.064   4.771
 4644SOL    HW214832   0.060   4.979   4.832
 4645SOL     OW14833   0.802   0.490   4.320
 4645SOL    HW114834   0.819   0.429   4.398
 4645SOL    HW214835   0.737   0.447   4.258
 4646SOL     OW14836   1.909   6.025   3.382
 4646SOL    HW114837   2.000   6.058   3.357
 4646SOL    HW214838   1.917   5.962   3.460
 4647SOL     OW14839   1.616   1.002   3.423
 4647SOL    HW114840   1.659   1.044   3.503
 4647SOL    HW214841   1.633   0.903   3.424
 4648SOL     OW14842   4.025   1.071   2.159
 4648SOL    HW114843   4.060   1.048   2.069
 4648SOL    HW214844   3.927   1.092   2.153
 4649SOL     OW14845   5.433   0.001   6.676
 4649SOL    HW114846   5.382   0.031   6.756
 4649SOL    HW214847   5.492   0.075   6.644
 4650SOL     OW14848   4.909   5.526   3.067
 4650SOL    HW114849   4.967   5.446   3.083
 4650SOL    HW214850   4.832   5.525   3.131
 4651SOL     OW14851   6.912   2.725   0.564
 4651SOL    HW114852   6.879   2.790   0.632
 4651SOL    HW214853   6.866   2.741   0.476
 4652SOL     OW14854   6.693   0.075   4.420
 4652SOL    HW114855   6.688   0.154   4.358
 4652SOL    HW214856   6.603   0.056   4.459
 4653SOL     OW14857   5.973   4.696   0.520
 4653SOL    HW114858   6.038   4.666   0.450
 4653SOL    HW214859   5.954   4.793   0.509
 4654SOL     OW14860   1.389   6.611   6.960
 4654SOL    HW114861   1.415   6.654   6.873
 4654SOL    HW214862   1.451   6.642   0.011
 4655SOL     OW14863   5.487   4.319   1.930
 4655SOL    HW114864   5.394   4.348   1.954
 4655SOL    HW214865   5.494   4.220   1.941
 4656SOL     OW14866   1.277   0.449   3.349
 4656SOL    HW114867   1.211   0.390   3.302
 4656SOL    HW214868   1.232   0.496   3.425
 4657SOL     OW14869   4.871   5.964   1.449
 4657SOL    HW114870   4.855   5.926   1.358
 4657SOL    HW214871   4.814   5.916   1.516
 4658SOL     OW14872   3.978   1.198   2.960
 4658SOL    HW114873   3.921   1.244   3.029
 4658SOL    HW214874   3.920   1.144   2.899
 4659SOL     OW14875   3.094   4.805   5.188
 4659SOL    HW114876   3.087   4.816   5.287
 4659SOL    HW214877   3.049   4.720   5.161
 4660SOL     OW14878   1.199   4.273   6.150
 4660SOL    HW114879   1.262   4.350   6.147
 4660SOL    HW214880   1.138   4.282   6.229
 4661SOL     OW14881   2.965   4.348   5.937
 4661SOL    HW114882   2.869   4.338   5.963
 4661SOL    HW214883   2.971   4.374   5.841
 4662SOL     OW14884   3.442   0.180   5.489
 4662SOL    HW114885   3.420   0.092   5.531
 4662SOL    HW214886   3.379   0.250   5.522
 4663SOL     OW14887   0.242   2.178   2.446
 4663SOL    HW114888   0.265   2.086   2.477
 4663SOL    HW214889   0.321   2.238   2.456
 4664SOL     OW14890   1.356   1.367   0.952
 4664SOL    HW114891   1.281   1.378   1.016
 4664SOL    HW214892   1.441   1.350   1.002
 4665SOL     OW14893   3.495   6.823   6.902
 4665SOL    HW114894   3.450   6.871   6.827
 4665SOL    HW214895   3.443   6.839   6.987
 4666SOL     OW14896   1.481   2.042   0.625
 4666SOL    HW114897   1.476   1.981   0.546
 4666SOL    HW214898   1.524   1.994   0.701
 4667SOL     OW14899   6.077   3.700   2.516
 4667SOL    HW114900   6.032   3.630   2.460
 4667SOL    HW214901   6.060   3.790   2.476
 4668SOL     OW14902   4.730   1.719   2.407
 4668SOL    HW114903   4.707   1.643   2.468
 4668SOL    HW214904   4.710   1.693   2.313
 4669SOL     OW14905   5.122   5.979   6.842
 4669SOL    HW114906   5.127   6.032   6.757
 4669SOL    HW214907   5.049   5.911   6.835
 4670SOL     OW14908   3.017   2.323   5.385
 4670SOL    HW114909   3.085   2.358   5.320
 4670SOL    HW214910   3.013   2.223   5.378
 4671SOL     OW14911   6.978   3.015   1.896
 4671SOL    HW114912   0.038   2.993   1.842
 4671SOL    HW214913   6.933   2.931   1.925
 4672SOL     OW14914   2.982   4.743   6.286
 4672SOL    HW114915   3.000   4.830   6.241
 4672SOL    HW214916   2.884   4.724   6.284
 4673SOL     OW14917   5.278   0.085   1.222
 4673SOL    HW114918   5.297   0.034   1.306
 4673SOL    HW214919   5.203   0.041   1.173
 4674SOL     OW14920   5.154   0.193   6.329
 4674SOL    HW114921   5.236   0.155   6.287
 4674SOL    HW214922   5.085   0.208   6.259
 4675SOL     OW14923   1.165   1.818   5.897
 4675SOL    HW114924   1.158   1.734   5.951
 4675SOL    HW214925   1.261   1.840   5.884
 4676SOL     OW14926   0.508   6.372   3.460
 4676SOL    HW114927   0.569   6.379   3.539
 4676SOL    HW214928   0.559   6.343   3.380
 4677SOL     OW14929   2.685   1.390   6.435
 4677SOL    HW114930   2.763   1.331   6.455
 4677SOL    HW214931   2.600   1.337   6.442
 4678SOL     OW14932   1.627   4.748   3.188
 4678SOL    HW114933   1.679   4.796   3.258
 4678SOL    HW214934   1.529   4.754   3.209
 4679SOL     OW14935   3.785   0.363   0.269
 4679SOL    HW114936   3.868   0.411   0.294
 4679SOL    HW214937   3.793   0.267   0.295
 4680SOL     OW14938   2.922   1.810   7.003
 4680SOL    HW114939   2.884   1.903   7.001
 4680SOL    HW214940   2.908   1.771   0.073
 4681SOL     OW14941   5.392   5.448   6.572
 4681SOL    HW114942   5.363   5.422   6.480
 4681SOL    HW214943   5.407   5.547   6.575
 4682SOL     OW14944   4.915   4.271   5.468
 4682SOL    HW114945   4.824   4.230   5.474
 4682SOL    HW214946   4.917   4.336   5.392
 4683SOL     OW14947   4.747   4.749   2.096
 4683SOL    HW114948   4.714   4.683   2.163
 4683SOL    HW214949   4.758   4.839   2.140
 4684SOL     OW14950   5.698   0.681   5.153
 4684SOL    HW114951   5.769   0.663   5.085
 4684SOL    HW214952   5.721   0.635   5.238
 4685SOL     OW14953   0.983   5.745   5.833
 4685SOL    HW114954   1.068   5.716   5.877
 4685SOL    HW214955   0.938   5.814   5.890
 4686SOL     OW14956   4.155   4.582   0.563
 4686SOL    HW114957   4.163   4.554   0.467
 4686SOL    HW214958   4.076   4.537   0.604
 4687SOL     OW14959   5.854   3.595   4.322
 4687SOL    HW114960   5.873   3.643   4.408
 4687SOL    HW214961   5.817   3.504   4.342
 4688SOL     OW14962   5.890   4.078   4.719
 4688SOL    HW114963   5.956   4.047   4.788
 4688SOL    HW214964   5.909   4.033   4.632
 4689SOL     OW14965   4.716   1.014   6.856
 4689SOL    HW114966   4.633   0.960   6.852
 4689SOL    HW214967   4.712   1.088   6.789
 4690SOL     OW14968   1.172   0.600   0.044
 4690SOL    HW114969   1.226   0.516   0.038
 4690SOL    HW214970   1.080   0.577   0.077
 4691SOL     OW14971   2.666   4.948   1.427
 4691SOL    HW114972   2.616   4.867   1.459
 4691SOL    HW214973   2.605   5.027   1.430
 4692SOL     OW14974   5.564   5.827   1.656
 4692SOL    HW114975   5.467   5.827   1.678
 4692SOL    HW214976   5.577   5.802   1.560
 4693SOL     OW14977   1.150   2.240   3.814
 4693SOL    HW114978   1.097   2.157   3.794
 4693SOL    HW214979   1.151   2.256   3.913
 4694SOL     OW14980   1.962   1.032   0.082
 4694SOL    HW114981   1.992   0.939   0.059
 4694SOL    HW214982   2.027   1.098   0.044
 4695SOL     OW14983   0.816   3.524   2.345
 4695SOL    HW114984   0.716   3.530   2.349
 4695SOL    HW214985   0.849   3.468   2.421
 4696SOL     OW14986   7.020   4.396   0.229
 4696SOL    HW114987   6.988   4.323   0.289
 4696SOL    HW214988   6.974   4.481   0.252
 4697SOL     OW14989   1.843   3.385   0.686
 4697SOL    HW114990   1.747   3.414   0.676
 4697SOL    HW214991   1.873   3.404   0.780
 4698SOL     OW14992   4.647   5.011   2.468
 4698SOL    HW114993   4.559   4.963   2.473
 4698SOL    HW214994   4.657   5.071   2.547
 4699SOL     OW14995   1.425   6.678   2.246
 4699SOL    HW114996   1.372   6.753   2.207
 4699SOL    HW214997   1.371   6.632   2.317
 4700SOL     OW14998   0.068   1.223   3.298
 4700SOL    HW114999   6.989   1.227   3.288
 4700SOL    HW215000   0.110   1.285   3.232
 4701SOL     OW15001   2.628   2.549   0.891
 4701SOL    HW115002   2.579   2.577   0.974
 4701SOL    HW215003   2.684   2.469   0.911
 4702SOL     OW15004   5.035   4.937   7.011
 4702SOL    HW115005   5.006   4.932   0.086
 4702SOL    HW215006   5.127   4.901   7.002
 4703SOL     OW15007   0.332   1.581   2.166
 4703SOL    HW115008   0.395   1.546   2.236
 4703SOL    HW215009   0.319   1.512   2.095
 4704SOL     OW15010   0.693   6.319   0.059
 4704SOL    HW115011   0.622   6.300   0.127
 4704SOL    HW215012   0.738   6.406   0.082
 4705SOL     OW15013   3.774   2.540   1.708
 4705SOL    HW115014   3.726   2.484   1.774
 4705SOL    HW215015   3.732   2.528   1.618
 4706SOL     OW15016   2.867   0.187   0.485
 4706SOL    HW115017   2.800   0.159   0.415
 4706SOL    HW215018   2.912   0.271   0.456
 4707SOL     OW15019   1.656   6.929   0.941
 4707SOL    HW115020   1.605   6.878   0.871
 4707SOL    HW215021   1.745   6.955   0.905
 4708SOL     OW15022   1.152   2.110   6.516
 4708SOL    HW115023   1.118   2.027   6.473
 4708SOL    HW215024   1.251   2.117   6.501
 4709SOL     OW15025   4.554   5.610   5.379
 4709SOL    HW115026   4.478   5.664   5.415
 4709SOL    HW215027   4.625   5.672   5.345
 4710SOL     OW15028   4.756   6.805   5.762
 4710SOL    HW115029   4.707   6.891   5.775
 4710SOL    HW215030   4.785   6.798   5.666
 4711SOL     OW15031   6.134   1.396   1.710
 4711SOL    HW115032   6.161   1.300   1.712
 4711SOL    HW215033   6.122   1.428   1.804
 4712SOL     OW15034   2.867   4.659   6.982
 4712SOL    HW115035   2.965   4.666   6.968
 4712SOL    HW215036   2.846   4.580   0.017
 4713SOL     OW15037   3.809   4.159   1.058
 4713SOL    HW115038   3.768   4.089   1.117
 4713SOL    HW215039   3.878   4.116   0.999
 4714SOL     OW15040   0.720   1.992   6.370
 4714SOL    HW115041   0.749   2.004   6.275
 4714SOL    HW215042   0.624   1.963   6.372
 4715SOL     OW15043   5.976   2.585   2.337
 4715SOL    HW115044   5.956   2.631   2.423
 4715SOL    HW215045   5.894   2.536   2.306
 4716SOL     OW15046   4.291   6.411   6.532
 4716SOL    HW115047   4.308   6.509   6.546
 4716SOL    HW215048   4.303   6.362   6.618
 4717SOL     OW15049   6.815   0.201   3.909
 4717SOL    HW115050   6.771   0.117   3.941
 4717SOL    HW215051   6.745   0.266   3.881
 4718SOL     OW15052   5.303   2.000   1.451
 4718SOL    HW115053   5.290   1.925   1.387
 4718SOL    HW215054   5.396   2.036   1.442
 4719SOL     OW15055   4.896   3.196   1.704
 4719SOL    HW115056   4.805   3.236   1.692
 4719SOL    HW215057   4.935   3.226   1.791
 4720SOL     OW15058   2.249   5.702   6.060
 4720SOL    HW115059   2.276   5.690   5.965
 4720SOL    HW215060   2.266   5.797   6.088
 4721SOL     OW15061   6.499   2.341   2.062
 4721SOL    HW115062   6.541   2.251   2.074
 4721SOL    HW215063   6.418   2.333   2.004
 4722SOL     OW15064   0.885   6.245   6.607
 4722SOL    HW115065   0.823   6.283   6.676
 4722SOL    HW215066   0.952   6.186   6.650
 4723SOL     OW15067   2.816   3.240   5.997
 4723SOL    HW115068   2.914   3.226   6.015
 4723SOL    HW215069   2.767   3.244   6.084
 4724SOL     OW15070   6.118   6.693   3.278
 4724SOL    HW115071   6.137   6.613   3.334
 4724SOL    HW215072   6.040   6.674   3.218
 4725SOL     OW15073   6.507   5.125   1.467
 4725SOL    HW115074   6.553   5.095   1.551
 4725SOL    HW215075   6.425   5.070   1.452
 4726SOL     OW15076   1.248   3.276   6.266
 4726SOL    HW115077   1.345   3.290   6.287
 4726SOL    HW215078   1.223   3.331   6.186
 4727SOL     OW15079   0.963   6.146   1.107
 4727SOL    HW115080   0.945   6.084   1.183
 4727SOL    HW215081   0.971   6.094   1.022
 4728SOL     OW15082   6.085   0.801   1.770
 4728SOL    HW115083   6.076   0.855   1.853
 4728SOL    HW215084   6.133   0.855   1.700
 4729SOL     OW15085   3.881   1.417   0.407
 4729SOL    HW115086   3.904   1.350   0.337
 4729SOL    HW215087   3.961   1.431   0.467
 4730SOL     OW15088   3.621   5.870   5.601
 4730SOL    HW115089   3.526   5.891   5.578
 4730SOL    HW215090   3.662   5.947   5.650
 4731SOL     OW15091   3.666   0.609   0.241
 4731SOL    HW115092   3.726   0.543   0.195
 4731SOL    HW215093   3.702   0.629   0.332
 4732SOL     OW15094   1.314   3.985   5.506
 4732SOL    HW115095   1.344   3.951   5.595
 4732SOL    HW215096   1.216   3.971   5.496
 4733SOL     OW15097   1.180   4.083   3.970
 4733SOL    HW115098   1.162   4.101   4.067
 4733SOL    HW215099   1.274   4.050   3.959
 4734SOL     OW15100   3.706   2.818   6.782
 4734SOL    HW115101   3.716   2.718   6.782
 4734SOL    HW215102   3.774   2.858   6.720
 4735SOL     OW15103   6.247   5.175   4.123
 4735SOL    HW115104   6.255   5.233   4.042
 4735SOL    HW215105   6.155   5.185   4.162
 4736SOL     OW15106   5.995   1.861   5.528
 4736SOL    HW115107   6.004   1.853   5.429
 4736SOL    HW215108   5.913   1.812   5.559
 4737SOL     OW15109   2.536   4.536   1.882
 4737SOL    HW115110   2.512   4.593   1.804
 4737SOL    HW215111   2.626   4.563   1.917
 4738SOL     OW15112   0.867   6.181   2.860
 4738SOL    HW115113   0.820   6.096   2.836
 4738SOL    HW215114   0.865   6.193   2.959
 4739SOL     OW15115   4.265   0.990   2.741
 4739SOL    HW115116   4.230   0.920   2.678
 4739SOL    HW215117   4.223   1.078   2.719
 4740SOL     OW15118   0.794   1.472   1.485
 4740SOL    HW115119   0.891   1.477   1.510
 4740SOL    HW215120   0.738   1.484   1.566
 4741SOL     OW15121   5.030   3.524   0.235
 4741SOL    HW115122   5.028   3.623   0.231
 4741SOL    HW215123   5.037   3.486   0.143
 4742SOL     OW15124   3.052   6.910   6.378
 4742SOL    HW115125   3.053   6.966   6.460
 4742SOL    HW215126   2.962   6.913   6.336
 4743SOL     OW15127   1.809   3.366   4.226
 4743SOL    HW115128   1.760   3.279   4.226
 4743SOL    HW215129   1.818   3.400   4.319
 4744SOL     OW15130   2.144   4.224   0.281
 4744SOL    HW115131   2.166   4.261   0.191
 4744SOL    HW215132   2.229   4.196   0.327
 4745SOL     OW15133   3.210   5.396   6.722
 4745SOL    HW115134   3.214   5.309   6.674
 4745SOL    HW215135   3.292   5.407   6.777
 4746SOL     OW15136   4.922   6.042   1.749
 4746SOL    HW115137   4.824   6.024   1.737
 4746SOL    HW215138   4.943   6.048   1.846
 4747SOL     OW15139   2.132   4.020   6.955
 4747SOL    HW115140   2.148   4.112   6.989
 4747SOL    HW215141   2.035   3.999   6.961
 4748SOL     OW15142   1.133   5.183   0.852
 4748SOL    HW115143   1.192   5.225   0.783
 4748SOL    HW215144   1.170   5.201   0.943
 4749SOL     OW15145   2.523   5.792   5.669
 4749SOL    HW115146   2.556   5.792   5.574
 4749SOL    HW215147   2.539   5.702   5.710
 4750SOL     OW15148   0.152   4.192   4.052
 4750SOL    HW115149   0.093   4.116   4.023
 4750SOL    HW215150   0.200   4.166   4.136
 4751SOL     OW15151   3.993   1.662   1.726
 4751SOL    HW115152   3.956   1.754   1.714
 4751SOL    HW215153   3.972   1.629   1.818
 4752SOL     OW15154   3.698   0.367   6.384
 4752SOL    HW115155   3.753   0.328   6.458
 4752SOL    HW215156   3.660   0.292   6.329
 4753SOL     OW15157   5.602   6.986   4.378
 4753SOL    HW115158   5.564   6.927   4.307
 4753SOL    HW215159   5.614   6.934   4.463
 4754SOL     OW15160   5.718   6.468   5.289
 4754SOL    HW115161   5.656   6.431   5.220
 4754SOL    HW215162   5.760   6.393   5.340
 4755SOL     OW15163   1.976   0.878   1.256
 4755SOL    HW115164   2.021   0.807   1.203
 4755SOL    HW215165   2.043   0.947   1.284
 4756SOL     OW15166   5.564   2.369   0.511
 4756SOL    HW115167   5.542   2.272   0.504
 4756SOL    HW215168   5.661   2.382   0.490
 4757SOL     OW15169   2.453   1.795   1.055
 4757SOL    HW115170   2.479   1.881   1.010
 4757SOL    HW215171   2.354   1.789   1.061
 4758SOL     OW15172   2.100   6.346   4.109
 4758SOL    HW115173   2.089   6.440   4.142
 4758SOL    HW215174   2.143   6.290   4.180
 4759SOL     OW15175   6.075   5.031   5.417
 4759SOL    HW115176   5.980   5.000   5.428
 4759SOL    HW215177   6.087   5.068   5.325
 4760SOL     OW15178   1.962   2.090   0.752
 4760SOL    HW115179   2.005   2.173   0.788
 4760SOL    HW215180   1.873   2.113   0.713
 4761SOL     OW15181   0.864   6.562   0.180
 4761SOL    HW115182   0.886   6.507   0.261
 4761SOL    HW215183   0.860   6.658   0.206
 4762SOL     OW15184   0.999   5.963   2.390
 4762SOL    HW115185   0.935   6.004   2.455
 4762SOL    HW215186   0.967   5.872   2.364
 4763SOL     OW15187   6.384   6.670   2.903
 4763SOL    HW115188   6.332   6.585   2.905
 4763SOL    HW215189   6.446   6.670   2.824
 4764SOL     OW15190   4.872   3.701   4.540
 4764SOL    HW115191   4.899   3.606   4.525
 4764SOL    HW215192   4.851   3.716   4.636
 4765SOL     OW15193   4.787   1.103   3.857
 4765SOL    HW115194   4.835   1.053   3.929
 4765SOL    HW215195   4.826   1.079   3.768
 4766SOL     OW15196   5.071   5.943   3.888
 4766SOL    HW115197   5.041   6.029   3.847
 4766SOL    HW215198   5.058   5.946   3.987
 4767SOL     OW15199   3.403   5.519   5.909
 4767SOL    HW115200   3.401   5.568   5.822
 4767SOL    HW215201   3.340   5.441   5.904
 4768SOL     OW15202   4.148   2.095   6.118
 4768SOL    HW115203   4.148   2.182   6.168
 4768SOL    HW215204   4.240   2.076   6.085
 4769SOL     OW15205   5.163   4.446   6.612
 4769SOL    HW115206   5.149   4.352   6.646
 4769SOL    HW215207   5.075   4.487   6.591
 4770SOL     OW15208   0.730   0.701   4.497
 4770SOL    HW115209   0.632   0.711   4.480
 4770SOL    HW215210   0.770   0.641   4.427
 4771SOL     OW15211   2.814   5.994   5.176
 4771SOL    HW115212   2.829   6.043   5.090
 4771SOL    HW215213   2.868   5.909   5.175
 4772SOL     OW15214   4.131   4.791   1.658
 4772SOL    HW115215   4.048   4.806   1.605
 4772SOL    HW215216   4.199   4.861   1.634
 4773SOL     OW15217   0.231   5.387   3.128
 4773SOL    HW115218   0.304   5.320   3.139
 4773SOL    HW215219   0.252   5.468   3.182
 4774SOL     OW15220   1.365   3.365   1.615
 4774SOL    HW115221   1.374   3.300   1.690
 4774SOL    HW215222   1.453   3.373   1.568
 4775SOL     OW15223   5.000   6.404   2.374
 4775SOL    HW115224   4.916   6.379   2.421
 4775SOL    HW215225   5.045   6.322   2.338
 4776SOL     OW15226   1.259   6.329   5.468
 4776SOL    HW115227   1.185   6.380   5.513
 4776SOL    HW215228   1.347   6.374   5.488
 4777SOL     OW15229   2.174   5.156   0.682
 4777SOL    HW115230   2.186   5.085   0.751
 4777SOL    HW215231   2.263   5.192   0.656
 4778SOL     OW15232   6.336   2.456   3.563
 4778SOL    HW115233   6.408   2.421   3.623
 4778SOL    HW215234   6.373   2.469   3.471
 4779SOL     OW15235   6.335   6.143   2.669
 4779SOL    HW115236   6.241   6.152   2.701
 4779SOL    HW215237   6.358   6.220   2.609
 4780SOL     OW15238   5.928   1.233   0.405
 4780SOL    HW115239   5.989   1.295   0.357
 4780SOL    HW215240   5.977   1.188   0.480
 4781SOL     OW15241   2.524   5.607   2.308
 4781SOL    HW115242   2.492   5.512   2.306
 4781SOL    HW215243   2.553   5.634   2.216
 4782SOL     OW15244   5.042   5.406   0.291
 4782SOL    HW115245   4.950   5.380   0.260
 4782SOL    HW215246   5.065   5.496   0.255
 4783SOL     OW15247   4.116   3.688   0.005
 4783SOL    HW115248   4.210   3.722   7.019
 4783SOL    HW215249   4.091   3.642   6.941
 4784SOL     OW15250   6.457   4.043   6.667
 4784SOL    HW115251   6.380   4.102   6.641
 4784SOL    HW215252   6.450   4.021   6.764
 4785SOL     OW15253   1.000   6.522   2.384
 4785SOL    HW115254   1.034   6.596   2.442
 4785SOL    HW215255   1.060   6.442   2.394
 4786SOL     OW15256   2.798   1.257   0.189
 4786SOL    HW115257   2.761   1.316   0.117
 4786SOL    HW215258   2.723   1.213   0.238
 4787SOL     OW15259   4.221   1.495   1.987
 4787SOL    HW115260   4.236   1.439   2.067
 4787SOL    HW215261   4.157   1.569   2.009
 4788SOL     OW15262   0.316   5.855   6.090
 4788SOL    HW115263   0.302   5.911   6.008
 4788SOL    HW215264   0.373   5.776   6.067
 4789SOL     OW15265   4.800   1.680   1.035
 4789SOL    HW115266   4.809   1.708   0.939
 4789SOL    HW215267   4.778   1.760   1.091
 4790SOL     OW15268   6.032   1.976   5.248
 4790SOL    HW115269   5.996   2.066   5.274
 4790SOL    HW215270   5.978   1.940   5.172
 4791SOL     OW15271   0.041   2.625   1.726
 4791SOL    HW115272   0.012   2.613   1.631
 4791SOL    HW215273   0.103   2.551   1.751
 4792SOL     OW15274   1.888   4.051   3.763
 4792SOL    HW115275   1.817   3.983   3.748
 4792SOL    HW215276   1.977   4.011   3.740
 4793SOL     OW15277   1.793   2.996   5.203
 4793SOL    HW115278   1.725   3.019   5.272
 4793SOL    HW215279   1.883   2.990   5.245
 4794SOL     OW15280   5.021   0.261   4.454
 4794SOL    HW115281   4.937   0.257   4.400
 4794SOL    HW215282   5.013   0.332   4.524
 4795SOL     OW15283   6.015   2.015   4.034
 4795SOL    HW115284   5.917   2.029   4.020
 4795SOL    HW215285   6.066   2.089   3.991
 4796SOL     OW15286   4.883   1.779   5.257
 4796SOL    HW115287   4.827   1.862   5.267
 4796SOL    HW215288   4.824   1.699   5.260
 4797SOL     OW15289   1.062   6.503   5.608
 4797SOL    HW115290   1.039   6.524   5.513
 4797SOL    HW215291   0.992   6.539   5.668
 4798SOL     OW15292   0.731   3.923   4.905
 4798SOL    HW115293   0.646   3.873   4.890
 4798SOL    HW215294   0.724   4.014   4.864
 4799SOL     OW15295   4.646   1.924   7.006
 4799SOL    HW115296   4.548   1.918   0.001
 4799SOL    HW215297   4.668   2.013   6.966
 4800SOL     OW15298   3.187   2.811   6.084
 4800SOL    HW115299   3.123   2.844   6.153
 4800SOL    HW215300   3.281   2.817   6.119
 4801SOL     OW15301   2.828   2.480   6.334
 4801SOL    HW115302   2.757   2.422   6.294
 4801SOL    HW215303   2.802   2.507   6.427
 4802SOL     OW15304   1.280   6.875   2.121
 4802SOL    HW115305   1.357   6.910   2.069
 4802SOL    HW215306   1.238   6.949   2.174
 4803SOL     OW15307   0.289   5.266   0.947
 4803SOL    HW115308   0.289   5.343   0.883
 4803SOL    HW215309   0.200   5.221   0.944
 4804SOL     OW15310   5.669   5.865   1.173
 4804SOL    HW115311   5.574   5.896   1.175
 4804SOL    HW215312   5.724   5.922   1.236
 4805SOL     OW15313   6.023   1.970   2.552
 4805SOL    HW115314   6.100   1.909   2.571
 4805SOL    HW215315   6.031   2.006   2.460
 4806SOL     OW15316   1.450   4.343   2.904
 4806SOL    HW115317   1.471   4.249   2.879
 4806SOL    HW215318   1.393   4.385   2.833
 4807SOL     OW15319   0.721   5.168   0.654
 4807SOL    HW115320   0.807   5.219   0.648
 4807SOL    HW215321   0.734   5.087   0.711
 4808SOL     OW15322   5.466   4.466   0.164
 4808SOL    HW115323   5.416   4.380   0.174
 4808SOL    HW215324   5.469   4.491   0.067
 4809SOL     OW15325   3.903   4.472   0.175
 4809SOL    HW115326   3.879   4.468   0.078
 4809SOL    HW215327   3.824   4.448   0.230
 4810SOL     OW15328   1.762   5.109   2.588
 4810SOL    HW115329   1.717   5.198   2.583
 4810SOL    HW215330   1.765   5.067   2.498
 4811SOL     OW15331   2.586   4.197   1.729
 4811SOL    HW115332   2.647   4.275   1.715
 4811SOL    HW215333   2.636   4.112   1.714
 4812SOL     OW15334   7.019   5.354   2.678
 4812SOL    HW115335   6.945   5.408   2.717
 4812SOL    HW215336   0.081   5.409   2.675
 4813SOL     OW15337   5.798   2.254   0.417
 4813SOL    HW115338   5.776   2.299   0.331
 4813SOL    HW215339   5.871   2.304   0.464
 4814SOL     OW15340   0.044   3.240   1.080
 4814SOL    HW115341   0.022   3.235   1.177
 4814SOL    HW215342   0.141   3.221   1.066
 4815SOL     OW15343   5.565   4.107   2.517
 4815SOL    HW115344   5.554   4.026   2.459
 4815SOL    HW215345   5.660   4.113   2.548
 4816SOL     OW15346   1.951   4.678   0.961
 4816SOL    HW115347   1.972   4.618   0.884
 4816SOL    HW215348   1.852   4.681   0.975
 4817SOL     OW15349   1.086   2.010   6.767
 4817SOL    HW115350   1.142   2.031   6.846
 4817SOL    HW215351   1.128   2.048   6.684
 4818SOL     OW15352   0.785   6.324   4.148
 4818SOL    HW115353   0.842   6.357   4.223
 4818SOL    HW215354   0.827   6.349   4.061
 4819SOL     OW15355   1.404   1.923   0.408
 4819SOL    HW115356   1.343   1.860   0.360
 4819SOL    HW215357   1.463   1.969   0.342
 4820SOL     OW15358   6.152   2.504   2.105
 4820SOL    HW115359   6.100   2.503   2.191
 4820SOL    HW215360   6.180   2.598   2.085
 4821SOL     OW15361   1.156   6.118   2.233
 4821SOL    HW115362   1.116   6.045   2.288
 4821SOL    HW215363   1.224   6.168   2.288
 4822SOL     OW15364   1.882   3.019   4.441
 4822SOL    HW115365   1.844   3.017   4.534
 4822SOL    HW215366   1.972   3.063   4.443
 4823SOL     OW15367   1.859   0.341   4.484
 4823SOL    HW115368   1.797   0.392   4.425
 4823SOL    HW215369   1.877   0.393   4.567
 4824SOL     OW15370   5.119   1.930   4.627
 4824SOL    HW115371   5.143   1.959   4.534
 4824SOL    HW215372   5.164   1.989   4.693
 4825SOL     OW15373   1.929   3.171   3.851
 4825SOL    HW115374   1.932   3.110   3.931
 4825SOL    HW215375   2.008   3.152   3.793
 4826SOL     OW15376   6.021   1.274   6.823
 4826SOL    HW115377   5.963   1.298   6.745
 4826SOL    HW215378   5.963   1.251   6.901
 4827SOL     OW15379   6.513   1.673   0.655
 4827SOL    HW115380   6.422   1.711   0.663
 4827SOL    HW215381   6.566   1.694   0.737
 4828SOL     OW15382   5.474   2.746   0.690
 4828SOL    HW115383   5.378   2.723   0.707
 4828SOL    HW215384   5.531   2.665   0.700
 4829SOL     OW15385   4.105   6.697   5.942
 4829SOL    HW115386   4.140   6.674   6.033
 4829SOL    HW215387   4.006   6.713   5.947
 4830SOL     OW15388   4.227   6.262   3.967
 4830SOL    HW115389   4.166   6.339   3.987
 4830SOL    HW215390   4.288   6.287   3.892
 4831SOL     OW15391   0.606   4.410   6.204
 4831SOL    HW115392   0.530   4.439   6.145
 4831SOL    HW215393   0.570   4.355   6.280
 4832SOL     OW15394   3.715   3.391   3.821
 4832SOL    HW115395   3.652   3.337   3.766
 4832SOL    HW215396   3.761   3.459   3.764
 4833SOL     OW15397   4.782   2.263   2.788
 4833SOL    HW115398   4.748   2.184   2.839
 4833SOL    HW215399   4.842   2.233   2.715
 4834SOL     OW15400   3.830   6.395   0.726
 4834SOL    HW115401   3.805   6.357   0.815
 4834SOL    HW215402   3.831   6.495   0.733
 4835SOL     OW15403   6.204   1.321   0.005
 4835SOL    HW115404   6.237   1.416   0.004
 4835SOL    HW215405   6.130   1.311   6.960
 4836SOL     OW15406   5.373   2.745   4.775
 4836SOL    HW115407   5.318   2.785   4.701
 4836SOL    HW215408   5.350   2.790   4.861
 4837SOL     OW15409   6.597   4.289   3.011
 4837SOL    HW115410   6.621   4.304   3.107
 4837SOL    HW215411   6.539   4.364   2.980
 4838SOL     OW15412   0.985   5.485   0.361
 4838SOL    HW115413   0.932   5.414   0.314
 4838SOL    HW215414   1.074   5.448   0.387
 4839SOL     OW15415   1.964   3.473   0.021
 4839SOL    HW115416   1.922   3.407   6.979
 4839SOL    HW215417   1.996   3.425   0.103
 4840SOL     OW15418   6.585   4.162   6.410
 4840SOL    HW115419   6.491   4.135   6.388
 4840SOL    HW215420   6.592   4.183   6.507
 4841SOL     OW15421   2.761   5.335   2.159
 4841SOL    HW115422   2.787   5.385   2.076
 4841SOL    HW215423   2.822   5.258   2.172
 4842SOL     OW15424   3.571   5.529   2.357
 4842SOL    HW115425   3.504   5.556   2.288
 4842SOL    HW215426   3.631   5.606   2.378
 4843SOL     OW15427   6.832   2.996   1.587
 4843SOL    HW115428   6.790   3.077   1.544
 4843SOL    HW215429   6.860   3.019   1.680
 4844SOL     OW15430   1.087   3.410   6.510
 4844SOL    HW115431   1.126   3.436   6.421
 4844SOL    HW215432   1.070   3.312   6.510
 4845SOL     OW15433   5.374   5.373   6.844
 4845SOL    HW115434   5.384   5.404   6.749
 4845SOL    HW215435   5.449   5.410   6.899
 4846SOL     OW15436   6.486   3.073   3.624
 4846SOL    HW115437   6.405   3.090   3.568
 4846SOL    HW215438   6.557   3.031   3.567
 4847SOL     OW15439   2.231   0.493   6.598
 4847SOL    HW115440   2.162   0.554   6.638
 4847SOL    HW215441   2.191   0.442   6.522
 4848SOL     OW15442   1.512   0.967   4.602
 4848SOL    HW115443   1.535   0.966   4.505
 4848SOL    HW215444   1.413   0.966   4.613
 4849SOL     OW15445   0.939   6.126   6.906
 4849SOL    HW115446   0.961   6.053   6.971
 4849SOL    HW215447   0.850   6.108   6.864
 4850SOL     OW15448   3.762   1.080   1.935
 4850SOL    HW115449   3.760   1.117   2.028
 4850SOL    HW215450   3.740   0.982   1.938
 4851SOL     OW15451   3.810   6.906   5.593
 4851SOL    HW115452   3.832   6.815   5.628
 4851SOL    HW215453   3.759   6.957   5.662
 4852SOL     OW15454   1.239   5.930   4.787
 4852SOL    HW115455   1.285   6.006   4.741
 4852SOL    HW215456   1.189   5.876   4.720
 4853SOL     OW15457   3.620   0.839   3.287
 4853SOL    HW115458   3.674   0.772   3.338
 4853SOL    HW215459   3.633   0.930   3.327
 4854SOL     OW15460   4.179   6.350   1.883
 4854SOL    HW115461   4.126   6.270   1.856
 4854SOL    HW215462   4.120   6.431   1.882
 4855SOL     OW15463   5.956   2.438   4.546
 4855SOL    HW115464   5.925   2.475   4.459
 4855SOL    HW215465   6.031   2.374   4.531
 4856SOL     OW15466   1.281   2.733   3.038
 4856SOL    HW115467   1.201   2.762   3.091
 4856SOL    HW215468   1.314   2.646   3.073
 4857SOL     OW15469   3.587   2.140   3.994
 4857SOL    HW115470   3.516   2.209   3.980
 4857SOL    HW215471   3.651   2.171   4.064
 4858SOL     OW15472   0.585   0.418   4.711
 4858SOL    HW115473   0.680   0.448   4.713
 4858SOL    HW215474   0.571   0.348   4.782
 4859SOL     OW15475   1.155   6.319   3.954
 4859SOL    HW115476   1.135   6.224   3.930
 4859SOL    HW215477   1.211   6.361   3.882
 4860SOL     OW15478   4.774   4.436   1.312
 4860SOL    HW115479   4.810   4.516   1.362
 4860SOL    HW215480   4.764   4.459   1.216
 4861SOL     OW15481   5.979   5.264   0.440
 4861SOL    HW115482   6.068   5.298   0.471
 4861SOL    HW215483   5.910   5.337   0.451
 4862SOL     OW15484   2.471   4.500   5.207
 4862SOL    HW115485   2.457   4.463   5.115
 4862SOL    HW215486   2.453   4.428   5.275
 4863SOL     OW15487   4.870   4.025   1.173
 4863SOL    HW115488   4.891   4.122   1.179
 4863SOL    HW215489   4.887   3.981   1.262
 4864SOL     OW15490   4.105   1.726   2.087
 4864SOL    HW115491   4.041   1.653   2.063
 4864SOL    HW215492   4.057   1.799   2.135
 4865SOL     OW15493   2.614   6.699   4.484
 4865SOL    HW115494   2.680   6.774   4.479
 4865SOL    HW215495   2.645   6.632   4.552
 4866SOL     OW15496   6.985   4.189   1.538
 4866SOL    HW115497   6.917   4.237   1.483
 4866SOL    HW215498   6.947   4.102   1.571
 4867SOL     OW15499   4.881   5.560   2.240
 4867SOL    HW115500   4.810   5.630   2.234
 4867SOL    HW215501   4.859   5.497   2.314
 4868SOL     OW15502   6.680   5.052   2.377
 4868SOL    HW115503   6.638   4.968   2.345
 4868SOL    HW215504   6.779   5.040   2.383
 4869SOL     OW15505   0.507   1.389   1.416
 4869SOL    HW115506   0.604   1.394   1.436
 4869SOL    HW215507   0.484   1.297   1.384
 4870SOL     OW15508   6.941   6.301   1.761
 4870SOL    HW115509   6.940   6.230   1.831
 4870SOL    HW215510   6.988   6.382   1.796
 4871SOL     OW15511   0.654   1.561   4.839
 4871SOL    HW115512   0.717   1.507   4.783
 4871SOL    HW215513   0.634   1.647   4.793
 4872SOL     OW15514   6.191   5.601   3.964
 4872SOL    HW115515   6.133   5.523   3.940
 4872SOL    HW215516   6.286   5.571   3.968
 4873SOL     OW15517   6.556   4.963   3.566
 4873SOL    HW115518   6.586   4.894   3.631
 4873SOL    HW215519   6.634   5.000   3.516
 4874SOL     OW15520   6.132   3.283   3.292
 4874SOL    HW115521   6.133   3.377   3.257
 4874SOL    HW215522   6.090   3.282   3.383
 4875SOL     OW15523   5.905   3.326   1.847
 4875SOL    HW115524   5.999   3.354   1.868
 4875SOL    HW215525   5.904   3.228   1.829
 4876SOL     OW15526   5.577   1.386   4.292
 4876SOL    HW115527   5.497   1.330   4.313
 4876SOL    HW215528   5.637   1.390   4.372
 4877SOL     OW15529   0.914   1.755   0.213
 4877SOL    HW115530   0.905   1.656   0.202
 4877SOL    HW215531   0.898   1.800   0.125
 4878SOL     OW15532   6.320   0.341   3.179
 4878SOL    HW115533   6.399   0.279   3.175
 4878SOL    HW215534   6.237   0.288   3.196
 4879SOL     OW15535   4.265   5.013   3.673
 4879SOL    HW115536   4.299   5.033   3.581
 4879SOL    HW215537   4.314   4.934   3.710
 4880SOL     OW15538   5.965   3.110   6.983
 4880SOL    HW115539   5.970   3.052   0.044
 4880SOL    HW215540   5.882   3.165   6.986
 4881SOL     OW15541   1.908   0.598   6.653
 4881SOL    HW115542   1.815   0.606   6.688
 4881SOL    HW215543   1.908   0.541   6.571
 4882SOL     OW15544   5.140   1.657   4.360
 4882SOL    HW115545   5.206   1.728   4.335
 4882SOL    HW215546   5.151   1.634   4.456
 4883SOL     OW15547   5.360   4.675   2.050
 4883SOL    HW115548   5.367   4.720   1.961
 4883SOL    HW215549   5.296   4.724   2.108
 4884SOL     OW15550   3.687   0.436   1.668
 4884SOL    HW115551   3.686   0.511   1.602
 4884SOL    HW215552   3.774   0.436   1.718
 4885SOL     OW15553   1.791   5.440   2.415
 4885SOL    HW115554   1.752   5.395   2.496
 4885SOL    HW215555   1.754   5.533   2.408
 4886SOL     OW15556   0.331   6.209   1.052
 4886SOL    HW115557   0.286   6.216   0.964
 4886SOL    HW215558   0.263   6.194   1.124
 4887SOL     OW15559   0.744   0.571   3.012
 4887SOL    HW115560   0.777   0.548   3.105
 4887SOL    HW215561   0.657   0.525   2.996
 4888SOL     OW15562   2.294   6.588   4.576
 4888SOL    HW115563   2.358   6.545   4.513
 4888SOL    HW215564   2.255   6.519   4.637
 4889SOL     OW15565   6.040   0.998   6.303
 4889SOL    HW115566   5.963   0.952   6.345
 4889SOL    HW215567   6.106   1.026   6.373
 4890SOL     OW15568   0.868   1.733   5.921
 4890SOL    HW115569   0.908   1.672   5.990
 4890SOL    HW215570   0.938   1.794   5.885
 4891SOL     OW15571   1.441   5.011   0.231
 4891SOL    HW115572   1.509   5.064   0.182
 4891SOL    HW215573   1.384   4.961   0.166
 4892SOL     OW15574   3.348   5.689   1.643
 4892SOL    HW115575   3.399   5.770   1.673
 4892SOL    HW215576   3.256   5.691   1.683
 4893SOL     OW15577   0.214   4.095   1.740
 4893SOL    HW115578   0.178   4.003   1.732
 4893SOL    HW215579   0.203   4.143   1.653
 4894SOL     OW15580   2.450   1.872   2.463
 4894SOL    HW115581   2.462   1.772   2.469
 4894SOL    HW215582   2.525   1.917   2.511
 4895SOL     OW15583   1.265   5.526   2.835
 4895SOL    HW115584   1.246   5.510   2.932
 4895SOL    HW215585   1.362   5.511   2.817
 4896SOL     OW15586   2.384   5.691   1.607
 4896SOL    HW115587   2.357   5.784   1.634
 4896SOL    HW215588   2.315   5.626   1.640
 4897SOL     OW15589   2.304   4.809   6.218
 4897SOL    HW115590   2.316   4.711   6.233
 4897SOL    HW215591   2.308   4.856   6.307
 4898SOL     OW15592   3.910   1.634   3.733
 4898SOL    HW115593   3.821   1.613   3.773
 4898SOL    HW215594   3.979   1.571   3.770
 4899SOL     OW15595   6.131   5.733   3.373
 4899SOL    HW115596   6.200   5.762   3.307
 4899SOL    HW215597   6.045   5.717   3.325
 4900SOL     OW15598   2.146   5.427   4.635
 4900SOL    HW115599   2.090   5.358   4.681
 4900SOL    HW215600   2.088   5.482   4.575
 4901SOL     OW15601   3.338   6.569   6.295
 4901SOL    HW115602   3.337   6.669   6.285
 4901SOL    HW215603   3.431   6.540   6.318
 4902SOL     OW15604   2.616   1.949   4.841
 4902SOL    HW115605   2.652   2.030   4.887
 4902SOL    HW215606   2.550   1.977   4.771
 4903SOL     OW15607   2.891   5.797   0.017
 4903SOL    HW115608   2.921   5.886   0.052
 4903SOL    HW215609   2.963   5.729   0.031
 4904SOL     OW15610   1.198   0.316   4.276
 4904SOL    HW115611   1.204   0.380   4.352
 4904SOL    HW215612   1.276   0.254   4.277
 4905SOL     OW15613   4.531   0.763   2.099
 4905SOL    HW115614   4.469   0.691   2.127
 4905SOL    HW215615   4.598   0.727   2.034
 4906SOL     OW15616   4.409   2.001   6.053
 4906SOL    HW115617   4.509   2.003   6.059
 4906SOL    HW215618   4.382   1.935   5.982
 4907SOL     OW15619   4.442   5.697   1.225
 4907SOL    HW115620   4.441   5.600   1.201
 4907SOL    HW215621   4.393   5.749   1.155
 4908SOL     OW15622   5.085   4.676   6.388
 4908SOL    HW115623   5.152   4.602   6.391
 4908SOL    HW215624   5.132   4.764   6.393
 4909SOL     OW15625   6.326   0.092   4.841
 4909SOL    HW115626   6.268   0.094   4.760
 4909SOL    HW215627   6.285   0.148   4.913
 4910SOL     OW15628   5.112   6.373   4.458
 4910SOL    HW115629   5.088   6.411   4.547
 4910SOL    HW215630   5.068   6.427   4.386
 4911SOL     OW15631   0.743   3.378   4.739
 4911SOL    HW115632   0.829   3.355   4.694
 4911SOL    HW215633   0.760   3.447   4.809
 4912SOL     OW15634   5.478   2.086   0.553
 4912SOL    HW115635   5.567   2.048   0.578
 4912SOL    HW215636   5.436   2.129   0.633
 4913SOL     OW15637   3.903   3.503   4.492
 4913SOL    HW115638   3.997   3.528   4.513
 4913SOL    HW215639   3.866   3.447   4.566
 4914SOL     OW15640   3.711   6.683   5.401
 4914SOL    HW115641   3.740   6.589   5.416
 4914SOL    HW215642   3.648   6.710   5.474
 4915SOL     OW15643   4.435   0.448   4.178
 4915SOL    HW115644   4.496   0.458   4.099
 4915SOL    HW215645   4.352   0.502   4.164
 4916SOL     OW15646   1.636   1.220   3.915
 4916SOL    HW115647   1.580   1.142   3.940
 4916SOL    HW215648   1.714   1.227   3.978
 4917SOL     OW15649   1.680   4.759   1.007
 4917SOL    HW115650   1.655   4.853   1.031
 4917SOL    HW215651   1.646   4.697   1.077
 4918SOL     OW15652   3.475   6.907   2.463
 4918SOL    HW115653   3.481   6.919   2.364
 4918SOL    HW215654   3.387   6.942   2.495
 4919SOL     OW15655   2.678   2.281   6.935
 4919SOL    HW115656   2.644   2.293   0.008
 4919SOL    HW215657   2.753   2.215   6.936
 4920SOL     OW15658   5.288   0.290   5.404
 4920SOL    HW115659   5.339   0.339   5.333
 4920SOL    HW215660   5.318   0.195   5.408
 4921SOL     OW15661   1.845   4.636   0.606
 4921SOL    HW115662   1.785   4.686   0.669
 4921SOL    HW215663   1.876   4.699   0.534
 4922SOL     OW15664   1.850   2.757   5.044
 4922SOL    HW115665   1.905   2.752   4.961
 4922SOL    HW215666   1.843   2.852   5.074
 4923SOL     OW15667   3.497   1.535   0.335
 4923SOL    HW115668   3.575   1.489   0.292
 4923SOL    HW215669   3.504   1.633   0.320
 4924SOL     OW15670   2.207   1.662   5.269
 4924SOL    HW115671   2.268   1.699   5.199
 4924SOL    HW215672   2.217   1.715   5.353
 4925SOL     OW15673   5.431   6.830   1.970
 4925SOL    HW115674   5.481   6.898   2.024
 4925SOL    HW215675   5.352   6.873   1.927
 4926SOL     OW15676   5.052   2.070   0.520
 4926SOL    HW115677   5.104   2.150   0.492
 4926SOL    HW215678   5.106   1.988   0.506
 4927SOL     OW15679   4.095   3.449   3.907
 4927SOL    HW115680   4.158   3.468   3.982
 4927SOL    HW215681   4.041   3.368   3.929
 4928SOL     OW15682   0.615   0.285   6.903
 4928SOL    HW115683   0.606   0.385   6.900
 4928SOL    HW215684   0.694   0.261   6.959
 4929SOL     OW15685   1.395   4.681   4.807
 4929SOL    HW115686   1.297   4.673   4.790
 4929SOL    HW215687   1.420   4.777   4.818
 4930SOL     OW15688   4.526   0.913   2.543
 4930SOL    HW115689   4.575   0.955   2.620
 4930SOL    HW215690   4.482   0.829   2.574
 4931SOL     OW15691   6.489   0.074   0.690
 4931SOL    HW115692   6.399   0.080   0.732
 4931SOL    HW215693   6.555   0.124   0.746
 4932SOL     OW15694   2.249   3.317   1.645
 4932SOL    HW115695   2.192   3.388   1.603
 4932SOL    HW215696   2.285   3.350   1.732
 4933SOL     OW15697   1.871   0.206   3.799
 4933SOL    HW115698   1.936   0.231   3.727
 4933SOL    HW215699   1.822   0.123   3.771
 4934SOL     OW15700   2.218   5.177   2.710
 4934SOL    HW115701   2.178   5.261   2.674
 4934SOL    HW215702   2.195   5.168   2.807
 4935SOL     OW15703   1.084   1.458   6.812
 4935SOL    HW115704   1.121   1.398   6.883
 4935SOL    HW215705   1.063   1.404   6.731
 4936SOL     OW15706   1.474   4.538   0.865
 4936SOL    HW115707   1.470   4.512   0.769
 4936SOL    HW215708   1.552   4.493   0.908
 4937SOL     OW15709   6.978   2.860   6.321
 4937SOL    HW115710   0.018   2.886   6.396
 4937SOL    HW215711   6.947   2.942   6.273
 4938SOL     OW15712   2.443   5.803   6.395
 4938SOL    HW115713   2.533   5.764   6.378
 4938SOL    HW215714   2.453   5.899   6.421
 4939SOL     OW15715   0.160   1.711   3.994
 4939SOL    HW115716   0.234   1.692   4.058
 4939SOL    HW215717   0.158   1.640   3.924
 4940SOL     OW15718   0.686   1.649   5.095
 4940SOL    HW115719   0.662   1.618   5.003
 4940SOL    HW215720   0.729   1.575   5.145
 4941SOL     OW15721   4.650   2.651   5.463
 4941SOL    HW115722   4.602   2.697   5.388
 4941SOL    HW215723   4.748   2.652   5.445
 4942SOL     OW15724   5.801   2.809   6.052
 4942SOL    HW115725   5.844   2.787   6.140
 4942SOL    HW215726   5.786   2.907   6.045
 4943SOL     OW15727   4.590   4.370   6.354
 4943SOL    HW115728   4.522   4.298   6.366
 4943SOL    HW215729   4.662   4.339   6.292
 4944SOL     OW15730   2.390   4.319   1.827
 4944SOL    HW115731   2.438   4.406   1.843
 4944SOL    HW215732   2.452   4.254   1.783
 4945SOL     OW15733   0.995   0.019   4.270
 4945SOL    HW115734   0.956   0.109   4.290
 4945SOL    HW215735   0.925   6.982   4.229
 4946SOL     OW15736   0.941   5.424   6.788
 4946SOL    HW115737   0.994   5.343   6.816
 4946SOL    HW215738   0.978   5.505   6.833
 4947SOL     OW15739   2.096   0.855   0.664
 4947SOL    HW115740   2.021   0.910   0.701
 4947SOL    HW215741   2.172   0.855   0.729
 4948SOL     OW15742   2.187   2.940   2.786
 4948SOL    HW115743   2.226   2.940   2.695
 4948SOL    HW215744   2.160   3.033   2.811
 4949SOL     OW15745   6.026   4.590   5.526
 4949SOL    HW115746   5.942   4.572   5.475
 4949SOL    HW215747   6.006   4.649   5.604
 4950SOL     OW15748   2.131   4.761   4.696
 4950SOL    HW115749   2.086   4.846   4.723
 4950SOL    HW215750   2.063   4.699   4.657
 4951SOL     OW15751   5.824   0.883   4.435
 4951SOL    HW115752   5.774   0.802   4.405
 4951SOL    HW215753   5.864   0.930   4.356
 4952SOL     OW15754   6.639   0.443   5.915
 4952SOL    HW115755   6.656   0.360   5.968
 4952SOL    HW215756   6.635   0.420   5.817
 4953SOL     OW15757   1.667   6.848   3.337
 4953SOL    HW115758   1.678   6.948   3.338
 4953SOL    HW215759   1.589   6.825   3.279
 4954SOL     OW15760   2.947   3.348   0.226
 4954SOL    HW115761   2.925   3.251   0.239
 4954SOL    HW215762   3.016   3.376   0.292
 4955SOL     OW15763   3.132   6.545   6.916
 4955SOL    HW115764   3.220   6.514   6.881
 4955SOL    HW215765   3.143   6.579   7.009
 4956SOL     OW15766   2.446   6.601   5.425
 4956SOL    HW115767   2.380   6.526   5.428
 4956SOL    HW215768   2.470   6.628   5.519
 4957SOL     OW15769   5.641   2.557   1.609
 4957SOL    HW115770   5.599   2.643   1.636
 4957SOL    HW215771   5.572   2.485   1.605
 4958SOL     OW15772   0.456   5.635   5.573
 4958SOL    HW115773   0.482   5.591   5.659
 4958SOL    HW215774   0.489   5.581   5.496
 4959SOL     OW15775   6.099   1.662   0.648
 4959SOL    HW115776   6.175   1.722   0.674
 4959SOL    HW215777   6.013   1.713   0.651
 4960SOL     OW15778   3.713   4.901   3.478
 4960SOL    HW115779   3.616   4.926   3.481
 4960SOL    HW215780   3.745   4.907   3.383
 4961SOL     OW15781   3.696   1.282   5.871
 4961SOL    HW115782   3.602   1.253   5.854
 4961SOL    HW215783   3.758   1.205   5.854
 4962SOL     OW15784   5.406   2.414   0.045
 4962SOL    HW115785   5.482   2.479   0.038
 4962SOL    HW215786   5.418   2.357   0.127
 4963SOL     OW15787   0.237   6.214   0.798
 4963SOL    HW115788   0.153   6.166   0.771
 4963SOL    HW215789   0.277   6.257   0.717
 4964SOL     OW15790   2.906   0.671   4.158
 4964SOL    HW115791   2.998   0.678   4.197
 4964SOL    HW215792   2.842   0.725   4.213
 4965SOL     OW15793   0.338   1.059   2.226
 4965SOL    HW115794   0.322   1.002   2.306
 4965SOL    HW215795   0.402   1.132   2.249
 4966SOL     OW15796   2.590   6.339   5.556
 4966SOL    HW115797   2.629   6.407   5.495
 4966SOL    HW215798   2.497   6.317   5.527
 4967SOL     OW15799   3.719   4.950   4.686
 4967SOL    HW115800   3.753   5.034   4.642
 4967SOL    HW215801   3.621   4.958   4.700
 4968SOL     OW15802   6.840   2.069   4.028
 4968SOL    HW115803   6.761   2.076   3.967
 4968SOL    HW215804   6.911   2.013   3.986
 4969SOL     OW15805   2.318   5.516   3.042
 4969SOL    HW115806   2.383   5.450   3.080
 4969SOL    HW215807   2.340   5.534   2.946
 4970SOL     OW15808   2.649   2.375   2.481
 4970SOL    HW115809   2.742   2.337   2.475
 4970SOL    HW215810   2.618   2.370   2.576
 4971SOL     OW15811   5.747   6.068   3.143
 4971SOL    HW115812   5.681   6.003   3.181
 4971SOL    HW215813   5.832   6.020   3.123
 4972SOL     OW15814   0.694   3.724   0.816
 4972SOL    HW115815   0.771   3.786   0.829
 4972SOL    HW215816   0.718   3.633   0.850
 4973SOL     OW15817   1.273   0.099   2.408
 4973SOL    HW115818   1.239   0.188   2.437
 4973SOL    HW215819   1.355   0.112   2.351
 4974SOL     OW15820   6.741   4.152   1.164
 4974SOL    HW115821   6.737   4.172   1.262
 4974SOL    HW215822   6.812   4.083   1.147
 4975SOL     OW15823   6.510   3.922   6.049
 4975SOL    HW115824   6.547   3.954   6.136
 4975SOL    HW215825   6.520   3.993   5.980
 4976SOL     OW15826   2.180   1.172   3.928
 4976SOL    HW115827   2.150   1.228   3.850
 4976SOL    HW215828   2.252   1.221   3.977
 4977SOL     OW15829   3.762   4.367   6.667
 4977SOL    HW115830   3.683   4.428   6.667
 4977SOL    HW215831   3.825   4.395   6.594
 4978SOL     OW15832   6.666   4.636   5.225
 4978SOL    HW115833   6.719   4.674   5.149
 4978SOL    HW215834   6.728   4.609   5.299
 4979SOL     OW15835   0.143   6.731   6.547
 4979SOL    HW115836   0.106   6.638   6.557
 4979SOL    HW215837   0.068   6.796   6.536
 4980SOL     OW15838   5.193   6.500   2.869
 4980SOL    HW115839   5.273   6.440   2.876
 4980SOL    HW215840   5.169   6.513   2.773
 4981SOL     OW15841   4.441   5.125   0.211
 4981SOL    HW115842   4.375   5.150   0.282
 4981SOL    HW215843   4.534   5.137   0.245
 4982SOL     OW15844   2.905   0.949   5.303
 4982SOL    HW115845   2.849   1.028   5.279
 4982SOL    HW215846   2.947   0.911   5.221
 4983SOL     OW15847   5.813   3.688   5.519
 4983SOL    HW115848   5.813   3.673   5.420
 4983SOL    HW215849   5.874   3.764   5.541
 4984SOL     OW15850   5.069   4.239   3.415
 4984SOL    HW115851   5.144   4.294   3.378
 4984SOL    HW215852   5.079   4.144   3.382
 4985SOL     OW15853   5.498   6.883   3.596
 4985SOL    HW115854   5.458   6.802   3.552
 4985SOL    HW215855   5.592   6.895   3.564
 4986SOL     OW15856   0.021   4.200   1.905
 4986SOL    HW115857   0.113   4.180   1.872
 4986SOL    HW215858   6.984   4.120   1.892
 4987SOL     OW15859   1.393   0.722   2.287
 4987SOL    HW115860   1.488   0.700   2.265
 4987SOL    HW215861   1.370   0.684   2.376
 4988SOL     OW15862   5.497   1.106   2.229
 4988SOL    HW115863   5.537   1.197   2.236
 4988SOL    HW215864   5.502   1.061   2.319
 4989SOL     OW15865   5.100   0.033   1.501
 4989SOL    HW115866   5.187   0.008   1.544
 4989SOL    HW215867   5.078   6.987   1.430
 4990SOL     OW15868   2.557   2.258   5.455
 4990SOL    HW115869   2.639   2.201   5.466
 4990SOL    HW215870   2.556   2.298   5.364
 4991SOL     OW15871   5.993   5.294   3.494
 4991SOL    HW115872   6.028   5.210   3.452
 4991SOL    HW215873   5.893   5.294   3.490
 4992SOL     OW15874   4.720   0.665   2.807
 4992SOL    HW115875   4.749   0.681   2.901
 4992SOL    HW215876   4.783   0.600   2.764
 4993SOL     OW15877   3.232   6.030   4.410
 4993SOL    HW115878   3.235   5.953   4.345
 4993SOL    HW215879   3.166   6.010   4.482
 4994SOL     OW15880   2.005   0.968   3.903
 4994SOL    HW115881   2.034   1.063   3.895
 4994SOL    HW215882   1.920   0.954   3.853
 4995SOL     OW15883   0.165   2.797   5.644
 4995SOL    HW115884   0.134   2.759   5.731
 4995SOL    HW215885   0.126   2.743   5.569
 4996SOL     OW15886   0.852   1.303   2.950
 4996SOL    HW115887   0.922   1.257   2.895
 4996SOL    HW215888   0.889   1.321   3.041
 4997SOL     OW15889   5.242   2.650   2.836
 4997SOL    HW115890   5.297   2.679   2.914
 4997SOL    HW215891   5.280   2.688   2.752
 4998SOL     OW15892   2.235   4.127   4.792
 4998SOL    HW115893   2.262   4.078   4.875
 4998SOL    HW215894   2.135   4.134   4.789
 4999SOL     OW15895   6.263   3.928   0.441
 4999SOL    HW115896   6.338   3.990   0.418
 4999SOL    HW215897   6.292   3.833   0.425
 5000SOL     OW15898   3.579   6.599   3.370
 5000SOL    HW115899   3.619   6.686   3.398
 5000SOL    HW215900   3.492   6.585   3.416
 5001SOL     OW15901   6.857   3.627   1.185
 5001SOL    HW115902   6.925   3.570   1.139
 5001SOL    HW215903   6.898   3.670   1.265
 5002SOL     OW15904   0.341   3.200   2.747
 5002SOL    HW115905   0.404   3.248   2.808
 5002SOL    HW215906   0.299   3.264   2.684
 5003SOL     OW15907   2.783   5.990   2.425
 5003SOL    HW115908   2.767   5.942   2.338
 5003SOL    HW215909   2.809   6.084   2.406
 5004SOL     OW15910   2.994   5.345   5.836
 5004SOL    HW115911   3.034   5.256   5.858
 5004SOL    HW215912   3.007   5.408   5.913
 5005SOL     OW15913   3.158   2.899   0.612
 5005SOL    HW115914   3.201   2.959   0.679
 5005SOL    HW215915   3.071   2.938   0.582
 5006SOL     OW15916   4.913   0.325   0.296
 5006SOL    HW115917   4.955   0.285   0.215
 5006SOL    HW215918   4.974   0.316   0.374
 5007SOL     OW15919   0.956   7.010   0.677
 5007SOL    HW115920   0.889   6.971   0.740
 5007SOL    HW215921   0.910   0.052   0.614
 5008SOL     OW15922   5.766   0.074   1.749
 5008SOL    HW115923   5.761   6.998   1.771
 5008SOL    HW215924   5.713   0.126   1.816
 5009SOL     OW15925   1.014   0.540   1.087
 5009SOL    HW115926   1.098   0.594   1.091
 5009SOL    HW215927   0.942   0.594   1.045
 5010SOL     OW15928   4.092   3.434   2.330
 5010SOL    HW115929   4.151   3.402   2.256
 5010SOL    HW215930   4.044   3.357   2.371
 5011SOL     OW15931   1.833   3.946   2.117
 5011SOL    HW115932   1.849   4.013   2.190
 5011SOL    HW215933   1.916   3.893   2.103
 5012SOL     OW15934   6.141   3.969   6.417
 5012SOL    HW115935   6.045   3.968   6.442
 5012SOL    HW215936   6.189   4.038   6.470
 5013SOL     OW15937   4.947   1.482   6.836
 5013SOL    HW115938   4.887   1.554   6.872
 5013SOL    HW215939   4.891   1.412   6.791
 5014SOL     OW15940   6.412   5.059   0.618
 5014SOL    HW115941   6.497   5.078   0.569
 5014SOL    HW215942   6.359   4.991   0.567
 5015SOL     OW15943   4.631   2.165   4.723
 5015SOL    HW115944   4.625   2.092   4.655
 5015SOL    HW215945   4.570   2.144   4.800
 5016SOL     OW15946   1.735   2.650   0.259
 5016SOL    HW115947   1.788   2.705   0.324
 5016SOL    HW215948   1.654   2.613   0.304
 5017SOL     OW15949   1.877   2.815   0.408
 5017SOL    HW115950   1.858   2.908   0.438
 5017SOL    HW215951   1.969   2.810   0.370
 5018SOL     OW15952   0.434   3.774   2.456
 5018SOL    HW115953   0.358   3.743   2.399
 5018SOL    HW215954   0.446   3.873   2.443
 5019SOL     OW15955   1.388   4.675   6.292
 5019SOL    HW115956   1.409   4.577   6.298
 5019SOL    HW215957   1.398   4.716   6.383
 5020SOL     OW15958   5.027   0.514   6.321
 5020SOL    HW115959   5.069   0.502   6.231
 5020SOL    HW215960   5.089   0.481   6.392
 5021SOL     OW15961   0.717   1.177   6.626
 5021SOL    HW115962   0.698   1.257   6.684
 5021SOL    HW215963   0.634   1.124   6.614
 5022SOL     OW15964   0.754   1.531   6.467
 5022SOL    HW115965   0.832   1.594   6.457
 5022SOL    HW215966   0.772   1.448   6.416
 5023SOL     OW15967   6.699   2.562   1.232
 5023SOL    HW115968   6.650   2.555   1.145
 5023SOL    HW215969   6.796   2.540   1.218
 5024SOL     OW15970   6.279   5.173   1.676
 5024SOL    HW115971   6.344   5.244   1.651
 5024SOL    HW215972   6.219   5.206   1.750
 5025SOL     OW15973   3.221   1.677   2.167
 5025SOL    HW115974   3.142   1.713   2.216
 5025SOL    HW215975   3.190   1.617   2.093
 5026SOL     OW15976   6.414   5.933   6.023
 5026SOL    HW115977   6.333   5.927   6.082
 5026SOL    HW215978   6.491   5.890   6.069
 5027SOL     OW15979   6.994   6.743   2.097
 5027SOL    HW115980   0.026   6.806   2.040
 5027SOL    HW215981   0.034   6.696   2.161
 5028SOL     OW15982   0.102   1.607   2.716
 5028SOL    HW115983   0.052   1.691   2.698
 5028SOL    HW215984   0.157   1.618   2.798
 5029SOL     OW15985   6.505   2.604   2.318
 5029SOL    HW115986   6.437   2.676   2.302
 5029SOL    HW215987   6.534   2.566   2.230
 5030SOL     OW15988   6.826   7.019   0.348
 5030SOL    HW115989   6.748   0.056   0.373
 5030SOL    HW215990   6.852   6.962   0.425
 5031SOL     OW15991   5.459   6.863   5.145
 5031SOL    HW115992   5.401   6.833   5.069
 5031SOL    HW215993   5.483   6.785   5.202
 5032SOL     OW15994   2.171   2.318   1.111
 5032SOL    HW115995   2.098   2.257   1.141
 5032SOL    HW215996   2.144   2.413   1.126
 5033SOL     OW15997   2.473   6.692   5.686
 5033SOL    HW115998   2.377   6.669   5.696
 5033SOL    HW215999   2.527   6.634   5.748
 5034SOL     OW16000   5.100   0.571   3.075
 5034SOL    HW116001   5.085   0.508   3.152
 5034SOL    HW216002   5.169   0.533   3.013
 5035SOL     OW16003   0.531   4.039   0.116
 5035SOL    HW116004   0.612   4.097   0.111
 5035SOL    HW216005   0.456   4.082   0.065
 5036SOL     OW16006   0.493   4.969   0.017
 5036SOL    HW116007   0.424   5.020   6.986
 5036SOL    HW216008   0.452   4.887   0.056
 5037SOL     OW16009   4.867   3.285   3.034
 5037SOL    HW116010   4.865   3.294   3.133
 5037SOL    HW216011   4.962   3.273   3.004
 5038SOL     OW16012   2.810   4.049   5.942
 5038SOL    HW116013   2.741   4.120   5.930
 5038SOL    HW216014   2.831   4.040   6.040
 5039SOL     OW16015   3.333   4.585   5.482
 5039SOL    HW116016   3.243   4.571   5.440
 5039SOL    HW216017   3.325   4.652   5.555
 5040SOL     OW16018   1.402   6.080   6.114
 5040SOL    HW116019   1.362   6.154   6.168
 5040SOL    HW216020   1.330   6.034   6.062
 5041SOL     OW16021   1.719   1.567   2.630
 5041SOL    HW116022   1.813   1.598   2.615
 5041SOL    HW216023   1.718   1.469   2.648
 5042SOL     OW16024   6.440   2.680   0.396
 5042SOL    HW116025   6.486   2.595   0.422
 5042SOL    HW216026   6.342   2.669   0.405
 5043SOL     OW16027   3.310   0.253   6.276
 5043SOL    HW116028   3.296   0.340   6.227
 5043SOL    HW216029   3.405   0.223   6.262
 5044SOL     OW16030   0.802   6.859   0.245
 5044SOL    HW116031   0.762   6.862   0.337
 5044SOL    HW216032   0.789   6.948   0.201
 5045SOL     OW16033   5.352   1.222   6.504
 5045SOL    HW116034   5.269   1.191   6.550
 5045SOL    HW216035   5.379   1.157   6.434
 5046SOL     OW16036   3.641   3.993   2.730
 5046SOL    HW116037   3.628   4.030   2.822
 5046SOL    HW216038   3.582   3.913   2.718
 5047SOL     OW16039   7.005   3.667   2.422
 5047SOL    HW116040   6.974   3.720   2.343
 5047SOL    HW216041   6.963   3.702   2.505
 5048SOL     OW16042   0.254   1.372   2.025
 5048SOL    HW116043   0.159   1.380   2.052
 5048SOL    HW216044   0.272   1.278   1.993
 5049SOL     OW16045   6.039   1.999   5.962
 5049SOL    HW116046   5.957   1.979   5.909
 5049SOL    HW216047   6.054   2.098   5.965
 5050SOL     OW16048   1.815   1.189   1.166
 5050SOL    HW116049   1.830   1.143   1.079
 5050SOL    HW216050   1.780   1.123   1.233
 5051SOL     OW16051   4.897   4.804   1.060
 5051SOL    HW116052   4.910   4.706   1.044
 5051SOL    HW216053   4.801   4.822   1.078
 5052SOL     OW16054   2.149   0.325   6.391
 5052SOL    HW116055   2.118   0.352   6.300
 5052SOL    HW216056   2.227   0.264   6.382
 5053SOL     OW16057   2.287   4.186   3.090
 5053SOL    HW116058   2.226   4.203   3.168
 5053SOL    HW216059   2.316   4.090   3.091
 5054SOL     OW16060   3.492   6.075   4.503
 5054SOL    HW116061   3.397   6.053   4.483
 5054SOL    HW216062   3.496   6.135   4.583
 5055SOL     OW16063   1.784   1.056   5.704
 5055SOL    HW116064   1.750   1.140   5.662
 5055SOL    HW216065   1.883   1.048   5.687
 5056SOL     OW16066   6.759   4.815   0.602
 5056SOL    HW116067   6.773   4.721   0.630
 5056SOL    HW216068   6.771   4.876   0.681
 5057SOL     OW16069   0.438   6.006   4.745
 5057SOL    HW116070   0.434   6.086   4.806
 5057SOL    HW216071   0.418   6.035   4.652
 5058SOL     OW16072   2.883   3.479   5.417
 5058SOL    HW116073   2.886   3.460   5.515
 5058SOL    HW216074   2.945   3.416   5.369
 5059SOL     OW16075   5.801   1.513   3.632
 5059SOL    HW116076   5.823   1.455   3.712
 5059SOL    HW216077   5.836   1.469   3.549
 5060SOL     OW16078   1.306   1.904   5.309
 5060SOL    HW116079   1.280   1.952   5.225
 5060SOL    HW216080   1.238   1.832   5.328
 5061SOL     OW16081   4.103   3.426   2.041
 5061SOL    HW116082   4.163   3.410   1.962
 5061SOL    HW216083   4.048   3.508   2.025
 5062SOL     OW16084   5.409   0.811   3.699
 5062SOL    HW116085   5.373   0.898   3.732
 5062SOL    HW216086   5.347   0.737   3.726
 5063SOL     OW16087   1.361   6.839   2.523
 5063SOL    HW116088   1.458   6.840   2.500
 5063SOL    HW216089   1.336   6.925   2.568
 5064SOL     OW16090   5.095   4.017   1.854
 5064SOL    HW116091   4.999   3.997   1.834
 5064SOL    HW216092   5.153   3.943   1.820
 5065SOL     OW16093   1.507   1.724   3.618
 5065SOL    HW116094   1.492   1.821   3.596
 5065SOL    HW216095   1.422   1.685   3.655
 5066SOL     OW16096   4.208   4.823   1.340
 5066SOL    HW116097   4.138   4.759   1.307
 5066SOL    HW216098   4.209   4.904   1.281
 5067SOL     OW16099   3.704   0.825   1.939
 5067SOL    HW116100   3.615   0.820   1.985
 5067SOL    HW216101   3.775   0.791   2.001
 5068SOL     OW16102   2.125   4.884   6.657
 5068SOL    HW116103   2.088   4.972   6.627
 5068SOL    HW216104   2.060   4.812   6.635
 5069SOL     OW16105   2.314   3.103   5.589
 5069SOL    HW116106   2.316   3.150   5.500
 5069SOL    HW216107   2.394   3.044   5.597
 5070SOL     OW16108   4.342   4.731   3.986
 5070SOL    HW116109   4.347   4.828   3.964
 5070SOL    HW216110   4.325   4.678   3.902
 5071SOL     OW16111   4.243   1.539   3.120
 5071SOL    HW116112   4.187   1.518   3.040
 5071SOL    HW216113   4.192   1.516   3.203
 5072SOL     OW16114   1.192   0.687   1.516
 5072SOL    HW116115   1.174   0.743   1.435
 5072SOL    HW216116   1.147   0.598   1.507
 5073SOL     OW16117   0.351   5.799   1.826
 5073SOL    HW116118   0.287   5.828   1.897
 5073SOL    HW216119   0.428   5.862   1.823
 5074SOL     OW16120   3.391   2.960   1.399
 5074SOL    HW116121   3.373   2.965   1.301
 5074SOL    HW216122   3.385   2.865   1.429
 5075SOL     OW16123   0.953   2.653   0.026
 5075SOL    HW116124   0.981   2.592   6.973
 5075SOL    HW216125   1.001   2.740   0.016
 5076SOL     OW16126   4.693   0.469   0.355
 5076SOL    HW116127   4.672   0.468   0.452
 5076SOL    HW216128   4.778   0.418   0.339
 5077SOL     OW16129   2.055   4.090   5.483
 5077SOL    HW116130   2.119   4.036   5.429
 5077SOL    HW216131   2.103   4.168   5.522
 5078SOL     OW16132   0.225   1.401   3.769
 5078SOL    HW116133   0.192   1.453   3.691
 5078SOL    HW216134   0.319   1.371   3.752
 5079SOL     OW16135   2.227   3.459   5.158
 5079SOL    HW116136   2.279   3.390   5.209
 5079SOL    HW216137   2.245   3.550   5.196
 5080SOL     OW16138   6.020   6.388   6.598
 5080SOL    HW116139   5.938   6.411   6.545
 5080SOL    HW216140   6.004   6.409   6.695
 5081SOL     OW16141   3.447   3.341   4.984
 5081SOL    HW116142   3.387   3.277   5.035
 5081SOL    HW216143   3.527   3.291   4.951
 5082SOL     OW16144   5.222   5.807   1.092
 5082SOL    HW116145   5.228   5.709   1.072
 5082SOL    HW216146   5.131   5.840   1.070
 5083SOL     OW16147   2.829   6.810   2.519
 5083SOL    HW116148   2.834   6.886   2.454
 5083SOL    HW216149   2.890   6.737   2.489
 5084SOL     OW16150   0.154   4.536   3.998
 5084SOL    HW116151   0.117   4.498   4.083
 5084SOL    HW216152   0.248   4.507   3.986
 5085SOL     OW16153   5.835   2.549   6.529
 5085SOL    HW116154   5.846   2.449   6.526
 5085SOL    HW216155   5.740   2.571   6.548
 5086SOL     OW16156   1.246   5.476   3.082
 5086SOL    HW116157   1.305   5.533   3.138
 5086SOL    HW216158   1.281   5.382   3.080
 5087SOL     OW16159   1.824   5.652   2.695
 5087SOL    HW116160   1.805   5.728   2.757
 5087SOL    HW216161   1.810   5.566   2.744
 5088SOL     OW16162   6.447   0.562   4.472
 5088SOL    HW116163   6.395   0.496   4.525
 5088SOL    HW216164   6.485   0.631   4.533
 5089SOL     OW16165   5.097   4.096   4.112
 5089SOL    HW116166   5.102   4.131   4.206
 5089SOL    HW216167   5.171   4.135   4.058
 5090SOL     OW16168   1.918   4.084   2.320
 5090SOL    HW116169   2.017   4.072   2.308
 5090SOL    HW216170   1.897   4.088   2.418
 5091SOL     OW16171   0.706   0.912   1.882
 5091SOL    HW116172   0.636   0.857   1.836
 5091SOL    HW216173   0.689   0.912   1.981
 5092SOL     OW16174   3.637   3.698   2.526
 5092SOL    HW116175   3.579   3.620   2.507
 5092SOL    HW216176   3.593   3.757   2.594
 5093SOL     OW16177   2.876   1.326   1.059
 5093SOL    HW116178   2.975   1.342   1.055
 5093SOL    HW216179   2.858   1.240   1.106
 5094SOL     OW16180   2.551   5.148   5.854
 5094SOL    HW116181   2.600   5.230   5.822
 5094SOL    HW216182   2.453   5.167   5.855
 5095SOL     OW16183   6.346   2.029   3.750
 5095SOL    HW116184   6.314   2.098   3.686
 5095SOL    HW216185   6.304   2.044   3.840
 5096SOL     OW16186   3.850   4.718   0.263
 5096SOL    HW116187   3.869   4.627   0.227
 5096SOL    HW216188   3.770   4.715   0.322
 5097SOL     OW16189   1.448   0.594   6.567
 5097SOL    HW116190   1.461   0.690   6.542
 5097SOL    HW216191   1.354   0.581   6.601
 5098SOL     OW16192   2.454   0.032   2.004
 5098SOL    HW116193   2.482   0.124   2.031
 5098SOL    HW216194   2.393   0.038   1.925
 5099SOL     OW16195   1.035   6.959   0.056
 5099SOL    HW116196   1.056   6.882   7.016
 5099SOL    HW216197   0.983   6.925   0.134
 5100SOL     OW16198   3.250   5.588   4.855
 5100SOL    HW116199   3.169   5.529   4.854
 5100SOL    HW216200   3.270   5.617   4.762
 5101SOL     OW16201   5.318   0.114   0.473
 5101SOL    HW116202   5.402   0.164   0.490
 5101SOL    HW216203   5.276   0.147   0.389
 5102SOL     OW16204   5.582   6.361   4.375
 5102SOL    HW116205   5.602   6.341   4.279
 5102SOL    HW216206   5.492   6.324   4.398
 5103SOL     OW16207   0.231   0.610   3.431
 5103SOL    HW116208   0.138   0.633   3.458
 5103SOL    HW216209   0.239   0.614   3.331
 5104SOL     OW16210   1.935   6.604   2.699
 5104SOL    HW116211   1.989   6.544   2.639
 5104SOL    HW216212   1.906   6.552   2.780
 5105SOL     OW16213   3.268   3.274   0.771
 5105SOL    HW116214   3.196   3.343   0.782
 5105SOL    HW216215   3.357   3.317   0.786
 5106SOL     OW16216   4.500   1.571   0.252
 5106SOL    HW116217   4.548   1.516   0.183
 5106SOL    HW216218   4.480   1.514   0.332
 5107SOL     OW16219   3.201   1.524   0.313
 5107SOL    HW116220   3.301   1.526   0.323
 5107SOL    HW216221   3.172   1.602   0.257
 5108SOL     OW16222   3.403   3.623   5.080
 5108SOL    HW116223   3.400   3.524   5.068
 5108SOL    HW216224   3.414   3.645   5.177
 5109SOL     OW16225   1.222   1.549   0.477
 5109SOL    HW116226   1.240   1.531   0.574
 5109SOL    HW216227   1.181   1.640   0.467
 5110SOL     OW16228   0.010   0.563   5.770
 5110SOL    HW116229   6.983   0.508   5.838
 5110SOL    HW216230   6.988   0.551   5.681
 5111SOL     OW16231   1.720   1.339   4.883
 5111SOL    HW116232   1.707   1.437   4.870
 5111SOL    HW216233   1.794   1.323   4.948
 5112SOL     OW16234   2.057   0.789   2.774
 5112SOL    HW116235   1.978   0.799   2.835
 5112SOL    HW216236   2.091   0.879   2.748
 5113SOL     OW16237   2.196   0.326   1.062
 5113SOL    HW116238   2.263   0.348   1.133
 5113SOL    HW216239   2.142   0.247   1.089
 5114SOL     OW16240   3.136   1.058   6.840
 5114SOL    HW116241   3.046   1.061   6.883
 5114SOL    HW216242   3.128   1.021   6.748
 5115SOL     OW16243   1.800   4.988   4.214
 5115SOL    HW116244   1.779   4.935   4.296
 5115SOL    HW216245   1.893   4.967   4.185
 5116SOL     OW16246   6.624   0.401   5.644
 5116SOL    HW116247   6.615   0.340   5.566
 5116SOL    HW216248   6.674   0.483   5.617
 5117SOL     OW16249   2.314   4.315   4.537
 5117SOL    HW116250   2.329   4.230   4.588
 5117SOL    HW216251   2.233   4.306   4.480
 5118SOL     OW16252   5.307   0.018   6.900
 5118SOL    HW116253   5.208   0.003   6.906
 5118SOL    HW216254   5.348   0.001   6.989
 5119SOL     OW16255   5.022   0.769   1.992
 5119SOL    HW116256   5.078   0.850   1.974
 5119SOL    HW216257   4.964   0.785   2.072
 5120SOL     OW16258   3.431   1.069   4.010
 5120SOL    HW116259   3.378   1.131   4.067
 5120SOL    HW216260   3.427   0.976   4.048
 5121SOL     OW16261   2.587   2.012   6.245
 5121SOL    HW116262   2.495   2.038   6.215
 5121SOL    HW216263   2.583   1.920   6.287
 5122SOL     OW16264   3.855   6.584   2.982
 5122SOL    HW116265   3.785   6.651   2.959
 5122SOL    HW216266   3.945   6.628   2.981
 5123SOL     OW16267   4.480   2.112   4.984
 5123SOL    HW116268   4.475   2.060   5.069
 5123SOL    HW216269   4.487   2.209   5.004
 5124SOL     OW16270   2.509   5.374   5.127
 5124SOL    HW116271   2.553   5.430   5.057
 5124SOL    HW216272   2.452   5.305   5.083
 5125SOL     OW16273   6.255   3.524   4.557
 5125SOL    HW116274   6.186   3.468   4.512
 5125SOL    HW216275   6.294   3.473   4.634
 5126SOL     OW16276   6.465   4.848   5.067
 5126SOL    HW116277   6.402   4.924   5.049
 5126SOL    HW216278   6.437   4.769   5.013
 5127SOL     OW16279   1.404   3.649   0.053
 5127SOL    HW116280   1.399   3.683   6.980
 5127SOL    HW216281   1.316   3.610   0.079
 5128SOL     OW16282   6.441   0.457   6.212
 5128SOL    HW116283   6.411   0.524   6.144
 5128SOL    HW216284   6.376   0.457   6.289
 5129SOL     OW16285   5.532   0.060   2.850
 5129SOL    HW116286   5.517   6.983   2.861
 5129SOL    HW216287   5.475   0.110   2.915
 5130SOL     OW16288   1.059   5.588   3.472
 5130SOL    HW116289   1.128   5.530   3.515
 5130SOL    HW216290   1.104   5.662   3.423
 5131SOL     OW16291   2.618   4.954   3.603
 5131SOL    HW116292   2.592   4.947   3.507
 5131SOL    HW216293   2.669   4.873   3.630
 5132SOL     OW16294   3.428   2.716   5.778
 5132SOL    HW116295   3.381   2.630   5.757
 5132SOL    HW216296   3.523   2.710   5.747
 5133SOL     OW16297   1.566   5.557   0.029
 5133SOL    HW116298   1.492   5.537   0.094
 5133SOL    HW216299   1.527   5.569   6.958
 5134SOL     OW16300   6.820   1.630   2.201
 5134SOL    HW116301   6.786   1.627   2.107
 5134SOL    HW216302   6.919   1.633   2.201
 5135SOL     OW16303   5.563   3.486   4.223
 5135SOL    HW116304   5.643   3.449   4.270
 5135SOL    HW216305   5.519   3.555   4.281
 5136SOL     OW16306   5.288   0.807   6.616
 5136SOL    HW116307   5.195   0.779   6.639
 5136SOL    HW216308   5.299   0.905   6.634
 5137SOL     OW16309   4.497   3.820   5.683
 5137SOL    HW116310   4.473   3.835   5.587
 5137SOL    HW216311   4.583   3.769   5.688
 5138SOL     OW16312   3.846   3.042   5.456
 5138SOL    HW116313   3.787   3.094   5.396
 5138SOL    HW216314   3.892   2.970   5.404
 5139SOL     OW16315   1.270   0.912   3.572
 5139SOL    HW116316   1.317   0.918   3.485
 5139SOL    HW216317   1.332   0.874   3.641
 5140SOL     OW16318   3.878   2.097   5.610
 5140SOL    HW116319   3.779   2.094   5.629
 5140SOL    HW216320   3.928   2.098   5.696
 5141SOL     OW16321   6.037   3.540   0.805
 5141SOL    HW116322   5.975   3.617   0.787
 5141SOL    HW216323   6.120   3.574   0.849
 5142SOL     OW16324   5.852   6.429   2.925
 5142SOL    HW116325   5.786   6.414   2.852
 5142SOL    HW216326   5.903   6.345   2.942
 5143SOL     OW16327   6.685   4.520   4.402
 5143SOL    HW116328   6.751   4.556   4.337
 5143SOL    HW216329   6.701   4.423   4.417
 5144SOL     OW16330   0.804   4.789   5.438
 5144SOL    HW116331   0.772   4.742   5.521
 5144SOL    HW216332   0.753   4.875   5.427
 5145SOL     OW16333   4.044   5.911   6.664
 5145SOL    HW116334   4.124   5.942   6.613
 5145SOL    HW216335   4.047   5.812   6.673
 5146SOL     OW16336   2.877   3.911   5.543
 5146SOL    HW116337   2.950   3.886   5.607
 5146SOL    HW216338   2.915   3.963   5.467
 5147SOL     OW16339   6.320   5.847   3.205
 5147SOL    HW116340   6.370   5.761   3.202
 5147SOL    HW216341   6.335   5.897   3.119
 5148SOL     OW16342   6.720   0.988   1.787
 5148SOL    HW116343   6.735   0.982   1.885
 5148SOL    HW216344   6.625   1.015   1.769
 5149SOL     OW16345   6.458   6.034   3.476
 5149SOL    HW116346   6.463   6.070   3.569
 5149SOL    HW216347   6.533   6.072   3.422
 5150SOL     OW16348   2.482   5.589   3.407
 5150SOL    HW116349   2.535   5.601   3.491
 5150SOL    HW216350   2.445   5.677   3.377
 5151SOL     OW16351   6.827   3.833   2.587
 5151SOL    HW116352   6.774   3.864   2.508
 5151SOL    HW216353   6.765   3.817   2.664
 5152SOL     OW16354   1.686   5.193   0.354
 5152SOL    HW116355   1.748   5.248   0.411
 5152SOL    HW216356   1.667   5.243   0.269
 5153SOL     OW16357   1.203   1.388   0.273
 5153SOL    HW116358   1.204   1.443   0.356
 5153SOL    HW216359   1.215   1.448   0.193
 5154SOL     OW16360   1.261   2.827   6.028
 5154SOL    HW116361   1.354   2.803   6.002
 5154SOL    HW216362   1.254   2.927   6.037
 5155SOL     OW16363   4.379   6.674   1.891
 5155SOL    HW116364   4.421   6.762   1.914
 5155SOL    HW216365   4.281   6.679   1.911
 5156SOL     OW16366   5.426   4.208   5.727
 5156SOL    HW116367   5.474   4.272   5.787
 5156SOL    HW216368   5.490   4.136   5.697
 5157SOL     OW16369   3.732   1.773   3.268
 5157SOL    HW116370   3.644   1.730   3.250
 5157SOL    HW216371   3.720   1.871   3.281
 5158SOL     OW16372   4.001   2.175   1.145
 5158SOL    HW116373   4.022   2.153   1.241
 5158SOL    HW216374   3.972   2.092   1.098
 5159SOL     OW16375   6.007   3.514   5.621
 5159SOL    HW116376   5.954   3.429   5.615
 5159SOL    HW216377   5.950   3.591   5.594
 5160SOL     OW16378   0.769   5.078   3.108
 5160SOL    HW116379   0.825   5.028   3.042
 5160SOL    HW216380   0.673   5.077   3.077
 5161SOL     OW16381   1.899   3.994   6.619
 5161SOL    HW116382   1.974   4.059   6.628
 5161SOL    HW216383   1.936   3.901   6.620
 5162SOL     OW16384   0.980   5.589   2.800
 5162SOL    HW116385   0.927   5.505   2.788
 5162SOL    HW216386   1.068   5.566   2.842
 5163SOL     OW16387   2.363   6.624   0.181
 5163SOL    HW116388   2.414   6.562   0.121
 5163SOL    HW216389   2.293   6.572   0.230
 5164SOL     OW16390   4.293   2.172   6.517
 5164SOL    HW116391   4.224   2.187   6.588
 5164SOL    HW216392   4.280   2.082   6.476
 5165SOL     OW16393   0.262   4.338   5.821
 5165SOL    HW116394   0.280   4.370   5.728
 5165SOL    HW216395   0.316   4.257   5.840
 5166SOL     OW16396   0.678   5.593   2.502
 5166SOL    HW116397   0.675   5.493   2.506
 5166SOL    HW216398   0.749   5.621   2.437
 5167SOL     OW16399   6.462   4.999   5.908
 5167SOL    HW116400   6.380   5.057   5.908
 5167SOL    HW216401   6.514   5.015   5.824
 5168SOL     OW16402   5.162   3.448   1.511
 5168SOL    HW116403   5.184   3.425   1.606
 5168SOL    HW216404   5.224   3.399   1.450
 5169SOL     OW16405   3.991   1.967   4.073
 5169SOL    HW116406   3.908   2.006   4.114
 5169SOL    HW216407   3.994   1.869   4.090
 5170SOL     OW16408   1.279   3.922   5.031
 5170SOL    HW116409   1.311   3.974   4.952
 5170SOL    HW216410   1.328   3.953   5.113
 5171SOL     OW16411   0.829   4.332   5.126
 5171SOL    HW116412   0.914   4.354   5.174
 5171SOL    HW216413   0.826   4.234   5.107
 5172SOL     OW16414   1.657   3.230   2.602
 5172SOL    HW116415   1.731   3.163   2.615
 5172SOL    HW216416   1.653   3.256   2.506
 5173SOL     OW16417   4.969   5.256   4.879
 5173SOL    HW116418   4.963   5.317   4.958
 5173SOL    HW216419   4.877   5.222   4.857
 5174SOL     OW16420   2.406   4.981   3.353
 5174SOL    HW116421   2.336   5.051   3.338
 5174SOL    HW216422   2.495   5.015   3.321
 5175SOL     OW16423   2.450   3.963   6.588
 5175SOL    HW116424   2.358   3.981   6.624
 5175SOL    HW216425   2.510   3.936   6.663
 5176SOL     OW16426   5.120   3.110   6.959
 5176SOL    HW116427   5.153   3.090   0.030
 5176SOL    HW216428   5.180   3.177   6.915
 5177SOL     OW16429   5.551   0.254   0.509
 5177SOL    HW116430   5.579   0.250   0.605
 5177SOL    HW216431   5.569   0.345   0.473
 5178SOL     OW16432   0.814   3.417   2.718
 5178SOL    HW116433   0.895   3.420   2.776
 5178SOL    HW216434   0.740   3.469   2.762
 5179SOL     OW16435   4.625   4.903   4.401
 5179SOL    HW116436   4.610   4.853   4.316
 5179SOL    HW216437   4.546   4.892   4.461
 5180SOL     OW16438   2.771   2.318   0.936
 5180SOL    HW116439   2.848   2.256   0.927
 5180SOL    HW216440   2.763   2.348   1.031
 5181SOL     OW16441   5.174   0.790   2.934
 5181SOL    HW116442   5.118   0.709   2.955
 5181SOL    HW216443   5.167   0.811   2.837
 5182SOL     OW16444   4.055   4.211   1.653
 5182SOL    HW116445   4.123   4.283   1.672
 5182SOL    HW216446   4.096   4.122   1.672
 5183SOL     OW16447   4.073   1.881   2.514
 5183SOL    HW116448   4.118   1.822   2.581
 5183SOL    HW216449   4.079   1.976   2.543
 5184SOL     OW16450   0.611   1.942   3.839
 5184SOL    HW116451   0.599   1.870   3.908
 5184SOL    HW216452   0.552   1.924   3.761
 5185SOL     OW16453   5.604   0.751   2.799
 5185SOL    HW116454   5.509   0.723   2.786
 5185SOL    HW216455   5.609   0.850   2.807
 5186SOL     OW16456   6.721   2.684   0.081
 5186SOL    HW116457   6.625   2.658   0.066
 5186SOL    HW216458   6.746   2.758   0.019
 5187SOL     OW16459   1.251   6.079   4.485
 5187SOL    HW116460   1.324   6.114   4.426
 5187SOL    HW216461   1.250   6.130   4.571
 5188SOL     OW16462   6.819   6.172   1.351
 5188SOL    HW116463   6.802   6.230   1.431
 5188SOL    HW216464   6.880   6.220   1.289
 5189SOL     OW16465   4.052   5.281   0.801
 5189SOL    HW116466   3.968   5.279   0.855
 5189SOL    HW216467   4.034   5.330   0.715
 5190SOL     OW16468   0.262   2.379   4.651
 5190SOL    HW116469   0.325   2.456   4.644
 5190SOL    HW216470   0.314   2.294   4.657
 5191SOL     OW16471   3.961   0.130   1.931
 5191SOL    HW116472   3.928   0.092   1.845
 5191SOL    HW216473   4.033   0.196   1.912
 5192SOL     OW16474   2.137   5.546   1.706
 5192SOL    HW116475   2.132   5.466   1.767
 5192SOL    HW216476   2.049   5.562   1.663
 5193SOL     OW16477   5.230   5.149   4.941
 5193SOL    HW116478   5.313   5.204   4.944
 5193SOL    HW216479   5.159   5.197   4.889
 5194SOL     OW16480   4.172   1.900   6.477
 5194SOL    HW116481   4.190   1.854   6.564
 5194SOL    HW216482   4.212   1.847   6.402
 5195SOL     OW16483   6.785   6.558   4.426
 5195SOL    HW116484   6.754   6.490   4.359
 5195SOL    HW216485   6.709   6.619   4.448
 5196SOL     OW16486   3.752   6.309   1.032
 5196SOL    HW116487   3.745   6.284   1.129
 5196SOL    HW216488   3.733   6.407   1.022
 5197SOL     OW16489   2.399   4.260   6.018
 5197SOL    HW116490   2.395   4.249   6.117
 5197SOL    HW216491   2.417   4.171   5.975
 5198SOL     OW16492   4.695   6.041   3.214
 5198SOL    HW116493   4.600   6.015   3.234
 5198SOL    HW216494   4.754   5.960   3.220
 5199SOL     OW16495   1.367   6.110   0.506
 5199SOL    HW116496   1.276   6.076   0.480
 5199SOL    HW216497   1.357   6.191   0.563
 5200SOL     OW16498   0.730   3.599   5.688
 5200SOL    HW116499   0.747   3.510   5.647
 5200SOL    HW216500   0.657   3.646   5.637
 5201SOL     OW16501   0.259   0.185   2.999
 5201SOL    HW116502   0.309   0.126   2.935
 5201SOL    HW216503   0.198   0.246   2.948
 5202SOL     OW16504   6.050   3.163   6.407
 5202SOL    HW116505   6.132   3.107   6.394
 5202SOL    HW216506   6.020   3.156   6.502
 5203SOL     OW16507   2.340   2.675   0.232
 5203SOL    HW116508   2.266   2.735   0.262
 5203SOL    HW216509   2.385   2.636   0.312
 5204SOL     OW16510   4.002   4.910   6.723
 5204SOL    HW116511   3.996   4.824   6.774
 5204SOL    HW216512   4.076   4.965   6.759
 5205SOL     OW16513   0.783   6.260   0.710
 5205SOL    HW116514   0.799   6.334   0.646
 5205SOL    HW216515   0.685   6.237   0.710
 5206SOL     OW16516   0.833   4.505   5.618
 5206SOL    HW116517   0.932   4.511   5.629
 5206SOL    HW216518   0.811   4.481   5.523
 5207SOL     OW16519   1.273   6.028   3.692
 5207SOL    HW116520   1.183   6.012   3.651
 5207SOL    HW216521   1.286   6.126   3.706
 5208SOL     OW16522   4.382   2.664   6.102
 5208SOL    HW116523   4.342   2.665   6.011
 5208SOL    HW216524   4.344   2.587   6.154
 5209SOL     OW16525   6.128   6.344   3.095
 5209SOL    HW116526   6.065   6.300   3.159
 5209SOL    HW216527   6.221   6.311   3.112
 5210SOL     OW16528   4.418   2.963   6.526
 5210SOL    HW116529   4.356   3.039   6.503
 5210SOL    HW216530   4.414   2.894   6.453
 5211SOL     OW16531   3.429   2.856   5.285
 5211SOL    HW116532   3.441   2.917   5.363
 5211SOL    HW216533   3.349   2.797   5.300
 5212SOL     OW16534   7.014   2.401   0.863
 5212SOL    HW116535   6.997   2.400   0.765
 5212SOL    HW216536   6.938   2.358   0.911
 5213SOL     OW16537   4.791   3.487   6.504
 5213SOL    HW116538   4.814   3.584   6.503
 5213SOL    HW216539   4.786   3.453   6.410
 5214SOL     OW16540   4.954   1.677   5.857
 5214SOL    HW116541   4.995   1.710   5.772
 5214SOL    HW216542   4.874   1.733   5.879
 5215SOL     OW16543   6.848   4.889   4.330
 5215SOL    HW116544   6.844   4.797   4.292
 5215SOL    HW216545   6.801   4.953   4.269
 5216SOL     OW16546   5.235   5.260   1.568
 5216SOL    HW116547   5.211   5.356   1.553
 5216SOL    HW216548   5.204   5.206   1.489
 5217SOL     OW16549   3.932   5.276   4.752
 5217SOL    HW116550   4.027   5.280   4.782
 5217SOL    HW216551   3.881   5.211   4.808
 5218SOL     OW16552   0.614   1.153   3.926
 5218SOL    HW116553   0.656   1.081   3.981
 5218SOL    HW216554   0.685   1.218   3.898
 5219SOL     OW16555   4.513   1.162   5.364
 5219SOL    HW116556   4.479   1.122   5.449
 5219SOL    HW216557   4.613   1.154   5.360
 5220SOL     OW16558   1.154   5.871   2.973
 5220SOL    HW116559   1.193   5.779   2.974
 5220SOL    HW216560   1.099   5.883   2.890
 5221SOL     OW16561   5.994   2.398   3.878
 5221SOL    HW116562   5.941   2.391   3.962
 5221SOL    HW216563   6.010   2.306   3.840
 5222SOL     OW16564   4.051   5.755   2.892
 5222SOL    HW116565   3.984   5.681   2.894
 5222SOL    HW216566   4.142   5.718   2.908
 5223SOL     OW16567   6.224   2.486   1.032
 5223SOL    HW116568   6.173   2.473   0.947
 5223SOL    HW216569   6.206   2.409   1.093
 5224SOL     OW16570   6.886   2.405   4.703
 5224SOL    HW116571   6.945   2.410   4.622
 5224SOL    HW216572   6.792   2.430   4.677
 5225SOL     OW16573   1.073   0.338   3.227
 5225SOL    HW116574   1.042   0.243   3.223
 5225SOL    HW216575   0.994   0.399   3.228
 5226SOL     OW16576   0.279   5.795   4.835
 5226SOL    HW116577   0.311   5.886   4.806
 5226SOL    HW216578   0.260   5.740   4.754
 5227SOL     OW16579   0.473   3.437   4.692
 5227SOL    HW116580   0.571   3.420   4.686
 5227SOL    HW216581   0.455   3.534   4.676
 5228SOL     OW16582   5.869   2.769   1.073
 5228SOL    HW116583   5.794   2.784   1.008
 5228SOL    HW216584   5.836   2.786   1.165
 5229SOL     OW16585   1.899   5.592   0.013
 5229SOL    HW116586   1.936   5.679   7.002
 5229SOL    HW216587   1.809   5.607   0.055
 5230SOL     OW16588   0.407   6.185   1.635
 5230SOL    HW116589   0.319   6.140   1.652
 5230SOL    HW216590   0.446   6.148   1.550
 5231SOL     OW16591   4.734   2.984   5.433
 5231SOL    HW116592   4.705   3.007   5.526
 5231SOL    HW216593   4.833   2.994   5.425
 5232SOL     OW16594   3.495   2.750   6.051
 5232SOL    HW116595   3.590   2.747   6.082
 5232SOL    HW216596   3.491   2.730   5.953
 5233SOL     OW16597   5.152   0.897   2.389
 5233SOL    HW116598   5.194   0.964   2.328
 5233SOL    HW216599   5.220   0.866   2.456
 5234SOL     OW16600   2.263   1.552   6.528
 5234SOL    HW116601   2.309   1.555   6.439
 5234SOL    HW216602   2.245   1.457   6.553
 5235SOL     OW16603   1.979   2.631   0.654
 5235SOL    HW116604   2.049   2.562   0.635
 5235SOL    HW216605   1.906   2.625   0.585
 5236SOL     OW16606   5.494   4.518   2.854
 5236SOL    HW116607   5.476   4.488   2.760
 5236SOL    HW216608   5.559   4.593   2.853
 5237SOL     OW16609   1.946   1.024   5.261
 5237SOL    HW116610   1.882   1.089   5.219
 5237SOL    HW216611   2.020   1.006   5.197
 5238SOL     OW16612   0.870   4.612   0.358
 5238SOL    HW116613   0.919   4.580   0.439
 5238SOL    HW216614   0.788   4.557   0.344
 5239SOL     OW16615   3.597   2.908   3.780
 5239SOL    HW116616   3.509   2.867   3.804
 5239SOL    HW216617   3.646   2.933   3.864
 5240SOL     OW16618   2.787   1.563   6.048
 5240SOL    HW116619   2.882   1.593   6.037
 5240SOL    HW216620   2.741   1.563   5.959
 5241SOL     OW16621   1.087   5.024   5.336
 5241SOL    HW116622   1.008   5.007   5.396
 5241SOL    HW216623   1.136   5.106   5.368
 5242SOL     OW16624   0.513   6.420   6.185
 5242SOL    HW116625   0.445   6.448   6.253
 5242SOL    HW216626   0.604   6.444   6.217
 5243SOL     OW16627   0.839   5.359   1.501
 5243SOL    HW116628   0.884   5.404   1.425
 5243SOL    HW216629   0.781   5.285   1.467
 5244SOL     OW16630   4.021   5.096   0.188
 5244SOL    HW116631   3.965   5.169   0.148
 5244SOL    HW216632   3.961   5.029   0.233
 5245SOL     OW16633   4.187   4.123   0.494
 5245SOL    HW116634   4.215   4.183   0.419
 5245SOL    HW216635   4.134   4.047   0.458
 5246SOL     OW16636   6.099   3.918   2.135
 5246SOL    HW116637   6.091   3.822   2.107
 5246SOL    HW216638   6.159   3.966   2.070
 5247SOL     OW16639   0.797   0.767   0.116
 5247SOL    HW116640   0.854   0.773   0.199
 5247SOL    HW216641   0.856   0.751   0.037
 5248SOL     OW16642   5.696   0.750   4.110
 5248SOL    HW116643   5.688   0.733   4.012
 5248SOL    HW216644   5.793   0.748   4.136
 5249SOL     OW16645   0.027   4.759   5.385
 5249SOL    HW116646   6.951   4.735   5.390
 5249SOL    HW216647   0.048   4.793   5.293
 5250SOL     OW16648   1.473   6.475   5.559
 5250SOL    HW116649   1.564   6.503   5.528
 5250SOL    HW216650   1.425   6.554   5.597
 5251SOL     OW16651   0.323   3.608   0.530
 5251SOL    HW116652   0.356   3.612   0.625
 5251SOL    HW216653   0.391   3.564   0.472
 5252SOL     OW16654   2.223   6.261   0.488
 5252SOL    HW116655   2.237   6.187   0.423
 5252SOL    HW216656   2.126   6.266   0.512
 5253SOL     OW16657   5.428   4.859   4.345
 5253SOL    HW116658   5.427   4.928   4.272
 5253SOL    HW216659   5.409   4.769   4.306
 5254SOL     OW16660   4.779   1.283   3.286
 5254SOL    HW116661   4.683   1.301   3.306
 5254SOL    HW216662   4.791   1.274   3.187
 5255SOL     OW16663   5.115   1.019   6.278
 5255SOL    HW116664   5.071   1.056   6.360
 5255SOL    HW216665   5.213   1.010   6.294
 5256SOL     OW16666   4.452   0.884   2.984
 5256SOL    HW116667   4.405   0.927   2.907
 5256SOL    HW216668   4.385   0.849   3.049
 5257SOL     OW16669   4.894   6.381   1.738
 5257SOL    HW116670   4.905   6.313   1.810
 5257SOL    HW216671   4.936   6.467   1.766
 5258SOL     OW16672   6.003   3.855   1.823
 5258SOL    HW116673   5.948   3.872   1.741
 5258SOL    HW216674   6.099   3.871   1.802
 5259SOL     OW16675   5.154   5.966   0.245
 5259SOL    HW116676   5.117   6.033   0.181
 5259SOL    HW216677   5.135   5.874   0.211
 5260SOL     OW16678   5.133   3.801   0.902
 5260SOL    HW116679   5.111   3.738   0.828
 5260SOL    HW216680   5.057   3.803   0.968
 5261SOL     OW16681   0.917   3.883   0.307
 5261SOL    HW116682   0.968   3.965   0.334
 5261SOL    HW216683   0.865   3.902   0.224
 5262SOL     OW16684   2.492   0.419   2.830
 5262SOL    HW116685   2.409   0.471   2.813
 5262SOL    HW216686   2.496   0.391   2.926
 5263SOL     OW16687   1.993   1.579   4.713
 5263SOL    HW116688   2.056   1.502   4.713
 5263SOL    HW216689   2.029   1.652   4.771
 5264SOL     OW16690   5.916   1.646   2.435
 5264SOL    HW116691   5.950   1.690   2.518
 5264SOL    HW216692   5.819   1.623   2.446
 5265SOL     OW16693   5.986   4.036   4.463
 5265SOL    HW116694   5.971   3.956   4.404
 5265SOL    HW216695   5.953   4.118   4.416
 5266SOL     OW16696   2.111   6.297   1.192
 5266SOL    HW116697   2.079   6.346   1.110
 5266SOL    HW216698   2.196   6.338   1.224
 5267SOL     OW16699   4.913   3.857   4.907
 5267SOL    HW116700   4.978   3.854   4.831
 5267SOL    HW216701   4.888   3.764   4.933
 5268SOL     OW16702   5.952   0.229   6.489
 5268SOL    HW116703   5.855   0.209   6.484
 5268SOL    HW216704   6.005   0.149   6.461
 5269SOL     OW16705   1.452   6.672   3.498
 5269SOL    HW116706   1.534   6.714   3.461
 5269SOL    HW216707   1.373   6.729   3.477
 5270SOL     OW16708   5.682   1.214   1.562
 5270SOL    HW116709   5.695   1.302   1.606
 5270SOL    HW216710   5.589   1.180   1.581
 5271SOL     OW16711   5.937   5.861   4.680
 5271SOL    HW116712   5.908   5.856   4.776
 5271SOL    HW216713   5.856   5.872   4.622
 5272SOL     OW16714   2.897   5.035   1.902
 5272SOL    HW116715   2.945   5.057   1.987
 5272SOL    HW216716   2.851   4.947   1.912
 5273SOL     OW16717   6.548   3.133   3.297
 5273SOL    HW116718   6.551   3.033   3.288
 5273SOL    HW216719   6.476   3.169   3.237
 5274SOL     OW16720   6.285   6.815   1.892
 5274SOL    HW116721   6.380   6.836   1.915
 5274SOL    HW216722   6.278   6.797   1.794
 5275SOL     OW16723   3.432   2.128   6.821
 5275SOL    HW116724   3.448   2.105   6.725
 5275SOL    HW216725   3.505   2.087   6.877
 5276SOL     OW16726   1.349   0.401   0.672
 5276SOL    HW116727   1.444   0.368   0.672
 5276SOL    HW216728   1.287   0.327   0.648
 5277SOL     OW16729   1.540   1.955   3.186
 5277SOL    HW116730   1.560   2.033   3.128
 5277SOL    HW216731   1.445   1.959   3.216
 5278SOL     OW16732   5.371   0.081   3.720
 5278SOL    HW116733   5.415   0.033   3.644
 5278SOL    HW216734   5.440   0.136   3.768
 5279SOL     OW16735   1.534   5.109   6.826
 5279SOL    HW116736   1.586   5.157   6.756
 5279SOL    HW216737   1.573   5.128   6.916
 5280SOL     OW16738   3.512   6.488   5.075
 5280SOL    HW116739   3.529   6.548   4.996
 5280SOL    HW216740   3.483   6.543   5.153
 5281SOL     OW16741   0.810   2.000   2.442
 5281SOL    HW116742   0.767   2.086   2.415
 5281SOL    HW216743   0.740   1.934   2.467
 5282SOL     OW16744   2.650   1.478   3.296
 5282SOL    HW116745   2.670   1.423   3.215
 5282SOL    HW216746   2.574   1.540   3.276
 5283SOL     OW16747   4.395   6.301   1.322
 5283SOL    HW116748   4.416   6.376   1.384
 5283SOL    HW216749   4.307   6.318   1.277
 5284SOL     OW16750   5.327   3.778   3.526
 5284SOL    HW116751   5.239   3.734   3.507
 5284SOL    HW216752   5.373   3.797   3.439
 5285SOL     OW16753   2.042   4.527   3.539
 5285SOL    HW116754   1.994   4.614   3.548
 5285SOL    HW216755   1.998   4.459   3.597
 5286SOL     OW16756   1.606   3.421   1.446
 5286SOL    HW116757   1.549   3.476   1.385
 5286SOL    HW216758   1.615   3.328   1.410
 5287SOL     OW16759   1.706   6.536   1.207
 5287SOL    HW116760   1.681   6.545   1.111
 5287SOL    HW216761   1.719   6.439   1.229
 5288SOL     OW16762   3.831   0.016   1.701
 5288SOL    HW116763   3.816   6.939   1.711
 5288SOL    HW216764   3.797   0.046   1.612
 5289SOL     OW16765   1.600   5.374   5.914
 5289SOL    HW116766   1.648   5.353   5.829
 5289SOL    HW216767   1.541   5.296   5.938
 5290SOL     OW16768   1.743   4.706   5.206
 5290SOL    HW116769   1.801   4.653   5.267
 5290SOL    HW216770   1.797   4.780   5.165
 5291SOL     OW16771   2.492   5.552   5.379
 5291SOL    HW116772   2.478   5.468   5.327
 5291SOL    HW216773   2.420   5.618   5.356
 5292SOL     OW16774   6.910   3.768   0.153
 5292SOL    HW116775   6.985   3.788   0.217
 5292SOL    HW216776   6.843   3.709   0.198
 5293SOL     OW16777   1.143   0.612   4.035
 5293SOL    HW116778   1.073   0.540   4.033
 5293SOL    HW216779   1.130   0.669   4.116
 5294SOL     OW16780   4.947   3.360   5.566
 5294SOL    HW116781   4.993   3.448   5.580
 5294SOL    HW216782   4.854   3.376   5.534
 5295SOL     OW16783   4.875   0.153   2.443
 5295SOL    HW116784   4.885   0.080   2.511
 5295SOL    HW216785   4.966   0.186   2.416
 5296SOL     OW16786   1.618   5.494   0.425
 5296SOL    HW116787   1.623   5.504   0.524
 5296SOL    HW216788   1.690   5.548   0.382
 5297SOL     OW16789   3.419   1.974   1.026
 5297SOL    HW116790   3.480   1.999   0.951
 5297SOL    HW216791   3.416   1.875   1.036
 5298SOL     OW16792   1.058   5.935   6.361
 5298SOL    HW116793   0.968   5.954   6.323
 5298SOL    HW216794   1.097   5.855   6.316
 5299SOL     OW16795   2.779   2.357   1.207
 5299SOL    HW116796   2.791   2.456   1.214
 5299SOL    HW216797   2.684   2.333   1.227
 5300SOL     OW16798   0.057   6.512   1.861
 5300SOL    HW116799   0.023   6.583   1.798
 5300SOL    HW216800   0.152   6.531   1.885
 5301SOL     OW16801   4.385   2.799   0.859
 5301SOL    HW116802   4.415   2.743   0.781
 5301SOL    HW216803   4.434   2.769   0.941
 5302SOL     OW16804   6.377   4.648   2.738
 5302SOL    HW116805   6.391   4.626   2.642
 5302SOL    HW216806   6.433   4.727   2.763
 5303SOL     OW16807   6.978   5.812   2.841
 5303SOL    HW116808   6.932   5.854   2.920
 5303SOL    HW216809   0.013   5.735   2.872
 5304SOL     OW16810   6.244   1.247   6.675
 5304SOL    HW116811   6.161   1.229   6.727
 5304SOL    HW216812   6.314   1.180   6.698
 5305SOL     OW16813   1.126   5.679   4.217
 5305SOL    HW116814   1.041   5.629   4.198
 5305SOL    HW216815   1.107   5.758   4.274
 5306SOL     OW16816   0.595   5.219   5.061
 5306SOL    HW116817   0.534   5.298   5.073
 5306SOL    HW216818   0.676   5.231   5.118
 5307SOL     OW16819   4.385   0.071   6.772
 5307SOL    HW116820   4.364   0.058   6.869
 5307SOL    HW216821   4.302   0.095   6.722
 5308SOL     OW16822   0.956   6.001   3.785
 5308SOL    HW116823   0.870   6.044   3.810
 5308SOL    HW216824   0.938   5.914   3.738
 5309SOL     OW16825   3.798   4.285   1.707
 5309SOL    HW116826   3.781   4.383   1.706
 5309SOL    HW216827   3.895   4.267   1.691
 5310SOL     OW16828   6.049   3.024   1.123
 5310SOL    HW116829   6.017   2.934   1.154
 5310SOL    HW216830   6.149   3.026   1.126
 5311SOL     OW16831   6.947   6.350   1.186
 5311SOL    HW116832   6.962   6.416   1.260
 5311SOL    HW216833   7.016   6.364   1.115
 5312SOL     OW16834   0.580   3.857   1.985
 5312SOL    HW116835   0.637   3.808   1.919
 5312SOL    HW216836   0.619   3.850   2.076
 5313SOL     OW16837   0.970   3.942   6.713
 5313SOL    HW116838   0.876   3.929   6.745
 5313SOL    HW216839   0.989   4.040   6.704
 5314SOL     OW16840   3.465   6.239   0.438
 5314SOL    HW116841   3.513   6.327   0.429
 5314SOL    HW216842   3.532   6.165   0.435
 5315SOL     OW16843   3.712   3.544   1.395
 5315SOL    HW116844   3.632   3.603   1.384
 5315SOL    HW216845   3.694   3.475   1.465
 5316SOL     OW16846   0.004   4.310   4.766
 5316SOL    HW116847   6.955   4.265   4.711
 5316SOL    HW216848   7.004   4.407   4.773
 5317SOL     OW16849   0.208   0.380   4.731
 5317SOL    HW116850   0.258   0.301   4.696
 5317SOL    HW216851   0.271   0.443   4.776
 5318SOL     OW16852   0.276   1.795   5.648
 5318SOL    HW116853   0.329   1.814   5.730
 5318SOL    HW216854   0.210   1.868   5.633
 5319SOL     OW16855   4.815   6.622   6.534
 5319SOL    HW116856   4.794   6.583   6.624
 5319SOL    HW216857   4.855   6.712   6.545
 5320SOL     OW16858   5.842   4.786   6.739
 5320SOL    HW116859   5.758   4.773   6.686
 5320SOL    HW216860   5.864   4.703   6.789
 5321SOL     OW16861   0.711   4.036   2.728
 5321SOL    HW116862   0.635   3.971   2.717
 5321SOL    HW216863   0.699   4.086   2.814
 5322SOL     OW16864   3.625   6.064   6.025
 5322SOL    HW116865   3.528   6.087   6.035
 5322SOL    HW216866   3.667   6.053   6.115
 5323SOL     OW16867   4.002   3.071   6.996
 5323SOL    HW116868   4.085   3.082   6.941
 5323SOL    HW216869   3.995   3.148   0.039
 5324SOL     OW16870   3.824   2.199   1.672
 5324SOL    HW116871   3.767   2.250   1.737
 5324SOL    HW216872   3.894   2.148   1.723
 5325SOL     OW16873   5.653   7.015   4.011
 5325SOL    HW116874   5.635   6.934   3.955
 5325SOL    HW216875   5.751   0.012   4.016
 5326SOL     OW16876   7.014   5.935   3.416
 5326SOL    HW116877   7.018   5.955   3.514
 5326SOL    HW216878   6.985   5.840   3.403
 5327SOL     OW16879   5.861   4.769   5.180
 5327SOL    HW116880   5.856   4.671   5.159
 5327SOL    HW216881   5.777   4.814   5.148
 5328SOL     OW16882   4.494   2.841   5.809
 5328SOL    HW116883   4.588   2.821   5.783
 5328SOL    HW216884   4.494   2.910   5.881
 5329SOL     OW16885   0.160   4.022   0.486
 5329SOL    HW116886   0.128   4.086   0.556
 5329SOL    HW216887   0.103   3.940   0.489
 5330SOL     OW16888   3.873   3.732   6.573
 5330SOL    HW116889   3.911   3.818   6.539
 5330SOL    HW216890   3.845   3.674   6.496
 5331SOL     OW16891   5.622   0.562   1.649
 5331SOL    HW116892   5.705   0.612   1.674
 5331SOL    HW216893   5.645   0.467   1.628
 5332SOL     OW16894   0.340   4.429   0.389
 5332SOL    HW116895   0.377   4.439   0.482
 5332SOL    HW216896   0.349   4.334   0.360
 5333SOL     OW16897   0.873   0.608   3.520
 5333SOL    HW116898   0.841   0.535   3.581
 5333SOL    HW216899   0.950   0.656   3.562
 5334SOL     OW16900   3.352   5.996   5.107
 5334SOL    HW116901   3.309   6.038   5.187
 5334SOL    HW216902   3.446   5.969   5.128
 5335SOL     OW16903   7.011   4.880   2.049
 5335SOL    HW116904   0.028   4.972   2.043
 5335SOL    HW216905   6.919   4.879   2.009
 5336SOL     OW16906   2.326   1.447   3.633
 5336SOL    HW116907   2.325   1.545   3.656
 5336SOL    HW216908   2.418   1.421   3.605
 5337SOL     OW16909   5.149   5.025   1.756
 5337SOL    HW116910   5.113   5.057   1.668
 5337SOL    HW216911   5.083   4.963   1.799
 5338SOL     OW16912   5.836   0.805   5.769
 5338SOL    HW116913   5.786   0.806   5.856
 5338SOL    HW216914   5.829   0.896   5.726
 5339SOL     OW16915   5.825   1.060   3.056
 5339SOL    HW116916   5.728   1.041   3.039
 5339SOL    HW216917   5.835   1.145   3.107
 5340SOL     OW16918   5.731   3.895   1.169
 5340SOL    HW116919   5.638   3.897   1.205
 5340SOL    HW216920   5.745   3.972   1.106
 5341SOL     OW16921   3.138   5.378   5.276
 5341SOL    HW116922   3.064   5.444   5.291
 5341SOL    HW216923   3.210   5.393   5.343
 5342SOL     OW16924   5.104   6.352   5.167
 5342SOL    HW116925   5.122   6.447   5.142
 5342SOL    HW216926   5.144   6.291   5.099
 5343SOL     OW16927   4.177   3.437   5.103
 5343SOL    HW116928   4.161   3.497   5.024
 5343SOL    HW216929   4.238   3.483   5.167
 5344SOL     OW16930   1.577   1.986   1.348
 5344SOL    HW116931   1.613   1.948   1.262
 5344SOL    HW216932   1.477   1.976   1.349
 5345SOL     OW16933   5.267   6.736   0.167
 5345SOL    HW116934   5.337   6.685   0.117
 5345SOL    HW216935   5.190   6.754   0.107
 5346SOL     OW16936   2.628   5.663   3.637
 5346SOL    HW116937   2.706   5.711   3.678
 5346SOL    HW216938   2.543   5.699   3.675
 5347SOL     OW16939   0.637   3.070   2.627
 5347SOL    HW116940   0.560   3.007   2.615
 5347SOL    HW216941   0.657   3.115   2.540
 5348SOL     OW16942   6.717   1.206   6.926
 5348SOL    HW116943   6.655   1.232   7.000
 5348SOL    HW216944   6.772   1.128   6.955
 5349SOL     OW16945   1.960   3.726   0.127
 5349SOL    HW116946   1.982   3.635   0.090
 5349SOL    HW216947   1.882   3.718   0.189
 5350SOL     OW16948   1.883   0.140   4.745
 5350SOL    HW116949   1.939   0.072   4.793
 5350SOL    HW216950   1.872   0.114   4.650
 5351SOL     OW16951   6.951   5.586   2.193
 5351SOL    HW116952   6.991   5.675   2.212
 5351SOL    HW216953   6.903   5.589   2.105
 5352SOL     OW16954   2.353   4.781   2.801
 5352SOL    HW116955   2.285   4.814   2.867
 5352SOL    HW216956   2.373   4.853   2.734
 5353SOL     OW16957   3.773   5.459   4.316
 5353SOL    HW116958   3.783   5.367   4.278
 5353SOL    HW216959   3.843   5.473   4.386
 5354SOL     OW16960   2.100   4.478   1.418
 5354SOL    HW116961   2.042   4.550   1.380
 5354SOL    HW216962   2.193   4.487   1.381
 5355SOL     OW16963   5.659   4.861   4.060
 5355SOL    HW116964   5.713   4.849   3.976
 5355SOL    HW216965   5.652   4.959   4.081
 5356SOL     OW16966   6.618   3.596   2.808
 5356SOL    HW116967   6.631   3.695   2.802
 5356SOL    HW216968   6.666   3.561   2.889
 5357SOL     OW16969   2.882   5.763   0.577
 5357SOL    HW116970   2.951   5.741   0.646
 5357SOL    HW216971   2.854   5.858   0.586
 5358SOL     OW16972   4.543   2.046   0.560
 5358SOL    HW116973   4.511   2.131   0.603
 5358SOL    HW216974   4.487   2.026   0.480
 5359SOL     OW16975   2.739   1.602   6.300
 5359SOL    HW116976   2.738   1.516   6.350
 5359SOL    HW216977   2.762   1.586   6.204
 5360SOL     OW16978   3.812   6.354   3.588
 5360SOL    HW116979   3.804   6.382   3.492
 5360SOL    HW216980   3.730   6.382   3.638
 5361SOL     OW16981   2.611   6.841   4.842
 5361SOL    HW116982   2.601   6.929   4.796
 5361SOL    HW216983   2.522   6.797   4.850
 5362SOL     OW16984   6.557   6.281   2.330
 5362SOL    HW116985   6.592   6.286   2.237
 5362SOL    HW216986   6.608   6.213   2.382
 5363SOL     OW16987   6.287   6.068   5.831
 5363SOL    HW116988   6.332   6.004   5.894
 5363SOL    HW216989   6.295   6.161   5.868
 5364SOL     OW16990   6.253   0.393   1.319
 5364SOL    HW116991   6.304   0.449   1.384
 5364SOL    HW216992   6.169   0.360   1.363
 5365SOL     OW16993   3.625   3.102   2.003
 5365SOL    HW116994   3.719   3.104   2.036
 5365SOL    HW216995   3.563   3.126   2.077
 5366SOL     OW16996   6.030   6.273   1.182
 5366SOL    HW116997   5.998   6.317   1.098
 5366SOL    HW216998   6.041   6.175   1.166
 5367SOL     OW16999   0.415   6.858   1.726
 5367SOL    HW117000   0.365   6.928   1.674
 5367SOL    HW217001   0.461   6.901   1.803
 5368SOL     OW17002   5.790   0.205   2.534
 5368SOL    HW117003   5.885   0.222   2.560
 5368SOL    HW217004   5.783   0.113   2.495
 5369SOL     OW17005   2.441   6.805   0.787
 5369SOL    HW117006   2.458   6.707   0.793
 5369SOL    HW217007   2.433   6.843   0.879
 5370SOL     OW17008   4.686   3.631   0.577
 5370SOL    HW117009   4.644   3.557   0.526
 5370SOL    HW217010   4.705   3.708   0.515
 5371SOL     OW17011   1.127   4.491   5.647
 5371SOL    HW117012   1.198   4.557   5.622
 5371SOL    HW217013   1.161   4.432   5.719
 5372SOL     OW17014   1.130   6.216   2.827
 5372SOL    HW117015   1.037   6.199   2.860
 5372SOL    HW217016   1.173   6.287   2.883
 5373SOL     OW17017   3.883   5.963   5.133
 5373SOL    HW117018   3.906   6.054   5.167
 5373SOL    HW217019   3.799   5.931   5.178
 5374SOL     OW17020   2.093   4.967   0.952
 5374SOL    HW117021   2.172   4.953   1.011
 5374SOL    HW217022   2.058   4.878   0.922
 5375SOL     OW17023   0.436   5.803   5.111
 5375SOL    HW117024   0.377   5.819   5.032
 5375SOL    HW217025   0.484   5.716   5.100
 5376SOL     OW17026   1.279   2.710   1.630
 5376SOL    HW117027   1.350   2.723   1.699
 5376SOL    HW217028   1.315   2.732   1.540
 5377SOL     OW17029   0.772   0.413   2.249
 5377SOL    HW117030   0.702   0.395   2.319
 5377SOL    HW217031   0.845   0.345   2.257
 5378SOL     OW17032   6.863   0.053   2.725
 5378SOL    HW117033   6.924   7.009   2.770
 5378SOL    HW217034   6.785   0.072   2.784
 5379SOL     OW17035   1.036   3.680   4.699
 5379SOL    HW117036   0.947   3.642   4.725
 5379SOL    HW217037   1.085   3.615   4.641
 5380SOL     OW17038   3.237   7.008   1.910
 5380SOL    HW117039   3.330   6.984   1.880
 5380SOL    HW217040   3.224   6.980   2.005
 5381SOL     OW17041   6.603   6.080   2.012
 5381SOL    HW117042   6.613   6.169   2.056
 5381SOL    HW217043   6.572   6.093   1.918
 5382SOL     OW17044   3.100   2.018   2.181
 5382SOL    HW117045   3.026   2.083   2.168
 5382SOL    HW217046   3.071   1.945   2.243
 5383SOL     OW17047   1.939   3.149   4.687
 5383SOL    HW117048   1.861   3.192   4.732
 5383SOL    HW217049   2.024   3.184   4.726
 5384SOL     OW17050   5.181   0.086   4.924
 5384SOL    HW117051   5.235   0.015   4.879
 5384SOL    HW217052   5.232   0.172   4.925
 5385SOL     OW17053   3.961   3.330   5.236
 5385SOL    HW117054   3.868   3.311   5.206
 5385SOL    HW217055   4.008   3.386   5.168
 5386SOL     OW17056   4.780   1.681   3.407
 5386SOL    HW117057   4.743   1.705   3.497
 5386SOL    HW217058   4.712   1.699   3.337
 5387SOL     OW17059   2.282   6.644   2.580
 5387SOL    HW117060   2.291   6.597   2.668
 5387SOL    HW217061   2.373   6.661   2.542
 5388SOL     OW17062   0.819   0.910   3.241
 5388SOL    HW117063   0.771   0.850   3.305
 5388SOL    HW217064   0.908   0.871   3.220
 5389SOL     OW17065   4.267   1.292   3.645
 5389SOL    HW117066   4.287   1.389   3.633
 5389SOL    HW217067   4.334   1.238   3.593
 5390SOL     OW17068   5.674   3.672   3.214
 5390SOL    HW117069   5.668   3.609   3.292
 5390SOL    HW217070   5.675   3.620   3.129
 5391SOL     OW17071   2.097   1.879   0.452
 5391SOL    HW117072   2.184   1.849   0.413
 5391SOL    HW217073   2.112   1.908   0.547
 5392SOL     OW17074   5.865   3.725   1.006
 5392SOL    HW117075   5.831   3.788   1.076
 5392SOL    HW217076   5.904   3.644   1.050
 5393SOL     OW17077   4.316   0.559   5.064
 5393SOL    HW117078   4.335   0.462   5.051
 5393SOL    HW217079   4.219   0.570   5.085
 5394SOL     OW17080   0.346   5.974   1.413
 5394SOL    HW117081   0.349   5.899   1.347
 5394SOL    HW217082   0.291   5.947   1.491
 5395SOL     OW17083   5.075   0.351   1.032
 5395SOL    HW117084   5.050   0.254   1.028
 5395SOL    HW217085   4.998   0.405   1.065
 5396SOL     OW17086   5.401   4.810   1.032
 5396SOL    HW117087   5.413   4.723   0.984
 5396SOL    HW217088   5.431   4.800   1.127
 5397SOL     OW17089   0.232   2.070   1.053
 5397SOL    HW117090   0.237   2.084   0.955
 5397SOL    HW217091   0.304   2.123   1.098
 5398SOL     OW17092   3.276   2.025   4.088
 5398SOL    HW117093   3.275   1.932   4.051
 5398SOL    HW217094   3.184   2.064   4.083
 5399SOL     OW17095   2.605   6.326   6.368
 5399SOL    HW117096   2.645   6.363   6.451
 5399SOL    HW217097   2.655   6.360   6.288
 5400SOL     OW17098   2.811   3.647   6.676
 5400SOL    HW117099   2.907   3.645   6.648
 5400SOL    HW217100   2.753   3.661   6.596
 5401SOL     OW17101   5.716   4.384   2.210
 5401SOL    HW117102   5.774   4.447   2.158
 5401SOL    HW217103   5.739   4.391   2.307
 5402SOL     OW17104   2.872   6.189   1.226
 5402SOL    HW117105   2.835   6.189   1.319
 5402SOL    HW217106   2.971   6.180   1.230
 5403SOL     OW17107   4.940   3.241   6.104
 5403SOL    HW117108   4.955   3.189   6.188
 5403SOL    HW217109   4.933   3.338   6.126
 5404SOL     OW17110   1.017   0.959   2.186
 5404SOL    HW117111   0.933   0.969   2.133
 5404SOL    HW217112   1.018   0.870   2.231
 5405SOL     OW17113   5.625   4.939   0.382
 5405SOL    HW117114   5.550   4.945   0.447
 5405SOL    HW217115   5.617   5.014   0.315
 5406SOL     OW17116   1.687   0.582   5.143
 5406SOL    HW117117   1.646   0.500   5.182
 5406SOL    HW217118   1.692   0.573   5.043
 5407SOL     OW17119   3.409   2.015   1.333
 5407SOL    HW117120   3.458   1.980   1.253
 5407SOL    HW217121   3.369   2.104   1.310
 5408SOL     OW17122   4.322   0.334   4.684
 5408SOL    HW117123   4.303   0.259   4.620
 5408SOL    HW217124   4.409   0.318   4.730
 5409SOL     OW17125   6.859   1.916   3.182
 5409SOL    HW117126   6.781   1.881   3.129
 5409SOL    HW217127   6.928   1.844   3.192
 5410SOL     OW17128   0.742   2.484   6.400
 5410SOL    HW117129   0.730   2.527   6.311
 5410SOL    HW217130   0.835   2.446   6.406
 5411SOL     OW17131   5.463   5.391   6.012
 5411SOL    HW117132   5.446   5.292   6.015
 5411SOL    HW217133   5.462   5.428   6.105
 5412SOL     OW17134   3.325   1.568   6.872
 5412SOL    HW117135   3.279   1.590   6.958
 5412SOL    HW217136   3.257   1.557   6.799
 5413SOL     OW17137   6.965   0.615   6.661
 5413SOL    HW117138   6.979   0.517   6.680
 5413SOL    HW217139   6.930   0.626   6.568
 5414SOL     OW17140   6.086   4.246   5.130
 5414SOL    HW117141   6.000   4.207   5.097
 5414SOL    HW217142   6.069   4.291   5.218
 5415SOL     OW17143   1.892   6.702   1.426
 5415SOL    HW117144   1.989   6.723   1.437
 5415SOL    HW217145   1.876   6.660   1.337
 5416SOL     OW17146   2.856   5.048   5.282
 5416SOL    HW117147   2.906   5.077   5.200
 5416SOL    HW217148   2.813   4.960   5.265
 5417SOL     OW17149   4.417   6.774   4.461
 5417SOL    HW117150   4.500   6.829   4.463
 5417SOL    HW217151   4.342   6.823   4.506
 5418SOL     OW17152   5.409   6.645   4.907
 5418SOL    HW117153   5.417   6.605   4.816
 5418SOL    HW217154   5.500   6.669   4.941
 5419SOL     OW17155   3.398   5.646   0.974
 5419SOL    HW117156   3.414   5.744   0.981
 5419SOL    HW217157   3.307   5.629   0.934
 5420SOL     OW17158   2.175   2.609   1.721
 5420SOL    HW117159   2.109   2.574   1.787
 5420SOL    HW217160   2.208   2.534   1.664
 5421SOL     OW17161   3.133   5.236   2.822
 5421SOL    HW117162   3.125   5.165   2.752
 5421SOL    HW217163   3.229   5.264   2.831
 5422SOL     OW17164   0.518   5.035   4.051
 5422SOL    HW117165   0.471   4.947   4.042
 5422SOL    HW217166   0.542   5.070   3.960
 5423SOL     OW17167   5.578   4.643   0.628
 5423SOL    HW117168   5.670   4.604   0.626
 5423SOL    HW217169   5.541   4.646   0.535
 5424SOL     OW17170   5.820   4.338   4.565
 5424SOL    HW117171   5.790   4.259   4.619
 5424SOL    HW217172   5.825   4.312   4.469
 5425SOL     OW17173   5.316   2.208   5.006
 5425SOL    HW117174   5.265   2.279   5.054
 5425SOL    HW217175   5.414   2.230   5.008
 5426SOL     OW17176   6.136   5.640   2.780
 5426SOL    HW117177   6.150   5.635   2.681
 5426SOL    HW217178   6.037   5.640   2.799
 5427SOL     OW17179   5.067   3.803   0.308
 5427SOL    HW117180   5.009   3.837   0.233
 5427SOL    HW217181   5.068   3.871   0.382
 5428SOL     OW17182   5.603   6.980   2.126
 5428SOL    HW117183   5.578   0.034   2.188
 5428SOL    HW217184   5.702   6.966   2.129
 5429SOL     OW17185   2.500   0.638   6.435
 5429SOL    HW117186   2.555   0.558   6.457
 5429SOL    HW217187   2.534   0.718   6.485
 5430SOL     OW17188   1.983   2.666   5.736
 5430SOL    HW117189   2.024   2.697   5.651
 5430SOL    HW217190   2.053   2.625   5.794
 5431SOL     OW17191   3.023   4.240   6.447
 5431SOL    HW117192   3.103   4.200   6.401
 5431SOL    HW217193   3.029   4.340   6.443
 5432SOL     OW17194   3.699   5.141   6.643
 5432SOL    HW117195   3.639   5.126   6.565
 5432SOL    HW217196   3.686   5.068   6.710
 5433SOL     OW17197   0.998   1.271   2.690
 5433SOL    HW117198   0.992   1.171   2.692
 5433SOL    HW217199   0.925   1.308   2.632
 5434SOL     OW17200   4.066   0.472   4.226
 5434SOL    HW117201   4.018   0.504   4.144
 5434SOL    HW217202   4.154   0.519   4.234
 5435SOL     OW17203   6.432   2.418   0.770
 5435SOL    HW117204   6.396   2.329   0.797
 5435SOL    HW217205   6.472   2.412   0.679
 5436SOL     OW17206   5.810   4.515   3.520
 5436SOL    HW117207   5.718   4.512   3.480
 5436SOL    HW217208   5.857   4.429   3.500
 5437SOL     OW17209   2.639   5.484   4.911
 5437SOL    HW117210   2.722   5.535   4.889
 5437SOL    HW217211   2.620   5.418   4.839
 5438SOL     OW17212   5.981   3.107   2.154
 5438SOL    HW117213   5.900   3.052   2.172
 5438SOL    HW217214   5.993   3.174   2.227
 5439SOL     OW17215   0.628   2.415   0.297
 5439SOL    HW117216   0.564   2.450   0.366
 5439SOL    HW217217   0.580   2.403   0.210
 5440SOL     OW17218   6.518   6.570   3.501
 5440SOL    HW117219   6.605   6.545   3.459
 5440SOL    HW217220   6.514   6.535   3.595
 5441SOL     OW17221   4.899   3.311   3.586
 5441SOL    HW117222   4.843   3.230   3.602
 5441SOL    HW217223   4.925   3.351   3.674
 5442SOL     OW17224   3.858   6.949   2.850
 5442SOL    HW117225   3.810   0.001   2.802
 5442SOL    HW217226   3.951   6.940   2.813
 5443SOL     OW17227   3.876   5.417   3.673
 5443SOL    HW117228   3.790   5.401   3.722
 5443SOL    HW217229   3.896   5.514   3.671
 5444SOL     OW17230   0.340   1.041   3.147
 5444SOL    HW117231   0.404   0.978   3.191
 5444SOL    HW217232   0.246   1.014   3.170
 5445SOL     OW17233   6.360   4.265   3.937
 5445SOL    HW117234   6.413   4.199   3.991
 5445SOL    HW217235   6.393   4.357   3.957
 5446SOL     OW17236   5.762   5.455   4.776
 5446SOL    HW117237   5.710   5.377   4.742
 5446SOL    HW217238   5.860   5.436   4.771
 5447SOL     OW17239   1.568   1.549   0.452
 5447SOL    HW117240   1.610   1.603   0.525
 5447SOL    HW217241   1.473   1.576   0.441
 5448SOL     OW17242   4.770   4.795   4.098
 5448SOL    HW117243   4.864   4.823   4.077
 5448SOL    HW217244   4.706   4.851   4.044
 5449SOL     OW17245   2.069   1.801   0.815
 5449SOL    HW117246   1.999   1.869   0.792
 5449SOL    HW217247   2.158   1.833   0.785
 5450SOL     OW17248   3.427   0.475   1.176
 5450SOL    HW117249   3.465   0.455   1.086
 5450SOL    HW217250   3.492   0.451   1.247
 5451SOL     OW17251   2.355   6.331   3.641
 5451SOL    HW117252   2.304   6.413   3.614
 5451SOL    HW217253   2.323   6.300   3.731
 5452SOL     OW17254   2.241   4.100   0.767
 5452SOL    HW117255   2.241   4.056   0.857
 5452SOL    HW217256   2.304   4.051   0.707
 5453SOL     OW17257   5.480   4.435   2.570
 5453SOL    HW117258   5.391   4.398   2.600
 5453SOL    HW217259   5.482   4.439   2.470
 5454SOL     OW17260   4.995   5.713   0.026
 5454SOL    HW117261   5.051   5.697   0.107
 5454SOL    HW217262   5.007   5.638   6.982
 5455SOL     OW17263   0.051   2.743   3.607
 5455SOL    HW117264   0.100   2.805   3.546
 5455SOL    HW217265   0.117   2.688   3.658
 5456SOL     OW17266   3.276   0.720   6.794
 5456SOL    HW117267   3.210   0.725   6.869
 5456SOL    HW217268   3.357   0.774   6.817
 5457SOL     OW17269   6.702   1.864   1.423
 5457SOL    HW117270   6.666   1.800   1.355
 5457SOL    HW217271   6.632   1.883   1.492
 5458SOL     OW17272   0.168   5.408   0.136
 5458SOL    HW117273   0.112   5.489   0.119
 5458SOL    HW217274   0.216   5.382   0.052
 5459SOL     OW17275   2.456   4.016   5.874
 5459SOL    HW117276   2.477   4.073   5.794
 5459SOL    HW217277   2.379   3.955   5.853
 5460SOL     OW17278   3.575   0.328   2.943
 5460SOL    HW117279   3.556   0.239   2.901
 5460SOL    HW217280   3.656   0.368   2.901
 5461SOL     OW17281   0.395   6.981   4.949
 5461SOL    HW117282   0.440   6.943   5.029
 5461SOL    HW217283   0.330   0.031   4.977
 5462SOL     OW17284   5.691   6.343   6.914
 5462SOL    HW117285   5.746   6.285   6.853
 5462SOL    HW217286   5.664   6.426   6.865
 5463SOL     OW17287   0.447   2.021   0.152
 5463SOL    HW117288   0.453   2.063   0.242
 5463SOL    HW217289   0.509   1.942   0.148
 5464SOL     OW17290   5.830   6.686   5.063
 5464SOL    HW117291   5.859   6.658   5.154
 5464SOL    HW217292   5.910   6.700   5.005
 5465SOL     OW17293   5.629   0.180   3.800
 5465SOL    HW117294   5.622   0.140   3.891
 5465SOL    HW217295   5.664   0.273   3.807
 5466SOL     OW17296   5.304   2.546   5.691
 5466SOL    HW117297   5.327   2.521   5.597
 5466SOL    HW217298   5.385   2.539   5.748
 5467SOL     OW17299   5.836   3.802   3.414
 5467SOL    HW117300   5.792   3.737   3.352
 5467SOL    HW217301   5.807   3.895   3.390
 5468SOL     OW17302   6.035   2.168   4.953
 5468SOL    HW117303   6.023   2.267   4.943
 5468SOL    HW217304   5.946   2.125   4.961
 5469SOL     OW17305   3.249   6.183   5.293
 5469SOL    HW117306   3.251   6.282   5.283
 5469SOL    HW217307   3.155   6.151   5.299
 5470SOL     OW17308   3.430   5.380   3.554
 5470SOL    HW117309   3.420   5.395   3.652
 5470SOL    HW217310   3.345   5.341   3.517
 5471SOL     OW17311   6.359   0.696   3.537
 5471SOL    HW117312   6.358   0.777   3.596
 5471SOL    HW217313   6.369   0.614   3.593
 5472SOL     OW17314   2.873   3.776   6.328
 5472SOL    HW117315   2.925   3.789   6.244
 5472SOL    HW217316   2.928   3.721   6.392
 5473SOL     OW17317   1.946   3.393   1.198
 5473SOL    HW117318   2.014   3.464   1.217
 5473SOL    HW217319   1.980   3.304   1.227
 5474SOL     OW17320   1.145   4.751   4.739
 5474SOL    HW117321   1.074   4.723   4.803
 5474SOL    HW217322   1.105   4.766   4.648
 5475SOL     OW17323   1.694   2.600   1.155
 5475SOL    HW117324   1.597   2.579   1.143
 5475SOL    HW217325   1.738   2.528   1.208
 5476SOL     OW17326   2.319   4.380   4.998
 5476SOL    HW117327   2.320   4.306   4.931
 5476SOL    HW217328   2.287   4.464   4.955
 5477SOL     OW17329   2.233   4.026   2.612
 5477SOL    HW117330   2.179   3.958   2.663
 5477SOL    HW217331   2.248   4.106   2.670
 5478SOL     OW17332   3.849   6.686   5.138
 5478SOL    HW117333   3.927   6.747   5.125
 5478SOL    HW217334   3.803   6.709   5.224
 5479SOL     OW17335   5.396   1.954   5.699
 5479SOL    HW117336   5.394   1.892   5.777
 5479SOL    HW217337   5.304   1.986   5.679
 5480SOL     OW17338   5.595   5.642   4.239
 5480SOL    HW117339   5.541   5.697   4.175
 5480SOL    HW217340   5.543   5.629   4.323
 5481SOL     OW17341   4.531   0.883   4.379
 5481SOL    HW117342   4.549   0.898   4.476
 5481SOL    HW217343   4.581   0.802   4.348
 5482SOL     OW17344   3.630   3.811   1.685
 5482SOL    HW117345   3.570   3.745   1.729
 5482SOL    HW217346   3.601   3.825   1.590
 5483SOL     OW17347   0.173   2.670   5.391
 5483SOL    HW117348   0.169   2.757   5.341
 5483SOL    HW217349   0.190   2.596   5.326
 5484SOL     OW17350   4.851   0.635   3.430
 5484SOL    HW117351   4.881   0.631   3.525
 5484SOL    HW217352   4.794   0.716   3.417
 5485SOL     OW17353   3.715   0.045   5.266
 5485SOL    HW117354   3.641   7.008   5.299
 5485SOL    HW217355   3.751   0.007   5.180
 5486SOL     OW17356   1.633   5.152   5.415
 5486SOL    HW117357   1.590   5.240   5.434
 5486SOL    HW217358   1.624   5.131   5.318
 5487SOL     OW17359   5.194   3.295   6.411
 5487SOL    HW117360   5.202   3.394   6.422
 5487SOL    HW217361   5.150   3.256   6.491
 5488SOL     OW17362   6.234   0.876   0.863
 5488SOL    HW117363   6.235   0.791   0.809
 5488SOL    HW217364   6.285   0.947   0.814
 5489SOL     OW17365   0.958   4.246   0.922
 5489SOL    HW117366   0.908   4.333   0.916
 5489SOL    HW217367   1.053   4.261   0.895
 5490SOL     OW17368   2.994   0.006   0.639
 5490SOL    HW117369   2.962   0.090   0.594
 5490SOL    HW217370   3.065   0.028   0.705
 5491SOL     OW17371   2.009   4.355   1.005
 5491SOL    HW117372   1.918   4.349   1.046
 5491SOL    HW217373   2.004   4.406   0.919
 5492SOL     OW17374   0.459   2.337   5.919
 5492SOL    HW117375   0.381   2.369   5.865
 5492SOL    HW217376   0.531   2.405   5.918
 5493SOL     OW17377   3.854   3.854   4.039
 5493SOL    HW117378   3.949   3.823   4.046
 5493SOL    HW217379   3.840   3.932   4.100
 5494SOL     OW17380   6.470   2.392   6.002
 5494SOL    HW117381   6.460   2.443   6.088
 5494SOL    HW217382   6.471   2.294   6.021
 5495SOL     OW17383   3.517   1.791   0.766
 5495SOL    HW117384   3.592   1.744   0.721
 5495SOL    HW217385   3.537   1.888   0.773
 5496SOL     OW17386   3.450   0.136   3.377
 5496SOL    HW117387   3.489   0.113   3.467
 5496SOL    HW217388   3.523   0.134   3.308
 5497SOL     OW17389   0.559   2.041   4.340
 5497SOL    HW117390   0.492   2.107   4.309
 5497SOL    HW217391   0.561   1.963   4.278
 5498SOL     OW17392   5.995   6.235   0.674
 5498SOL    HW117393   6.033   6.325   0.650
 5498SOL    HW217394   6.011   6.171   0.598
 5499SOL     OW17395   0.379   0.603   4.765
 5499SOL    HW117396   0.457   0.541   4.773
 5499SOL    HW217397   0.401   0.690   4.810
 5500SOL     OW17398   0.937   0.792   0.370
 5500SOL    HW117399   1.035   0.797   0.351
 5500SOL    HW217400   0.915   0.853   0.445
 5501SOL     OW17401   3.860   6.580   0.360
 5501SOL    HW117402   3.946   6.612   0.398
 5501SOL    HW217403   3.833   6.640   0.284
 5502SOL     OW17404   5.391   3.557   0.211
 5502SOL    HW117405   5.343   3.525   0.293
 5502SOL    HW217406   5.332   3.620   0.161
 5503SOL     OW17407   0.941   4.934   2.561
 5503SOL    HW117408   0.881   4.861   2.592
 5503SOL    HW217409   0.997   4.966   2.638
 5504SOL     OW17410   3.778   1.036   5.417
 5504SOL    HW117411   3.697   1.088   5.443
 5504SOL    HW217412   3.852   1.099   5.395
 5505SOL     OW17413   1.574   5.315   4.380
 5505SOL    HW117414   1.567   5.274   4.471
 5505SOL    HW217415   1.484   5.314   4.336
 5506SOL     OW17416   1.046   2.355   6.423
 5506SOL    HW117417   1.111   2.282   6.401
 5506SOL    HW217418   0.967   2.316   6.471
 5507SOL     OW17419   3.211   0.466   3.917
 5507SOL    HW117420   3.262   0.395   3.868
 5507SOL    HW217421   3.270   0.545   3.932
 5508SOL     OW17422   1.250   0.846   6.060
 5508SOL    HW117423   1.208   0.927   6.019
 5508SOL    HW217424   1.341   0.869   6.093
 5509SOL     OW17425   0.503   6.536   0.011
 5509SOL    HW117426   0.581   6.591   7.001
 5509SOL    HW217427   0.439   6.595   0.061
 5510SOL     OW17428   5.604   5.501   0.638
 5510SOL    HW117429   5.567   5.543   0.721
 5510SOL    HW217430   5.670   5.430   0.663
 5511SOL     OW17431   1.576   1.479   4.015
 5511SOL    HW117432   1.581   1.385   3.981
 5511SOL    HW217433   1.651   1.494   4.080
 5512SOL     OW17434   5.620   1.822   1.473
 5512SOL    HW117435   5.686   1.786   1.539
 5512SOL    HW217436   5.575   1.746   1.426
 5513SOL     OW17437   4.398   4.814   6.915
 5513SOL    HW117438   4.303   4.834   6.936
 5513SOL    HW217439   4.441   4.768   6.993
 5514SOL     OW17440   4.280   6.799   4.097
 5514SOL    HW117441   4.279   6.805   3.997
 5514SOL    HW217442   4.193   6.834   4.133
 5515SOL     OW17443   0.521   5.546   1.828
 5515SOL    HW117444   0.508   5.478   1.756
 5515SOL    HW217445   0.446   5.613   1.824
 5516SOL     OW17446   1.797   4.284   6.614
 5516SOL    HW117447   1.769   4.351   6.545
 5516SOL    HW217448   1.823   4.199   6.569
 5517SOL     OW17449   1.870   3.305   2.350
 5517SOL    HW117450   1.939   3.363   2.307
 5517SOL    HW217451   1.779   3.345   2.336
 5518SOL     OW17452   6.163   5.919   6.124
 5518SOL    HW117453   6.104   5.949   6.049
 5518SOL    HW217454   6.122   5.840   6.169
 5519SOL     OW17455   5.940   3.674   3.113
 5519SOL    HW117456   5.857   3.716   3.149
 5519SOL    HW217457   5.997   3.743   3.069
 5520SOL     OW17458   5.712   5.860   1.943
 5520SOL    HW117459   5.632   5.803   1.925
 5520SOL    HW217460   5.738   5.908   1.859
 5521SOL     OW17461   5.360   6.989   1.567
 5521SOL    HW117462   5.430   6.992   1.496
 5521SOL    HW217463   5.389   0.026   1.644
 5522SOL     OW17464   0.337   5.369   0.357
 5522SOL    HW117465   0.261   5.399   0.300
 5522SOL    HW217466   0.362   5.275   0.333
 5523SOL     OW17467   3.525   0.627   2.136
 5523SOL    HW117468   3.617   0.635   2.173
 5523SOL    HW217469   3.527   0.576   2.050
 5524SOL     OW17470   5.455   6.259   5.357
 5524SOL    HW117471   5.386   6.252   5.429
 5524SOL    HW217472   5.545   6.237   5.395
 5525SOL     OW17473   0.672   2.308   0.962
 5525SOL    HW117474   0.636   2.400   0.945
 5525SOL    HW217475   0.603   2.240   0.937
 5526SOL     OW17476   5.080   5.172   3.497
 5526SOL    HW117477   5.041   5.118   3.572
 5526SOL    HW217478   5.132   5.112   3.436
 5527SOL     OW17479   5.253   4.207   3.913
 5527SOL    HW117480   5.267   4.150   3.833
 5527SOL    HW217481   5.334   4.264   3.928
 5528SOL     OW17482   1.166   1.185   6.316
 5528SOL    HW117483   1.134   1.133   6.237
 5528SOL    HW217484   1.090   1.201   6.379
 5529SOL     OW17485   2.950   0.088   3.324
 5529SOL    HW117486   3.037   0.083   3.275
 5529SOL    HW217487   2.963   0.135   3.411
 5530SOL     OW17488   5.794   2.232   1.906
 5530SOL    HW117489   5.817   2.281   1.822
 5530SOL    HW217490   5.767   2.297   1.977
 5531SOL     OW17491   3.025   3.212   2.405
 5531SOL    HW117492   2.962   3.194   2.330
 5531SOL    HW217493   3.022   3.136   2.470
 5532SOL     OW17494   1.189   3.017   0.288
 5532SOL    HW117495   1.226   2.946   0.348
 5532SOL    HW217496   1.213   2.997   0.193
 5533SOL     OW17497   3.881   1.445   3.115
 5533SOL    HW117498   3.975   1.452   3.084
 5533SOL    HW217499   3.840   1.536   3.121
 5534SOL     OW17500   0.624   1.446   6.068
 5534SOL    HW117501   0.703   1.496   6.102
 5534SOL    HW217502   0.564   1.422   6.145
 5535SOL     OW17503   6.896   2.931   3.135
 5535SOL    HW117504   6.797   2.925   3.138
 5535SOL    HW217505   6.936   2.848   3.174
 5536SOL     OW17506   3.122   1.007   4.258
 5536SOL    HW117507   3.191   1.079   4.250
 5536SOL    HW217508   3.031   1.047   4.263
 5537SOL     OW17509   2.744   0.430   2.386
 5537SOL    HW117510   2.816   0.472   2.441
 5537SOL    HW217511   2.776   0.417   2.293
 5538SOL     OW17512   1.956   6.111   5.664
 5538SOL    HW117513   1.955   6.011   5.671
 5538SOL    HW217514   2.050   6.144   5.668
 5539SOL     OW17515   1.636   3.162   1.389
 5539SOL    HW117516   1.554   3.166   1.333
 5539SOL    HW217517   1.707   3.109   1.342
 5540SOL     OW17518   5.274   4.044   3.678
 5540SOL    HW117519   5.350   4.101   3.646
 5540SOL    HW217520   5.285   3.951   3.645
 5541SOL     OW17521   6.224   6.872   6.319
 5541SOL    HW117522   6.199   6.950   6.261
 5541SOL    HW217523   6.170   6.875   6.404
 5542SOL     OW17524   5.479   3.662   5.780
 5542SOL    HW117525   5.496   3.656   5.682
 5542SOL    HW217526   5.382   3.649   5.798
 5543SOL     OW17527   3.789   5.038   5.645
 5543SOL    HW117528   3.868   4.995   5.690
 5543SOL    HW217529   3.818   5.079   5.559
 5544SOL     OW17530   5.552   6.119   6.375
 5544SOL    HW117531   5.588   6.086   6.288
 5544SOL    HW217532   5.613   6.093   6.449
 5545SOL     OW17533   3.759   1.323   1.784
 5545SOL    HW117534   3.712   1.235   1.790
 5545SOL    HW217535   3.694   1.396   1.805
 5546SOL     OW17536   1.055   5.042   4.769
 5546SOL    HW117537   1.089   5.077   4.682
 5546SOL    HW217538   1.113   4.967   4.800
 5547SOL     OW17539   2.401   0.136   4.818
 5547SOL    HW117540   2.470   0.097   4.757
 5547SOL    HW217541   2.318   0.081   4.814
 5548SOL     OW17542   5.215   2.904   5.470
 5548SOL    HW117543   5.132   2.954   5.449
 5548SOL    HW217544   5.214   2.875   5.566
 5549SOL     OW17545   4.022   3.489   6.505
 5549SOL    HW117546   3.974   3.536   6.431
 5549SOL    HW217547   4.004   3.537   6.591
 5550SOL     OW17548   2.311   4.287   2.075
 5550SOL    HW117549   2.220   4.256   2.050
 5550SOL    HW217550   2.369   4.288   1.994
 5551SOL     OW17551   2.187   6.966   3.480
 5551SOL    HW117552   2.133   6.970   3.396
 5551SOL    HW217553   2.215   0.037   3.506
 5552SOL     OW17554   6.700   0.712   6.762
 5552SOL    HW117555   6.640   0.740   6.687
 5552SOL    HW217556   6.788   0.683   6.723
 5553SOL     OW17557   4.908   6.593   0.190
 5553SOL    HW117558   4.961   6.633   0.116
 5553SOL    HW217559   4.859   6.513   0.157
 5554SOL     OW17560   3.937   1.849   5.509
 5554SOL    HW117561   3.901   1.938   5.533
 5554SOL    HW217562   3.865   1.780   5.517
 5555SOL     OW17563   2.036   4.455   4.220
 5555SOL    HW117564   2.066   4.545   4.253
 5555SOL    HW217565   1.949   4.431   4.263
 5556SOL     OW17566   6.629   2.015   3.832
 5556SOL    HW117567   6.541   2.049   3.866
 5556SOL    HW217568   6.639   1.918   3.856
 5557SOL     OW17569   3.793   6.346   2.835
 5557SOL    HW117570   3.807   6.421   2.899
 5557SOL    HW217571   3.821   6.260   2.878
 5558SOL     OW17572   4.661   3.288   6.264
 5558SOL    HW117573   4.750   3.276   6.307
 5558SOL    HW217574   4.672   3.343   6.181
 5559SOL     OW17575   2.959   0.450   2.164
 5559SOL    HW117576   3.019   0.497   2.099
 5559SOL    HW217577   2.884   0.406   2.114
 5560SOL     OW17578   1.045   6.734   3.735
 5560SOL    HW117579   0.951   6.724   3.703
 5560SOL    HW217580   1.046   6.786   3.820
 5561SOL     OW17581   1.613   2.627   4.182
 5561SOL    HW117582   1.519   2.599   4.162
 5561SOL    HW217583   1.669   2.547   4.200
 5562SOL     OW17584   2.893   2.064   6.754
 5562SOL    HW117585   2.853   2.063   6.845
 5562SOL    HW217586   2.916   2.158   6.728
 5563SOL     OW17587   4.400   5.362   2.623
 5563SOL    HW117588   4.482   5.306   2.610
 5563SOL    HW217589   4.389   5.383   2.720
 5564SOL     OW17590   4.662   0.738   1.823
 5564SOL    HW117591   4.671   0.838   1.825
 5564SOL    HW217592   4.699   0.704   1.736
 5565SOL     OW17593   4.696   2.188   6.925
 5565SOL    HW117594   4.767   2.198   6.855
 5565SOL    HW217595   4.732   2.217   7.013
 5566SOL     OW17596   2.009   5.843   0.053
 5566SOL    HW117597   2.014   5.942   0.044
 5566SOL    HW217598   1.943   5.818   0.124
 5567SOL     OW17599   0.211   4.224   2.109
 5567SOL    HW117600   0.178   4.157   2.175
 5567SOL    HW217601   0.136   4.254   2.050
 5568SOL     OW17602   4.180   2.304   3.243
 5568SOL    HW117603   4.184   2.395   3.284
 5568SOL    HW217604   4.089   2.265   3.256
 5569SOL     OW17605   2.647   1.575   2.774
 5569SOL    HW117606   2.577   1.557   2.705
 5569SOL    HW217607   2.606   1.621   2.852
 5570SOL     OW17608   6.047   5.004   5.144
 5570SOL    HW117609   5.997   5.058   5.077
 5570SOL    HW217610   6.002   4.916   5.157
 5571SOL     OW17611   0.525   6.241   0.738
 5571SOL    HW117612   0.483   6.205   0.822
 5571SOL    HW217613   0.511   6.177   0.663
 5572SOL     OW17614   1.333   2.641   4.624
 5572SOL    HW117615   1.275   2.683   4.554
 5572SOL    HW217616   1.360   2.711   4.690
 5573SOL     OW17617   2.115   3.285   6.848
 5573SOL    HW117618   2.198   3.230   6.853
 5573SOL    HW217619   2.039   3.233   6.888
 5574SOL     OW17620   6.283   1.771   3.645
 5574SOL    HW117621   6.194   1.742   3.679
 5574SOL    HW217622   6.304   1.862   3.679
 5575SOL     OW17623   0.144   1.321   1.381
 5575SOL    HW117624   0.088   1.249   1.339
 5575SOL    HW217625   0.190   1.373   1.310
 5576SOL     OW17626   1.030   6.408   2.009
 5576SOL    HW117627   1.041   6.498   2.052
 5576SOL    HW217628   1.117   6.379   1.970
 5577SOL     OW17629   3.058   2.656   5.655
 5577SOL    HW117630   2.975   2.623   5.609
 5577SOL    HW217631   3.059   2.756   5.653
 5578SOL     OW17632   3.979   4.184   0.674
 5578SOL    HW117633   4.048   4.176   0.603
 5578SOL    HW217634   3.888   4.189   0.632
 5579SOL     OW17635   6.926   3.849   6.486
 5579SOL    HW117636   6.861   3.838   6.561
 5579SOL    HW217637   6.941   3.761   6.441
 5580SOL     OW17638   4.139   2.497   5.927
 5580SOL    HW117639   4.063   2.444   5.891
 5580SOL    HW217640   4.134   2.590   5.891
 5581SOL     OW17641   2.405   6.494   1.946
 5581SOL    HW117642   2.350   6.482   2.029
 5581SOL    HW217643   2.485   6.550   1.967
 5582SOL     OW17644   3.854   3.360   3.552
 5582SOL    HW117645   3.839   3.426   3.479
 5582SOL    HW217646   3.938   3.383   3.602
 5583SOL     OW17647   4.632   6.964   2.692
 5583SOL    HW117648   4.567   6.904   2.738
 5583SOL    HW217649   4.583   0.015   2.643
 5584SOL     OW17650   5.593   4.192   4.314
 5584SOL    HW117651   5.583   4.096   4.288
 5584SOL    HW217652   5.518   4.245   4.275
 5585SOL     OW17653   4.494   6.597   4.185
 5585SOL    HW117654   4.453   6.522   4.237
 5585SOL    HW217655   4.424   6.666   4.166
 5586SOL     OW17656   0.776   2.491   6.715
 5586SOL    HW117657   0.749   2.406   6.759
 5586SOL    HW217658   0.742   2.493   6.621
 5587SOL     OW17659   4.286   6.149   2.614
 5587SOL    HW117660   4.384   6.126   2.606
 5587SOL    HW217661   4.237   6.110   2.536
 5588SOL     OW17662   1.697   0.080   3.252
 5588SOL    HW117663   1.599   0.103   3.249
 5588SOL    HW217664   1.748   0.159   3.285
 5589SOL     OW17665   5.858   2.568   6.938
 5589SOL    HW117666   5.839   2.477   6.899
 5589SOL    HW217667   5.956   2.585   6.937
 5590SOL     OW17668   6.782   5.831   3.066
 5590SOL    HW117669   6.736   5.785   2.990
 5590SOL    HW217670   6.785   5.769   3.145
 5591SOL     OW17671   5.859   1.408   6.631
 5591SOL    HW117672   5.839   1.390   6.534
 5591SOL    HW217673   5.777   1.388   6.685
 5592SOL     OW17674   1.117   4.087   2.924
 5592SOL    HW117675   1.096   4.066   2.829
 5592SOL    HW217676   1.129   4.003   2.976
 5593SOL     OW17677   6.471   2.300   5.697
 5593SOL    HW117678   6.377   2.272   5.717
 5593SOL    HW217679   6.497   2.376   5.757
 5594SOL     OW17680   2.572   1.059   6.662
 5594SOL    HW117681   2.665   1.047   6.696
 5594SOL    HW217682   2.507   1.032   6.733
 5595SOL     OW17683   6.419   0.760   5.094
 5595SOL    HW117684   6.482   0.835   5.073
 5595SOL    HW217685   6.460   0.673   5.067
 5596SOL     OW17686   5.208   0.548   2.430
 5596SOL    HW117687   5.260   0.572   2.511
 5596SOL    HW217688   5.132   0.612   2.419
 5597SOL     OW17689   5.528   1.702   5.484
 5597SOL    HW117690   5.591   1.700   5.407
 5597SOL    HW217691   5.489   1.794   5.494
 5598SOL     OW17692   5.627   2.300   3.877
 5598SOL    HW117693   5.634   2.282   3.779
 5598SOL    HW217694   5.623   2.399   3.893
 5599SOL     OW17695   6.740   3.157   1.928
 5599SOL    HW117696   6.830   3.118   1.946
 5599SOL    HW217697   6.680   3.086   1.891
 5600SOL     OW17698   2.000   0.597   2.269
 5600SOL    HW117699   1.953   0.648   2.197
 5600SOL    HW217700   1.932   0.565   2.336
 5601SOL     OW17701   3.689   1.458   6.761
 5601SOL    HW117702   3.744   1.515   6.699
 5601SOL    HW217703   3.718   1.476   6.855
 5602SOL     OW17704   0.753   0.556   2.696
 5602SOL    HW117705   0.713   0.521   2.782
 5602SOL    HW217706   0.720   0.649   2.680
 5603SOL     OW17707   5.256   2.345   5.970
 5603SOL    HW117708   5.156   2.339   5.963
 5603SOL    HW217709   5.290   2.265   6.021
 5604SOL     OW17710   0.108   2.427   4.870
 5604SOL    HW117711   0.164   2.400   4.792
 5604SOL    HW217712   0.014   2.442   4.840
 5605SOL     OW17713   1.761   6.693   4.566
 5605SOL    HW117714   1.763   6.595   4.583
 5605SOL    HW217715   1.671   6.729   4.593
 5606SOL     OW17716   4.800   0.713   0.381
 5606SOL    HW117717   4.773   0.782   0.314
 5606SOL    HW217718   4.751   0.628   0.363
 5607SOL     OW17719   5.372   1.852   3.558
 5607SOL    HW117720   5.381   1.944   3.520
 5607SOL    HW217721   5.370   1.858   3.658
 5608SOL     OW17722   5.788   1.459   2.999
 5608SOL    HW117723   5.766   1.404   3.079
 5608SOL    HW217724   5.718   1.447   2.929
 5609SOL     OW17725   4.718   5.846   0.859
 5609SOL    HW117726   4.783   5.790   0.910
 5609SOL    HW217727   4.727   5.942   0.888
 5610SOL     OW17728   5.852   3.966   1.623
 5610SOL    HW117729   5.899   4.027   1.559
 5610SOL    HW217730   5.753   3.981   1.616
 5611SOL     OW17731   0.677   4.893   2.346
 5611SOL    HW117732   0.593   4.853   2.384
 5611SOL    HW217733   0.754   4.831   2.363
 5612SOL     OW17734   3.554   2.807   0.244
 5612SOL    HW117735   3.516   2.790   0.154
 5612SOL    HW217736   3.480   2.827   0.309
 5613SOL     OW17737   6.307   5.177   5.320
 5613SOL    HW117738   6.351   5.138   5.240
 5613SOL    HW217739   6.270   5.104   5.377
 5614SOL     OW17740   5.765   3.183   5.038
 5614SOL    HW117741   5.851   3.168   5.086
 5614SOL    HW217742   5.763   3.127   4.954
 5615SOL     OW17743   6.922   1.630   3.333
 5615SOL    HW117744   6.976   1.586   3.405
 5615SOL    HW217745   6.965   1.612   3.244
 5616SOL     OW17746   2.268   2.967   4.792
 5616SOL    HW117747   2.256   3.057   4.750
 5616SOL    HW217748   2.306   2.977   4.883
 5617SOL     OW17749   1.489   3.712   5.056
 5617SOL    HW117750   1.573   3.739   5.104
 5617SOL    HW217751   1.424   3.787   5.060
 5618SOL     OW17752   6.882   4.745   3.494
 5618SOL    HW117753   6.792   4.702   3.501
 5618SOL    HW217754   6.909   4.781   3.583
 5619SOL     OW17755   3.300   3.725   3.289
 5619SOL    HW117756   3.230   3.698   3.355
 5619SOL    HW217757   3.390   3.705   3.326
 5620SOL     OW17758   4.597   3.741   6.449
 5620SOL    HW117759   4.697   3.739   6.456
 5620SOL    HW217760   4.566   3.835   6.442
 5621SOL     OW17761   1.522   3.497   6.121
 5621SOL    HW117762   1.524   3.587   6.165
 5621SOL    HW217763   1.602   3.444   6.151
 5622SOL     OW17764   4.958   6.554   5.930
 5622SOL    HW117765   4.919   6.577   5.840
 5622SOL    HW217766   5.008   6.633   5.966
 5623SOL     OW17767   4.482   6.315   4.841
 5623SOL    HW117768   4.491   6.330   4.742
 5623SOL    HW217769   4.571   6.287   4.878
 5624SOL     OW17770   0.514   4.941   3.660
 5624SOL    HW117771   0.543   5.030   3.623
 5624SOL    HW217772   0.596   4.887   3.682
 5625SOL     OW17773   0.052   4.876   5.658
 5625SOL    HW117774   0.046   4.874   5.558
 5625SOL    HW217775   6.996   4.928   5.695
 5626SOL     OW17776   2.439   5.783   3.782
 5626SOL    HW117777   2.508   5.779   3.855
 5626SOL    HW217778   2.348   5.768   3.821
 5627SOL     OW17779   0.101   5.142   6.076
 5627SOL    HW117780   0.146   5.139   5.986
 5627SOL    HW217781   0.003   5.126   6.064
 5628SOL     OW17782   2.357   2.060   1.337
 5628SOL    HW117783   2.358   2.019   1.246
 5628SOL    HW217784   2.430   2.128   1.344
 5629SOL     OW17785   5.251   2.647   2.137
 5629SOL    HW117786   5.164   2.607   2.164
 5629SOL    HW217787   5.244   2.746   2.137
 5630SOL     OW17788   1.970   4.244   6.828
 5630SOL    HW117789   1.946   4.241   6.925
 5630SOL    HW217790   1.887   4.260   6.774
 5631SOL     OW17791   5.478   1.517   0.757
 5631SOL    HW117792   5.570   1.542   0.728
 5631SOL    HW217793   5.483   1.465   0.843
 5632SOL     OW17794   3.925   1.865   5.229
 5632SOL    HW117795   3.919   1.855   5.329
 5632SOL    HW217796   3.872   1.945   5.201
 5633SOL     OW17797   6.103   4.677   4.686
 5633SOL    HW117798   6.115   4.578   4.676
 5633SOL    HW217799   6.020   4.705   4.638
 5634SOL     OW17800   2.065   5.064   3.617
 5634SOL    HW117801   2.077   5.020   3.705
 5634SOL    HW217802   2.106   5.155   3.619
 5635SOL     OW17803   2.135   6.304   6.420
 5635SOL    HW117804   2.128   6.208   6.392
 5635SOL    HW217805   2.044   6.338   6.445
 5636SOL     OW17806   6.129   0.448   5.329
 5636SOL    HW117807   6.188   0.370   5.309
 5636SOL    HW217808   6.047   0.443   5.271
 5637SOL     OW17809   3.318   6.812   3.735
 5637SOL    HW117810   3.266   6.746   3.680
 5637SOL    HW217811   3.401   6.769   3.769
 5638SOL     OW17812   6.163   4.719   1.126
 5638SOL    HW117813   6.070   4.691   1.150
 5638SOL    HW217814   6.186   4.682   1.036
 5639SOL     OW17815   2.778   0.600   1.862
 5639SOL    HW117816   2.855   0.651   1.822
 5639SOL    HW217817   2.700   0.605   1.800
 5640SOL     OW17818   2.751   0.467   2.736
 5640SOL    HW117819   2.821   0.477   2.806
 5640SOL    HW217820   2.661   0.489   2.774
 5641SOL     OW17821   0.238   4.697   6.127
 5641SOL    HW117822   0.168   4.707   6.055
 5641SOL    HW217823   0.311   4.763   6.111
 5642SOL     OW17824   0.817   5.257   5.195
 5642SOL    HW117825   0.880   5.325   5.234
 5642SOL    HW217826   0.867   5.197   5.133
 5643SOL     OW17827   3.267   1.000   4.527
 5643SOL    HW117828   3.358   0.974   4.494
 5643SOL    HW217829   3.199   0.937   4.489
 5644SOL     OW17830   3.715   0.490   3.954
 5644SOL    HW117831   3.631   0.489   3.901
 5644SOL    HW217832   3.694   0.504   4.051
 5645SOL     OW17833   6.112   4.592   3.012
 5645SOL    HW117834   6.038   4.552   2.958
 5645SOL    HW217835   6.200   4.554   2.981
 5646SOL     OW17836   1.347   6.050   3.138
 5646SOL    HW117837   1.343   6.145   3.109
 5646SOL    HW217838   1.283   5.996   3.083
 5647SOL     OW17839   6.119   6.460   0.551
 5647SOL    HW117840   6.054   6.527   0.515
 5647SOL    HW217841   6.198   6.507   0.590
 5648SOL     OW17842   2.001   1.256   3.095
 5648SOL    HW117843   2.053   1.186   3.144
 5648SOL    HW217844   2.057   1.295   3.022
 5649SOL     OW17845   6.564   6.860   5.552
 5649SOL    HW117846   6.625   6.914   5.495
 5649SOL    HW217847   6.488   6.826   5.497
 5650SOL     OW17848   0.624   5.846   1.201
 5650SOL    HW117849   0.719   5.825   1.183
 5650SOL    HW217850   0.615   5.883   1.293
 5651SOL     OW17851   0.337   1.082   1.543
 5651SOL    HW117852   0.330   1.181   1.554
 5651SOL    HW217853   0.344   1.038   1.633
 5652SOL     OW17854   5.853   6.470   1.677
 5652SOL    HW117855   5.805   6.447   1.761
 5652SOL    HW217856   5.871   6.568   1.675
 5653SOL     OW17857   0.716   5.808   6.626
 5653SOL    HW117858   0.694   5.857   6.710
 5653SOL    HW217859   0.661   5.843   6.551
 5654SOL     OW17860   6.248   6.501   5.533
 5654SOL    HW117861   6.305   6.547   5.465
 5654SOL    HW217862   6.190   6.569   5.579
 5655SOL     OW17863   1.265   3.365   4.940
 5655SOL    HW117864   1.319   3.395   5.018
 5655SOL    HW217865   1.207   3.440   4.908
 5656SOL     OW17866   0.793   3.127   0.692
 5656SOL    HW117867   0.828   3.204   0.745
 5656SOL    HW217868   0.702   3.149   0.657
 5657SOL     OW17869   5.790   0.658   0.447
 5657SOL    HW117870   5.730   0.585   0.413
 5657SOL    HW217871   5.744   0.709   0.519
 5658SOL     OW17872   3.488   5.699   6.109
 5658SOL    HW117873   3.555   5.648   6.163
 5658SOL    HW217874   3.442   5.636   6.045
 5659SOL     OW17875   4.111   3.612   3.471
 5659SOL    HW117876   4.133   3.658   3.385
 5659SOL    HW217877   4.097   3.680   3.543
 5660SOL     OW17878   5.821   6.920   5.471
 5660SOL    HW117879   5.831   6.827   5.434
 5660SOL    HW217880   5.755   6.918   5.546
 5661SOL     OW17881   1.150   4.320   5.085
 5661SOL    HW117882   1.180   4.377   5.161
 5661SOL    HW217883   1.223   4.313   5.017
 5662SOL     OW17884   2.766   5.428   3.531
 5662SOL    HW117885   2.756   5.518   3.573
 5662SOL    HW217886   2.760   5.437   3.431
 5663SOL     OW17887   2.112   2.980   6.533
 5663SOL    HW117888   2.145   2.916   6.464
 5663SOL    HW217889   2.186   3.045   6.555
 5664SOL     OW17890   6.867   4.193   5.046
 5664SOL    HW117891   6.951   4.139   5.035
 5664SOL    HW217892   6.855   4.251   4.965
 5665SOL     OW17893   1.496   2.395   6.749
 5665SOL    HW117894   1.404   2.356   6.755
 5665SOL    HW217895   1.551   2.340   6.686
 5666SOL     OW17896   5.886   5.692   1.238
 5666SOL    HW117897   5.820   5.753   1.194
 5666SOL    HW217898   5.895   5.717   1.335
 5667SOL     OW17899   0.779   4.314   3.308
 5667SOL    HW117900   0.769   4.394   3.250
 5667SOL    HW217901   0.876   4.293   3.321
 5668SOL     OW17902   4.718   2.010   5.379
 5668SOL    HW117903   4.779   2.067   5.325
 5668SOL    HW217904   4.692   2.057   5.462
 5669SOL     OW17905   0.824   2.636   0.267
 5669SOL    HW117906   0.869   2.649   0.178
 5669SOL    HW217907   0.758   2.562   0.261
 5670SOL     OW17908   6.523   2.930   3.989
 5670SOL    HW117909   6.544   3.019   3.949
 5670SOL    HW217910   6.449   2.940   4.055
 5671SOL     OW17911   0.812   5.703   7.017
 5671SOL    HW117912   0.810   5.616   0.046
 5671SOL    HW217913   0.735   5.760   0.027
 5672SOL     OW17914   4.174   4.752   6.500
 5672SOL    HW117915   4.257   4.761   6.554
 5672SOL    HW217916   4.095   4.783   6.554
 5673SOL     OW17917   1.110   6.693   1.949
 5673SOL    HW117918   1.013   6.708   1.930
 5673SOL    HW217919   1.141   6.757   2.020
 5674SOL     OW17920   6.746   4.624   4.759
 5674SOL    HW117921   6.714   4.672   4.840
 5674SOL    HW217922   6.713   4.671   4.677
 5675SOL     OW17923   4.754   1.898   5.810
 5675SOL    HW117924   4.675   1.955   5.787
 5675SOL    HW217925   4.834   1.929   5.759
 5676SOL     OW17926   2.614   2.425   2.146
 5676SOL    HW117927   2.581   2.370   2.223
 5676SOL    HW217928   2.714   2.433   2.152
 5677SOL     OW17929   0.657   1.383   3.105
 5677SOL    HW117930   0.689   1.457   3.164
 5677SOL    HW217931   0.721   1.371   3.029
 5678SOL     OW17932   3.435   6.285   3.032
 5678SOL    HW117933   3.484   6.213   3.082
 5678SOL    HW217934   3.489   6.370   3.035
 5679SOL     OW17935   1.299   1.095   4.287
 5679SOL    HW117936   1.286   1.164   4.358
 5679SOL    HW217937   1.223   1.097   4.223
 5680SOL     OW17938   1.428   5.492   0.237
 5680SOL    HW117939   1.498   5.485   0.309
 5680SOL    HW217940   1.343   5.451   0.270
 5681SOL     OW17941   0.328   4.099   6.981
 5681SOL    HW117942   0.304   4.191   7.011
 5681SOL    HW217943   0.252   4.037   6.998
 5682SOL     OW17944   2.302   4.553   6.303
 5682SOL    HW117945   2.337   4.459   6.308
 5682SOL    HW217946   2.202   4.550   6.299
 5683SOL     OW17947   3.788   0.718   0.481
 5683SOL    HW117948   3.726   0.782   0.527
 5683SOL    HW217949   3.881   0.730   0.515
 5684SOL     OW17950   3.412   2.991   4.621
 5684SOL    HW117951   3.321   2.992   4.580
 5684SOL    HW217952   3.415   2.923   4.694
 5685SOL     OW17953   1.949   2.784   2.769
 5685SOL    HW117954   2.035   2.824   2.799
 5685SOL    HW217955   1.918   2.717   2.836
 5686SOL     OW17956   2.762   0.118   6.125
 5686SOL    HW117957   2.689   0.053   6.147
 5686SOL    HW217958   2.801   0.155   6.209
 5687SOL     OW17959   0.836   4.305   6.138
 5687SOL    HW117960   0.820   4.228   6.076
 5687SOL    HW217961   0.753   4.361   6.144
 5688SOL     OW17962   0.142   2.247   0.289
 5688SOL    HW117963   0.185   2.196   0.363
 5688SOL    HW217964   0.125   2.341   0.318
 5689SOL     OW17965   4.521   0.759   0.487
 5689SOL    HW117966   4.618   0.744   0.503
 5689SOL    HW217967   4.508   0.800   0.397
 5690SOL     OW17968   2.311   6.091   0.800
 5690SOL    HW117969   2.368   6.008   0.795
 5690SOL    HW217970   2.354   6.163   0.746
 5691SOL     OW17971   2.642   6.630   2.040
 5691SOL    HW117972   2.723   6.615   2.097
 5691SOL    HW217973   2.595   6.712   2.071
 5692SOL     OW17974   6.779   2.974   6.493
 5692SOL    HW117975   6.830   3.055   6.520
 5692SOL    HW217976   6.828   2.927   6.419
 5693SOL     OW17977   5.765   2.133   2.749
 5693SOL    HW117978   5.707   2.147   2.829
 5693SOL    HW217979   5.861   2.148   2.773
 5694SOL     OW17980   0.882   2.210   4.025
 5694SOL    HW117981   0.850   2.158   4.104
 5694SOL    HW217982   0.947   2.280   4.054
 5695SOL     OW17983   1.141   2.717   3.332
 5695SOL    HW117984   1.068   2.770   3.376
 5695SOL    HW217985   1.111   2.623   3.319
 5696SOL     OW17986   1.500   0.794   3.056
 5696SOL    HW117987   1.550   0.881   3.048
 5696SOL    HW217988   1.508   0.760   3.150
 5697SOL     OW17989   6.117   2.827   1.345
 5697SOL    HW117990   6.094   2.906   1.402
 5697SOL    HW217991   6.206   2.791   1.373
 5698SOL     OW17992   0.426   3.499   2.860
 5698SOL    HW117993   0.383   3.573   2.912
 5698SOL    HW217994   0.526   3.504   2.870
 5699SOL     OW17995   6.442   2.361   2.452
 5699SOL    HW117996   6.440   2.450   2.407
 5699SOL    HW217997   6.510   2.362   2.525
 5700SOL     OW17998   6.566   6.397   4.560
 5700SOL    HW117999   6.571   6.495   4.581
 5700SOL    HW218000   6.550   6.346   4.644
 5701SOL     OW18001   1.844   0.056   3.021
 5701SOL    HW118002   1.782   0.077   3.096
 5701SOL    HW218003   1.835   0.125   2.949
 5702SOL     OW18004   2.652   6.450   5.836
 5702SOL    HW118005   2.693   6.410   5.918
 5702SOL    HW218006   2.660   6.385   5.760
 5703SOL     OW18007   6.117   4.623   1.837
 5703SOL    HW118008   6.133   4.719   1.860
 5703SOL    HW218009   6.076   4.577   1.916
 5704SOL     OW18010   4.019   5.163   2.403
 5704SOL    HW118011   3.943   5.173   2.339
 5704SOL    HW218012   3.994   5.203   2.491
 5705SOL     OW18013   4.624   0.721   1.445
 5705SOL    HW118014   4.602   0.701   1.350
 5705SOL    HW218015   4.607   0.818   1.464
 5706SOL     OW18016   0.062   3.119   0.032
 5706SOL    HW118017   0.120   3.149   6.977
 5706SOL    HW218018   0.018   3.199   0.074
 5707SOL     OW18019   6.899   6.832   0.591
 5707SOL    HW118020   6.832   6.827   0.665
 5707SOL    HW218021   6.991   6.842   0.629
 5708SOL     OW18022   4.943   6.007   0.972
 5708SOL    HW118023   4.895   6.094   0.981
 5708SOL    HW218024   4.999   6.007   0.889
 5709SOL     OW18025   1.957   0.214   3.314
 5709SOL    HW118026   1.981   0.128   3.269
 5709SOL    HW218027   1.991   0.290   3.259
 5710SOL     OW18028   2.420   3.292   6.410
 5710SOL    HW118029   2.516   3.298   6.438
 5710SOL    HW218030   2.380   3.207   6.446
 5711SOL     OW18031   4.950   1.302   2.848
 5711SOL    HW118032   4.992   1.225   2.894
 5711SOL    HW218033   4.895   1.269   2.771
 5712SOL     OW18034   0.923   5.909   6.045
 5712SOL    HW118035   0.883   5.832   6.095
 5712SOL    HW218036   1.022   5.910   6.060
 5713SOL     OW18037   2.615   3.100   1.682
 5713SOL    HW118038   2.521   3.093   1.648
 5713SOL    HW218039   2.665   3.015   1.662
 5714SOL     OW18040   0.986   5.703   6.612
 5714SOL    HW118041   0.892   5.738   6.610
 5714SOL    HW218042   1.011   5.681   6.706
 5715SOL     OW18043   1.044   6.642   3.029
 5715SOL    HW118044   0.988   6.618   2.949
 5715SOL    HW218045   1.139   6.657   2.999
 5716SOL     OW18046   1.450   4.104   6.900
 5716SOL    HW118047   1.531   4.100   6.959
 5716SOL    HW218048   1.369   4.079   6.952
 5717SOL     OW18049   1.592   6.217   1.021
 5717SOL    HW118050   1.505   6.243   1.062
 5717SOL    HW218051   1.659   6.202   1.093
 5718SOL     OW18052   0.939   3.145   5.494
 5718SOL    HW118053   0.995   3.088   5.554
 5718SOL    HW218054   0.994   3.181   5.420
 5719SOL     OW18055   2.771   1.273   6.081
 5719SOL    HW118056   2.673   1.257   6.079
 5719SOL    HW218057   2.790   1.366   6.115
 5720SOL     OW18058   1.228   5.317   4.024
 5720SOL    HW118059   1.209   5.361   4.112
 5720SOL    HW218060   1.175   5.233   4.016
 5721SOL     OW18061   0.203   4.236   1.057
 5721SOL    HW118062   0.225   4.254   1.153
 5721SOL    HW218063   0.126   4.172   1.052
 5722SOL     OW18064   6.064   1.551   5.330
 5722SOL    HW118065   6.121   1.594   5.400
 5722SOL    HW218066   6.017   1.471   5.369
 5723SOL     OW18067   4.536   3.589   6.694
 5723SOL    HW118068   4.546   3.622   6.600
 5723SOL    HW218069   4.462   3.521   6.699
 5724SOL     OW18070   4.283   2.770   5.355
 5724SOL    HW118071   4.303   2.721   5.440
 5724SOL    HW218072   4.222   2.715   5.298
 5725SOL     OW18073   5.920   5.651   3.672
 5725SOL    HW118074   5.938   5.741   3.633
 5725SOL    HW218075   5.997   5.590   3.652
 5726SOL     OW18076   7.020   4.576   4.746
 5726SOL    HW118077   6.930   4.614   4.766
 5726SOL    HW218078   0.039   4.624   4.668
 5727SOL     OW18079   0.249   2.464   3.679
 5727SOL    HW118080   0.280   2.389   3.737
 5727SOL    HW218081   0.326   2.499   3.626
 5728SOL     OW18082   4.230   1.397   6.486
 5728SOL    HW118083   4.268   1.474   6.435
 5728SOL    HW218084   4.216   1.424   6.581
 5729SOL     OW18085   0.896   1.571   0.455
 5729SOL    HW118086   0.963   1.645   0.458
 5729SOL    HW218087   0.942   1.483   0.463
 5730SOL     OW18088   4.447   5.097   5.873
 5730SOL    HW118089   4.495   5.009   5.877
 5730SOL    HW218090   4.385   5.104   5.951
 5731SOL     OW18091   1.253   6.566   3.809
 5731SOL    HW118092   1.175   6.624   3.784
 5731SOL    HW218093   1.279   6.584   3.904
 5732SOL     OW18094   6.724   4.807   4.985
 5732SOL    HW118095   6.637   4.799   5.034
 5732SOL    HW218096   6.729   4.896   4.940
 5733SOL     OW18097   3.518   0.323   5.169
 5733SOL    HW118098   3.435   0.279   5.135
 5733SOL    HW218099   3.530   0.411   5.124
 5734SOL     OW18100   0.864   6.188   6.055
 5734SOL    HW118101   0.841   6.205   6.151
 5734SOL    HW218102   0.909   6.099   6.047
 5735SOL     OW18103   3.999   1.932   2.242
 5735SOL    HW118104   3.908   1.966   2.220
 5735SOL    HW218105   4.004   1.911   2.340
 5736SOL     OW18106   6.002   3.928   0.683
 5736SOL    HW118107   5.919   3.947   0.736
 5736SOL    HW218108   6.082   3.949   0.739
 5737SOL     OW18109   4.631   5.297   6.898
 5737SOL    HW118110   4.614   5.350   6.815
 5737SOL    HW218111   4.720   5.253   6.892
 5738SOL     OW18112   2.772   2.681   6.177
 5738SOL    HW118113   2.839   2.753   6.159
 5738SOL    HW218114   2.807   2.619   6.248
 5739SOL     OW18115   1.074   6.801   5.312
 5739SOL    HW118116   1.030   6.848   5.389
 5739SOL    HW218117   1.068   6.858   5.230
 5740SOL     OW18118   4.239   3.331   0.843
 5740SOL    HW118119   4.204   3.411   0.794
 5740SOL    HW218120   4.228   3.346   0.941
 5741SOL     OW18121   6.337   4.250   4.745
 5741SOL    HW118122   6.316   4.328   4.687
 5741SOL    HW218123   6.316   4.165   4.696
 5742SOL     OW18124   4.650   6.752   2.519
 5742SOL    HW118125   4.653   6.839   2.569
 5742SOL    HW218126   4.556   6.718   2.517
 5743SOL     OW18127   2.461   6.157   4.986
 5743SOL    HW118128   2.382   6.127   4.933
 5743SOL    HW218129   2.476   6.255   4.971
 5744SOL     OW18130   4.840   1.113   0.838
 5744SOL    HW118131   4.793   1.202   0.830
 5744SOL    HW218132   4.938   1.126   0.820
 5745SOL     OW18133   1.758   1.515   4.226
 5745SOL    HW118134   1.777   1.465   4.311
 5745SOL    HW218135   1.825   1.588   4.214
 5746SOL     OW18136   5.618   6.825   1.138
 5746SOL    HW118137   5.533   6.785   1.173
 5746SOL    HW218138   5.603   6.859   1.045
 5747SOL     OW18139   1.010   4.762   2.343
 5747SOL    HW118140   1.106   4.749   2.319
 5747SOL    HW218141   1.000   4.848   2.393
 5748SOL     OW18142   1.782   7.007   0.363
 5748SOL    HW118143   1.845   0.063   0.374
 5748SOL    HW218144   1.689   0.021   0.347
 5749SOL     OW18145   1.756   6.081   4.418
 5749SOL    HW118146   1.813   6.162   4.413
 5749SOL    HW218147   1.776   6.020   4.341
 5750SOL     OW18148   6.485   5.995   4.600
 5750SOL    HW118149   6.444   5.996   4.691
 5750SOL    HW218150   6.534   5.909   4.586
 5751SOL     OW18151   2.349   2.709   4.672
 5751SOL    HW118152   2.267   2.682   4.621
 5751SOL    HW218153   2.336   2.801   4.709
 5752SOL     OW18154   6.712   0.586   0.284
 5752SOL    HW118155   6.707   0.499   0.332
 5752SOL    HW218156   6.751   0.655   0.346
 5753SOL     OW18157   3.623   3.263   4.125
 5753SOL    HW118158   3.644   3.351   4.081
 5753SOL    HW218159   3.685   3.249   4.202
 5754SOL     OW18160   6.720   4.835   1.957
 5754SOL    HW118161   6.638   4.867   2.004
 5754SOL    HW218162   6.747   4.746   1.994
 5755SOL     OW18163   2.551   2.706   6.336
 5755SOL    HW118164   2.622   2.697   6.267
 5755SOL    HW218165   2.504   2.618   6.346
 5756SOL     OW18166   6.258   0.029   3.579
 5756SOL    HW118167   6.200   6.972   3.555
 5756SOL    HW218168   6.205   0.113   3.575
 5757SOL     OW18169   0.191   6.634   3.264
 5757SOL    HW118170   0.155   6.613   3.355
 5757SOL    HW218171   0.175   6.730   3.242
 5758SOL     OW18172   2.387   0.401   4.634
 5758SOL    HW118173   2.484   0.408   4.609
 5758SOL    HW218174   2.370   0.311   4.674
 5759SOL     OW18175   5.003   2.110   0.136
 5759SOL    HW118176   5.026   2.044   0.064
 5759SOL    HW218177   4.954   2.187   0.095
 5760SOL     OW18178   6.965   3.904   0.801
 5760SOL    HW118179   6.947   3.854   0.716
 5760SOL    HW218180   6.899   3.979   0.810
 5761SOL     OW18181   6.005   5.624   6.638
 5761SOL    HW118182   5.928   5.674   6.679
 5761SOL    HW218183   6.086   5.683   6.636
 5762SOL     OW18184   4.544   3.961   0.398
 5762SOL    HW118185   4.518   4.058   0.400
 5762SOL    HW218186   4.468   3.906   0.433
 5763SOL     OW18187   6.936   6.675   0.323
 5763SOL    HW118188   6.926   6.702   0.418
 5763SOL    HW218189   7.012   6.611   0.314
 5764SOL     OW18190   5.225   5.027   5.533
 5764SOL    HW118191   5.173   5.112   5.519
 5764SOL    HW218192   5.239   4.982   5.445
 5765SOL     OW18193   5.958   2.436   0.543
 5765SOL    HW118194   5.975   2.477   0.633
 5765SOL    HW218195   6.045   2.429   0.493
 5766SOL     OW18196   2.301   1.996   6.910
 5766SOL    HW118197   2.321   2.092   6.890
 5766SOL    HW218198   2.207   1.975   6.883
 5767SOL     OW18199   1.579   1.184   0.195
 5767SOL    HW118200   1.633   1.261   0.230
 5767SOL    HW218201   1.533   1.212   0.110
 5768SOL     OW18202   1.458   6.227   3.787
 5768SOL    HW118203   1.496   6.315   3.758
 5768SOL    HW218204   1.523   6.154   3.764
 5769SOL     OW18205   2.453   6.039   4.564
 5769SOL    HW118206   2.362   6.000   4.578
 5769SOL    HW218207   2.501   5.988   4.492
 5770SOL     OW18208   6.258   6.233   0.064
 5770SOL    HW118209   6.286   6.166   0.132
 5770SOL    HW218210   6.254   6.324   0.106
 5771SOL     OW18211   1.622   0.096   3.652
 5771SOL    HW118212   1.571   0.169   3.607
 5771SOL    HW218213   1.560   0.019   3.670
 5772SOL     OW18214   5.989   1.975   1.571
 5772SOL    HW118215   5.969   2.066   1.535
 5772SOL    HW218216   5.905   1.934   1.606
 5773SOL     OW18217   4.634   0.469   3.386
 5773SOL    HW118218   4.644   0.385   3.440
 5773SOL    HW218219   4.717   0.524   3.395
 5774SOL     OW18220   2.460   6.179   3.426
 5774SOL    HW118221   2.425   6.241   3.496
 5774SOL    HW218222   2.466   6.087   3.464
 5775SOL     OW18223   1.536   1.079   2.190
 5775SOL    HW118224   1.456   1.019   2.183
 5775SOL    HW218225   1.517   1.165   2.143
 5776SOL     OW18226   6.936   0.603   4.490
 5776SOL    HW118227   7.016   0.654   4.523
 5776SOL    HW218228   6.865   0.667   4.461
 5777SOL     OW18229   6.457   6.818   5.814
 5777SOL    HW118230   6.384   6.887   5.818
 5777SOL    HW218231   6.504   6.825   5.726
 5778SOL     OW18232   1.900   0.853   1.527
 5778SOL    HW118233   1.913   0.880   1.431
 5778SOL    HW218234   1.823   0.791   1.533
 5779SOL     OW18235   4.886   2.304   0.868
 5779SOL    HW118236   4.923   2.346   0.951
 5779SOL    HW218237   4.936   2.339   0.789
 5780SOL     OW18238   6.167   5.523   3.564
 5780SOL    HW118239   6.125   5.441   3.525
 5780SOL    HW218240   6.189   5.588   3.492
 5781SOL     OW18241   0.283   4.558   4.575
 5781SOL    HW118242   0.231   4.643   4.563
 5781SOL    HW218243   0.355   4.573   4.643
 5782SOL     OW18244   0.968   1.514   0.827
 5782SOL    HW118245   0.984   1.596   0.772
 5782SOL    HW218246   0.875   1.515   0.863
 5783SOL     OW18247   1.894   0.492   1.786
 5783SOL    HW118248   1.923   0.587   1.796
 5783SOL    HW218249   1.862   0.457   1.875
 5784SOL     OW18250   6.895   5.865   0.417
 5784SOL    HW118251   6.860   5.950   0.379
 5784SOL    HW218252   6.989   5.879   0.449
 5785SOL     OW18253   1.775   2.135   0.562
 5785SOL    HW118254   1.698   2.159   0.503
 5785SOL    HW218255   1.860   2.169   0.521
 5786SOL     OW18256   0.547   4.531   0.941
 5786SOL    HW118257   0.641   4.496   0.939
 5786SOL    HW218258   0.525   4.571   0.852
 5787SOL     OW18259   4.045   1.599   5.211
 5787SOL    HW118260   4.100   1.578   5.292
 5787SOL    HW218261   4.008   1.691   5.218
 5788SOL     OW18262   3.713   1.789   1.220
 5788SOL    HW118263   3.657   1.739   1.154
 5788SOL    HW218264   3.754   1.724   1.284
 5789SOL     OW18265   3.313   4.632   0.561
 5789SOL    HW118266   3.310   4.534   0.583
 5789SOL    HW218267   3.220   4.670   0.565
 5790SOL     OW18268   0.453   4.695   4.817
 5790SOL    HW118269   0.544   4.737   4.820
 5790SOL    HW218270   0.408   4.706   4.905
 5791SOL     OW18271   3.372   1.577   2.598
 5791SOL    HW118272   3.447   1.638   2.620
 5791SOL    HW218273   3.287   1.629   2.592
 5792SOL     OW18274   5.769   2.921   2.370
 5792SOL    HW118275   5.683   2.923   2.318
 5792SOL    HW218276   5.773   2.838   2.425
 5793SOL     OW18277   5.307   0.584   3.976
 5793SOL    HW118278   5.393   0.536   3.960
 5793SOL    HW218279   5.231   0.527   3.945
 5794SOL     OW18280   2.109   1.200   6.838
 5794SOL    HW118281   2.197   1.199   6.886
 5794SOL    HW218282   2.065   1.289   6.852
 5795SOL     OW18283   0.116   6.632   6.828
 5795SOL    HW118284   0.125   6.601   6.734
 5795SOL    HW218285   0.160   6.721   6.839
 5796SOL     OW18286   4.744   0.650   5.726
 5796SOL    HW118287   4.786   0.694   5.805
 5796SOL    HW218288   4.795   0.674   5.644
 5797SOL     OW18289   4.708   2.567   0.298
 5797SOL    HW118290   4.692   2.666   0.305
 5797SOL    HW218291   4.680   2.536   0.207
 5798SOL     OW18292   6.519   5.283   4.001
 5798SOL    HW118293   6.511   5.306   4.098
 5798SOL    HW218294   6.430   5.293   3.957
 5799SOL     OW18295   0.187   0.884   3.740
 5799SOL    HW118296   0.285   0.904   3.731
 5799SOL    HW218297   0.175   0.794   3.782
 5800SOL     OW18298   6.273   6.814   1.605
 5800SOL    HW118299   6.240   6.908   1.597
 5800SOL    HW218300   6.224   6.757   1.539
 5801SOL     OW18301   1.649   2.870   3.245
 5801SOL    HW118302   1.564   2.908   3.282
 5801SOL    HW218303   1.710   2.844   3.320
 5802SOL     OW18304   0.055   3.240   2.268
 5802SOL    HW118305   7.004   3.287   2.319
 5802SOL    HW218306   0.049   3.142   2.284
 5803SOL     OW18307   2.048   5.494   2.306
 5803SOL    HW118308   2.057   5.593   2.310
 5803SOL    HW218309   1.962   5.466   2.349
 5804SOL     OW18310   0.340   4.933   2.853
 5804SOL    HW118311   0.283   5.010   2.880
 5804SOL    HW218312   0.302   4.849   2.893
 5805SOL     OW18313   1.991   3.519   0.473
 5805SOL    HW118314   1.925   3.592   0.453
 5805SOL    HW218315   1.956   3.461   0.546
 5806SOL     OW18316   6.269   5.109   4.421
 5806SOL    HW118317   6.310   5.181   4.364
 5806SOL    HW218318   6.263   5.025   4.369
 5807SOL     OW18319   0.884   4.698   0.741
 5807SOL    HW118320   0.862   4.640   0.819
 5807SOL    HW218321   0.897   4.792   0.772
 5808SOL     OW18322   6.276   5.303   3.886
 5808SOL    HW118323   6.186   5.290   3.845
 5808SOL    HW218324   6.329   5.366   3.829
 5809SOL     OW18325   6.572   1.925   5.120
 5809SOL    HW118326   6.494   1.877   5.160
 5809SOL    HW218327   6.607   1.992   5.186
 5810SOL     OW18328   4.711   1.563   5.287
 5810SOL    HW118329   4.722   1.534   5.382
 5810SOL    HW218330   4.619   1.539   5.255
 5811SOL     OW18331   3.161   0.451   4.952
 5811SOL    HW118332   3.213   0.387   4.895
 5811SOL    HW218333   3.216   0.478   5.030
 5812SOL     OW18334   5.691   3.363   4.827
 5812SOL    HW118335   5.722   3.284   4.881
 5812SOL    HW218336   5.674   3.440   4.888
 5813SOL     OW18337   1.819   1.802   1.415
 5813SOL    HW118338   1.780   1.886   1.451
 5813SOL    HW218339   1.762   1.724   1.441
 5814SOL     OW18340   6.437   3.810   2.111
 5814SOL    HW118341   6.490   3.725   2.115
 5814SOL    HW218342   6.390   3.824   2.198
 5815SOL     OW18343   3.835   1.499   4.070
 5815SOL    HW118344   3.812   1.403   4.087
 5815SOL    HW218345   3.757   1.546   4.029
 5816SOL     OW18346   5.096   4.613   0.654
 5816SOL    HW118347   5.165   4.547   0.626
 5816SOL    HW218348   5.005   4.570   0.650
 5817SOL     OW18349   5.799   4.157   5.803
 5817SOL    HW118350   5.848   4.128   5.721
 5817SOL    HW218351   5.704   4.124   5.799
 5818SOL     OW18352   6.605   5.150   5.213
 5818SOL    HW118353   6.689   5.141   5.265
 5818SOL    HW218354   6.562   5.060   5.203
 5819SOL     OW18355   3.592   0.330   0.066
 5819SOL    HW118356   3.634   0.399   0.008
 5819SOL    HW218357   3.651   0.311   0.144
 5820SOL     OW18358   4.442   4.517   3.490
 5820SOL    HW118359   4.490   4.462   3.421
 5820SOL    HW218360   4.490   4.510   3.577
 5821SOL     OW18361   0.316   0.830   2.089
 5821SOL    HW118362   0.332   0.919   2.132
 5821SOL    HW218363   0.218   0.813   2.083
 5822SOL     OW18364   1.369   2.816   1.340
 5822SOL    HW118365   1.404   2.904   1.310
 5822SOL    HW218366   1.351   2.758   1.261
 5823SOL     OW18367   2.771   0.138   4.486
 5823SOL    HW118368   2.730   0.205   4.424
 5823SOL    HW218369   2.857   0.175   4.523
 5824SOL     OW18370   0.148   5.626   2.441
 5824SOL    HW118371   0.224   5.599   2.383
 5824SOL    HW218372   0.113   5.715   2.412
 5825SOL     OW18373   0.040   0.185   4.886
 5825SOL    HW118374   0.098   0.180   4.967
 5825SOL    HW218375   0.094   0.219   4.808
 5826SOL     OW18376   0.803   4.925   5.995
 5826SOL    HW118377   0.738   4.950   5.924
 5826SOL    HW218378   0.788   4.830   6.023
 5827SOL     OW18379   1.699   3.801   5.168
 5827SOL    HW118380   1.758   3.729   5.204
 5827SOL    HW218381   1.754   3.883   5.151
 5828SOL     OW18382   6.007   2.061   2.004
 5828SOL    HW118383   5.919   2.102   1.981
 5828SOL    HW218384   6.010   2.039   2.101
 5829SOL     OW18385   1.630   0.283   3.921
 5829SOL    HW118386   1.567   0.232   3.862
 5829SOL    HW218387   1.722   0.279   3.883
 5830SOL     OW18388   5.539   6.598   5.860
 5830SOL    HW118389   5.560   6.501   5.865
 5830SOL    HW218390   5.549   6.639   5.951
 5831SOL     OW18391   1.242   0.995   5.719
 5831SOL    HW118392   1.267   0.900   5.740
 5831SOL    HW218393   1.145   1.000   5.697
 5832SOL     OW18394   3.658   5.295   0.185
 5832SOL    HW118395   3.588   5.244   0.135
 5832SOL    HW218396   3.726   5.330   0.121
 5833SOL     OW18397   3.524   4.475   5.295
 5833SOL    HW118398   3.459   4.545   5.326
 5833SOL    HW218399   3.482   4.385   5.304
 5834SOL     OW18400   0.077   2.922   0.209
 5834SOL    HW118401   0.065   2.971   0.123
 5834SOL    HW218402   0.116   2.984   0.278
 5835SOL     OW18403   5.514   2.953   3.523
 5835SOL    HW118404   5.418   2.931   3.501
 5835SOL    HW218405   5.521   2.978   3.619
 5836SOL     OW18406   3.267   0.499   1.729
 5836SOL    HW118407   3.220   0.421   1.769
 5836SOL    HW218408   3.337   0.532   1.793
 5837SOL     OW18409   2.970   4.300   6.947
 5837SOL    HW118410   2.994   4.307   6.851
 5837SOL    HW218411   2.986   4.207   6.980
 5838SOL     OW18412   3.197   2.108   1.069
 5838SOL    HW118413   3.215   2.192   1.120
 5838SOL    HW218414   3.282   2.059   1.053
 5839SOL     OW18415   1.127   2.147   2.105
 5839SOL    HW118416   1.051   2.167   2.043
 5839SOL    HW218417   1.200   2.101   2.055
 5840SOL     OW18418   1.141   4.904   6.377
 5840SOL    HW118419   1.041   4.898   6.389
 5840SOL    HW218420   1.161   4.936   6.285
 5841SOL     OW18421   4.938   1.509   2.545
 5841SOL    HW118422   4.878   1.493   2.467
 5841SOL    HW218423   4.895   1.573   2.609
 5842SOL     OW18424   4.882   2.699   1.706
 5842SOL    HW118425   4.932   2.747   1.633
 5842SOL    HW218426   4.919   2.607   1.717
 5843SOL     OW18427   1.519   4.345   2.500
 5843SOL    HW118428   1.619   4.345   2.502
 5843SOL    HW218429   1.485   4.254   2.524
 5844SOL     OW18430   1.606   5.679   5.722
 5844SOL    HW118431   1.700   5.657   5.745
 5844SOL    HW218432   1.557   5.708   5.805
 5845SOL     OW18433   0.341   0.514   2.410
 5845SOL    HW118434   0.408   0.564   2.357
 5845SOL    HW218435   0.369   0.512   2.506
 5846SOL     OW18436   6.078   3.299   6.116
 5846SOL    HW118437   6.126   3.386   6.117
 5846SOL    HW218438   6.113   3.241   6.190
 5847SOL     OW18439   2.892   2.172   2.150
 5847SOL    HW118440   2.907   2.231   2.071
 5847SOL    HW218441   2.804   2.126   2.141
 5848SOL     OW18442   1.779   5.788   3.321
 5848SOL    HW118443   1.681   5.804   3.318
 5848SOL    HW218444   1.828   5.875   3.331
 5849SOL     OW18445   0.998   0.421   5.518
 5849SOL    HW118446   0.970   0.393   5.426
 5849SOL    HW218447   1.021   0.518   5.519
 5850SOL     OW18448   6.724   3.207   1.484
 5850SOL    HW118449   6.730   3.283   1.549
 5850SOL    HW218450   6.634   3.208   1.440
 5851SOL     OW18451   5.059   3.242   2.725
 5851SOL    HW118452   5.057   3.196   2.814
 5851SOL    HW218453   5.005   3.190   2.659
 5852SOL     OW18454   5.911   6.287   3.238
 5852SOL    HW118455   5.925   6.273   3.336
 5852SOL    HW218456   5.860   6.209   3.200
 5853SOL     OW18457   3.331   5.257   4.847
 5853SOL    HW118458   3.349   5.293   4.755
 5853SOL    HW218459   3.239   5.282   4.875
 5854SOL     OW18460   4.338   4.229   6.616
 5854SOL    HW118461   4.292   4.152   6.574
 5854SOL    HW218462   4.376   4.201   6.705
 5855SOL     OW18463   0.960   1.270   5.146
 5855SOL    HW118464   0.905   1.346   5.183
 5855SOL    HW218465   0.912   1.228   5.069
 5856SOL     OW18466   2.131   6.205   3.371
 5856SOL    HW118467   2.103   6.294   3.335
 5856SOL    HW218468   2.226   6.187   3.347
 5857SOL     OW18469   6.326   1.897   5.932
 5857SOL    HW118470   6.325   1.826   6.002
 5857SOL    HW218471   6.233   1.924   5.910
 5858SOL     OW18472   2.539   2.248   2.728
 5858SOL    HW118473   2.457   2.191   2.732
 5858SOL    HW218474   2.522   2.335   2.774
 5859SOL     OW18475   5.808   6.064   1.734
 5859SOL    HW118476   5.842   6.101   1.647
 5859SOL    HW218477   5.866   6.096   1.809
 5860SOL     OW18478   0.196   3.370   2.546
 5860SOL    HW118479   0.230   3.371   2.452
 5860SOL    HW218480   0.105   3.412   2.550
 5861SOL     OW18481   4.609   1.919   4.539
 5861SOL    HW118482   4.577   1.860   4.614
 5861SOL    HW218483   4.707   1.905   4.526
 5862SOL     OW18484   5.960   5.518   1.055
 5862SOL    HW118485   5.933   5.566   1.139
 5862SOL    HW218486   5.884   5.516   0.991
 5863SOL     OW18487   3.280   2.069   5.160
 5863SOL    HW118488   3.222   2.137   5.115
 5863SOL    HW218489   3.234   2.035   5.242
 5864SOL     OW18490   3.966   3.678   2.309
 5864SOL    HW118491   4.010   3.588   2.316
 5864SOL    HW218492   4.006   3.740   2.377
 5865SOL     OW18493   5.675   0.028   5.237
 5865SOL    HW118494   5.638   6.969   5.189
 5865SOL    HW218495   5.634   0.032   5.328
 5866SOL     OW18496   3.569   4.261   0.595
 5866SOL    HW118497   3.632   4.339   0.600
 5866SOL    HW218498   3.571   4.212   0.682
 5867SOL     OW18499   2.403   3.461   1.076
 5867SOL    HW118500   2.468   3.522   1.121
 5867SOL    HW218501   2.391   3.490   0.981
 5868SOL     OW18502   1.196   1.167   5.404
 5868SOL    HW118503   1.109   1.194   5.446
 5868SOL    HW218504   1.271   1.184   5.468
 5869SOL     OW18505   2.037   6.598   2.994
 5869SOL    HW118506   2.052   6.604   2.895
 5869SOL    HW218507   1.973   6.670   3.022
 5870SOL     OW18508   4.286   6.515   4.888
 5870SOL    HW118509   4.299   6.540   4.984
 5870SOL    HW218510   4.329   6.427   4.870
 5871SOL     OW18511   3.197   3.365   1.362
 5871SOL    HW118512   3.164   3.317   1.443
 5871SOL    HW218513   3.177   3.310   1.280
 5872SOL     OW18514   4.610   6.178   1.213
 5872SOL    HW118515   4.544   6.245   1.246
 5872SOL    HW218516   4.590   6.089   1.255
 5873SOL     OW18517   3.980   1.377   2.170
 5873SOL    HW118518   4.042   1.399   2.246
 5873SOL    HW218519   3.956   1.280   2.174
 5874SOL     OW18520   2.915   4.886   6.545
 5874SOL    HW118521   2.986   4.850   6.485
 5874SOL    HW218522   2.852   4.944   6.492
 5875SOL     OW18523   4.172   1.244   0.190
 5875SOL    HW118524   4.249   1.214   0.135
 5875SOL    HW218525   4.153   1.340   0.172
 5876SOL     OW18526   3.992   2.919   0.402
 5876SOL    HW118527   3.953   2.960   0.484
 5876SOL    HW218528   3.921   2.911   0.332
 5877SOL     OW18529   0.732   0.191   1.664
 5877SOL    HW118530   0.659   0.259   1.666
 5877SOL    HW218531   0.797   0.215   1.592
 5878SOL     OW18532   6.044   5.197   3.747
 5878SOL    HW118533   6.012   5.233   3.659
 5878SOL    HW218534   6.012   5.103   3.758
 5879SOL     OW18535   1.572   4.356   6.745
 5879SOL    HW118536   1.533   4.312   6.825
 5879SOL    HW218537   1.665   4.322   6.730
 5880SOL     OW18538   4.686   4.556   6.117
 5880SOL    HW118539   4.700   4.470   6.166
 5880SOL    HW218540   4.743   4.627   6.157
 5881SOL     OW18541   0.627   0.227   2.421
 5881SOL    HW118542   0.547   0.184   2.379
 5881SOL    HW218543   0.709   0.204   2.368
 5882SOL     OW18544   7.020   5.383   0.675
 5882SOL    HW118545   6.936   5.330   0.667
 5882SOL    HW218546   6.998   5.478   0.695
 5883SOL     OW18547   0.881   1.566   6.135
 5883SOL    HW118548   0.958   1.512   6.101
 5883SOL    HW218549   0.874   1.556   6.234
 5884SOL     OW18550   4.273   0.898   4.386
 5884SOL    HW118551   4.373   0.885   4.385
 5884SOL    HW218552   4.252   0.994   4.401
 5885SOL     OW18553   0.544   6.618   2.386
 5885SOL    HW118554   0.627   6.606   2.331
 5885SOL    HW218555   0.470   6.651   2.327
 5886SOL     OW18556   6.921   2.554   4.219
 5886SOL    HW118557   6.940   2.494   4.297
 5886SOL    HW218558   6.984   2.534   4.145
 5887SOL     OW18559   2.632   1.834   1.982
 5887SOL    HW118560   2.686   1.844   1.898
 5887SOL    HW218561   2.561   1.765   1.967
 5888SOL     OW18562   3.030   0.494   1.344
 5888SOL    HW118563   2.993   0.457   1.429
 5888SOL    HW218564   3.099   0.432   1.308
 5889SOL     OW18565   0.433   0.666   0.585
 5889SOL    HW118566   0.489   0.749   0.585
 5889SOL    HW218567   0.337   0.691   0.599
 5890SOL     OW18568   2.170   1.071   3.183
 5890SOL    HW118569   2.227   1.104   3.259
 5890SOL    HW218570   2.227   1.018   3.120
 5891SOL     OW18571   3.170   3.369   6.862
 5891SOL    HW118572   3.073   3.346   6.858
 5891SOL    HW218573   3.216   3.306   6.923
 5892SOL     OW18574   0.849   5.734   2.330
 5892SOL    HW118575   0.791   5.746   2.249
 5892SOL    HW218576   0.916   5.662   2.313
 5893SOL     OW18577   2.306   4.514   3.605
 5893SOL    HW118578   2.218   4.515   3.557
 5893SOL    HW218579   2.371   4.457   3.554
 5894SOL     OW18580   6.558   5.610   4.091
 5894SOL    HW118581   6.618   5.600   4.012
 5894SOL    HW218582   6.582   5.542   4.160
 5895SOL     OW18583   5.423   3.746   4.025
 5895SOL    HW118584   5.349   3.792   4.074
 5895SOL    HW218585   5.428   3.650   4.055
 5896SOL     OW18586   3.436   1.014   0.590
 5896SOL    HW118587   3.360   0.949   0.596
 5896SOL    HW218588   3.422   1.075   0.512
 5897SOL     OW18589   4.476   6.976   1.067
 5897SOL    HW118590   4.530   7.002   0.987
 5897SOL    HW218591   4.431   6.888   1.049
 5898SOL     OW18592   2.312   0.240   3.975
 5898SOL    HW118593   2.248   0.187   3.920
 5898SOL    HW218594   2.331   0.192   4.060
 5899SOL     OW18595   6.385   5.537   0.395
 5899SOL    HW118596   6.405   5.589   0.478
 5899SOL    HW218597   6.440   5.571   0.319
 5900SOL     OW18598   6.320   5.102   3.645
 5900SOL    HW118599   6.307   5.148   3.732
 5900SOL    HW218600   6.388   5.029   3.656
 5901SOL     OW18601   2.422   1.531   0.208
 5901SOL    HW118602   2.334   1.496   0.240
 5901SOL    HW218603   2.468   1.461   0.153
 5902SOL     OW18604   5.780   2.067   4.980
 5902SOL    HW118605   5.760   2.111   5.067
 5902SOL    HW218606   5.699   2.019   4.946
 5903SOL     OW18607   4.904   4.320   6.864
 5903SOL    HW118608   4.834   4.356   6.802
 5903SOL    HW218609   4.979   4.385   6.872
 5904SOL     OW18610   0.774   4.532   1.589
 5904SOL    HW118611   0.677   4.517   1.608
 5904SOL    HW218612   0.812   4.452   1.543
 5905SOL     OW18613   6.326   6.703   3.806
 5905SOL    HW118614   6.416   6.739   3.782
 5905SOL    HW218615   6.311   6.616   3.758
 5906SOL     OW18616   3.575   2.101   3.726
 5906SOL    HW118617   3.658   2.094   3.671
 5906SOL    HW218618   3.600   2.104   3.823
 5907SOL     OW18619   0.968   4.984   0.700
 5907SOL    HW118620   1.026   4.965   0.622
 5907SOL    HW218621   1.010   5.056   0.756
 5908SOL     OW18622   0.553   3.034   6.824
 5908SOL    HW118623   0.499   2.971   6.768
 5908SOL    HW218624   0.543   3.010   6.920
 5909SOL     OW18625   0.027   5.227   0.948
 5909SOL    HW118626   0.039   5.320   0.982
 5909SOL    HW218627   0.012   5.230   0.849
 5910SOL     OW18628   0.575   4.050   3.596
 5910SOL    HW118629   0.640   3.986   3.636
 5910SOL    HW218630   0.582   4.138   3.642
 5911SOL     OW18631   7.015   5.593   6.331
 5911SOL    HW118632   0.084   5.636   6.328
 5911SOL    HW218633   7.011   5.519   6.264
 5912SOL     OW18634   6.097   1.961   6.726
 5912SOL    HW118635   6.182   1.978   6.674
 5912SOL    HW218636   6.022   1.947   6.662
 5913SOL     OW18637   5.061   2.960   6.054
 5913SOL    HW118638   5.143   2.931   6.103
 5913SOL    HW218639   5.061   3.060   6.044
 5914SOL     OW18640   1.460   5.538   6.084
 5914SOL    HW118641   1.521   5.472   6.040
 5914SOL    HW218642   1.383   5.489   6.125
 5915SOL     OW18643   4.567   5.381   1.243
 5915SOL    HW118644   4.492   5.401   1.181
 5915SOL    HW218645   4.633   5.321   1.198
 5916SOL     OW18646   4.992   6.279   4.029
 5916SOL    HW118647   4.966   6.193   4.072
 5916SOL    HW218648   4.959   6.281   3.935
 5917SOL     OW18649   2.968   3.698   3.977
 5917SOL    HW118650   3.016   3.638   4.041
 5917SOL    HW218651   2.949   3.648   3.892
 5918SOL     OW18652   2.167   3.633   6.165
 5918SOL    HW118653   2.162   3.656   6.068
 5918SOL    HW218654   2.165   3.534   6.177
 5919SOL     OW18655   3.402   3.185   2.208
 5919SOL    HW118656   3.321   3.230   2.170
 5919SOL    HW218657   3.375   3.098   2.249
 5920SOL     OW18658   4.335   0.367   6.656
 5920SOL    HW118659   4.290   0.456   6.650
 5920SOL    HW218660   4.306   0.310   6.579
 5921SOL     OW18661   3.932   5.266   6.789
 5921SOL    HW118662   3.998   5.197   6.817
 5921SOL    HW218663   3.865   5.224   6.728
 5922SOL     OW18664   5.605   5.248   2.770
 5922SOL    HW118665   5.691   5.234   2.820
 5922SOL    HW218666   5.625   5.285   2.679
 5923SOL     OW18667   6.342   0.988   1.367
 5923SOL    HW118668   6.340   0.935   1.283
 5923SOL    HW218669   6.336   1.086   1.345
 5924SOL     OW18670   6.590   0.895   3.002
 5924SOL    HW118671   6.501   0.909   3.046
 5924SOL    HW218672   6.592   0.803   2.961
 5925SOL     OW18673   4.046   6.577   1.842
 5925SOL    HW118674   4.061   6.650   1.909
 5925SOL    HW218675   3.978   6.607   1.775
 5926SOL     OW18676   4.057   5.489   1.339
 5926SOL    HW118677   4.136   5.444   1.379
 5926SOL    HW218678   3.998   5.525   1.411
 5927SOL     OW18679   1.335   4.139   2.601
 5927SOL    HW118680   1.348   4.065   2.535
 5927SOL    HW218681   1.356   4.105   2.693
 5928SOL     OW18682   4.191   0.460   0.936
 5928SOL    HW118683   4.094   0.439   0.920
 5928SOL    HW218684   4.245   0.376   0.932
 5929SOL     OW18685   0.510   6.874   6.827
 5929SOL    HW118686   0.562   6.810   6.884
 5929SOL    HW218687   0.483   6.829   6.742
 5930SOL     OW18688   6.605   3.532   3.752
 5930SOL    HW118689   6.570   3.622   3.778
 5930SOL    HW218690   6.692   3.543   3.705
 5931SOL     OW18691   6.560   5.370   3.263
 5931SOL    HW118692   6.624   5.344   3.191
 5931SOL    HW218693   6.522   5.288   3.306
 5932SOL     OW18694   3.295   0.492   0.648
 5932SOL    HW118695   3.247   0.445   0.722
 5932SOL    HW218696   3.272   0.449   0.561
 5933SOL     OW18697   6.433   6.320   3.146
 5933SOL    HW118698   6.452   6.396   3.083
 5933SOL    HW218699   6.519   6.275   3.171
 5934SOL     OW18700   3.801   2.977   4.333
 5934SOL    HW118701   3.807   2.971   4.233
 5934SOL    HW218702   3.848   3.060   4.364
 5935SOL     OW18703   5.290   5.253   6.363
 5935SOL    HW118704   5.263   5.308   6.284
 5935SOL    HW218705   5.219   5.185   6.382
 5936SOL     OW18706   3.707   2.873   1.193
 5936SOL    HW118707   3.687   2.872   1.095
 5936SOL    HW218708   3.686   2.964   1.230
 5937SOL     OW18709   0.343   4.422   2.546
 5937SOL    HW118710   0.244   4.409   2.538
 5937SOL    HW218711   0.387   4.404   2.458
 5938SOL     OW18712   0.540   5.580   3.168
 5938SOL    HW118713   0.561   5.505   3.231
 5938SOL    HW218714   0.543   5.547   3.074
 5939SOL     OW18715   3.216   6.839   2.729
 5939SOL    HW118716   3.173   6.904   2.666
 5939SOL    HW218717   3.163   6.754   2.729
 5940SOL     OW18718   5.206   5.653   0.788
 5940SOL    HW118719   5.118   5.632   0.830
 5940SOL    HW218720   5.191   5.711   0.708
 5941SOL     OW18721   6.138   2.875   2.233
 5941SOL    HW118722   6.137   2.971   2.206
 5941SOL    HW218723   6.131   2.869   2.333
 5942SOL     OW18724   4.753   3.497   6.825
 5942SOL    HW118725   4.778   3.423   6.763
 5942SOL    HW218726   4.664   3.534   6.798
 5943SOL     OW18727   3.102   4.939   6.909
 5943SOL    HW118728   3.149   5.021   6.876
 5943SOL    HW218729   3.119   4.929   7.007
 5944SOL     OW18730   6.349   2.723   1.072
 5944SOL    HW118731   6.417   2.732   0.999
 5944SOL    HW218732   6.312   2.631   1.073
 5945SOL     OW18733   6.217   5.493   5.011
 5945SOL    HW118734   6.291   5.540   4.963
 5945SOL    HW218735   6.225   5.509   5.110
 5946SOL     OW18736   3.754   3.067   6.286
 5946SOL    HW118737   3.843   3.104   6.262
 5946SOL    HW218738   3.706   3.131   6.346
 5947SOL     OW18739   3.719   3.631   1.941
 5947SOL    HW118740   3.631   3.583   1.943
 5947SOL    HW218741   3.758   3.623   1.849
 5948SOL     OW18742   4.533   5.279   3.730
 5948SOL    HW118743   4.514   5.184   3.756
 5948SOL    HW218744   4.474   5.340   3.783
 5949SOL     OW18745   5.219   3.424   2.079
 5949SOL    HW118746   5.246   3.384   2.166
 5949SOL    HW218747   5.128   3.463   2.086
 5950SOL     OW18748   4.708   1.503   5.991
 5950SOL    HW118749   4.723   1.511   5.892
 5950SOL    HW218750   4.662   1.586   6.024
 5951SOL     OW18751   1.307   5.765   4.026
 5951SOL    HW118752   1.259   5.712   4.096
 5951SOL    HW218753   1.273   5.859   4.026
 5952SOL     OW18754   5.424   4.837   3.179
 5952SOL    HW118755   5.383   4.926   3.158
 5952SOL    HW218756   5.522   4.839   3.158
 5953SOL     OW18757   6.386   2.394   5.440
 5953SOL    HW118758   6.429   2.389   5.530
 5953SOL    HW218759   6.292   2.359   5.446
 5954SOL     OW18760   0.339   4.257   6.210
 5954SOL    HW118761   0.394   4.178   6.184
 5954SOL    HW218762   0.364   4.336   6.153
 5955SOL     OW18763   5.052   6.145   2.702
 5955SOL    HW118764   5.066   6.111   2.795
 5955SOL    HW218765   5.023   6.070   2.643
 5956SOL     OW18766   4.275   1.312   5.347
 5956SOL    HW118767   4.351   1.248   5.353
 5956SOL    HW218768   4.191   1.263   5.324
 5957SOL     OW18769   4.390   0.831   5.058
 5957SOL    HW118770   4.365   0.736   5.038
 5957SOL    HW218771   4.307   0.886   5.071
 5958SOL     OW18772   5.693   0.065   3.192
 5958SOL    HW118773   5.707   6.989   3.170
 5958SOL    HW218774   5.728   0.121   3.117
 5959SOL     OW18775   3.892   2.779   5.293
 5959SOL    HW118776   3.809   2.737   5.258
 5959SOL    HW218777   3.972   2.733   5.254
 5960SOL     OW18778   3.196   4.987   4.634
 5960SOL    HW118779   3.123   4.959   4.572
 5960SOL    HW218780   3.182   4.944   4.723
 5961SOL     OW18781   5.328   1.176   2.651
 5961SOL    HW118782   5.337   1.192   2.749
 5961SOL    HW218783   5.284   1.255   2.608
 5962SOL     OW18784   6.018   6.121   0.013
 5962SOL    HW118785   6.100   6.177   0.020
 5962SOL    HW218786   5.968   6.124   0.099
 5963SOL     OW18787   3.774   3.710   5.405
 5963SOL    HW118788   3.873   3.693   5.402
 5963SOL    HW218789   3.746   3.760   5.323
 5964SOL     OW18790   0.487   5.261   5.507
 5964SOL    HW118791   0.418   5.302   5.567
 5964SOL    HW218792   0.524   5.330   5.446
 5965SOL     OW18793   1.359   2.274   6.396
 5965SOL    HW118794   1.353   2.361   6.347
 5965SOL    HW218795   1.444   2.271   6.448
 5966SOL     OW18796   2.703   5.376   5.801
 5966SOL    HW118797   2.800   5.363   5.823
 5966SOL    HW218798   2.675   5.468   5.828
 5967SOL     OW18799   4.182   6.736   6.420
 5967SOL    HW118800   4.168   6.834   6.401
 5967SOL    HW218801   4.193   6.722   6.518
 5968SOL     OW18802   5.240   1.794   1.254
 5968SOL    HW118803   5.215   1.716   1.195
 5968SOL    HW218804   5.194   1.876   1.221
 5969SOL     OW18805   0.033   6.844   6.205
 5969SOL    HW118806   6.967   6.879   6.171
 5969SOL    HW218807   0.085   6.918   6.247
 5970SOL     OW18808   0.039   4.447   2.457
 5970SOL    HW118809   0.018   4.477   2.364
 5970SOL    HW218810   6.988   4.479   2.519
 5971SOL     OW18811   0.944   1.233   2.301
 5971SOL    HW118812   1.013   1.304   2.291
 5971SOL    HW218813   0.988   1.143   2.299
 5972SOL     OW18814   5.676   5.107   5.974
 5972SOL    HW118815   5.740   5.184   5.979
 5972SOL    HW218816   5.583   5.142   5.980
 5973SOL     OW18817   1.462   3.419   2.701
 5973SOL    HW118818   1.488   3.446   2.794
 5973SOL    HW218819   1.528   3.352   2.666
 5974SOL     OW18820   5.123   5.154   6.003
 5974SOL    HW118821   5.026   5.152   5.979
 5974SOL    HW218822   5.146   5.245   6.039
 5975SOL     OW18823   4.193   0.725   0.353
 5975SOL    HW118824   4.281   0.691   0.318
 5975SOL    HW218825   4.194   0.825   0.351
 5976SOL     OW18826   3.417   3.009   5.526
 5976SOL    HW118827   3.480   3.086   5.523
 5976SOL    HW218828   3.378   3.002   5.618
 5977SOL     OW18829   1.866   5.145   6.794
 5977SOL    HW118830   1.941   5.110   6.738
 5977SOL    HW218831   1.781   5.143   6.742
 5978SOL     OW18832   5.123   5.624   2.306
 5978SOL    HW118833   5.047   5.574   2.265
 5978SOL    HW218834   5.132   5.713   2.262
 5979SOL     OW18835   5.822   0.844   2.600
 5979SOL    HW118836   5.796   0.914   2.666
 5979SOL    HW218837   5.906   0.798   2.632
 5980SOL     OW18838   4.312   4.178   1.447
 5980SOL    HW118839   4.405   4.212   1.431
 5980SOL    HW218840   4.246   4.244   1.411
 5981SOL     OW18841   5.247   2.386   1.510
 5981SOL    HW118842   5.237   2.452   1.435
 5981SOL    HW218843   5.159   2.341   1.527
 5982SOL     OW18844   6.302   3.351   2.341
 5982SOL    HW118845   6.351   3.309   2.265
 5982SOL    HW218846   6.345   3.439   2.363
 5983SOL     OW18847   1.270   1.803   4.260
 5983SOL    HW118848   1.349   1.826   4.317
 5983SOL    HW218849   1.301   1.754   4.179
 5984SOL     OW18850   6.828   5.697   3.293
 5984SOL    HW118851   6.893   5.644   3.348
 5984SOL    HW218852   6.736   5.688   3.332
 5985SOL     OW18853   0.263   3.056   4.330
 5985SOL    HW118854   0.205   2.994   4.276
 5985SOL    HW218855   0.205   3.112   4.389
 5986SOL     OW18856   3.101   3.805   4.364
 5986SOL    HW118857   3.070   3.761   4.448
 5986SOL    HW218858   3.087   3.742   4.287
 5987SOL     OW18859   5.166   0.163   3.901
 5987SOL    HW118860   5.203   0.204   3.985
 5987SOL    HW218861   5.235   0.106   3.858
 5988SOL     OW18862   4.644   6.938   5.457
 5988SOL    HW118863   4.626   0.014   5.474
 5988SOL    HW218864   4.743   6.923   5.453
 5989SOL     OW18865   2.318   6.316   6.223
 5989SOL    HW118866   2.252   6.317   6.298
 5989SOL    HW218867   2.408   6.342   6.257
 5990SOL     OW18868   3.479   4.386   6.975
 5990SOL    HW118869   3.406   4.402   6.908
 5990SOL    HW218870   3.448   4.414   0.045
 5991SOL     OW18871   2.827   5.219   0.230
 5991SOL    HW118872   2.763   5.242   0.304
 5991SOL    HW218873   2.834   5.296   0.167
 5992SOL     OW18874   3.984   0.519   2.446
 5992SOL    HW118875   4.053   0.524   2.373
 5992SOL    HW218876   3.965   0.610   2.481
 5993SOL     OW18877   3.353   6.054   6.758
 5993SOL    HW118878   3.265   6.014   6.782
 5993SOL    HW218879   3.340   6.124   6.687
 5994SOL     OW18880   5.798   2.709   2.521
 5994SOL    HW118881   5.769   2.758   2.603
 5994SOL    HW218882   5.749   2.622   2.515
 5995SOL     OW18883   4.959   3.831   2.680
 5995SOL    HW118884   4.934   3.914   2.631
 5995SOL    HW218885   5.059   3.823   2.683
 5996SOL     OW18886   1.310   6.334   0.688
 5996SOL    HW118887   1.242   6.372   0.752
 5996SOL    HW218888   1.399   6.377   0.704
 5997SOL     OW18889   0.645   5.687   2.763
 5997SOL    HW118890   0.653   5.659   2.667
 5997SOL    HW218891   0.551   5.672   2.795
 5998SOL     OW18892   5.984   0.850   3.099
 5998SOL    HW118893   5.929   0.927   3.068
 5998SOL    HW218894   5.924   0.772   3.118
 5999SOL     OW18895   1.518   1.593   2.426
 5999SOL    HW118896   1.600   1.582   2.482
 5999SOL    HW218897   1.494   1.690   2.421
 6000SOL     OW18898   4.341   6.851   0.658
 6000SOL    HW118899   4.405   6.776   0.676
 6000SOL    HW218900   4.263   6.843   0.720
 6001SOL     OW18901   1.096   4.228   6.950
 6001SOL    HW118902   1.130   4.143   6.991
 6001SOL    HW218903   1.060   4.287   0.001
 6002SOL     OW18904   5.917   0.362   0.642
 6002SOL    HW118905   5.863   0.278   0.637
 6002SOL    HW218906   5.960   0.379   0.553
 6003SOL     OW18907   5.686   2.740   4.994
 6003SOL    HW118908   5.737   2.679   5.055
 6003SOL    HW218909   5.633   2.685   4.930
 6004SOL     OW18910   0.254   3.823   2.821
 6004SOL    HW118911   0.203   3.906   2.796
 6004SOL    HW218912   0.242   3.754   2.750
 6005SOL     OW18913   4.730   5.722   4.202
 6005SOL    HW118914   4.702   5.653   4.135
 6005SOL    HW218915   4.681   5.807   4.184
 6006SOL     OW18916   2.478   0.879   5.459
 6006SOL    HW118917   2.482   0.874   5.359
 6006SOL    HW218918   2.411   0.813   5.493
 6007SOL     OW18919   4.757   3.641   5.923
 6007SOL    HW118920   4.746   3.635   5.824
 6007SOL    HW218921   4.703   3.718   5.958
 6008SOL     OW18922   2.243   4.301   5.565
 6008SOL    HW118923   2.266   4.379   5.508
 6008SOL    HW218924   2.191   4.331   5.645
 6009SOL     OW18925   2.999   0.217   3.554
 6009SOL    HW118926   3.006   0.166   3.639
 6009SOL    HW218927   3.017   0.314   3.571
 6010SOL     OW18928   1.255   4.269   4.477
 6010SOL    HW118929   1.309   4.337   4.527
 6010SOL    HW218930   1.302   4.180   4.482
 6011SOL     OW18931   4.801   3.054   2.900
 6011SOL    HW118932   4.821   3.055   2.802
 6011SOL    HW218933   4.809   3.147   2.936
 6012SOL     OW18934   5.568   1.148   6.934
 6012SOL    HW118935   5.517   1.172   7.016
 6012SOL    HW218936   5.665   1.136   6.957
 6013SOL     OW18937   4.806   1.952   2.524
 6013SOL    HW118938   4.768   2.020   2.461
 6013SOL    HW218939   4.782   1.860   2.493
 6014SOL     OW18940   3.974   3.369   1.675
 6014SOL    HW118941   3.935   3.461   1.673
 6014SOL    HW218942   4.055   3.369   1.734
 6015SOL     OW18943   5.820   3.856   4.220
 6015SOL    HW118944   5.878   3.901   4.152
 6015SOL    HW218945   5.859   3.765   4.241
 6016SOL     OW18946   6.304   1.650   6.103
 6016SOL    HW118947   6.257   1.568   6.069
 6016SOL    HW218948   6.270   1.672   6.194
 6017SOL     OW18949   6.576   4.363   3.284
 6017SOL    HW118950   6.532   4.327   3.367
 6017SOL    HW218951   6.515   4.428   3.240
 6018SOL     OW18952   3.639   0.609   6.734
 6018SOL    HW118953   3.552   0.575   6.769
 6018SOL    HW218954   3.712   0.590   6.799
 6019SOL     OW18955   6.992   1.609   4.324
 6019SOL    HW118956   6.915   1.617   4.261
 6019SOL    HW218957   6.998   1.690   4.381
 6020SOL     OW18958   0.766   4.963   1.261
 6020SOL    HW118959   0.851   4.981   1.310
 6020SOL    HW218960   0.772   5.002   1.169
 6021SOL     OW18961   4.714   0.350   2.525
 6021SOL    HW118962   4.775   0.284   2.480
 6021SOL    HW218963   4.684   0.313   2.613
 6022SOL     OW18964   4.661   2.272   4.219
 6022SOL    HW118965   4.729   2.208   4.256
 6022SOL    HW218966   4.688   2.299   4.126
 6023SOL     OW18967   6.136   0.536   2.168
 6023SOL    HW118968   6.171   0.548   2.075
 6023SOL    HW218969   6.198   0.476   2.219
 6024SOL     OW18970   1.356   4.352   3.150
 6024SOL    HW118971   1.372   4.372   3.054
 6024SOL    HW218972   1.336   4.438   3.199
 6025SOL     OW18973   3.813   1.584   2.756
 6025SOL    HW118974   3.730   1.599   2.809
 6025SOL    HW218975   3.819   1.654   2.684
 6026SOL     OW18976   0.376   4.466   5.574
 6026SOL    HW118977   0.409   4.548   5.621
 6026SOL    HW218978   0.310   4.492   5.504
 6027SOL     OW18979   1.157   3.912   6.509
 6027SOL    HW118980   1.085   3.863   6.558
 6027SOL    HW218981   1.245   3.897   6.555
 6028SOL     OW18982   6.896   4.767   6.945
 6028SOL    HW118983   6.969   4.827   6.979
 6028SOL    HW218984   6.839   4.818   6.881
 6029SOL     OW18985   2.358   6.188   5.474
 6029SOL    HW118986   2.368   6.119   5.545
 6029SOL    HW218987   2.360   6.143   5.384
 6030SOL     OW18988   3.957   6.079   2.524
 6030SOL    HW118989   3.874   6.055   2.474
 6030SOL    HW218990   4.001   5.995   2.557
 6031SOL     OW18991   2.918   5.620   3.685
 6031SOL    HW118992   2.985   5.546   3.691
 6031SOL    HW218993   2.949   5.698   3.739
 6032SOL     OW18994   2.230   4.268   2.793
 6032SOL    HW118995   2.272   4.225   2.873
 6032SOL    HW218996   2.276   4.354   2.772
 6033SOL     OW18997   3.120   2.188   3.143
 6033SOL    HW118998   3.204   2.136   3.125
 6033SOL    HW218999   3.095   2.240   3.061
 6034SOL     OW19000   1.469   5.450   4.643
 6034SOL    HW119001   1.507   5.456   4.735
 6034SOL    HW219002   1.371   5.429   4.649
 6035SOL     OW19003   0.472   1.055   2.687
 6035SOL    HW119004   0.518   1.101   2.764
 6035SOL    HW219005   0.373   1.061   2.700
 6036SOL     OW19006   5.589   5.881   3.243
 6036SOL    HW119007   5.633   5.845   3.325
 6036SOL    HW219008   5.495   5.847   3.237
 6037SOL     OW19009   4.195   5.246   0.044
 6037SOL    HW119010   4.286   5.238   0.085
 6037SOL    HW219011   4.130   5.192   0.097
 6038SOL     OW19012   1.527   2.034   5.722
 6038SOL    HW119013   1.598   2.103   5.733
 6038SOL    HW219014   1.475   2.053   5.638
 6039SOL     OW19015   2.975   3.615   2.559
 6039SOL    HW119016   2.927   3.689   2.607
 6039SOL    HW219017   3.066   3.603   2.599
 6040SOL     OW19018   0.848   1.557   6.878
 6040SOL    HW119019   0.836   1.645   6.834
 6040SOL    HW219020   0.927   1.510   6.838
 6041SOL     OW19021   3.108   0.075   4.732
 6041SOL    HW119022   3.191   0.037   4.773
 6041SOL    HW219023   3.038   0.004   4.726
 6042SOL     OW19024   4.979   5.855   2.139
 6042SOL    HW119025   4.927   5.883   2.058
 6042SOL    HW219026   5.064   5.812   2.111
 6043SOL     OW19027   1.070   4.461   5.322
 6043SOL    HW119028   1.106   4.465   5.415
 6043SOL    HW219029   1.127   4.517   5.262
 6044SOL     OW19030   0.907   2.371   1.652
 6044SOL    HW119031   0.826   2.312   1.650
 6044SOL    HW219032   0.945   2.373   1.744
 6045SOL     OW19033   5.919   5.092   2.009
 6045SOL    HW119034   5.903   5.069   2.105
 6045SOL    HW219035   5.834   5.080   1.957
 6046SOL     OW19036   3.742   1.893   0.210
 6046SOL    HW119037   3.761   1.803   0.248
 6046SOL    HW219038   3.824   1.950   0.218
 6047SOL     OW19039   5.247   1.944   1.712
 6047SOL    HW119040   5.252   1.982   1.620
 6047SOL    HW219041   5.334   1.962   1.759
 6048SOL     OW19042   4.563   5.407   5.201
 6048SOL    HW119043   4.566   5.498   5.243
 6048SOL    HW219044   4.639   5.352   5.236
 6049SOL     OW19045   5.456   3.363   6.345
 6049SOL    HW119046   5.451   3.462   6.359
 6049SOL    HW219047   5.372   3.320   6.377
 6050SOL     OW19048   3.804   5.787   4.840
 6050SOL    HW119049   3.846   5.796   4.750
 6050SOL    HW219050   3.706   5.774   4.830
 6051SOL     OW19051   2.737   0.442   4.014
 6051SOL    HW119052   2.739   0.542   4.019
 6051SOL    HW219053   2.771   0.403   4.100
 6052SOL     OW19054   6.578   0.136   0.423
 6052SOL    HW119055   6.550   0.103   0.514
 6052SOL    HW219056   6.503   0.121   0.358
 6053SOL     OW19057   3.907   1.317   6.896
 6053SOL    HW119058   3.916   1.412   6.926
 6053SOL    HW219059   3.836   1.311   6.825
 6054SOL     OW19060   2.703   4.024   0.451
 6054SOL    HW119061   2.768   4.066   0.388
 6054SOL    HW219062   2.699   3.925   0.434
 6055SOL     OW19063   4.450   0.444   5.347
 6055SOL    HW119064   4.382   0.396   5.291
 6055SOL    HW219065   4.533   0.459   5.294
 6056SOL     OW19066   4.776   2.771   4.661
 6056SOL    HW119067   4.767   2.870   4.647
 6056SOL    HW219068   4.814   2.754   4.752
 6057SOL     OW19069   5.401   3.310   4.078
 6057SOL    HW119070   5.447   3.380   4.133
 6057SOL    HW219071   5.451   3.223   4.086
 6058SOL     OW19072   5.276   2.850   1.840
 6058SOL    HW119073   5.227   2.893   1.916
 6058SOL    HW219074   5.272   2.751   1.848
 6059SOL     OW19075   5.130   4.555   4.875
 6059SOL    HW119076   5.222   4.553   4.914
 6059SOL    HW219077   5.088   4.644   4.893
 6060SOL     OW19078   3.039   4.759   0.538
 6060SOL    HW119079   3.053   4.858   0.543
 6060SOL    HW219080   3.051   4.728   0.444
 6061SOL     OW19081   3.889   1.936   1.044
 6061SOL    HW119082   3.902   1.888   0.957
 6061SOL    HW219083   3.803   1.907   1.085
 6062SOL     OW19084   2.677   1.176   5.097
 6062SOL    HW119085   2.717   1.232   5.025
 6062SOL    HW219086   2.634   1.235   5.166
 6063SOL     OW19087   3.420   1.990   6.085
 6063SOL    HW119088   3.507   2.026   6.119
 6063SOL    HW219089   3.415   1.892   6.101
 6064SOL     OW19090   1.923   6.019   0.861
 6064SOL    HW119091   1.857   6.090   0.835
 6064SOL    HW219092   1.909   5.994   0.956
 6065SOL     OW19093   6.546   0.156   1.846
 6065SOL    HW119094   6.588   0.074   1.807
 6065SOL    HW219095   6.538   0.145   1.945
 6066SOL     OW19096   4.482   1.356   6.016
 6066SOL    HW119097   4.562   1.413   5.996
 6066SOL    HW219098   4.482   1.331   6.113
 6067SOL     OW19099   5.236   1.277   5.696
 6067SOL    HW119100   5.245   1.267   5.795
 6067SOL    HW219101   5.325   1.300   5.657
 6068SOL     OW19102   5.294   3.351   4.617
 6068SOL    HW119103   5.262   3.411   4.544
 6068SOL    HW219104   5.377   3.304   4.587
 6069SOL     OW19105   6.486   2.828   5.164
 6069SOL    HW119106   6.575   2.800   5.200
 6069SOL    HW219107   6.414   2.789   5.221
 6070SOL     OW19108   2.285   3.146   0.376
 6070SOL    HW119109   2.370   3.177   0.418
 6070SOL    HW219110   2.209   3.164   0.438
 6071SOL     OW19111   5.467   5.336   4.173
 6071SOL    HW119112   5.393   5.295   4.227
 6071SOL    HW219113   5.490   5.426   4.211
 6072SOL     OW19114   0.094   0.538   1.846
 6072SOL    HW119115   0.019   0.572   1.902
 6072SOL    HW219116   0.102   0.593   1.763
 6073SOL     OW19117   5.620   3.758   0.196
 6073SOL    HW119118   5.548   3.693   0.221
 6073SOL    HW219119   5.685   3.713   0.135
 6074SOL     OW19120   1.335   6.574   4.414
 6074SOL    HW119121   1.389   6.656   4.435
 6074SOL    HW219122   1.255   6.599   4.360
 6075SOL     OW19123   6.804   1.489   6.460
 6075SOL    HW119124   6.856   1.497   6.546
 6075SOL    HW219125   6.750   1.572   6.445
 6076SOL     OW19126   2.634   5.685   3.979
 6076SOL    HW119127   2.705   5.705   4.046
 6076SOL    HW219128   2.615   5.586   3.979
 6077SOL     OW19129   5.536   6.137   0.898
 6077SOL    HW119130   5.619   6.101   0.854
 6077SOL    HW219131   5.562   6.191   0.978
 6078SOL     OW19132   4.142   4.302   0.856
 6078SOL    HW119133   4.120   4.338   0.947
 6078SOL    HW219134   4.060   4.307   0.799
 6079SOL     OW19135   3.935   3.609   6.050
 6079SOL    HW119136   4.027   3.574   6.069
 6079SOL    HW219137   3.880   3.536   6.010
 6080SOL     OW19138   6.993   1.255   1.028
 6080SOL    HW119139   0.029   1.191   0.978
 6080SOL    HW219140   6.995   1.233   1.126
 6081SOL     OW19141   6.628   3.381   5.842
 6081SOL    HW119142   6.698   3.426   5.898
 6081SOL    HW219143   6.537   3.409   5.875
 6082SOL     OW19144   2.022   2.024   3.738
 6082SOL    HW119145   2.008   1.928   3.716
 6082SOL    HW219146   1.963   2.080   3.679
 6083SOL     OW19147   0.101   4.929   0.054
 6083SOL    HW119148   0.087   5.013   0.105
 6083SOL    HW219149   0.179   4.941   7.013
 6084SOL     OW19150   0.756   6.974   3.711
 6084SOL    HW119151   0.663   6.997   3.682
 6084SOL    HW219152   0.753   6.902   3.780
 6085SOL     OW19153   0.943   4.477   0.613
 6085SOL    HW119154   0.930   4.566   0.658
 6085SOL    HW219155   0.854   4.434   0.598
 6086SOL     OW19156   3.517   0.601   6.282
 6086SOL    HW119157   3.443   0.645   6.332
 6086SOL    HW219158   3.495   0.504   6.270
 6087SOL     OW19159   3.872   5.542   0.990
 6087SOL    HW119160   3.822   5.589   1.063
 6087SOL    HW219161   3.840   5.448   0.983
 6088SOL     OW19162   5.672   5.566   3.774
 6088SOL    HW119163   5.702   5.551   3.868
 6088SOL    HW219164   5.750   5.559   3.713
 6089SOL     OW19165   5.886   3.190   0.646
 6089SOL    HW119166   5.858   3.152   0.734
 6089SOL    HW219167   5.825   3.156   0.574
 6090SOL     OW19168   1.797   5.811   6.174
 6090SOL    HW119169   1.746   5.738   6.219
 6090SOL    HW219170   1.875   5.838   6.231
 6091SOL     OW19171   1.660   1.632   0.690
 6091SOL    HW119172   1.666   1.730   0.708
 6091SOL    HW219173   1.750   1.590   0.702
 6092SOL     OW19174   4.092   6.709   2.890
 6092SOL    HW119175   4.166   6.776   2.897
 6092SOL    HW219176   4.048   6.718   2.800
 6093SOL     OW19177   1.767   3.422   2.744
 6093SOL    HW119178   1.719   3.508   2.731
 6093SOL    HW219179   1.728   3.352   2.684
 6094SOL     OW19180   3.458   0.298   1.641
 6094SOL    HW119181   3.550   0.333   1.660
 6094SOL    HW219182   3.399   0.314   1.721
 6095SOL     OW19183   4.460   3.577   0.187
 6095SOL    HW119184   4.475   3.488   0.144
 6095SOL    HW219185   4.548   3.618   0.210
 6096SOL     OW19186   0.291   0.196   3.473
 6096SOL    HW119187   0.230   0.246   3.412
 6096SOL    HW219188   0.315   0.108   3.432
 6097SOL     OW19189   2.638   0.035   2.450
 6097SOL    HW119190   2.545   0.001   2.457
 6097SOL    HW219191   2.646   0.121   2.502
 6098SOL     OW19192   1.549   2.732   5.495
 6098SOL    HW119193   1.584   2.686   5.413
 6098SOL    HW219194   1.625   2.755   5.555
 6099SOL     OW19195   6.679   6.395   0.344
 6099SOL    HW119196   6.711   6.438   0.428
 6099SOL    HW219197   6.705   6.450   0.265
 6100SOL     OW19198   4.211   4.474   6.734
 6100SOL    HW119199   4.246   4.401   6.675
 6100SOL    HW219200   4.287   4.523   6.776
 6101SOL     OW19201   6.281   2.365   4.765
 6101SOL    HW119202   6.369   2.385   4.722
 6101SOL    HW219203   6.261   2.434   4.834
 6102SOL     OW19204   3.303   6.469   3.402
 6102SOL    HW119205   3.360   6.415   3.465
 6102SOL    HW219206   3.252   6.407   3.342
 6103SOL     OW19207   6.707   2.768   1.950
 6103SOL    HW119208   6.685   2.680   1.991
 6103SOL    HW219209   6.623   2.821   1.938
 6104SOL     OW19210   5.973   1.065   5.427
 6104SOL    HW119211   6.067   1.078   5.397
 6104SOL    HW219212   5.926   1.002   5.365
 6105SOL     OW19213   2.873   6.947   5.935
 6105SOL    HW119214   2.848   6.995   5.850
 6105SOL    HW219215   2.849   7.005   6.013
 6106SOL     OW19216   2.791   4.611   5.992
 6106SOL    HW119217   2.809   4.678   6.063
 6106SOL    HW219218   2.711   4.556   6.017
 6107SOL     OW19219   2.374   4.619   4.635
 6107SOL    HW119220   2.301   4.671   4.681
 6107SOL    HW219221   2.344   4.525   4.621
 6108SOL     OW19222   0.853   2.291   1.924
 6108SOL    HW119223   0.839   2.380   1.966
 6108SOL    HW219224   0.944   2.286   1.884
 6109SOL     OW19225   5.411   2.717   5.469
 6109SOL    HW119226   5.367   2.796   5.428
 6109SOL    HW219227   5.395   2.636   5.412
 6110SOL     OW19228   4.311   3.802   0.441
 6110SOL    HW119229   4.302   3.704   0.461
 6110SOL    HW219230   4.244   3.828   0.371
 6111SOL     OW19231   2.263   4.136   2.358
 6111SOL    HW119232   2.249   4.061   2.292
 6111SOL    HW219233   2.249   4.101   2.450
 6112SOL     OW19234   4.207   0.224   2.777
 6112SOL    HW119235   4.307   0.217   2.778
 6112SOL    HW219236   4.177   0.263   2.691
 6113SOL     OW19237   2.210   0.891   6.512
 6113SOL    HW119238   2.299   0.910   6.470
 6113SOL    HW219239   2.156   0.833   6.451
 6114SOL     OW19240   4.978   5.597   1.207
 6114SOL    HW119241   5.072   5.626   1.224
 6114SOL    HW219242   4.954   5.523   1.269
 6115SOL     OW19243   5.402   7.008   4.106
 6115SOL    HW119244   5.353   6.932   4.062
 6115SOL    HW219245   5.495   7.013   4.070
 6116SOL     OW19246   3.260   0.417   7.007
 6116SOL    HW119247   3.240   0.323   6.978
 6116SOL    HW219248   3.200   0.480   6.958
 6117SOL     OW19249   1.216   1.259   5.115
 6117SOL    HW119250   1.226   1.196   5.192
 6117SOL    HW219251   1.118   1.272   5.096
 6118SOL     OW19252   6.550   0.891   2.189
 6118SOL    HW119253   6.536   0.797   2.219
 6118SOL    HW219254   6.487   0.913   2.114
 6119SOL     OW19255   2.088   3.532   5.855
 6119SOL    HW119256   2.101   3.447   5.906
 6119SOL    HW219257   1.991   3.557   5.857
 6120SOL     OW19258   3.739   6.587   4.657
 6120SOL    HW119259   3.724   6.490   4.640
 6120SOL    HW219260   3.795   6.626   4.583
 6121SOL     OW19261   1.317   3.298   5.648
 6121SOL    HW119262   1.400   3.309   5.592
 6121SOL    HW219263   1.244   3.354   5.609
 6122SOL     OW19264   4.280   6.046   0.323
 6122SOL    HW119265   4.330   6.014   0.404
 6122SOL    HW219266   4.306   5.991   0.244
 6123SOL     OW19267   6.512   6.838   6.525
 6123SOL    HW119268   6.490   6.765   6.590
 6123SOL    HW219269   6.491   6.807   6.432
 6124SOL     OW19270   2.055   0.612   5.950
 6124SOL    HW119271   2.092   0.704   5.963
 6124SOL    HW219272   2.102   0.568   5.873
 6125SOL     OW19273   0.996   5.957   0.092
 6125SOL    HW119274   0.975   5.873   0.142
 6125SOL    HW219275   1.091   5.982   0.108
 6126SOL     OW19276   0.991   0.677   4.307
 6126SOL    HW119277   0.945   0.765   4.319
 6126SOL    HW219278   0.923   0.604   4.305
 6127SOL     OW19279   3.721   0.026   1.448
 6127SOL    HW119280   3.716   6.949   1.426
 6127SOL    HW219281   3.629   0.064   1.450
 6128SOL     OW19282   6.212   3.337   6.712
 6128SOL    HW119283   6.194   3.241   6.734
 6128SOL    HW219284   6.291   3.370   6.764
 6129SOL     OW19285   6.405   3.744   3.445
 6129SOL    HW119286   6.311   3.764   3.418
 6129SOL    HW219287   6.467   3.770   3.370
 6130SOL     OW19288   6.004   2.136   3.773
 6130SOL    HW119289   6.072   2.147   3.701
 6130SOL    HW219290   5.950   2.053   3.755
 6131SOL     OW19291   6.795   0.861   5.136
 6131SOL    HW119292   6.731   0.883   5.063
 6131SOL    HW219293   6.745   0.848   5.222
 6132SOL     OW19294   4.826   1.511   0.447
 6132SOL    HW119295   4.799   1.607   0.440
 6132SOL    HW219296   4.925   1.503   0.436
 6133SOL     OW19297   0.993   2.493   2.315
 6133SOL    HW119298   1.003   2.532   2.407
 6133SOL    HW219299   1.020   2.397   2.317
 6134SOL     OW19300   3.675   4.666   6.395
 6134SOL    HW119301   3.655   4.569   6.379
 6134SOL    HW219302   3.772   4.683   6.377
 6135SOL     OW19303   0.693   0.931   2.176
 6135SOL    HW119304   0.695   0.865   2.251
 6135SOL    HW219305   0.667   1.021   2.212
 6136SOL     OW19306   0.818   2.977   2.828
 6136SOL    HW119307   0.910   3.013   2.841
 6136SOL    HW219308   0.787   2.996   2.735
 6137SOL     OW19309   6.446   2.259   3.889
 6137SOL    HW119310   6.409   2.168   3.868
 6137SOL    HW219311   6.432   2.280   3.986
 6138SOL     OW19312   4.434   6.738   2.792
 6138SOL    HW119313   4.477   6.684   2.864
 6138SOL    HW219314   4.420   6.681   2.711
 6139SOL     OW19315   1.413   1.272   6.243
 6139SOL    HW119316   1.386   1.250   6.150
 6139SOL    HW219317   1.337   1.252   6.306
 6140SOL     OW19318   0.746   6.644   1.524
 6140SOL    HW119319   0.778   6.628   1.430
 6140SOL    HW219320   0.739   6.743   1.539
 6141SOL     OW19321   6.674   5.611   6.223
 6141SOL    HW119322   6.694   5.646   6.131
 6141SOL    HW219323   6.704   5.677   6.291
 6142SOL     OW19324   1.218   5.909   0.895
 6142SOL    HW119325   1.249   6.003   0.903
 6142SOL    HW219326   1.271   5.861   0.824
 6143SOL     OW19327   0.109   3.942   1.029
 6143SOL    HW119328   0.036   3.945   1.096
 6143SOL    HW219329   0.072   3.916   0.940
 6144SOL     OW19330   5.747   4.389   3.044
 6144SOL    HW119331   5.655   4.394   3.082
 6144SOL    HW219332   5.779   4.295   3.047
 6145SOL     OW19333   4.951   5.396   3.380
 6145SOL    HW119334   4.986   5.327   3.442
 6145SOL    HW219335   4.857   5.373   3.353
 6146SOL     OW19336   2.507   6.191   3.145
 6146SOL    HW119337   2.558   6.119   3.098
 6146SOL    HW219338   2.519   6.180   3.244
 6147SOL     OW19339   1.495   3.593   4.197
 6147SOL    HW119340   1.556   3.672   4.188
 6147SOL    HW219341   1.408   3.622   4.237
 6148SOL     OW19342   6.648   0.006   3.953
 6148SOL    HW119343   6.705   6.949   3.978
 6148SOL    HW219344   6.620   0.056   4.036
 6149SOL     OW19345   3.017   5.563   1.406
 6149SOL    HW119346   2.954   5.615   1.465
 6149SOL    HW219347   3.111   5.588   1.429
 6150SOL     OW19348   4.554   4.689   0.089
 6150SOL    HW119349   4.482   4.704   0.156
 6150SOL    HW219350   4.616   4.618   0.122
 6151SOL     OW19351   5.844   4.432   5.819
 6151SOL    HW119352   5.823   4.339   5.787
 6151SOL    HW219353   5.942   4.440   5.837
 6152SOL     OW19354   6.484   5.358   5.130
 6152SOL    HW119355   6.537   5.281   5.165
 6152SOL    HW219356   6.467   5.346   5.032
 6153SOL     OW19357   5.508   3.934   1.319
 6153SOL    HW119358   5.408   3.931   1.328
 6153SOL    HW219359   5.536   4.025   1.289
 6154SOL     OW19360   6.231   2.277   2.288
 6154SOL    HW119361   6.315   2.290   2.341
 6154SOL    HW219362   6.231   2.341   2.210
 6155SOL     OW19363   1.817   1.962   4.690
 6155SOL    HW119364   1.788   1.889   4.628
 6155SOL    HW219365   1.900   2.005   4.655
 6156SOL     OW19366   4.008   4.644   1.837
 6156SOL    HW119367   4.050   4.694   1.761
 6156SOL    HW219368   3.919   4.610   1.808
 6157SOL     OW19369   1.445   1.036   3.973
 6157SOL    HW119370   1.360   1.082   3.996
 6157SOL    HW219371   1.466   0.967   4.042
 6158SOL     OW19372   3.918   1.293   6.365
 6158SOL    HW119373   3.912   1.321   6.269
 6158SOL    HW219374   3.932   1.374   6.422
 6159SOL     OW19375   5.063   2.495   1.752
 6159SOL    HW119376   5.003   2.449   1.818
 6159SOL    HW219377   5.135   2.543   1.801
 6160SOL     OW19378   4.731   0.917   6.444
 6160SOL    HW119379   4.767   0.824   6.443
 6160SOL    HW219380   4.669   0.930   6.367
 6161SOL     OW19381   5.103   1.644   4.651
 6161SOL    HW119382   5.005   1.624   4.656
 6161SOL    HW219383   5.116   1.743   4.661
 6162SOL     OW19384   1.212   6.466   3.379
 6162SOL    HW119385   1.151   6.399   3.335
 6162SOL    HW219386   1.242   6.430   3.467
 6163SOL     OW19387   6.861   6.412   0.808
 6163SOL    HW119388   6.794   6.477   0.844
 6163SOL    HW219389   6.816   6.327   0.783
 6164SOL     OW19390   3.402   2.763   1.795
 6164SOL    HW119391   3.308   2.742   1.821
 6164SOL    HW219392   3.464   2.732   1.867
 6165SOL     OW19393   4.542   0.863   6.711
 6165SOL    HW119394   4.566   0.947   6.662
 6165SOL    HW219395   4.623   0.805   6.719
 6166SOL     OW19396   4.458   0.748   5.929
 6166SOL    HW119397   4.402   0.696   5.864
 6166SOL    HW219398   4.402   0.770   6.009
 6167SOL     OW19399   1.043   4.945   3.438
 6167SOL    HW119400   1.051   4.987   3.528
 6167SOL    HW219401   1.127   4.893   3.419
 6168SOL     OW19402   0.812   3.714   1.142
 6168SOL    HW119403   0.863   3.669   1.069
 6168SOL    HW219404   0.862   3.795   1.173
 6169SOL     OW19405   1.344   2.290   0.671
 6169SOL    HW119406   1.420   2.227   0.659
 6169SOL    HW219407   1.323   2.299   0.768
 6170SOL     OW19408   1.020   3.909   5.621
 6170SOL    HW119409   1.063   3.955   5.698
 6170SOL    HW219410   0.948   3.967   5.582
 6171SOL     OW19411   0.460   3.027   0.841
 6171SOL    HW119412   0.526   2.988   0.776
 6171SOL    HW219413   0.391   2.958   0.863
 6172SOL     OW19414   2.187   2.935   2.251
 6172SOL    HW119415   2.163   3.015   2.196
 6172SOL    HW219416   2.249   2.876   2.199
 6173SOL     OW19417   6.942   5.997   1.864
 6173SOL    HW119418   6.858   6.018   1.814
 6173SOL    HW219419   6.947   5.899   1.881
 6174SOL     OW19420   4.616   5.824   3.525
 6174SOL    HW119421   4.541   5.769   3.489
 6174SOL    HW219422   4.585   5.917   3.541
 6175SOL     OW19423   4.667   0.067   3.685
 6175SOL    HW119424   4.657   0.042   3.781
 6175SOL    HW219425   4.618   0.153   3.668
 6176SOL     OW19426   4.924   4.439   5.235
 6176SOL    HW119427   4.899   4.535   5.241
 6176SOL    HW219428   4.885   4.400   5.151
 6177SOL     OW19429   5.921   1.068   1.469
 6177SOL    HW119430   5.916   1.095   1.372
 6177SOL    HW219431   5.829   1.069   1.508
 6178SOL     OW19432   4.657   4.243   2.535
 6178SOL    HW119433   4.596   4.163   2.536
 6178SOL    HW219434   4.652   4.288   2.446
 6179SOL     OW19435   6.086   4.886   3.962
 6179SOL    HW119436   6.181   4.897   3.993
 6179SOL    HW219437   6.025   4.940   4.020
 6180SOL     OW19438   2.982   4.454   0.547
 6180SOL    HW119439   3.014   4.548   0.562
 6180SOL    HW219440   2.896   4.457   0.496
 6181SOL     OW19441   5.183   6.387   6.577
 6181SOL    HW119442   5.139   6.452   6.515
 6181SOL    HW219443   5.244   6.328   6.524
 6182SOL     OW19444   4.839   2.947   5.118
 6182SOL    HW119445   4.785   3.017   5.163
 6182SOL    HW219446   4.916   2.921   5.176
 6183SOL     OW19447   1.043   2.712   3.702
 6183SOL    HW119448   1.041   2.812   3.704
 6183SOL    HW219449   0.995   2.676   3.781
 6184SOL     OW19450   2.490   6.320   6.796
 6184SOL    HW119451   2.529   6.379   6.725
 6184SOL    HW219452   2.402   6.285   6.765
 6185SOL     OW19453   0.628   3.658   6.354
 6185SOL    HW119454   0.584   3.735   6.307
 6185SOL    HW219455   0.690   3.612   6.290
 6186SOL     OW19456   0.197   0.804   0.133
 6186SOL    HW119457   0.238   0.891   0.159
 6186SOL    HW219458   0.126   0.821   0.064
 6187SOL     OW19459   5.292   4.589   4.103
 6187SOL    HW119460   5.256   4.662   4.045
 6187SOL    HW219461   5.223   4.519   4.117
 6188SOL     OW19462   2.285   1.884   6.556
 6188SOL    HW119463   2.350   1.867   6.483
 6188SOL    HW219464   2.311   1.832   6.638
 6189SOL     OW19465   4.365   4.540   2.614
 6189SOL    HW119466   4.285   4.600   2.609
 6189SOL    HW219467   4.442   4.582   2.565
 6190SOL     OW19468   0.776   4.049   5.528
 6190SOL    HW119469   0.681   4.039   5.560
 6190SOL    HW219470   0.784   4.011   5.436
 6191SOL     OW19471   2.738   2.502   6.577
 6191SOL    HW119472   2.777   2.526   6.666
 6191SOL    HW219473   2.676   2.424   6.587
 6192SOL     OW19474   2.585   2.325   5.720
 6192SOL    HW119475   2.619   2.242   5.764
 6192SOL    HW219476   2.557   2.303   5.626
 6193SOL     OW19477   4.430   6.355   1.759
 6193SOL    HW119478   4.474   6.411   1.829
 6193SOL    HW219479   4.333   6.345   1.780
 6194SOL     OW19480   0.948   0.425   0.528
 6194SOL    HW119481   1.005   0.441   0.608
 6194SOL    HW219482   0.896   0.508   0.507
 6195SOL     OW19483   4.344   6.040   4.851
 6195SOL    HW119484   4.271   6.044   4.783
 6195SOL    HW219485   4.432   6.061   4.808
 6196SOL     OW19486   5.660   3.393   2.054
 6196SOL    HW119487   5.645   3.491   2.060
 6196SOL    HW219488   5.743   3.375   2.001
 6197SOL     OW19489   3.632   5.038   1.137
 6197SOL    HW119490   3.602   5.091   1.217
 6197SOL    HW219491   3.604   4.943   1.149
 6198SOL     OW19492   3.952   6.615   1.336
 6198SOL    HW119493   3.954   6.516   1.346
 6198SOL    HW219494   3.928   6.639   1.242
 6199SOL     OW19495   1.383   1.170   0.408
 6199SOL    HW119496   1.331   1.250   0.377
 6199SOL    HW219497   1.440   1.136   0.333
 6200SOL     OW19498   1.400   1.431   5.824
 6200SOL    HW119499   1.344   1.470   5.751
 6200SOL    HW219500   1.497   1.447   5.804
 6201SOL     OW19501   0.803   4.248   5.731
 6201SOL    HW119502   0.798   4.186   5.652
 6201SOL    HW219503   0.834   4.338   5.700
 6202SOL     OW19504   4.670   1.524   1.304
 6202SOL    HW119505   4.688   1.430   1.332
 6202SOL    HW219506   4.750   1.581   1.323
 6203SOL     OW19507   6.347   5.751   2.266
 6203SOL    HW119508   6.324   5.841   2.302
 6203SOL    HW219509   6.337   5.751   2.167
 6204SOL     OW19510   0.183   5.631   4.106
 6204SOL    HW119511   0.160   5.642   4.009
 6204SOL    HW219512   0.099   5.626   4.160
 6205SOL     OW19513   6.530   5.898   1.570
 6205SOL    HW119514   6.615   5.845   1.575
 6205SOL    HW219515   6.529   5.951   1.485
 6206SOL     OW19516   5.998   1.827   3.075
 6206SOL    HW119517   6.030   1.921   3.082
 6206SOL    HW219518   5.987   1.803   2.978
 6207SOL     OW19519   1.510   5.113   5.739
 6207SOL    HW119520   1.511   5.074   5.831
 6207SOL    HW219521   1.589   5.079   5.688
 6208SOL     OW19522   4.731   2.722   5.728
 6208SOL    HW119523   4.728   2.663   5.809
 6208SOL    HW219524   4.686   2.676   5.651
 6209SOL     OW19525   3.279   6.254   6.987
 6209SOL    HW119526   3.270   6.269   6.888
 6209SOL    HW219527   3.277   6.342   0.013
 6210SOL     OW19528   4.936   2.902   4.142
 6210SOL    HW119529   4.868   2.918   4.214
 6210SOL    HW219530   5.028   2.913   4.180
 6211SOL     OW19531   2.958   6.209   5.954
 6211SOL    HW119532   3.018   6.196   6.033
 6211SOL    HW219533   2.866   6.231   5.986
 6212SOL     OW19534   2.547   4.711   4.952
 6212SOL    HW119535   2.636   4.679   4.985
 6212SOL    HW219536   2.482   4.711   5.028
 6213SOL     OW19537   6.070   0.142   6.803
 6213SOL    HW119538   6.134   0.212   6.772
 6213SOL    HW219539   6.121   0.060   6.830
 6214SOL     OW19540   5.317   5.570   4.714
 6214SOL    HW119541   5.290   5.547   4.807
 6214SOL    HW219542   5.242   5.620   4.670
 6215SOL     OW19543   4.057   2.333   6.195
 6215SOL    HW119544   4.142   2.375   6.163
 6215SOL    HW219545   3.979   2.378   6.151
 6216SOL     OW19546   6.027   2.135   2.786
 6216SOL    HW119547   6.074   2.224   2.784
 6216SOL    HW219548   6.051   2.083   2.704
 6217SOL     OW19549   0.553   3.544   2.351
 6217SOL    HW119550   0.499   3.460   2.361
 6217SOL    HW219551   0.505   3.620   2.395
 6218SOL     OW19552   3.571   6.457   6.382
 6218SOL    HW119553   3.627   6.518   6.439
 6218SOL    HW219554   3.630   6.388   6.340
 6219SOL     OW19555   0.927   2.177   4.747
 6219SOL    HW119556   0.859   2.251   4.755
 6219SOL    HW219557   0.986   2.178   4.827
 6220SOL     OW19558   2.523   0.928   5.049
 6220SOL    HW119559   2.582   1.009   5.043
 6220SOL    HW219560   2.427   0.957   5.056
 6221SOL     OW19561   5.700   6.582   0.153
 6221SOL    HW119562   5.774   6.534   0.105
 6221SOL    HW219563   5.621   6.591   0.092
 6222SOL     OW19564   1.741   6.837   1.604
 6222SOL    HW119565   1.741   6.931   1.571
 6222SOL    HW219566   1.811   6.784   1.557
 6223SOL     OW19567   1.446   5.102   3.302
 6223SOL    HW119568   1.475   5.063   3.390
 6223SOL    HW219569   1.409   5.029   3.244
 6224SOL     OW19570   3.613   1.140   6.272
 6224SOL    HW119571   3.537   1.152   6.208
 6224SOL    HW219572   3.578   1.107   6.360
 6225SOL     OW19573   3.882   2.949   6.608
 6225SOL    HW119574   3.870   2.906   6.518
 6225SOL    HW219575   3.888   3.048   6.597
 6226SOL     OW19576   0.637   1.772   4.679
 6226SOL    HW119577   0.636   1.868   4.651
 6226SOL    HW219578   0.717   1.726   4.640
 6227SOL     OW19579   2.988   5.019   5.053
 6227SOL    HW119580   2.910   4.983   5.002
 6227SOL    HW219581   3.020   4.949   5.117
 6228SOL     OW19582   0.690   3.004   2.327
 6228SOL    HW119583   0.726   3.026   2.236
 6228SOL    HW219584   0.713   2.909   2.349
 6229SOL     OW19585   0.725   2.395   4.739
 6229SOL    HW119586   0.711   2.485   4.698
 6229SOL    HW219587   0.678   2.391   4.828
 6230SOL     OW19588   0.623   2.332   4.199
 6230SOL    HW119589   0.677   2.254   4.230
 6230SOL    HW219590   0.612   2.328   4.100
 6231SOL     OW19591   6.117   5.652   0.521
 6231SOL    HW119592   6.024   5.618   0.519
 6231SOL    HW219593   6.180   5.577   0.541
 6232SOL     OW19594   6.416   1.109   1.037
 6232SOL    HW119595   6.514   1.116   1.059
 6232SOL    HW219596   6.382   1.020   1.067
 6233SOL     OW19597   6.688   2.351   1.429
 6233SOL    HW119598   6.677   2.423   1.361
 6233SOL    HW219599   6.721   2.390   1.515
 6234SOL     OW19600   0.054   6.994   5.280
 6234SOL    HW119601   0.119   0.035   5.324
 6234SOL    HW219602   6.982   0.004   5.298
 6235SOL     OW19603   6.978   0.340   1.489
 6235SOL    HW119604   6.945   0.389   1.408
 6235SOL    HW219605   6.909   0.273   1.517
 6236SOL     OW19606   0.617   4.386   1.327
 6236SOL    HW119607   0.682   4.329   1.378
 6236SOL    HW219608   0.667   4.456   1.276
 6237SOL     OW19609   3.710   6.919   6.775
 6237SOL    HW119610   3.665   6.969   6.701
 6237SOL    HW219611   3.641   6.873   6.832
 6238SOL     OW19612   5.207   5.807   2.760
 6238SOL    HW119613   5.154   5.861   2.826
 6238SOL    HW219614   5.284   5.764   2.807
 6239SOL     OW19615   4.141   1.679   1.449
 6239SOL    HW119616   4.211   1.627   1.401
 6239SOL    HW219617   4.134   1.646   1.544
 6240SOL     OW19618   2.494   3.774   5.352
 6240SOL    HW119619   2.504   3.853   5.291
 6240SOL    HW219620   2.583   3.751   5.392
 6241SOL     OW19621   3.308   0.799   2.221
 6241SOL    HW119622   3.373   0.732   2.185
 6241SOL    HW219623   3.344   0.838   2.305
 6242SOL     OW19624   4.066   6.949   3.355
 6242SOL    HW119625   4.076   6.854   3.387
 6242SOL    HW219626   4.132   6.966   3.282
 6243SOL     OW19627   6.985   6.587   5.128
 6243SOL    HW119628   6.894   6.621   5.150
 6243SOL    HW219629   0.006   6.645   5.059
 6244SOL     OW19630   5.550   3.190   3.363
 6244SOL    HW119631   5.460   3.168   3.326
 6244SOL    HW219632   5.582   3.115   3.422
 6245SOL     OW19633   1.540   3.349   0.722
 6245SOL    HW119634   1.549   3.251   0.743
 6245SOL    HW219635   1.462   3.386   0.773
 6246SOL     OW19636   1.033   2.060   5.322
 6246SOL    HW119637   1.065   2.020   5.408
 6246SOL    HW219638   1.063   2.155   5.316
 6247SOL     OW19639   0.347   5.999   3.767
 6247SOL    HW119640   0.379   6.083   3.812
 6247SOL    HW219641   0.404   5.981   3.687
 6248SOL     OW19642   3.868   4.144   0.102
 6248SOL    HW119643   3.949   4.197   0.075
 6248SOL    HW219644   3.886   4.047   0.089
 6249SOL     OW19645   6.845   3.306   0.877
 6249SOL    HW119646   6.906   3.247   0.930
 6249SOL    HW219647   6.896   3.348   0.803
 6250SOL     OW19648   6.405   0.180   1.419
 6250SOL    HW119649   6.353   0.167   1.504
 6250SOL    HW219650   6.363   0.253   1.365
 6251SOL     OW19651   4.290   5.729   5.155
 6251SOL    HW119652   4.338   5.718   5.068
 6251SOL    HW219653   4.271   5.826   5.170
 6252SOL     OW19654   2.728   5.791   6.421
 6252SOL    HW119655   2.722   5.736   6.504
 6252SOL    HW219656   2.783   5.743   6.352
 6253SOL     OW19657   2.695   5.011   4.155
 6253SOL    HW119658   2.682   4.997   4.057
 6253SOL    HW219659   2.606   5.020   4.200
 6254SOL     OW19660   6.281   1.268   1.306
 6254SOL    HW119661   6.236   1.291   1.219
 6254SOL    HW219662   6.360   1.328   1.319
 6255SOL     OW19663   2.676   0.988   1.055
 6255SOL    HW119664   2.702   1.032   0.970
 6255SOL    HW219665   2.759   0.963   1.106
 6256SOL     OW19666   3.833   5.261   2.599
 6256SOL    HW119667   3.752   5.253   2.540
 6256SOL    HW219668   3.816   5.332   2.668
 6257SOL     OW19669   4.407   2.837   0.011
 6257SOL    HW119670   4.452   2.871   0.093
 6257SOL    HW219671   4.437   2.891   6.953
 6258SOL     OW19672   2.932   0.024   3.738
 6258SOL    HW119673   2.886   6.978   3.680
 6258SOL    HW219674   2.866   0.096   3.764
 6259SOL     OW19675   1.972   1.330   6.495
 6259SOL    HW119676   2.056   1.328   6.550
 6259SOL    HW219677   1.893   1.329   6.556
 6260SOL     OW19678   3.478   6.066   0.012
 6260SOL    HW119679   3.412   6.126   6.988
 6260SOL    HW219680   3.556   6.121   0.044
 6261SOL     OW19681   5.121   0.552   6.583
 6261SOL    HW119682   5.086   0.645   6.572
 6261SOL    HW219683   5.051   0.495   6.626
 6262SOL     OW19684   2.173   6.252   1.642
 6262SOL    HW119685   2.126   6.305   1.712
 6262SOL    HW219686   2.108   6.190   1.597
 6263SOL     OW19687   0.838   6.936   4.843
 6263SOL    HW119688   0.802   6.864   4.784
 6263SOL    HW219689   0.918   6.978   4.800
 6264SOL     OW19690   2.061   1.000   2.118
 6264SOL    HW119691   2.105   0.922   2.073
 6264SOL    HW219692   1.968   1.012   2.082
 6265SOL     OW19693   3.913   3.551   0.220
 6265SOL    HW119694   3.827   3.544   0.271
 6265SOL    HW219695   3.895   3.592   0.131
 6266SOL     OW19696   5.108   0.223   3.579
 6266SOL    HW119697   5.009   0.208   3.575
 6266SOL    HW219698   5.150   0.156   3.639
 6267SOL     OW19699   2.423   6.771   5.203
 6267SOL    HW119700   2.480   6.742   5.126
 6267SOL    HW219701   2.440   6.712   5.282
 6268SOL     OW19702   3.147   0.893   2.484
 6268SOL    HW119703   3.223   0.943   2.442
 6268SOL    HW219704   3.156   0.796   2.465
 6269SOL     OW19705   6.818   0.094   2.464
 6269SOL    HW119706   6.833   0.069   2.560
 6269SOL    HW219707   6.851   0.020   2.405
 6270SOL     OW19708   0.179   0.380   6.077
 6270SOL    HW119709   0.160   0.335   6.164
 6270SOL    HW219710   0.222   0.315   6.014
 6271SOL     OW19711   5.610   2.475   5.609
 6271SOL    HW119712   5.604   2.575   5.608
 6271SOL    HW219713   5.599   2.443   5.703
 6272SOL     OW19714   0.862   2.218   0.366
 6272SOL    HW119715   0.940   2.215   0.304
 6272SOL    HW219716   0.807   2.299   0.346
 6273SOL     OW19717   0.776   6.416   2.689
 6273SOL    HW119718   0.819   6.349   2.748
 6273SOL    HW219719   0.715   6.370   2.624
 6274SOL     OW19720   3.138   6.778   5.213
 6274SOL    HW119721   3.115   6.865   5.257
 6274SOL    HW219722   3.054   6.732   5.184
 6275SOL     OW19723   2.196   6.337   0.031
 6275SOL    HW119724   2.151   6.394   6.982
 6275SOL    HW219725   2.200   6.242   7.021
 6276SOL     OW19726   2.041   5.377   3.805
 6276SOL    HW119727   2.093   5.453   3.845
 6276SOL    HW219728   2.099   5.328   3.740
 6277SOL     OW19729   4.578   2.777   1.094
 6277SOL    HW119730   4.574   2.772   1.194
 6277SOL    HW219731   4.625   2.861   1.067
 6278SOL     OW19732   4.893   6.906   4.668
 6278SOL    HW119733   4.872   6.811   4.647
 6278SOL    HW219734   4.962   6.940   4.604
 6279SOL     OW19735   3.195   6.317   0.506
 6279SOL    HW119736   3.146   6.230   0.513
 6279SOL    HW219737   3.287   6.299   0.471
 6280SOL     OW19738   0.042   0.972   6.149
 6280SOL    HW119739   0.131   1.010   6.123
 6280SOL    HW219740   6.990   1.027   6.107
 6281SOL     OW19741   6.789   5.060   4.141
 6281SOL    HW119742   6.743   5.149   4.138
 6281SOL    HW219743   6.884   5.070   4.114
 6282SOL     OW19744   6.068   5.012   5.905
 6282SOL    HW119745   6.038   5.106   5.889
 6282SOL    HW219746   6.034   4.953   5.833
 6283SOL     OW19747   6.970   4.115   4.394
 6283SOL    HW119748   7.019   4.028   4.390
 6283SOL    HW219749   0.001   4.180   4.448
 6284SOL     OW19750   2.117   4.839   5.319
 6284SOL    HW119751   2.182   4.819   5.246
 6284SOL    HW219752   2.046   4.769   5.320
 6285SOL     OW19753   0.572   3.498   3.818
 6285SOL    HW119754   0.522   3.578   3.784
 6285SOL    HW219755   0.525   3.461   3.898
 6286SOL     OW19756   6.651   2.524   4.304
 6286SOL    HW119757   6.740   2.559   4.273
 6286SOL    HW219758   6.592   2.601   4.327
 6287SOL     OW19759   3.186   4.869   4.912
 6287SOL    HW119760   3.095   4.893   4.944
 6287SOL    HW219761   3.219   4.788   4.960
 6288SOL     OW19762   4.890   4.574   1.938
 6288SOL    HW119763   4.862   4.620   2.023
 6288SOL    HW219764   4.907   4.478   1.957
 6289SOL     OW19765   1.609   5.133   0.060
 6289SOL    HW119766   1.661   5.057   0.021
 6289SOL    HW219767   1.670   5.209   0.080
 6290SOL     OW19768   6.183   4.598   6.168
 6290SOL    HW119769   6.184   4.622   6.265
 6290SOL    HW219770   6.248   4.524   6.151
 6291SOL     OW19771   4.062   3.764   3.695
 6291SOL    HW119772   3.982   3.819   3.720
 6291SOL    HW219773   4.105   3.728   3.778
 6292SOL     OW19774   2.201   2.304   5.071
 6292SOL    HW119775   2.159   2.330   5.157
 6292SOL    HW219776   2.176   2.370   5.000
 6293SOL     OW19777   4.169   1.866   1.099
 6293SOL    HW119778   4.179   1.893   1.195
 6293SOL    HW219779   4.079   1.893   1.066
 6294SOL     OW19780   4.059   0.577   3.515
 6294SOL    HW119781   4.030   0.507   3.451
 6294SOL    HW219782   4.063   0.666   3.468
 6295SOL     OW19783   5.149   4.795   4.528
 6295SOL    HW119784   5.212   4.717   4.528
 6295SOL    HW219785   5.141   4.832   4.620
 6296SOL     OW19786   6.895   4.973   6.269
 6296SOL    HW119787   6.847   5.000   6.185
 6296SOL    HW219788   6.859   4.887   6.303
 6297SOL     OW19789   5.770   0.225   5.506
 6297SOL    HW119790   5.843   0.287   5.534
 6297SOL    HW219791   5.810   0.142   5.466
 6298SOL     OW19792   1.802   3.481   6.146
 6298SOL    HW119793   1.825   3.499   6.242
 6298SOL    HW219794   1.873   3.519   6.087
 6299SOL     OW19795   5.931   2.508   1.922
 6299SOL    HW119796   5.876   2.574   1.973
 6299SOL    HW219797   6.016   2.490   1.971
 6300SOL     OW19798   6.217   1.064   6.493
 6300SOL    HW119799   6.311   1.054   6.461
 6300SOL    HW219800   6.212   1.138   6.560
 6301SOL     OW19801   2.802   6.890   6.950
 6301SOL    HW119802   2.880   6.855   6.899
 6301SOL    HW219803   2.730   6.820   6.952
 6302SOL     OW19804   1.868   2.213   4.994
 6302SOL    HW119805   1.932   2.180   4.924
 6302SOL    HW219806   1.813   2.287   4.955
 6303SOL     OW19807   0.812   0.695   5.273
 6303SOL    HW119808   0.830   0.788   5.303
 6303SOL    HW219809   0.893   0.657   5.229
 6304SOL     OW19810   3.453   0.999   1.922
 6304SOL    HW119811   3.368   1.026   1.875
 6304SOL    HW219812   3.531   1.041   1.877
 6305SOL     OW19813   5.697   6.349   0.705
 6305SOL    HW119814   5.732   6.270   0.655
 6305SOL    HW219815   5.685   6.426   0.642
 6306SOL     OW19816   6.805   4.299   4.295
 6306SOL    HW119817   6.830   4.307   4.199
 6306SOL    HW219818   6.868   4.236   4.341
 6307SOL     OW19819   3.427   3.902   3.559
 6307SOL    HW119820   3.378   3.988   3.543
 6307SOL    HW219821   3.378   3.848   3.627
 6308SOL     OW19822   1.843   2.731   4.431
 6308SOL    HW119823   1.745   2.710   4.438
 6308SOL    HW219824   1.857   2.829   4.441
 6309SOL     OW19825   6.856   6.165   4.526
 6309SOL    HW119826   6.822   6.214   4.446
 6309SOL    HW219827   6.863   6.228   4.604
 6310SOL     OW19828   1.654   6.616   2.639
 6310SOL    HW119829   1.749   6.615   2.672
 6310SOL    HW219830   1.622   6.523   2.627
 6311SOL     OW19831   4.217   1.352   6.001
 6311SOL    HW119832   4.313   1.358   5.974
 6311SOL    HW219833   4.196   1.259   6.029
 6312SOL     OW19834   0.266   6.852   4.734
 6312SOL    HW119835   0.168   6.854   4.712
 6312SOL    HW219836   0.281   6.899   4.820
 6313SOL     OW19837   6.510   5.882   3.858
 6313SOL    HW119838   6.543   5.924   3.943
 6313SOL    HW219839   6.416   5.850   3.871
 6314SOL     OW19840   3.413   6.797   1.509
 6314SOL    HW119841   3.410   6.875   1.446
 6314SOL    HW219842   3.370   6.717   1.467
 6315SOL     OW19843   2.904   2.202   5.768
 6315SOL    HW119844   2.857   2.278   5.813
 6315SOL    HW219845   2.921   2.129   5.834
 6316SOL     OW19846   5.086   1.853   6.046
 6316SOL    HW119847   5.176   1.854   6.089
 6316SOL    HW219848   5.021   1.809   6.108
 6317SOL     OW19849   4.936   4.661   1.384
 6317SOL    HW119850   5.001   4.611   1.327
 6317SOL    HW219851   4.981   4.692   1.467
 6318SOL     OW19852   4.433   6.873   6.213
 6318SOL    HW119853   4.506   6.840   6.273
 6318SOL    HW219854   4.378   6.941   6.263
 6319SOL     OW19855   6.382   2.031   5.392
 6319SOL    HW119856   6.345   2.102   5.332
 6319SOL    HW219857   6.482   2.028   5.382
 6320SOL     OW19858   6.878   6.324   4.739
 6320SOL    HW119859   6.882   6.423   4.725
 6320SOL    HW219860   6.924   6.300   4.824
 6321SOL     OW19861   4.345   3.043   0.962
 6321SOL    HW119862   4.311   3.097   0.885
 6321SOL    HW219863   4.384   2.957   0.928
 6322SOL     OW19864   2.429   2.387   1.236
 6322SOL    HW119865   2.404   2.391   1.332
 6322SOL    HW219866   2.356   2.345   1.183
 6323SOL     OW19867   1.393   2.820   1.879
 6323SOL    HW119868   1.330   2.871   1.820
 6323SOL    HW219869   1.438   2.884   1.942
 6324SOL     OW19870   4.478   1.238   0.845
 6324SOL    HW119871   4.428   1.156   0.874
 6324SOL    HW219872   4.507   1.290   0.925
 6325SOL     OW19873   2.013   3.451   2.865
 6325SOL    HW119874   1.922   3.418   2.842
 6325SOL    HW219875   2.017   3.550   2.853
 6326SOL     OW19876   5.530   5.250   0.405
 6326SOL    HW119877   5.559   5.202   0.488
 6326SOL    HW219878   5.489   5.338   0.429
 6327SOL     OW19879   6.976   2.017   4.965
 6327SOL    HW119880   0.002   1.966   4.893
 6327SOL    HW219881   6.889   2.052   4.929
 6328SOL     OW19882   4.187   3.545   0.258
 6328SOL    HW119883   4.278   3.566   0.222
 6328SOL    HW219884   4.119   3.598   0.208
 6329SOL     OW19885   1.483   3.114   3.850
 6329SOL    HW119886   1.533   3.031   3.875
 6329SOL    HW219887   1.391   3.111   3.888
 6330SOL     OW19888   5.876   6.759   1.653
 6330SOL    HW119889   5.789   6.730   1.691
 6330SOL    HW219890   5.938   6.785   1.727
 6331SOL     OW19891   6.802   3.531   5.368
 6331SOL    HW119892   6.747   3.493   5.293
 6331SOL    HW219893   6.804   3.465   5.444
 6332SOL     OW19894   0.591   2.557   1.293
 6332SOL    HW119895   0.586   2.459   1.312
 6332SOL    HW219896   0.684   2.590   1.310
 6333SOL     OW19897   4.618   0.193   5.416
 6333SOL    HW119898   4.625   0.262   5.488
 6333SOL    HW219899   4.684   0.214   5.344
 6334SOL     OW19900   3.552   1.199   2.585
 6334SOL    HW119901   3.556   1.101   2.599
 6334SOL    HW219902   3.622   1.227   2.519
 6335SOL     OW19903   4.071   0.380   0.615
 6335SOL    HW119904   3.987   0.435   0.616
 6335SOL    HW219905   4.066   0.311   0.687
 6336SOL     OW19906   0.962   1.704   6.462
 6336SOL    HW119907   1.044   1.647   6.473
 6336SOL    HW219908   0.985   1.784   6.406
 6337SOL     OW19909   4.083   4.975   5.416
 6337SOL    HW119910   4.134   4.958   5.500
 6337SOL    HW219911   4.020   5.052   5.429
 6338SOL     OW19912   2.950   2.237   4.117
 6338SOL    HW119913   2.888   2.225   4.194
 6338SOL    HW219914   3.040   2.201   4.141
 6339SOL     OW19915   1.068   3.586   3.878
 6339SOL    HW119916   0.973   3.605   3.903
 6339SOL    HW219917   1.079   3.594   3.779
 6340SOL     OW19918   1.967   4.646   1.244
 6340SOL    HW119919   1.967   4.729   1.299
 6340SOL    HW219920   1.969   4.670   1.147
 6341SOL     OW19921   6.689   3.303   4.749
 6341SOL    HW119922   6.669   3.245   4.670
 6341SOL    HW219923   6.724   3.246   4.824
 6342SOL     OW19924   2.814   1.544   1.202
 6342SOL    HW119925   2.896   1.598   1.218
 6342SOL    HW219926   2.839   1.455   1.164
 6343SOL     OW19927   4.224   0.649   6.062
 6343SOL    HW119928   4.197   0.589   6.137
 6343SOL    HW219929   4.161   0.727   6.058
 6344SOL     OW19930   5.286   2.299   4.499
 6344SOL    HW119931   5.241   2.216   4.466
 6344SOL    HW219932   5.230   2.342   4.570
 6345SOL     OW19933   5.511   2.546   2.161
 6345SOL    HW119934   5.523   2.448   2.140
 6345SOL    HW219935   5.416   2.573   2.143
 6346SOL     OW19936   6.307   5.400   4.399
 6346SOL    HW119937   6.403   5.416   4.423
 6346SOL    HW219938   6.258   5.365   4.479
 6347SOL     OW19939   2.248   1.293   0.291
 6347SOL    HW119940   2.254   1.212   0.349
 6347SOL    HW219941   2.239   1.374   0.349
 6348SOL     OW19942   1.797   2.654   6.145
 6348SOL    HW119943   1.836   2.632   6.235
 6348SOL    HW219944   1.841   2.736   6.109
 6349SOL     OW19945   1.800   1.157   0.888
 6349SOL    HW119946   1.741   1.125   0.813
 6349SOL    HW219947   1.896   1.137   0.866
 6350SOL     OW19948   0.355   5.287   3.965
 6350SOL    HW119949   0.419   5.294   3.889
 6350SOL    HW219950   0.395   5.234   4.039
 6351SOL     OW19951   6.098   3.548   3.652
 6351SOL    HW119952   6.035   3.625   3.653
 6351SOL    HW219953   6.192   3.582   3.656
 6352SOL     OW19954   2.970   6.729   4.874
 6352SOL    HW119955   2.909   6.802   4.844
 6352SOL    HW219956   2.931   6.684   4.954
 6353SOL     OW19957   0.844   6.098   5.648
 6353SOL    HW119958   0.870   6.141   5.562
 6353SOL    HW219959   0.922   6.098   5.711
 6354SOL     OW19960   3.422   5.567   2.994
 6354SOL    HW119961   3.385   5.617   2.916
 6354SOL    HW219962   3.519   5.547   2.977
 6355SOL     OW19963   2.014   5.357   6.899
 6355SOL    HW119964   1.953   5.285   6.865
 6355SOL    HW219965   1.959   5.436   6.928
 6356SOL     OW19966   4.842   5.196   1.129
 6356SOL    HW119967   4.799   5.106   1.127
 6356SOL    HW219968   4.914   5.197   1.198
 6357SOL     OW19969   6.277   3.480   2.981
 6357SOL    HW119970   6.192   3.511   2.939
 6357SOL    HW219971   6.286   3.520   3.072
 6358SOL     OW19972   0.413   1.727   6.185
 6358SOL    HW119973   0.429   1.732   6.086
 6358SOL    HW219974   0.400   1.632   6.212
 6359SOL     OW19975   6.343   6.957   0.158
 6359SOL    HW119976   6.318   0.033   0.161
 6359SOL    HW219977   6.290   6.907   0.227
 6360SOL     OW19978   1.120   3.713   5.441
 6360SOL    HW119979   1.102   3.751   5.350
 6360SOL    HW219980   1.061   3.757   5.508
 6361SOL     OW19981   1.033   0.878   0.948
 6361SOL    HW119982   1.109   0.847   1.006
 6361SOL    HW219983   1.012   0.807   0.881
 6362SOL     OW19984   0.520   5.410   6.474
 6362SOL    HW119985   0.495   5.506   6.462
 6362SOL    HW219986   0.566   5.399   6.562
 6363SOL     OW19987   2.153   6.074   3.613
 6363SOL    HW119988   2.160   6.153   3.551
 6363SOL    HW219989   2.220   6.083   3.686
 6364SOL     OW19990   2.913   1.917   5.521
 6364SOL    HW119991   2.834   1.966   5.482
 6364SOL    HW219992   2.920   1.827   5.478
 6365SOL     OW19993   5.097   6.576   3.991
 6365SOL    HW119994   5.187   6.538   3.971
 6365SOL    HW219995   5.031   6.502   4.000
 6366SOL     OW19996   1.031   5.445   5.255
 6366SOL    HW119997   1.114   5.397   5.227
 6366SOL    HW219998   1.038   5.468   5.353
 6367SOL     OW19999   4.203   1.186   3.955
 6367SOL    HW120000   4.199   1.228   3.865
 6367SOL    HW220001   4.177   1.253   4.025
 6368SOL     OW20002   3.695   5.112   3.693
 6368SOL    HW120003   3.782   5.148   3.726
 6368SOL    HW220004   3.710   5.067   3.605
 6369SOL     OW20005   2.116   0.426   4.743
 6369SOL    HW120006   2.191   0.442   4.678
 6369SOL    HW220007   2.036   0.479   4.715
 6370SOL     OW20008   5.744   3.350   3.859
 6370SOL    HW120009   5.820   3.287   3.873
 6370SOL    HW220010   5.756   3.430   3.918
 6371SOL     OW20011   5.212   4.657   3.210
 6371SOL    HW120012   5.144   4.681   3.141
 6371SOL    HW220013   5.289   4.721   3.206
 6372SOL     OW20014   1.410   1.760   1.896
 6372SOL    HW120015   1.489   1.812   1.927
 6372SOL    HW220016   1.434   1.708   1.815
 6373SOL     OW20017   5.224   4.329   2.641
 6373SOL    HW120018   5.131   4.367   2.639
 6373SOL    HW220019   5.238   4.282   2.728
 6374SOL     OW20020   4.250   3.380   1.810
 6374SOL    HW120021   4.268   3.452   1.743
 6374SOL    HW220022   4.294   3.295   1.781
 6375SOL     OW20023   0.117   1.839   2.372
 6375SOL    HW120024   0.041   1.904   2.373
 6375SOL    HW220025   0.083   1.747   2.356
 6376SOL     OW20026   4.990   2.026   6.284
 6376SOL    HW120027   4.914   1.962   6.270
 6376SOL    HW220028   4.955   2.119   6.289
 6377SOL     OW20029   6.739   1.049   5.519
 6377SOL    HW120030   6.690   1.088   5.597
 6377SOL    HW220031   6.807   0.984   5.551
 6378SOL     OW20032   4.584   4.481   3.704
 6378SOL    HW120033   4.612   4.575   3.684
 6378SOL    HW220034   4.623   4.452   3.792
 6379SOL     OW20035   0.431   4.039   5.303
 6379SOL    HW120036   0.446   3.957   5.247
 6379SOL    HW220037   0.454   4.018   5.398
 6380SOL     OW20038   0.104   1.555   5.213
 6380SOL    HW120039   0.048   1.546   5.295
 6380SOL    HW220040   0.151   1.643   5.215
 6381SOL     OW20041   4.048   2.951   1.341
 6381SOL    HW120042   4.104   2.994   1.270
 6381SOL    HW220043   4.051   3.006   1.424
 6382SOL     OW20044   3.157   1.955   0.764
 6382SOL    HW120045   3.154   1.989   0.670
 6382SOL    HW220046   3.237   1.992   0.811
 6383SOL     OW20047   2.483   2.533   3.289
 6383SOL    HW120048   2.450   2.627   3.282
 6383SOL    HW220049   2.510   2.501   3.198
 6384SOL     OW20050   6.547   3.790   3.231
 6384SOL    HW120051   6.566   3.888   3.240
 6384SOL    HW220052   6.612   3.749   3.167
 6385SOL     OW20053   6.977   3.442   3.680
 6385SOL    HW120054   6.901   3.502   3.656
 6385SOL    HW220055   6.980   3.364   3.617
 6386SOL     OW20056   2.973   3.387   6.590
 6386SOL    HW120057   2.923   3.333   6.658
 6386SOL    HW220058   2.908   3.441   6.537
 6387SOL     OW20059   6.924   1.535   6.718
 6387SOL    HW120060   6.863   1.571   6.789
 6387SOL    HW220061   6.922   1.435   6.720
 6388SOL     OW20062   4.448   6.486   1.530
 6388SOL    HW120063   4.532   6.540   1.540
 6388SOL    HW220064   4.447   6.413   1.598
 6389SOL     OW20065   0.854   6.682   0.664
 6389SOL    HW120066   0.771   6.736   0.651
 6389SOL    HW220067   0.928   6.719   0.608
 6390SOL     OW20068   0.238   0.399   5.683
 6390SOL    HW120069   0.206   0.305   5.689
 6390SOL    HW220070   0.172   0.460   5.727
 6391SOL     OW20071   1.250   0.596   6.210
 6391SOL    HW120072   1.266   0.685   6.168
 6391SOL    HW220073   1.317   0.581   6.282
 6392SOL     OW20074   2.746   5.002   2.829
 6392SOL    HW120075   2.748   5.081   2.891
 6392SOL    HW220076   2.768   5.032   2.737
 6393SOL     OW20077   0.401   6.042   2.147
 6393SOL    HW120078   0.495   6.028   2.178
 6393SOL    HW220079   0.372   6.135   2.168
 6394SOL     OW20080   1.414   5.878   0.669
 6394SOL    HW120081   1.464   5.942   0.727
 6394SOL    HW220082   1.339   5.926   0.623
 6395SOL     OW20083   0.486   2.905   1.590
 6395SOL    HW120084   0.500   2.842   1.666
 6395SOL    HW220085   0.404   2.960   1.607
 6396SOL     OW20086   6.151   3.083   6.789
 6396SOL    HW120087   6.233   3.034   6.817
 6396SOL    HW220088   6.092   3.098   6.868
 6397SOL     OW20089   5.688   0.978   1.801
 6397SOL    HW120090   5.714   0.923   1.880
 6397SOL    HW220091   5.759   1.047   1.784
 6398SOL     OW20092   2.928   6.734   1.856
 6398SOL    HW120093   2.854   6.671   1.879
 6398SOL    HW220094   2.891   6.814   1.809
 6399SOL     OW20095   1.660   0.572   6.757
 6399SOL    HW120096   1.696   0.481   6.779
 6399SOL    HW220097   1.592   0.563   6.684
 6400SOL     OW20098   2.222   4.898   2.432
 6400SOL    HW120099   2.156   4.941   2.493
 6400SOL    HW220100   2.308   4.949   2.434
 6401SOL     OW20101   5.548   6.199   3.050
 6401SOL    HW120102   5.619   6.139   3.087
 6401SOL    HW220103   5.575   6.294   3.061
 6402SOL     OW20104   2.127   3.212   3.432
 6402SOL    HW120105   2.155   3.182   3.340
 6402SOL    HW220106   2.031   3.188   3.446
 6403SOL     OW20107   6.435   5.228   6.244
 6403SOL    HW120108   6.529   5.200   6.223
 6403SOL    HW220109   6.432   5.326   6.262
 6404SOL     OW20110   4.088   1.398   2.421
 6404SOL    HW120111   4.126   1.442   2.502
 6404SOL    HW220112   3.993   1.372   2.440
 6405SOL     OW20113   3.903   0.894   3.789
 6405SOL    HW120114   3.838   0.874   3.716
 6405SOL    HW220115   3.858   0.878   3.878
 6406SOL     OW20116   0.264   2.689   2.918
 6406SOL    HW120117   0.288   2.785   2.905
 6406SOL    HW220118   0.270   2.641   2.830
 6407SOL     OW20119   2.350   7.021   4.134
 6407SOL    HW120120   2.434   6.966   4.139
 6407SOL    HW220121   2.279   6.977   4.188
 6408SOL     OW20122   5.577   0.760   0.656
 6408SOL    HW120123   5.548   0.856   0.651
 6408SOL    HW220124   5.498   0.702   0.675
 6409SOL     OW20125   6.418   4.565   4.319
 6409SOL    HW120126   6.517   4.556   4.312
 6409SOL    HW220127   6.395   4.662   4.330
 6410SOL     OW20128   1.936   1.474   5.989
 6410SOL    HW120129   1.890   1.403   6.042
 6410SOL    HW220130   1.921   1.458   5.891
 6411SOL     OW20131   0.451   3.002   3.076
 6411SOL    HW120132   0.470   3.098   3.055
 6411SOL    HW220133   0.360   2.995   3.117
 6412SOL     OW20134   1.909   1.379   5.117
 6412SOL    HW120135   1.841   1.376   5.190
 6412SOL    HW220136   1.934   1.475   5.099
 6413SOL     OW20137   3.925   4.879   3.660
 6413SOL    HW120138   3.853   4.882   3.591
 6413SOL    HW220139   3.946   4.971   3.691
 6414SOL     OW20140   5.499   0.936   0.357
 6414SOL    HW120141   5.574   0.944   0.422
 6414SOL    HW220142   5.423   0.994   0.387
 6415SOL     OW20143   1.369   3.675   3.691
 6415SOL    HW120144   1.393   3.639   3.781
 6415SOL    HW220145   1.273   3.657   3.672
 6416SOL     OW20146   1.979   0.076   6.597
 6416SOL    HW120147   1.946   0.167   6.571
 6416SOL    HW220148   2.002   0.024   6.515
 6417SOL     OW20149   5.769   4.453   0.548
 6417SOL    HW120150   5.855   4.404   0.551
 6417SOL    HW220151   5.720   4.431   0.464
 6418SOL     OW20152   4.888   3.547   2.503
 6418SOL    HW120153   4.840   3.574   2.419
 6418SOL    HW220154   4.895   3.625   2.565
 6419SOL     OW20155   0.875   5.340   2.748
 6419SOL    HW120156   0.937   5.320   2.672
 6419SOL    HW220157   0.900   5.284   2.827
 6420SOL     OW20158   2.204   6.860   4.265
 6420SOL    HW120159   2.238   6.776   4.222
 6420SOL    HW220160   2.105   6.853   4.279
 6421SOL     OW20161   4.807   0.592   2.042
 6421SOL    HW120162   4.814   0.611   1.944
 6421SOL    HW220163   4.893   0.553   2.075
 6422SOL     OW20164   6.826   0.220   5.053
 6422SOL    HW120165   6.801   0.315   5.070
 6422SOL    HW220166   6.916   0.216   5.010
 6423SOL     OW20167   5.073   5.630   3.459
 6423SOL    HW120168   4.999   5.684   3.498
 6423SOL    HW220169   5.043   5.535   3.447
 6424SOL     OW20170   0.554   4.090   4.456
 6424SOL    HW120171   0.613   4.072   4.535
 6424SOL    HW220172   0.458   4.087   4.484
 6425SOL     OW20173   6.732   6.340   2.968
 6425SOL    HW120174   6.779   6.404   2.908
 6425SOL    HW220175   6.642   6.319   2.930
 6426SOL     OW20176   0.599   5.226   2.762
 6426SOL    HW120177   0.536   5.266   2.695
 6426SOL    HW220178   0.693   5.251   2.739
 6427SOL     OW20179   3.867   3.937   3.758
 6427SOL    HW120180   3.825   4.013   3.708
 6427SOL    HW220181   3.842   3.944   3.854
 6428SOL     OW20182   5.579   3.545   6.632
 6428SOL    HW120183   5.665   3.494   6.633
 6428SOL    HW220184   5.522   3.515   6.709
 6429SOL     OW20185   7.000   1.444   5.753
 6429SOL    HW120186   0.017   1.447   5.660
 6429SOL    HW220187   6.949   1.359   5.765
 6430SOL     OW20188   6.351   0.974   4.027
 6430SOL    HW120189   6.295   0.977   3.944
 6430SOL    HW220190   6.405   0.890   4.028
 6431SOL     OW20191   3.743   6.027   3.755
 6431SOL    HW120192   3.695   6.011   3.841
 6431SOL    HW220193   3.837   5.996   3.763
 6432SOL     OW20194   4.530   4.491   5.917
 6432SOL    HW120195   4.588   4.523   5.992
 6432SOL    HW220196   4.462   4.561   5.895
 6433SOL     OW20197   1.797   5.287   5.740
 6433SOL    HW120198   1.834   5.281   5.833
 6433SOL    HW220199   1.809   5.199   5.694
 6434SOL     OW20200   2.854   6.490   6.270
 6434SOL    HW120201   2.946   6.498   6.233
 6434SOL    HW220202   2.855   6.511   6.368
 6435SOL     OW20203   5.486   6.804   0.442
 6435SOL    HW120204   5.474   6.730   0.376
 6435SOL    HW220205   5.400   6.821   0.490
 6436SOL     OW20206   1.266   2.967   2.696
 6436SOL    HW120207   1.308   3.004   2.614
 6436SOL    HW220208   1.337   2.932   2.757
 6437SOL     OW20209   1.574   2.585   6.993
 6437SOL    HW120210   1.672   2.600   6.984
 6437SOL    HW220211   1.541   2.531   6.915
 6438SOL     OW20212   0.494   4.081   5.598
 6438SOL    HW120213   0.412   4.023   5.594
 6438SOL    HW220214   0.513   4.104   5.694
 6439SOL     OW20215   5.437   0.993   1.994
 6439SOL    HW120216   5.474   0.901   1.990
 6439SOL    HW220217   5.471   1.039   2.076
 6440SOL     OW20218   2.368   1.462   5.973
 6440SOL    HW120219   2.441   1.396   5.956
 6440SOL    HW220220   2.406   1.554   5.980
 6441SOL     OW20221   0.155   0.376   1.249
 6441SOL    HW120222   0.206   0.404   1.168
 6441SOL    HW220223   0.115   0.285   1.234
 6442SOL     OW20224   2.598   1.710   5.011
 6442SOL    HW120225   2.507   1.735   5.046
 6442SOL    HW220226   2.621   1.770   4.934
 6443SOL     OW20227   3.776   2.548   5.587
 6443SOL    HW120228   3.750   2.644   5.597
 6443SOL    HW220229   3.713   2.503   5.524
 6444SOL     OW20230   5.534   3.103   4.714
 6444SOL    HW120231   5.553   3.201   4.714
 6444SOL    HW220232   5.479   3.079   4.793
 6445SOL     OW20233   4.159   3.522   4.577
 6445SOL    HW120234   4.160   3.579   4.660
 6445SOL    HW220235   4.175   3.427   4.603
 6446SOL     OW20236   1.199   1.288   6.973
 6446SOL    HW120237   1.281   1.256   0.000
 6446SOL    HW220238   1.145   1.210   6.943
 6447SOL     OW20239   6.410   5.040   2.681
 6447SOL    HW120240   6.445   4.963   2.735
 6447SOL    HW220241   6.389   5.009   2.588
 6448SOL     OW20242   4.989   5.416   1.462
 6448SOL    HW120243   5.039   5.483   1.517
 6448SOL    HW220244   4.892   5.441   1.460
 6449SOL     OW20245   3.699   5.909   1.547
 6449SOL    HW120246   3.766   5.863   1.606
 6449SOL    HW220247   3.607   5.876   1.569
 6450SOL     OW20248   1.617   2.972   0.757
 6450SOL    HW120249   1.630   2.873   0.768
 6450SOL    HW220250   1.704   3.019   0.769
 6451SOL     OW20251   2.376   0.296   5.707
 6451SOL    HW120252   2.361   0.247   5.621
 6451SOL    HW220253   2.397   0.230   5.779
 6452SOL     OW20254   4.350   4.552   2.919
 6452SOL    HW120255   4.271   4.531   2.862
 6452SOL    HW220256   4.426   4.492   2.894
 6453SOL     OW20257   2.055   6.969   1.846
 6453SOL    HW120258   2.135   0.004   1.826
 6453SOL    HW220259   1.973   0.004   1.839
 6454SOL     OW20260   0.870   1.631   3.510
 6454SOL    HW120261   0.824   1.559   3.561
 6454SOL    HW220262   0.857   1.718   3.558
 6455SOL     OW20263   0.385   3.117   4.101
 6455SOL    HW120264   0.370   3.214   4.082
 6455SOL    HW220265   0.357   3.097   4.195
 6456SOL     OW20266   1.547   1.293   3.117
 6456SOL    HW120267   1.515   1.337   3.033
 6456SOL    HW220268   1.468   1.267   3.173
 6457SOL     OW20269   4.756   0.561   1.642
 6457SOL    HW120270   4.850   0.584   1.617
 6457SOL    HW220271   4.694   0.593   1.571
 6458SOL     OW20272   0.930   5.510   4.077
 6458SOL    HW120273   0.990   5.511   3.997
 6458SOL    HW220274   0.835   5.508   4.047
 6459SOL     OW20275   6.449   3.341   1.558
 6459SOL    HW120276   6.402   3.343   1.647
 6459SOL    HW220277   6.466   3.435   1.528
 6460SOL     OW20278   6.231   6.022   6.476
 6460SOL    HW120279   6.282   5.978   6.401
 6460SOL    HW220280   6.219   5.957   6.551
 6461SOL     OW20281   2.477   4.444   0.130
 6461SOL    HW120282   2.409   4.482   0.192
 6461SOL    HW220283   2.494   4.508   0.055
 6462SOL     OW20284   2.013   2.862   4.829
 6462SOL    HW120285   1.953   2.939   4.806
 6462SOL    HW220286   2.108   2.886   4.809
 6463SOL     OW20287   5.352   1.578   0.430
 6463SOL    HW120288   5.427   1.617   0.376
 6463SOL    HW220289   5.349   1.623   0.519
 6464SOL     OW20290   1.618   5.085   5.168
 6464SOL    HW120291   1.574   5.005   5.208
 6464SOL    HW220292   1.712   5.063   5.143
 6465SOL     OW20293   6.835   3.096   2.526
 6465SOL    HW120294   6.827   3.019   2.589
 6465SOL    HW220295   6.890   3.168   2.568
 6466SOL     OW20296   6.126   1.411   6.053
 6466SOL    HW120297   6.130   1.324   6.003
 6466SOL    HW220298   6.168   1.398   6.143
 6467SOL     OW20299   3.986   0.257   0.020
 6467SOL    HW120300   3.988   0.215   0.111
 6467SOL    HW220301   4.064   0.317   0.010
 6468SOL     OW20302   2.704   6.396   1.216
 6468SOL    HW120303   2.745   6.480   1.180
 6468SOL    HW220304   2.772   6.323   1.216
 6469SOL     OW20305   4.525   2.132   3.911
 6469SOL    HW120306   4.559   2.217   3.952
 6469SOL    HW220307   4.425   2.135   3.906
 6470SOL     OW20308   5.314   2.754   0.971
 6470SOL    HW120309   5.410   2.729   0.983
 6470SOL    HW220310   5.273   2.772   1.061
 6471SOL     OW20311   0.239   6.394   5.500
 6471SOL    HW120312   0.304   6.469   5.509
 6471SOL    HW220313   0.207   6.388   5.405
 6472SOL     OW20314   6.758   6.289   1.575
 6472SOL    HW120315   6.661   6.300   1.597
 6472SOL    HW220316   6.813   6.313   1.655
 6473SOL     OW20317   3.033   1.716   4.816
 6473SOL    HW120318   3.021   1.758   4.906
 6473SOL    HW220319   2.948   1.722   4.765
 6474SOL     OW20320   3.644   5.411   6.336
 6474SOL    HW120321   3.698   5.491   6.311
 6474SOL    HW220322   3.555   5.441   6.372
 6475SOL     OW20323   6.106   4.806   3.691
 6475SOL    HW120324   6.107   4.804   3.791
 6475SOL    HW220325   6.145   4.721   3.655
 6476SOL     OW20326   5.039   3.384   0.590
 6476SOL    HW120327   4.968   3.361   0.657
 6476SOL    HW220328   5.128   3.387   0.635
 6477SOL     OW20329   6.195   4.983   0.217
 6477SOL    HW120330   6.168   4.958   0.310
 6477SOL    HW220331   6.134   4.938   0.152
 6478SOL     OW20332   3.258   7.014   2.205
 6478SOL    HW120333   3.240   0.087   2.233
 6478SOL    HW220334   3.356   7.001   2.189
 6479SOL     OW20335   4.347   5.681   3.771
 6479SOL    HW120336   4.392   5.767   3.799
 6479SOL    HW220337   4.283   5.700   3.697
 6480SOL     OW20338   2.914   1.052   6.966
 6480SOL    HW120339   2.929   1.113   0.023
 6480SOL    HW220340   2.826   1.005   6.978
 6481SOL     OW20341   3.348   2.117   2.234
 6481SOL    HW120342   3.350   2.135   2.332
 6481SOL    HW220343   3.256   2.092   2.206
 6482SOL     OW20344   6.483   1.913   5.678
 6482SOL    HW120345   6.444   1.899   5.769
 6482SOL    HW220346   6.415   1.957   5.619
 6483SOL     OW20347   0.647   0.281   3.204
 6483SOL    HW120348   0.669   0.203   3.263
 6483SOL    HW220349   0.633   0.249   3.110
 6484SOL     OW20350   3.451   0.086   1.493
 6484SOL    HW120351   3.437   0.170   1.545
 6484SOL    HW220352   3.402   0.092   1.406
 6485SOL     OW20353   1.777   5.407   3.780
 6485SOL    HW120354   1.875   5.390   3.786
 6485SOL    HW220355   1.756   5.452   3.693
 6486SOL     OW20356   0.419   4.309   2.796
 6486SOL    HW120357   0.408   4.360   2.711
 6486SOL    HW220358   0.426   4.211   2.776
 6487SOL     OW20359   0.955   6.491   4.774
 6487SOL    HW120360   1.038   6.510   4.722
 6487SOL    HW220361   0.978   6.446   4.860
 6488SOL     OW20362   4.210   6.436   4.622
 6488SOL    HW120363   4.231   6.494   4.701
 6488SOL    HW220364   4.171   6.349   4.654
 6489SOL     OW20365   3.238   3.532   6.143
 6489SOL    HW120366   3.238   3.624   6.181
 6489SOL    HW220367   3.325   3.514   6.098
 6490SOL     OW20368   3.786   1.143   6.559
 6490SOL    HW120369   3.841   1.185   6.487
 6490SOL    HW220370   3.697   1.115   6.521
 6491SOL     OW20371   3.693   0.765   1.281
 6491SOL    HW120372   3.760   0.837   1.295
 6491SOL    HW220373   3.680   0.750   1.183
 6492SOL     OW20374   3.945   4.846   5.874
 6492SOL    HW120375   4.011   4.776   5.900
 6492SOL    HW220376   3.984   4.937   5.890
 6493SOL     OW20377   1.728   4.477   5.969
 6493SOL    HW120378   1.756   4.427   6.051
 6493SOL    HW220379   1.699   4.412   5.899
 6494SOL     OW20380   6.769   0.373   3.113
 6494SOL    HW120381   6.817   0.424   3.041
 6494SOL    HW220382   6.751   0.433   3.191
 6495SOL     OW20383   6.762   0.511   4.814
 6495SOL    HW120384   6.743   0.416   4.790
 6495SOL    HW220385   6.720   0.572   4.747
 6496SOL     OW20386   6.136   0.666   2.900
 6496SOL    HW120387   6.111   0.652   2.805
 6496SOL    HW220388   6.058   0.704   2.950
 6497SOL     OW20389   0.997   1.034   1.365
 6497SOL    HW120390   1.010   0.935   1.358
 6497SOL    HW220391   0.924   1.054   1.429
 6498SOL     OW20392   1.743   3.078   4.217
 6498SOL    HW120393   1.787   3.035   4.296
 6498SOL    HW220394   1.790   3.049   4.133
 6499SOL     OW20395   5.371   4.298   5.373
 6499SOL    HW120396   5.284   4.297   5.324
 6499SOL    HW220397   5.381   4.213   5.425
 6500SOL     OW20398   6.751   3.728   4.975
 6500SOL    HW120399   6.815   3.763   5.043
 6500SOL    HW220400   6.693   3.803   4.942
 6501SOL     OW20401   6.662   0.991   6.399
 6501SOL    HW120402   6.596   0.937   6.450
 6501SOL    HW220403   6.641   0.987   6.302
 6502SOL     OW20404   6.609   3.219   2.387
 6502SOL    HW120405   6.690   3.217   2.445
 6502SOL    HW220406   6.588   3.127   2.355
 6503SOL     OW20407   5.326   1.101   3.752
 6503SOL    HW120408   5.375   1.172   3.803
 6503SOL    HW220409   5.308   1.132   3.659
 6504SOL     OW20410   4.265   6.355   5.310
 6504SOL    HW120411   4.174   6.312   5.305
 6504SOL    HW220412   4.326   6.312   5.243
 6505SOL     OW20413   5.344   5.948   6.215
 6505SOL    HW120414   5.348   6.046   6.233
 6505SOL    HW220415   5.388   5.898   6.289
 6506SOL     OW20416   6.723   2.854   2.630
 6506SOL    HW120417   6.623   2.850   2.621
 6506SOL    HW220418   6.766   2.798   2.560
 6507SOL     OW20419   1.667   5.601   6.282
 6507SOL    HW120420   1.612   5.567   6.206
 6507SOL    HW220421   1.607   5.633   6.356
 6508SOL     OW20422   1.746   0.951   2.688
 6508SOL    HW120423   1.802   1.004   2.752
 6508SOL    HW220424   1.804   0.914   2.616
 6509SOL     OW20425   4.029   1.843   4.664
 6509SOL    HW120426   4.090   1.922   4.676
 6509SOL    HW220427   3.934   1.873   4.675
 6510SOL     OW20428   6.701   5.175   0.118
 6510SOL    HW120429   6.760   5.195   0.196
 6510SOL    HW220430   6.706   5.077   0.097
 6511SOL     OW20431   3.688   1.270   4.656
 6511SOL    HW120432   3.787   1.266   4.648
 6511SOL    HW220433   3.655   1.362   4.637
 6512SOL     OW20434   3.916   6.289   2.025
 6512SOL    HW120435   3.981   6.219   2.054
 6512SOL    HW220436   3.909   6.360   2.095
 6513SOL     OW20437   2.752   4.977   3.312
 6513SOL    HW120438   2.787   4.893   3.351
 6513SOL    HW220439   2.713   4.958   3.222
 6514SOL     OW20440   6.111   1.318   4.079
 6514SOL    HW120441   6.052   1.314   4.160
 6514SOL    HW220442   6.190   1.376   4.099
 6515SOL     OW20443   0.491   4.539   3.507
 6515SOL    HW120444   0.551   4.607   3.465
 6515SOL    HW220445   0.546   4.466   3.546
 6516SOL     OW20446   0.627   3.402   1.817
 6516SOL    HW120447   0.575   3.381   1.901
 6516SOL    HW220448   0.707   3.456   1.840
 6517SOL     OW20449   0.103   1.140   1.934
 6517SOL    HW120450   0.074   1.055   1.890
 6517SOL    HW220451   0.103   1.128   2.033
 6518SOL     OW20452   6.998   0.314   0.411
 6518SOL    HW120453   7.009   0.381   0.337
 6518SOL    HW220454   0.054   0.251   0.411
 6519SOL     OW20455   0.776   2.185   2.887
 6519SOL    HW120456   0.849   2.127   2.923
 6519SOL    HW220457   0.785   2.192   2.788
 6520SOL     OW20458   6.463   5.332   1.299
 6520SOL    HW120459   6.457   5.278   1.383
 6520SOL    HW220460   6.485   5.271   1.222
 6521SOL     OW20461   1.888   2.928   4.014
 6521SOL    HW120462   1.876   2.846   4.070
 6521SOL    HW220463   1.881   2.904   3.917
 6522SOL     OW20464   3.054   4.881   5.440
 6522SOL    HW120465   2.961   4.842   5.444
 6522SOL    HW220466   3.061   4.956   5.504
 6523SOL     OW20467   3.369   1.062   7.002
 6523SOL    HW120468   3.284   1.054   6.950
 6523SOL    HW220469   3.370   1.149   0.029
 6524SOL     OW20470   3.012   3.575   1.499
 6524SOL    HW120471   2.973   3.483   1.498
 6524SOL    HW220472   3.085   3.579   1.568
 6525SOL     OW20473   2.192   5.156   3.322
 6525SOL    HW120474   2.126   5.102   3.270
 6525SOL    HW220475   2.150   5.185   3.408
 6526SOL     OW20476   2.472   0.810   0.994
 6526SOL    HW120477   2.550   0.870   1.009
 6526SOL    HW220478   2.489   0.722   1.039
 6527SOL     OW20479   0.171   1.544   5.572
 6527SOL    HW120480   0.265   1.510   5.561
 6527SOL    HW220481   0.170   1.617   5.640
 6528SOL     OW20482   5.825   1.055   4.975
 6528SOL    HW120483   5.856   1.147   4.999
 6528SOL    HW220484   5.766   1.060   4.894
 6529SOL     OW20485   2.132   1.020   2.656
 6529SOL    HW120486   2.092   1.012   2.564
 6529SOL    HW220487   2.232   1.021   2.648
 6530SOL     OW20488   6.967   2.160   0.135
 6530SOL    HW120489   7.020   2.196   0.212
 6530SOL    HW220490   0.002   2.162   0.052
 6531SOL     OW20491   4.835   3.200   5.270
 6531SOL    HW120492   4.751   3.231   5.314
 6531SOL    HW220493   4.893   3.278   5.249
 6532SOL     OW20494   0.412   1.148   1.302
 6532SOL    HW120495   0.429   1.084   1.377
 6532SOL    HW220496   0.318   1.136   1.269
 6533SOL     OW20497   4.615   0.064   0.825
 6533SOL    HW120498   4.576   0.115   0.749
 6533SOL    HW220499   4.694   0.011   0.792
 6534SOL     OW20500   4.759   4.082   1.481
 6534SOL    HW120501   4.756   4.107   1.578
 6534SOL    HW220502   4.852   4.055   1.456
 6535SOL     OW20503   6.403   4.528   3.944
 6535SOL    HW120504   6.320   4.583   3.946
 6535SOL    HW220505   6.472   4.569   4.005
 6536SOL     OW20506   0.409   1.289   5.682
 6536SOL    HW120507   0.408   1.321   5.588
 6536SOL    HW220508   0.392   1.191   5.684
 6537SOL     OW20509   6.821   5.042   6.753
 6537SOL    HW120510   6.824   5.137   6.783
 6537SOL    HW220511   6.877   5.032   6.671
 6538SOL     OW20512   2.437   3.723   6.269
 6538SOL    HW120513   2.411   3.639   6.221
 6538SOL    HW220514   2.448   3.797   6.202
 6539SOL     OW20515   5.327   0.982   6.873
 6539SOL    HW120516   5.318   0.924   6.954
 6539SOL    HW220517   5.417   1.026   6.873
 6540SOL     OW20518   4.313   1.797   6.272
 6540SOL    HW120519   4.344   1.882   6.229
 6540SOL    HW220520   4.227   1.767   6.231
 6541SOL     OW20521   4.834   1.553   4.641
 6541SOL    HW120522   4.829   1.461   4.602
 6541SOL    HW220523   4.761   1.565   4.708
 6542SOL     OW20524   6.689   3.140   4.212
 6542SOL    HW120525   6.656   3.060   4.262
 6542SOL    HW220526   6.617   3.172   4.150
 6543SOL     OW20527   4.695   3.115   5.712
 6543SOL    HW120528   4.793   3.135   5.724
 6543SOL    HW220529   4.643   3.158   5.785
 6544SOL     OW20530   1.293   6.760   2.973
 6544SOL    HW120531   1.338   6.724   3.055
 6544SOL    HW220532   1.357   6.760   2.897
 6545SOL     OW20533   4.471   0.446   0.741
 6545SOL    HW120534   4.388   0.492   0.710
 6545SOL    HW220535   4.449   0.388   0.819
 6546SOL     OW20536   2.772   4.419   0.084
 6546SOL    HW120537   2.688   4.366   0.076
 6546SOL    HW220538   2.846   4.373   0.034
 6547SOL     OW20539   4.708   1.029   6.139
 6547SOL    HW120540   4.655   0.945   6.150
 6547SOL    HW220541   4.651   1.099   6.095
 6548SOL     OW20542   0.361   4.219   0.826
 6548SOL    HW120543   0.403   4.128   0.827
 6548SOL    HW220544   0.295   4.226   0.901
 6549SOL     OW20545   3.948   0.432   1.778
 6549SOL    HW120546   4.009   0.508   1.755
 6549SOL    HW220547   3.949   0.418   1.877
 6550SOL     OW20548   0.156   6.910   3.207
 6550SOL    HW120549   0.226   6.981   3.195
 6550SOL    HW220550   0.070   6.954   3.233
 6551SOL     OW20551   1.374   4.766   1.937
 6551SOL    HW120552   1.458   4.723   1.969
 6551SOL    HW220553   1.397   4.853   1.893
 6552SOL     OW20554   1.875   0.227   0.447
 6552SOL    HW120555   1.887   0.298   0.516
 6552SOL    HW220556   1.939   0.242   0.372
 6553SOL     OW20557   6.857   2.366   3.300
 6553SOL    HW120558   6.835   2.273   3.330
 6553SOL    HW220559   6.942   2.395   3.344
 6554SOL     OW20560   0.831   0.556   4.709
 6554SOL    HW120561   0.916   0.606   4.722
 6554SOL    HW220562   0.777   0.598   4.636
 6555SOL     OW20563   5.580   1.337   3.407
 6555SOL    HW120564   5.564   1.432   3.436
 6555SOL    HW220565   5.497   1.300   3.365
 6556SOL     OW20566   4.954   4.322   3.878
 6556SOL    HW120567   5.012   4.318   3.959
 6556SOL    HW220568   4.988   4.257   3.810
 6557SOL     OW20569   3.160   0.008   2.530
 6557SOL    HW120570   3.152   0.107   2.518
 6557SOL    HW220571   3.149   6.984   2.441
 6558SOL     OW20572   0.080   5.145   0.466
 6558SOL    HW120573   0.012   5.112   0.530
 6558SOL    HW220574   0.171   5.116   0.495
 6559SOL     OW20575   0.786   4.146   0.081
 6559SOL    HW120576   0.854   4.134   0.153
 6559SOL    HW220577   0.831   4.144   7.012
 6560SOL     OW20578   4.616   4.977   1.472
 6560SOL    HW120579   4.654   5.012   1.557
 6560SOL    HW220580   4.649   4.884   1.455
 6561SOL     OW20581   3.206   4.226   1.588
 6561SOL    HW120582   3.121   4.221   1.641
 6561SOL    HW220583   3.251   4.137   1.589
 6562SOL     OW20584   6.244   3.189   0.507
 6562SOL    HW120585   6.251   3.196   0.607
 6562SOL    HW220586   6.330   3.154   0.470
 6563SOL     OW20587   5.105   5.774   6.349
 6563SOL    HW120588   5.189   5.756   6.299
 6563SOL    HW220589   5.036   5.810   6.286
 6564SOL     OW20590   6.924   3.983   3.146
 6564SOL    HW120591   6.969   4.034   3.220
 6564SOL    HW220592   6.987   3.915   3.110
 6565SOL     OW20593   5.470   1.821   2.703
 6565SOL    HW120594   5.568   1.833   2.722
 6565SOL    HW220595   5.451   1.849   2.609
 6566SOL     OW20596   4.049   6.082   2.179
 6566SOL    HW120597   4.145   6.055   2.183
 6566SOL    HW220598   4.021   6.119   2.267
 6567SOL     OW20599   5.056   0.783   2.683
 6567SOL    HW120600   4.998   0.857   2.649
 6567SOL    HW220601   5.009   0.696   2.670
 6568SOL     OW20602   2.905   1.068   3.850
 6568SOL    HW120603   2.971   0.993   3.855
 6568SOL    HW220604   2.894   1.097   3.755
 6569SOL     OW20605   2.716   3.506   0.533
 6569SOL    HW120606   2.711   3.448   0.614
 6569SOL    HW220607   2.713   3.449   0.451
 6570SOL     OW20608   3.570   0.928   2.636
 6570SOL    HW120609   3.493   0.892   2.690
 6570SOL    HW220610   3.575   0.880   2.549
 6571SOL     OW20611   3.279   5.150   1.876
 6571SOL    HW120612   3.244   5.084   1.810
 6571SOL    HW220613   3.264   5.116   1.969
 6572SOL     OW20614   0.341   4.998   4.777
 6572SOL    HW120615   0.400   5.078   4.764
 6572SOL    HW220616   0.398   4.916   4.781
 6573SOL     OW20617   0.858   1.969   2.020
 6573SOL    HW120618   0.895   1.963   1.927
 6573SOL    HW220619   0.773   2.022   2.018
 6574SOL     OW20620   2.496   5.292   2.110
 6574SOL    HW120621   2.423   5.328   2.168
 6574SOL    HW220622   2.584   5.328   2.141
 6575SOL     OW20623   0.970   0.073   3.222
 6575SOL    HW120624   0.933   0.026   3.302
 6575SOL    HW220625   0.959   0.015   3.141
 6576SOL     OW20626   2.072   6.525   6.873
 6576SOL    HW120627   2.023   6.557   6.955
 6576SOL    HW220628   2.074   6.599   6.805
 6577SOL     OW20629   0.594   1.830   4.151
 6577SOL    HW120630   0.673   1.802   4.098
 6577SOL    HW220631   0.534   1.751   4.164
 6578SOL     OW20632   0.870   6.159   3.136
 6578SOL    HW120633   0.906   6.069   3.159
 6578SOL    HW220634   0.918   6.229   3.188
 6579SOL     OW20635   0.175   3.668   4.208
 6579SOL    HW120636   0.238   3.621   4.269
 6579SOL    HW220637   0.082   3.632   4.220
 6580SOL     OW20638   0.986   2.094   1.149
 6580SOL    HW120639   1.048   2.167   1.178
 6580SOL    HW220640   0.957   2.111   1.055
 6581SOL     OW20641   2.736   1.060   0.510
 6581SOL    HW120642   2.743   0.964   0.538
 6581SOL    HW220643   2.827   1.097   0.493
 6582SOL     OW20644   0.454   1.376   3.273
 6582SOL    HW120645   0.441   1.298   3.334
 6582SOL    HW220646   0.541   1.366   3.224
 6583SOL     OW20647   4.114   0.085   5.613
 6583SOL    HW120648   4.100   0.180   5.586
 6583SOL    HW220649   4.076   0.024   5.543
 6584SOL     OW20650   4.475   2.529   1.000
 6584SOL    HW120651   4.404   2.493   1.061
 6584SOL    HW220652   4.520   2.607   1.043
 6585SOL     OW20653   6.674   6.280   6.973
 6585SOL    HW120654   6.715   6.346   0.015
 6585SOL    HW220655   6.714   6.292   6.882
 6586SOL     OW20656   5.611   0.895   5.548
 6586SOL    HW120657   5.538   0.912   5.482
 6586SOL    HW220658   5.575   0.843   5.625
 6587SOL     OW20659   2.085   5.286   5.273
 6587SOL    HW120660   2.141   5.223   5.327
 6587SOL    HW220661   2.076   5.373   5.322
 6588SOL     OW20662   0.762   3.096   2.079
 6588SOL    HW120663   0.784   3.193   2.082
 6588SOL    HW220664   0.773   3.062   1.985
 6589SOL     OW20665   4.766   0.784   0.660
 6589SOL    HW120666   4.846   0.787   0.720
 6589SOL    HW220667   4.789   0.731   0.578
 6590SOL     OW20668   0.047   1.224   5.941
 6590SOL    HW120669   0.126   1.255   5.889
 6590SOL    HW220670   0.046   1.270   6.030
 6591SOL     OW20671   6.192   5.346   2.251
 6591SOL    HW120672   6.289   5.355   2.274
 6591SOL    HW220673   6.137   5.374   2.329
 6592SOL     OW20674   5.504   6.833   2.969
 6592SOL    HW120675   5.504   6.854   3.067
 6592SOL    HW220676   5.435   6.764   2.949
 6593SOL     OW20677   1.891   2.460   2.727
 6593SOL    HW120678   1.802   2.414   2.734
 6593SOL    HW220679   1.893   2.515   2.643
 6594SOL     OW20680   3.382   1.799   6.749
 6594SOL    HW120681   3.381   1.711   6.797
 6594SOL    HW220682   3.312   1.859   6.787
 6595SOL     OW20683   1.227   4.530   7.000
 6595SOL    HW120684   1.152   4.503   6.938
 6595SOL    HW220685   1.307   4.473   6.982
 6596SOL     OW20686   3.366   6.580   4.486
 6596SOL    HW120687   3.299   6.620   4.548
 6596SOL    HW220688   3.332   6.493   4.451
 6597SOL     OW20689   1.217   5.386   1.652
 6597SOL    HW120690   1.312   5.403   1.677
 6597SOL    HW220691   1.212   5.309   1.588
 6598SOL     OW20692   1.513   5.660   4.472
 6598SOL    HW120693   1.505   5.562   4.491
 6598SOL    HW220694   1.503   5.677   4.374
 6599SOL     OW20695   3.821   6.364   6.683
 6599SOL    HW120696   3.889   6.290   6.682
 6599SOL    HW220697   3.795   6.387   6.589
 6600SOL     OW20698   4.319   5.717   5.519
 6600SOL    HW120699   4.326   5.813   5.494
 6600SOL    HW220700   4.249   5.673   5.462
 6601SOL     OW20701   1.487   2.324   4.843
 6601SOL    HW120702   1.394   2.350   4.819
 6601SOL    HW220703   1.513   2.241   4.793
 6602SOL     OW20704   1.614   1.205   2.415
 6602SOL    HW120705   1.572   1.155   2.340
 6602SOL    HW220706   1.569   1.181   2.501
 6603SOL     OW20707   6.811   2.814   3.701
 6603SOL    HW120708   6.739   2.773   3.645
 6603SOL    HW220709   6.900   2.795   3.659
 6604SOL     OW20710   1.542   0.607   0.931
 6604SOL    HW120711   1.485   0.589   0.851
 6604SOL    HW220712   1.502   0.682   0.984
 6605SOL     OW20713   5.850   5.105   1.254
 6605SOL    HW120714   5.869   5.136   1.161
 6605SOL    HW220715   5.763   5.055   1.256
 6606SOL     OW20716   0.648   5.764   2.144
 6606SOL    HW120717   0.558   5.747   2.105
 6606SOL    HW220718   0.717   5.763   2.071
 6607SOL     OW20719   1.861   3.666   2.273
 6607SOL    HW120720   1.845   3.764   2.256
 6607SOL    HW220721   1.855   3.616   2.186
 6608SOL     OW20722   6.538   6.202   1.071
 6608SOL    HW120723   6.438   6.210   1.073
 6608SOL    HW220724   6.579   6.292   1.087
 6609SOL     OW20725   5.133   1.064   6.621
 6609SOL    HW120726   5.044   1.106   6.602
 6609SOL    HW220727   5.147   1.060   6.720
 6610SOL     OW20728   2.647   5.996   0.170
 6610SOL    HW120729   2.682   6.072   0.116
 6610SOL    HW220730   2.604   5.929   0.110
 6611SOL     OW20731   4.796   2.574   3.611
 6611SOL    HW120732   4.828   2.626   3.533
 6611SOL    HW220733   4.774   2.636   3.686
 6612SOL     OW20734   6.079   1.934   6.257
 6612SOL    HW120735   6.068   1.944   6.158
 6612SOL    HW220736   5.989   1.936   6.300
 6613SOL     OW20737   6.369   6.597   5.023
 6613SOL    HW120738   6.325   6.677   4.981
 6613SOL    HW220739   6.365   6.606   5.122
 6614SOL     OW20740   4.471   5.415   0.085
 6614SOL    HW120741   4.528   5.368   0.018
 6614SOL    HW220742   4.510   5.403   0.177
 6615SOL     OW20743   2.056   5.803   1.283
 6615SOL    HW120744   2.129   5.861   1.247
 6615SOL    HW220745   1.969   5.851   1.278
 6616SOL     OW20746   5.054   0.799   5.932
 6616SOL    HW120747   5.017   0.891   5.943
 6616SOL    HW220748   4.983   0.732   5.954
 6617SOL     OW20749   4.635   4.962   3.927
 6617SOL    HW120750   4.538   4.952   3.950
 6617SOL    HW220751   4.644   4.980   3.829
 6618SOL     OW20752   1.340   2.380   2.169
 6618SOL    HW120753   1.280   2.300   2.171
 6618SOL    HW220754   1.286   2.461   2.148
 6619SOL     OW20755   5.870   0.267   3.969
 6619SOL    HW120756   5.910   0.294   4.057
 6619SOL    HW220757   5.802   0.335   3.941
 6620SOL     OW20758   1.742   2.766   5.674
 6620SOL    HW120759   1.828   2.715   5.687
 6620SOL    HW220760   1.757   2.862   5.696
 6621SOL     OW20761   3.366   3.271   5.799
 6621SOL    HW120762   3.288   3.279   5.737
 6621SOL    HW220763   3.377   3.176   5.827
 6622SOL     OW20764   5.691   6.346   1.879
 6622SOL    HW120765   5.737   6.257   1.873
 6622SOL    HW220766   5.594   6.335   1.858
 6623SOL     OW20767   3.592   3.124   4.888
 6623SOL    HW120768   3.601   3.082   4.978
 6623SOL    HW220769   3.540   3.063   4.828
 6624SOL     OW20770   0.382   4.485   6.057
 6624SOL    HW120771   0.355   4.475   5.961
 6624SOL    HW220772   0.338   4.567   6.095
 6625SOL     OW20773   5.270   1.782   5.051
 6625SOL    HW120774   5.269   1.740   5.141
 6625SOL    HW220775   5.193   1.747   4.997
 6626SOL     OW20776   3.459   5.490   5.085
 6626SOL    HW120777   3.403   5.525   5.011
 6626SOL    HW220778   3.421   5.403   5.118
 6627SOL     OW20779   1.993   6.837   5.629
 6627SOL    HW120780   1.910   6.860   5.679
 6627SOL    HW220781   2.036   6.921   5.596
 6628SOL     OW20782   5.279   5.251   4.332
 6628SOL    HW120783   5.190   5.219   4.301
 6628SOL    HW220784   5.303   5.203   4.417
 6629SOL     OW20785   4.934   6.244   6.621
 6629SOL    HW120786   5.027   6.279   6.612
 6629SOL    HW220787   4.910   6.194   6.539
 6630SOL     OW20788   3.868   1.650   1.389
 6630SOL    HW120789   3.854   1.559   1.427
 6630SOL    HW220790   3.960   1.682   1.410
 6631SOL     OW20791   2.254   5.277   3.638
 6631SOL    HW120792   2.238   5.354   3.577
 6631SOL    HW220793   2.352   5.254   3.638
 6632SOL     OW20794   0.250   0.439   1.021
 6632SOL    HW120795   0.252   0.374   0.945
 6632SOL    HW220796   0.286   0.527   0.992
 6633SOL     OW20797   1.503   4.582   6.620
 6633SOL    HW120798   1.523   4.505   6.680
 6633SOL    HW220799   1.494   4.665   6.675
 6634SOL     OW20800   4.905   2.117   5.119
 6634SOL    HW120801   4.895   2.041   5.054
 6634SOL    HW220802   4.992   2.108   5.167
 6635SOL     OW20803   4.603   5.026   2.898
 6635SOL    HW120804   4.555   4.949   2.939
 6635SOL    HW220805   4.682   4.992   2.846
 6636SOL     OW20806   4.484   1.748   6.512
 6636SOL    HW120807   4.489   1.833   6.564
 6636SOL    HW220808   4.423   1.760   6.433
 6637SOL     OW20809   0.911   0.151   6.945
 6637SOL    HW120810   0.873   0.110   6.863
 6637SOL    HW220811   0.975   0.088   6.988
 6638SOL     OW20812   2.898   3.750   3.118
 6638SOL    HW120813   2.931   3.821   3.056
 6638SOL    HW220814   2.947   3.664   3.100
 6639SOL     OW20815   4.857   4.710   6.268
 6639SOL    HW120816   4.943   4.679   6.308
 6639SOL    HW220817   4.869   4.802   6.231
 6640SOL     OW20818   0.518   2.229   4.911
 6640SOL    HW120819   0.503   2.308   4.971
 6640SOL    HW220820   0.583   2.166   4.954
 6641SOL     OW20821   2.529   1.205   6.154
 6641SOL    HW120822   2.560   1.198   6.249
 6641SOL    HW220823   2.460   1.135   6.135
 6642SOL     OW20824   1.983   5.965   6.573
 6642SOL    HW120825   1.992   5.867   6.552
 6642SOL    HW220826   1.898   5.980   6.623
 6643SOL     OW20827   5.870   5.527   0.503
 6643SOL    HW120828   5.865   5.539   0.404
 6643SOL    HW220829   5.781   5.546   0.544
 6644SOL     OW20830   2.597   5.401   1.332
 6644SOL    HW120831   2.641   5.459   1.401
 6644SOL    HW220832   2.590   5.308   1.366
 6645SOL     OW20833   6.351   4.384   0.186
 6645SOL    HW120834   6.285   4.423   0.122
 6645SOL    HW220835   6.442   4.385   0.145
 6646SOL     OW20836   4.156   0.565   4.693
 6646SOL    HW120837   4.153   0.562   4.792
 6646SOL    HW220838   4.228   0.504   4.660
 6647SOL     OW20839   5.009   0.797   0.828
 6647SOL    HW120840   5.045   0.886   0.802
 6647SOL    HW220841   5.004   0.790   0.927
 6648SOL     OW20842   3.408   6.233   3.984
 6648SOL    HW120843   3.394   6.286   4.068
 6648SOL    HW220844   3.344   6.265   3.914
 6649SOL     OW20845   5.621   1.263   6.695
 6649SOL    HW120846   5.619   1.220   6.785
 6649SOL    HW220847   5.634   1.193   6.624
 6650SOL     OW20848   3.355   1.244   5.843
 6650SOL    HW120849   3.361   1.344   5.845
 6650SOL    HW220850   3.313   1.214   5.758
 6651SOL     OW20851   2.475   0.695   5.829
 6651SOL    HW120852   2.455   0.793   5.830
 6651SOL    HW220853   2.474   0.661   5.735
 6652SOL     OW20854   0.790   4.070   0.541
 6652SOL    HW120855   0.713   4.010   0.519
 6652SOL    HW220856   0.782   4.101   0.636
 6653SOL     OW20857   3.995   3.505   1.398
 6653SOL    HW120858   3.921   3.484   1.461
 6653SOL    HW220859   3.961   3.563   1.324
 6654SOL     OW20860   1.049   4.962   1.045
 6654SOL    HW120861   1.113   4.954   0.968
 6654SOL    HW220862   0.965   5.006   1.013
 6655SOL     OW20863   0.799   6.889   4.171
 6655SOL    HW120864   0.735   6.939   4.114
 6655SOL    HW220865   0.749   6.841   4.243
 6656SOL     OW20866   4.837   1.843   3.948
 6656SOL    HW120867   4.740   1.845   3.970
 6656SOL    HW220868   4.862   1.752   3.917
 6657SOL     OW20869   6.240   4.504   6.478
 6657SOL    HW120870   6.317   4.497   6.415
 6657SOL    HW220871   6.271   4.491   6.572
 6658SOL     OW20872   6.342   0.911   4.735
 6658SOL    HW120873   6.253   0.912   4.781
 6658SOL    HW220874   6.389   0.998   4.751
 6659SOL     OW20875   2.388   3.783   0.355
 6659SOL    HW120876   2.373   3.838   0.273
 6659SOL    HW220877   2.399   3.687   0.330
 6660SOL     OW20878   1.047   5.284   1.253
 6660SOL    HW120879   0.986   5.293   1.174
 6660SOL    HW220880   1.024   5.201   1.304
 6661SOL     OW20881   1.302   6.659   5.184
 6661SOL    HW120882   1.273   6.618   5.097
 6661SOL    HW220883   1.221   6.689   5.235
 6662SOL     OW20884   1.329   6.929   0.171
 6662SOL    HW120885   1.232   6.945   0.150
 6662SOL    HW220886   1.370   7.015   0.202
 6663SOL     OW20887   5.919   5.582   4.504
 6663SOL    HW120888   5.866   5.667   4.494
 6663SOL    HW220889   5.995   5.583   4.440
 6664SOL     OW20890   2.509   6.963   0.576
 6664SOL    HW120891   2.429   6.992   0.523
 6664SOL    HW220892   2.479   6.933   0.666
 6665SOL     OW20893   1.992   5.548   4.902
 6665SOL    HW120894   1.962   5.548   4.997
 6665SOL    HW220895   2.057   5.473   4.887
 6666SOL     OW20896   6.290   6.263   6.169
 6666SOL    HW120897   6.309   6.263   6.071
 6666SOL    HW220898   6.220   6.194   6.190
 6667SOL     OW20899   6.508   6.257   6.369
 6667SOL    HW120900   6.443   6.255   6.293
 6667SOL    HW220901   6.549   6.347   6.376
 6668SOL     OW20902   6.431   5.308   0.699
 6668SOL    HW120903   6.403   5.216   0.672
 6668SOL    HW220904   6.512   5.335   0.648
 6669SOL     OW20905   1.828   2.326   3.110
 6669SOL    HW120906   1.780   2.274   3.040
 6669SOL    HW220907   1.788   2.418   3.117
 6670SOL     OW20908   3.311   1.593   5.320
 6670SOL    HW120909   3.374   1.572   5.245
 6670SOL    HW220910   3.346   1.671   5.372
 6671SOL     OW20911   4.797   6.621   0.600
 6671SOL    HW120912   4.829   6.676   0.523
 6671SOL    HW220913   4.866   6.552   0.622
 6672SOL     OW20914   6.405   2.453   6.460
 6672SOL    HW120915   6.457   2.375   6.425
 6672SOL    HW220916   6.307   2.432   6.456
 6673SOL     OW20917   4.838   4.377   4.513
 6673SOL    HW120918   4.900   4.423   4.576
 6673SOL    HW220919   4.835   4.427   4.426
 6674SOL     OW20920   0.952   3.581   6.670
 6674SOL    HW120921   0.993   3.618   6.754
 6674SOL    HW220922   1.011   3.509   6.634
 6675SOL     OW20923   5.610   3.318   0.215
 6675SOL    HW120924   5.673   3.330   0.292
 6675SOL    HW220925   5.521   3.359   0.238
 6676SOL     OW20926   1.148   4.080   5.792
 6676SOL    HW120927   1.144   4.071   5.891
 6676SOL    HW220928   1.171   4.174   5.767
 6677SOL     OW20929   1.430   1.825   5.861
 6677SOL    HW120930   1.496   1.758   5.894
 6677SOL    HW220931   1.476   1.895   5.807
 6678SOL     OW20932   3.377   3.101   6.412
 6678SOL    HW120933   3.330   3.174   6.462
 6678SOL    HW220934   3.470   3.131   6.391
 6679SOL     OW20935   3.294   1.252   4.175
 6679SOL    HW120936   3.198   1.244   4.148
 6679SOL    HW220937   3.300   1.283   4.270
 6680SOL     OW20938   5.260   6.750   6.808
 6680SOL    HW120939   5.225   6.776   6.718
 6680SOL    HW220940   5.355   6.782   6.818
 6681SOL     OW20941   3.727   5.635   1.186
 6681SOL    HW120942   3.633   5.605   1.170
 6681SOL    HW220943   3.752   5.619   1.281
 6682SOL     OW20944   1.179   4.568   2.056
 6682SOL    HW120945   1.266   4.578   2.008
 6682SOL    HW220946   1.107   4.546   1.989
 6683SOL     OW20947   6.085   3.745   5.263
 6683SOL    HW120948   6.101   3.827   5.207
 6683SOL    HW220949   6.135   3.754   5.349
 6684SOL     OW20950   2.822   0.016   1.436
 6684SOL    HW120951   2.812   0.116   1.440
 6684SOL    HW220952   2.731   6.996   1.425
 6685SOL     OW20953   6.236   2.571   5.618
 6685SOL    HW120954   6.328   2.603   5.594
 6685SOL    HW220955   6.241   2.509   5.696
 6686SOL     OW20956   4.675   6.258   4.085
 6686SOL    HW120957   4.736   6.297   4.154
 6686SOL    HW220958   4.580   6.270   4.113
 6687SOL     OW20959   1.296   3.462   0.823
 6687SOL    HW120960   1.234   3.383   0.813
 6687SOL    HW220961   1.253   3.543   0.785
 6688SOL     OW20962   6.064   4.793   2.389
 6688SOL    HW120963   6.065   4.694   2.407
 6688SOL    HW220964   6.149   4.834   2.420
 6689SOL     OW20965   3.751   3.028   6.965
 6689SOL    HW120966   3.847   3.054   6.976
 6689SOL    HW220967   3.745   2.947   6.907
 6690SOL     OW20968   1.010   1.315   0.509
 6690SOL    HW120969   1.053   1.265   0.434
 6690SOL    HW220970   1.073   1.318   0.587
 6691SOL     OW20971   2.917   6.330   2.653
 6691SOL    HW120972   2.827   6.366   2.678
 6691SOL    HW220973   2.941   6.255   2.715
 6692SOL     OW20974   3.525   2.885   4.373
 6692SOL    HW120975   3.624   2.878   4.385
 6692SOL    HW220976   3.484   2.922   4.456
 6693SOL     OW20977   4.016   2.903   5.675
 6693SOL    HW120978   3.962   2.828   5.637
 6693SOL    HW220979   4.035   2.971   5.603
 6694SOL     OW20980   4.071   5.335   1.106
 6694SOL    HW120981   4.056   5.389   1.189
 6694SOL    HW220982   4.015   5.372   1.032
 6695SOL     OW20983   2.851   2.077   0.012
 6695SOL    HW120984   2.779   2.065   0.080
 6695SOL    HW220985   2.940   2.082   0.058
 6696SOL     OW20986   3.044   3.006   5.166
 6696SOL    HW120987   2.950   3.017   5.134
 6696SOL    HW220988   3.053   2.919   5.215
 6697SOL     OW20989   5.130   2.260   2.800
 6697SOL    HW120990   5.107   2.348   2.841
 6697SOL    HW220991   5.067   2.241   2.724
 6698SOL     OW20992   3.104   2.402   0.786
 6698SOL    HW120993   3.061   2.316   0.814
 6698SOL    HW220994   3.182   2.422   0.845
 6699SOL     OW20995   2.340   5.770   5.336
 6699SOL    HW120996   2.430   5.813   5.323
 6699SOL    HW220997   2.273   5.841   5.356
 6700SOL     OW20998   0.875   0.548   1.386
 6700SOL    HW120999   0.821   0.492   1.323
 6700SOL    HW221000   0.818   0.573   1.465
 6701SOL     OW21001   5.808   4.799   2.482
 6701SOL    HW121002   5.896   4.780   2.439
 6701SOL    HW221003   5.805   4.895   2.510
 6702SOL     OW21004   3.186   2.192   1.704
 6702SOL    HW121005   3.193   2.285   1.669
 6702SOL    HW221006   3.278   2.155   1.719
 6703SOL     OW21007   6.640   1.527   0.037
 6703SOL    HW121008   6.617   1.431   0.055
 6703SOL    HW221009   6.688   1.565   0.116
 6704SOL     OW21010   3.571   1.266   3.583
 6704SOL    HW121011   3.654   1.321   3.571
 6704SOL    HW221012   3.491   1.323   3.566
 6705SOL     OW21013   6.576   3.623   1.709
 6705SOL    HW121014   6.565   3.611   1.611
 6705SOL    HW221015   6.491   3.599   1.756
 6706SOL     OW21016   1.682   4.498   2.187
 6706SOL    HW121017   1.706   4.550   2.105
 6706SOL    HW221018   1.755   4.433   2.208
 6707SOL     OW21019   6.646   6.310   3.872
 6707SOL    HW121020   6.615   6.266   3.956
 6707SOL    HW221021   6.720   6.374   3.893
 6708SOL     OW21022   6.857   5.080   1.081
 6708SOL    HW121023   6.934   5.132   1.045
 6708SOL    HW221024   6.827   5.121   1.168
 6709SOL     OW21025   2.515   6.322   2.877
 6709SOL    HW121026   2.521   6.291   2.972
 6709SOL    HW221027   2.561   6.256   2.818
 6710SOL     OW21028   3.282   0.497   6.130
 6710SOL    HW121029   3.375   0.530   6.113
 6710SOL    HW221030   3.221   0.574   6.146
 6711SOL     OW21031   4.372   5.899   5.874
 6711SOL    HW121032   4.317   5.926   5.953
 6711SOL    HW221033   4.326   5.929   5.790
 6712SOL     OW21034   5.259   3.961   0.713
 6712SOL    HW121035   5.212   3.930   0.796
 6712SOL    HW221036   5.264   3.885   0.648
 6713SOL     OW21037   2.385   0.430   2.527
 6713SOL    HW121038   2.306   0.370   2.520
 6713SOL    HW221039   2.457   0.384   2.581
 6714SOL     OW21040   6.786   0.810   5.790
 6714SOL    HW121041   6.816   0.767   5.705
 6714SOL    HW221042   6.785   0.741   5.864
 6715SOL     OW21043   0.422   0.244   0.095
 6715SOL    HW121044   0.341   0.301   0.102
 6715SOL    HW221045   0.467   0.260   0.007
 6716SOL     OW21046   0.204   5.942   1.993
 6716SOL    HW121047   0.113   5.961   2.030
 6716SOL    HW221048   0.272   5.993   2.045
 6717SOL     OW21049   3.992   2.878   6.166
 6717SOL    HW121050   4.054   2.953   6.147
 6717SOL    HW221051   4.017   2.834   6.252
 6718SOL     OW21052   5.939   0.840   0.759
 6718SOL    HW121053   5.991   0.850   0.674
 6718SOL    HW221054   5.985   0.773   0.818
 6719SOL     OW21055   2.366   6.594   6.339
 6719SOL    HW121056   2.336   6.581   6.434
 6719SOL    HW221057   2.417   6.680   6.332
 6720SOL     OW21058   1.414   0.101   4.298
 6720SOL    HW121059   1.471   0.176   4.267
 6720SOL    HW221060   1.391   0.113   4.394
 6721SOL     OW21061   6.736   0.354   0.409
 6721SOL    HW121062   6.834   0.337   0.420
 6721SOL    HW221063   6.689   0.267   0.392
 6722SOL     OW21064   6.468   2.863   1.862
 6722SOL    HW121065   6.461   2.957   1.830
 6722SOL    HW221066   6.472   2.800   1.784
 6723SOL     OW21067   2.262   6.272   3.067
 6723SOL    HW121068   2.218   6.341   3.124
 6723SOL    HW221069   2.349   6.244   3.108
 6724SOL     OW21070   2.123   3.320   6.071
 6724SOL    HW121071   2.041   3.282   6.113
 6724SOL    HW221072   2.204   3.272   6.105
 6725SOL     OW21073   0.185   3.325   1.746
 6725SOL    HW121074   0.163   3.297   1.840
 6725SOL    HW221075   0.120   3.395   1.717
 6726SOL     OW21076   0.348   2.365   5.375
 6726SOL    HW121077   0.323   2.297   5.444
 6726SOL    HW221078   0.424   2.332   5.320
 6727SOL     OW21079   0.114   4.630   4.989
 6727SOL    HW121080   0.100   4.597   4.896
 6727SOL    HW221081   0.101   4.554   5.053
 6728SOL     OW21082   3.641   2.025   2.698
 6728SOL    HW121083   3.650   2.076   2.613
 6728SOL    HW221084   3.731   2.007   2.737
 6729SOL     OW21085   0.000   1.167   2.941
 6729SOL    HW121086   6.940   1.118   2.910
 6729SOL    HW221087   7.011   1.265   2.919
 6730SOL     OW21088   1.617   6.906   1.302
 6730SOL    HW121089   1.697   6.929   1.246
 6730SOL    HW221090   1.592   6.985   1.358
 6731SOL     OW21091   0.657   6.454   0.929
 6731SOL    HW121092   0.634   6.383   0.863
 6731SOL    HW221093   0.686   6.411   1.015
 6732SOL     OW21094   5.553   4.867   4.623
 6732SOL    HW121095   5.493   4.840   4.547
 6732SOL    HW221096   5.569   4.966   4.618
 6733SOL     OW21097   3.881   5.343   0.043
 6733SOL    HW121098   3.874   5.440   0.067
 6733SOL    HW221099   3.904   5.334   6.967
 6734SOL     OW21100   6.028   2.956   4.220
 6734SOL    HW121101   6.000   2.946   4.124
 6734SOL    HW221102   5.959   3.009   4.269
 6735SOL     OW21103   6.515   4.273   5.221
 6735SOL    HW121104   6.453   4.237   5.150
 6735SOL    HW221105   6.473   4.353   5.263
 6736SOL     OW21106   3.269   3.906   0.521
 6736SOL    HW121107   3.177   3.941   0.501
 6736SOL    HW221108   3.294   3.838   0.451
 6737SOL     OW21109   1.480   2.519   0.539
 6737SOL    HW121110   1.405   2.581   0.520
 6737SOL    HW221111   1.453   2.453   0.609
 6738SOL     OW21112   1.812   5.687   3.050
 6738SOL    HW121113   1.793   5.718   3.143
 6738SOL    HW221114   1.908   5.662   3.041
 6739SOL     OW21115   3.585   5.843   5.096
 6739SOL    HW121116   3.564   5.746   5.102
 6739SOL    HW221117   3.616   5.876   5.186
 6740SOL     OW21118   1.051   0.233   4.788
 6740SOL    HW121119   0.964   0.249   4.833
 6740SOL    HW221120   1.105   0.317   4.787
 6741SOL     OW21121   3.731   1.701   5.519
 6741SOL    HW121122   3.694   1.635   5.584
 6741SOL    HW221123   3.671   1.706   5.439
 6742SOL     OW21124   5.920   6.204   2.253
 6742SOL    HW121125   5.847   6.161   2.200
 6742SOL    HW221126   5.937   6.150   2.335
 6743SOL     OW21127   3.579   5.617   0.093
 6743SOL    HW121128   3.541   5.637   0.183
 6743SOL    HW221129   3.670   5.576   0.103
 6744SOL     OW21130   5.637   3.876   5.886
 6744SOL    HW121131   5.733   3.851   5.891
 6744SOL    HW221132   5.583   3.798   5.854
 6745SOL     OW21133   6.858   6.753   3.099
 6745SOL    HW121134   6.876   6.656   3.081
 6745SOL    HW221135   6.823   6.797   3.017
 6746SOL     OW21136   0.782   1.597   3.898
 6746SOL    HW121137   0.838   1.527   3.854
 6746SOL    HW221138   0.686   1.567   3.899
 6747SOL     OW21139   5.344   1.040   5.051
 6747SOL    HW121140   5.376   1.006   5.139
 6747SOL    HW221141   5.263   1.095   5.064
 6748SOL     OW21142   2.595   0.947   3.724
 6748SOL    HW121143   2.688   0.914   3.745
 6748SOL    HW221144   2.598   1.009   3.646
 6749SOL     OW21145   2.658   5.408   0.689
 6749SOL    HW121146   2.599   5.330   0.670
 6749SOL    HW221147   2.677   5.412   0.787
 6750SOL     OW21148   3.927   2.186   4.874
 6750SOL    HW121149   3.867   2.265   4.885
 6750SOL    HW221150   4.017   2.217   4.842
 6751SOL     OW21151   4.363   6.756   3.428
 6751SOL    HW121152   4.386   6.671   3.475
 6751SOL    HW221153   4.326   6.735   3.337
 6752SOL     OW21154   0.869   1.697   3.034
 6752SOL    HW121155   0.888   1.792   3.062
 6752SOL    HW221156   0.951   1.659   2.991
 6753SOL     OW21157   2.984   0.470   6.524
 6753SOL    HW121158   2.981   0.432   6.617
 6753SOL    HW221159   2.962   0.568   6.527
 6754SOL     OW21160   0.497   2.047   0.407
 6754SOL    HW121161   0.470   2.115   0.475
 6754SOL    HW221162   0.589   2.013   0.427
 6755SOL     OW21163   4.786   0.619   3.089
 6755SOL    HW121164   4.857   0.550   3.074
 6755SOL    HW221165   4.696   0.579   3.072
 6756SOL     OW21166   3.797   5.101   4.910
 6756SOL    HW121167   3.739   5.021   4.931
 6756SOL    HW221168   3.763   5.180   4.960
 6757SOL     OW21169   4.319   2.135   1.089
 6757SOL    HW121170   4.333   2.137   1.188
 6757SOL    HW221171   4.265   2.054   1.065
 6758SOL     OW21172   6.612   1.939   1.882
 6758SOL    HW121173   6.640   1.851   1.921
 6758SOL    HW221174   6.688   1.979   1.832
 6759SOL     OW21175   0.919   4.157   4.617
 6759SOL    HW121176   0.935   4.078   4.676
 6759SOL    HW221177   0.935   4.132   4.522
 6760SOL     OW21178   6.693   3.975   2.381
 6760SOL    HW121179   6.614   4.021   2.339
 6760SOL    HW221180   6.765   4.042   2.398
 6761SOL     OW21181   6.403   2.119   6.080
 6761SOL    HW121182   6.393   2.040   6.020
 6761SOL    HW221183   6.320   2.130   6.134
 6762SOL     OW21184   0.772   5.824   4.008
 6762SOL    HW121185   0.824   5.866   4.082
 6762SOL    HW221186   0.735   5.896   3.949
 6763SOL     OW21187   1.142   5.059   2.724
 6763SOL    HW121188   1.122   5.135   2.663
 6763SOL    HW221189   1.172   4.980   2.671
 6764SOL     OW21190   1.633   5.529   0.710
 6764SOL    HW121191   1.691   5.447   0.705
 6764SOL    HW221192   1.682   5.600   0.760
 6765SOL     OW21193   5.589   4.300   3.609
 6765SOL    HW121194   5.605   4.225   3.672
 6765SOL    HW221195   5.543   4.375   3.657
 6766SOL     OW21196   4.988   6.931   6.355
 6766SOL    HW121197   5.004   6.905   6.450
 6766SOL    HW221198   4.965   0.007   6.350
 6767SOL     OW21199   1.436   2.544   1.079
 6767SOL    HW121200   1.443   2.444   1.078
 6767SOL    HW221201   1.368   2.573   1.011
 6768SOL     OW21202   1.189   6.354   3.643
 6768SOL    HW121203   1.089   6.347   3.640
 6768SOL    HW221204   1.215   6.427   3.707
 6769SOL     OW21205   2.644   0.530   5.156
 6769SOL    HW121206   2.670   0.626   5.170
 6769SOL    HW221207   2.686   0.497   5.071
 6770SOL     OW21208   5.118   1.968   3.458
 6770SOL    HW121209   5.197   2.000   3.405
 6770SOL    HW221210   5.122   2.005   3.550
 6771SOL     OW21211   4.299   1.336   2.209
 6771SOL    HW121212   4.325   1.243   2.182
 6771SOL    HW221213   4.259   1.334   2.300
 6772SOL     OW21214   4.507   2.527   2.091
 6772SOL    HW121215   4.444   2.600   2.117
 6772SOL    HW221216   4.575   2.515   2.164
 6773SOL     OW21217   0.648   6.181   1.918
 6773SOL    HW121218   0.684   6.226   1.837
 6773SOL    HW221219   0.592   6.103   1.891
 6774SOL     OW21220   2.098   3.609   4.960
 6774SOL    HW121221   2.163   3.552   5.011
 6774SOL    HW221222   2.117   3.705   4.979
 6775SOL     OW21223   1.407   2.522   3.177
 6775SOL    HW121224   1.445   2.468   3.252
 6775SOL    HW221225   1.458   2.608   3.167
 6776SOL     OW21226   4.371   3.079   0.297
 6776SOL    HW121227   4.286   3.030   0.316
 6776SOL    HW221228   4.440   3.052   0.365
 6777SOL     OW21229   5.223   4.874   0.742
 6777SOL    HW121230   5.192   4.805   0.677
 6777SOL    HW221231   5.323   4.878   0.742
 6778SOL     OW21232   6.981   5.324   1.926
 6778SOL    HW121233   7.019   5.265   1.997
 6778SOL    HW221234   7.007   5.289   1.836
 6779SOL     OW21235   5.855   4.921   6.076
 6779SOL    HW121236   5.776   4.961   6.029
 6779SOL    HW221237   5.939   4.956   6.035
 6780SOL     OW21238   1.446   2.873   2.859
 6780SOL    HW121239   1.392   2.836   2.935
 6780SOL    HW221240   1.541   2.884   2.888
 6781SOL     OW21241   6.068   1.443   4.722
 6781SOL    HW121242   6.011   1.366   4.693
 6781SOL    HW221243   6.091   1.433   4.819
 6782SOL     OW21244   0.958   1.373   3.211
 6782SOL    HW121245   0.973   1.275   3.227
 6782SOL    HW221246   1.010   1.426   3.279
 6783SOL     OW21247   0.521   1.670   5.627
 6783SOL    HW121248   0.426   1.690   5.602
 6783SOL    HW221249   0.531   1.674   5.726
 6784SOL     OW21250   1.744   3.791   0.769
 6784SOL    HW121251   1.840   3.817   0.758
 6784SOL    HW221252   1.715   3.736   0.691
 6785SOL     OW21253   6.187   5.567   5.277
 6785SOL    HW121254   6.090   5.588   5.288
 6785SOL    HW221255   6.217   5.507   5.351
 6786SOL     OW21256   1.194   2.101   0.504
 6786SOL    HW121257   1.240   2.164   0.567
 6786SOL    HW221258   1.261   2.058   0.444
 6787SOL     OW21259   3.385   3.350   0.193
 6787SOL    HW121260   3.340   3.438   0.178
 6787SOL    HW221261   3.339   3.280   0.138
 6788SOL     OW21262   0.903   4.596   1.829
 6788SOL    HW121263   0.976   4.664   1.822
 6788SOL    HW221264   0.862   4.581   1.739
 6789SOL     OW21265   0.389   4.778   3.970
 6789SOL    HW121266   0.332   4.821   3.900
 6789SOL    HW221267   0.401   4.681   3.948
 6790SOL     OW21268   0.915   3.413   0.172
 6790SOL    HW121269   0.869   3.361   0.101
 6790SOL    HW221270   0.902   3.367   0.260
 6791SOL     OW21271   3.737   2.031   2.233
 6791SOL    HW121272   3.727   2.092   2.154
 6791SOL    HW221273   3.646   2.006   2.267
 6792SOL     OW21274   5.376   0.026   5.349
 6792SOL    HW121275   5.347   6.979   5.417
 6792SOL    HW221276   5.394   7.001   5.263
 6793SOL     OW21277   2.479   1.358   6.812
 6793SOL    HW121278   2.491   1.280   6.750
 6793SOL    HW221279   2.429   1.431   6.764
 6794SOL     OW21280   5.613   1.205   5.124
 6794SOL    HW121281   5.629   1.251   5.037
 6794SOL    HW221282   5.578   1.113   5.109
 6795SOL     OW21283   1.247   6.638   1.400
 6795SOL    HW121284   1.256   6.544   1.365
 6795SOL    HW221285   1.277   6.641   1.496
 6796SOL     OW21286   6.185   0.962   3.245
 6796SOL    HW121287   6.266   0.916   3.210
 6796SOL    HW221288   6.106   0.901   3.239
 6797SOL     OW21289   0.057   2.104   1.894
 6797SOL    HW121290   6.999   2.142   1.943
 6797SOL    HW221291   0.051   2.004   1.894
 6798SOL     OW21292   5.730   6.361   1.450
 6798SOL    HW121293   5.747   6.422   1.528
 6798SOL    HW221294   5.677   6.282   1.481
 6799SOL     OW21295   6.282   1.055   2.219
 6799SOL    HW121296   6.344   1.101   2.282
 6799SOL    HW221297   6.292   0.956   2.227
 6800SOL     OW21298   2.252   2.754   2.056
 6800SOL    HW121299   2.289   2.779   1.966
 6800SOL    HW221300   2.162   2.712   2.044
 6801SOL     OW21301   1.635   0.729   3.496
 6801SOL    HW121302   1.732   0.705   3.506
 6801SOL    HW221303   1.586   0.701   3.579
 6802SOL     OW21304   3.298   5.390   1.385
 6802SOL    HW121305   3.356   5.366   1.463
 6802SOL    HW221306   3.237   5.314   1.365
 6803SOL     OW21307   3.741   3.952   6.197
 6803SOL    HW121308   3.791   3.946   6.111
 6803SOL    HW221309   3.740   3.862   6.241
 6804SOL     OW21310   4.077   4.927   3.905
 6804SOL    HW121311   4.023   4.877   3.837
 6804SOL    HW221312   4.057   4.891   3.997
 6805SOL     OW21313   0.447   4.612   6.498
 6805SOL    HW121314   0.506   4.657   6.431
 6805SOL    HW221315   0.479   4.518   6.513
 6806SOL     OW21316   6.638   1.637   3.359
 6806SOL    HW121317   6.632   1.544   3.394
 6806SOL    HW221318   6.721   1.647   3.304
 6807SOL     OW21319   3.289   3.139   1.584
 6807SOL    HW121320   3.321   3.080   1.658
 6807SOL    HW221321   3.296   3.091   1.497
 6808SOL     OW21322   6.714   1.959   5.816
 6808SOL    HW121323   6.639   1.933   5.756
 6808SOL    HW221324   6.755   1.877   5.856
 6809SOL     OW21325   0.072   3.416   1.485
 6809SOL    HW121326   0.029   3.457   1.565
 6809SOL    HW221327   0.170   3.435   1.485
 6810SOL     OW21328   3.418   1.369   2.756
 6810SOL    HW121329   3.489   1.309   2.720
 6810SOL    HW221330   3.412   1.451   2.700
 6811SOL     OW21331   5.826   3.519   1.663
 6811SOL    HW121332   5.846   3.484   1.572
 6811SOL    HW221333   5.843   3.447   1.731
 6812SOL     OW21334   3.407   4.048   5.038
 6812SOL    HW121335   3.452   3.960   5.027
 6812SOL    HW221336   3.357   4.070   4.954
 6813SOL     OW21337   5.579   3.026   2.926
 6813SOL    HW121338   5.483   3.019   2.901
 6813SOL    HW221339   5.596   3.114   2.970
 6814SOL     OW21340   4.002   1.864   6.220
 6814SOL    HW121341   4.033   1.940   6.164
 6814SOL    HW221342   3.992   1.894   6.315
 6815SOL     OW21343   2.307   6.065   0.053
 6815SOL    HW121344   2.399   6.066   0.013
 6815SOL    HW221345   2.250   5.999   0.004
 6816SOL     OW21346   6.501   0.802   5.765
 6816SOL    HW121347   6.597   0.810   5.790
 6816SOL    HW221348   6.451   0.884   5.791
 6817SOL     OW21349   2.372   2.727   3.768
 6817SOL    HW121350   2.354   2.632   3.794
 6817SOL    HW221351   2.343   2.742   3.673
 6818SOL     OW21352   2.078   6.704   0.715
 6818SOL    HW121353   2.154   6.652   0.676
 6818SOL    HW221354   2.067   6.789   0.663
 6819SOL     OW21355   4.442   1.324   2.724
 6819SOL    HW121356   4.469   1.361   2.813
 6819SOL    HW221357   4.470   1.229   2.717
 6820SOL     OW21358   2.007   6.178   1.417
 6820SOL    HW121359   1.928   6.229   1.449
 6820SOL    HW221360   2.040   6.217   1.331
 6821SOL     OW21361   3.958   2.487   5.397
 6821SOL    HW121362   4.018   2.544   5.341
 6821SOL    HW221363   3.899   2.545   5.453
 6822SOL     OW21364   5.773   2.237   5.731
 6822SOL    HW121365   5.701   2.285   5.782
 6822SOL    HW221366   5.846   2.302   5.709
 6823SOL     OW21367   5.557   3.577   5.517
 6823SOL    HW121368   5.656   3.591   5.521
 6823SOL    HW221369   5.538   3.484   5.487
 6824SOL     OW21370   1.053   1.784   0.541
 6824SOL    HW121371   1.124   1.854   0.538
 6824SOL    HW221372   0.975   1.817   0.593
 6825SOL     OW21373   6.391   0.224   0.228
 6825SOL    HW121374   6.412   0.282   0.149
 6825SOL    HW221375   6.403   0.277   0.312
 6826SOL     OW21376   1.962   3.880   3.442
 6826SOL    HW121377   1.950   3.841   3.350
 6826SOL    HW221378   2.041   3.837   3.486
 6827SOL     OW21379   4.913   4.953   6.139
 6827SOL    HW121380   4.910   4.943   6.040
 6827SOL    HW221381   4.980   5.023   6.163
 6828SOL     OW21382   3.618   1.679   1.564
 6828SOL    HW121383   3.583   1.770   1.583
 6828SOL    HW221384   3.684   1.684   1.489
 6829SOL     OW21385   5.381   6.271   5.642
 6829SOL    HW121386   5.316   6.331   5.689
 6829SOL    HW221387   5.445   6.233   5.708
 6830SOL     OW21388   5.772   0.506   3.216
 6830SOL    HW121389   5.698   0.519   3.282
 6830SOL    HW221390   5.758   0.566   3.138
 6831SOL     OW21391   1.596   1.066   6.664
 6831SOL    HW121392   1.598   1.065   6.564
 6831SOL    HW221393   1.680   1.023   6.699
 6832SOL     OW21394   2.275   4.635   0.877
 6832SOL    HW121395   2.218   4.571   0.825
 6832SOL    HW221396   2.272   4.725   0.833
 6833SOL     OW21397   2.648   4.799   0.045
 6833SOL    HW121398   2.682   4.891   0.028
 6833SOL    HW221399   2.716   4.732   0.016
 6834SOL     OW21400   6.312   0.258   0.495
 6834SOL    HW121401   6.251   0.183   0.522
 6834SOL    HW221402   6.386   0.266   0.561
 6835SOL     OW21403   4.066   0.772   4.548
 6835SOL    HW121404   4.136   0.815   4.491
 6835SOL    HW221405   4.102   0.687   4.586
 6836SOL     OW21406   3.161   4.835   0.154
 6836SOL    HW121407   3.133   4.902   0.223
 6836SOL    HW221408   3.142   4.743   0.188
 6837SOL     OW21409   0.614   2.359   3.045
 6837SOL    HW121410   0.634   2.322   3.136
 6837SOL    HW221411   0.667   2.309   2.976
 6838SOL     OW21412   3.280   6.227   6.543
 6838SOL    HW121413   3.255   6.133   6.520
 6838SOL    HW221414   3.203   6.288   6.527
 6839SOL     OW21415   5.231   1.054   5.493
 6839SOL    HW121416   5.173   1.066   5.412
 6839SOL    HW221417   5.266   1.143   5.522
 6840SOL     OW21418   3.444   0.068   4.806
 6840SOL    HW121419   3.520   0.101   4.862
 6840SOL    HW221420   3.421   6.995   4.834
 6841SOL     OW21421   3.480   4.885   0.133
 6841SOL    HW121422   3.410   4.938   0.181
 6841SOL    HW221423   3.442   4.797   0.106
 6842SOL     OW21424   2.551   3.186   0.918
 6842SOL    HW121425   2.630   3.186   0.979
 6842SOL    HW221426   2.484   3.119   0.949
 6843SOL     OW21427   5.779   0.190   2.162
 6843SOL    HW121428   5.825   0.271   2.199
 6843SOL    HW221429   5.738   0.212   2.074
 6844SOL     OW21430   5.587   6.808   3.864
 6844SOL    HW121431   5.497   6.783   3.900
 6844SOL    HW221432   5.579   6.830   3.767
 6845SOL     OW21433   5.866   5.200   2.908
 6845SOL    HW121434   5.933   5.149   2.854
 6845SOL    HW221435   5.912   5.273   2.958
 6846SOL     OW21436   4.242   3.049   1.210
 6846SOL    HW121437   4.295   3.058   1.294
 6846SOL    HW221438   4.303   3.032   1.133
 6847SOL     OW21439   6.971   5.135   3.244
 6847SOL    HW121440   0.044   5.141   3.279
 6847SOL    HW221441   6.909   5.124   3.321
 6848SOL     OW21442   3.800   6.412   4.186
 6848SOL    HW121443   3.720   6.384   4.240
 6848SOL    HW221444   3.798   6.512   4.173
 6849SOL     OW21445   3.304   5.034   5.645
 6849SOL    HW121446   3.213   5.054   5.610
 6849SOL    HW221447   3.364   5.007   5.570
 6850SOL     OW21448   5.910   3.713   2.035
 6850SOL    HW121449   5.810   3.701   2.040
 6850SOL    HW221450   5.932   3.778   1.963
 6851SOL     OW21451   0.548   3.105   3.485
 6851SOL    HW121452   0.581   3.045   3.412
 6851SOL    HW221453   0.523   3.050   3.565
 6852SOL     OW21454   1.784   5.046   0.743
 6852SOL    HW121455   1.776   4.947   0.758
 6852SOL    HW221456   1.780   5.093   0.831
 6853SOL     OW21457   6.296   3.661   0.165
 6853SOL    HW121458   6.257   3.602   0.095
 6853SOL    HW221459   6.302   3.611   0.252
 6854SOL     OW21460   4.947   1.861   6.722
 6854SOL    HW121461   5.019   1.808   6.677
 6854SOL    HW221462   4.964   1.959   6.710
 6855SOL     OW21463   3.131   5.918   3.540
 6855SOL    HW121464   3.041   5.878   3.559
 6855SOL    HW221465   3.199   5.846   3.530
 6856SOL     OW21466   5.079   3.610   5.604
 6856SOL    HW121467   5.136   3.607   5.521
 6856SOL    HW221468   5.015   3.686   5.598
 6857SOL     OW21469   3.008   2.326   0.185
 6857SOL    HW121470   3.048   2.398   0.242
 6857SOL    HW221471   2.935   2.281   0.236
 6858SOL     OW21472   3.590   3.767   3.913
 6858SOL    HW121473   3.519   3.699   3.898
 6858SOL    HW221474   3.663   3.728   3.969
 6859SOL     OW21475   0.382   0.671   0.884
 6859SOL    HW121476   0.309   0.702   0.824
 6859SOL    HW221477   0.423   0.587   0.847
 6860SOL     OW21478   6.485   5.133   1.103
 6860SOL    HW121479   6.441   5.102   1.018
 6860SOL    HW221480   6.474   5.063   1.174
 6861SOL     OW21481   4.698   4.518   0.253
 6861SOL    HW121482   4.693   4.528   0.352
 6861SOL    HW221483   4.789   4.483   0.228
 6862SOL     OW21484   1.813   4.430   5.523
 6862SOL    HW121485   1.718   4.435   5.556
 6862SOL    HW221486   1.874   4.412   5.600
 6863SOL     OW21487   5.487   0.478   5.705
 6863SOL    HW121488   5.411   0.521   5.754
 6863SOL    HW221489   5.508   0.532   5.623
 6864SOL     OW21490   2.797   5.889   4.266
 6864SOL    HW121491   2.858   5.811   4.278
 6864SOL    HW221492   2.790   5.939   4.352
 6865SOL     OW21493   0.985   5.851   2.767
 6865SOL    HW121494   0.992   5.752   2.763
 6865SOL    HW221495   0.888   5.878   2.769
 6866SOL     OW21496   6.186   4.994   3.097
 6866SOL    HW121497   6.134   4.966   3.017
 6866SOL    HW221498   6.250   4.922   3.122
 6867SOL     OW21499   2.299   4.807   1.359
 6867SOL    HW121500   2.234   4.790   1.433
 6867SOL    HW221501   2.378   4.746   1.370
 6868SOL     OW21502   1.141   5.532   6.481
 6868SOL    HW121503   1.076   5.590   6.529
 6868SOL    HW221504   1.125   5.437   6.504
 6869SOL     OW21505   5.023   0.753   4.935
 6869SOL    HW121506   4.928   0.726   4.922
 6869SOL    HW221507   5.050   0.816   4.864
 6870SOL     OW21508   6.540   4.817   2.311
 6870SOL    HW121509   6.629   4.775   2.330
 6870SOL    HW221510   6.478   4.748   2.274
 6871SOL     OW21511   6.484   4.574   3.126
 6871SOL    HW121512   6.494   4.672   3.145
 6871SOL    HW221513   6.439   4.563   3.037
 6872SOL     OW21514   0.699   3.316   1.395
 6872SOL    HW121515   0.681   3.234   1.340
 6872SOL    HW221516   0.653   3.307   1.483
 6873SOL     OW21517   6.755   4.187   5.319
 6873SOL    HW121518   6.656   4.201   5.317
 6873SOL    HW221519   6.784   4.147   5.232
 6874SOL     OW21520   0.663   6.029   2.261
 6874SOL    HW121521   0.736   6.097   2.251
 6874SOL    HW221522   0.696   5.940   2.229
 6875SOL     OW21523   1.776   2.774   3.516
 6875SOL    HW121524   1.869   2.745   3.493
 6875SOL    HW221525   1.714   2.696   3.510
 6876SOL     OW21526   3.905   6.330   3.954
 6876SOL    HW121527   3.942   6.237   3.954
 6876SOL    HW221528   3.865   6.349   4.044
 6877SOL     OW21529   2.492   3.857   0.968
 6877SOL    HW121530   2.460   3.897   1.054
 6877SOL    HW221531   2.417   3.809   0.924
 6878SOL     OW21532   3.149   1.309   5.169
 6878SOL    HW121533   3.204   1.259   5.237
 6878SOL    HW221534   3.057   1.322   5.205
 6879SOL     OW21535   1.144   2.110   0.220
 6879SOL    HW121536   1.162   2.145   0.312
 6879SOL    HW221537   1.164   2.012   0.217
 6880SOL     OW21538   1.844   4.317   5.273
 6880SOL    HW121539   1.830   4.340   5.370
 6880SOL    HW221540   1.936   4.345   5.246
 6881SOL     OW21541   1.136   3.802   1.712
 6881SOL    HW121542   1.138   3.711   1.669
 6881SOL    HW221543   1.188   3.799   1.797
 6882SOL     OW21544   3.025   0.503   6.819
 6882SOL    HW121545   2.978   0.526   6.905
 6882SOL    HW221546   3.045   0.587   6.768
 6883SOL     OW21547   4.486   1.342   0.414
 6883SOL    HW121548   4.467   1.372   0.508
 6883SOL    HW221549   4.485   1.243   0.409
 6884SOL     OW21550   2.088   4.682   4.344
 6884SOL    HW121551   2.055   4.674   4.438
 6884SOL    HW221552   2.187   4.666   4.341
 6885SOL     OW21553   3.961   5.157   3.693
 6885SOL    HW121554   3.947   5.253   3.669
 6885SOL    HW221555   4.045   5.147   3.746
 6886SOL     OW21556   6.741   0.226   4.729
 6886SOL    HW121557   6.811   0.237   4.659
 6886SOL    HW221558   6.666   0.171   4.693
 6887SOL     OW21559   5.179   5.855   6.028
 6887SOL    HW121560   5.253   5.871   6.094
 6887SOL    HW221561   5.093   5.892   6.064
 6888SOL     OW21562   5.444   6.213   6.928
 6888SOL    HW121563   5.377   6.281   6.898
 6888SOL    HW221564   5.535   6.255   6.932
 6889SOL     OW21565   1.991   1.843   4.894
 6889SOL    HW121566   1.902   1.861   4.853
 6889SOL    HW221567   2.047   1.926   4.890
 6890SOL     OW21568   3.673   6.175   1.572
 6890SOL    HW121569   3.705   6.214   1.659
 6890SOL    HW221570   3.678   6.075   1.577
 6891SOL     OW21571   2.041   4.507   3.280
 6891SOL    HW121572   2.048   4.510   3.380
 6891SOL    HW221573   1.949   4.479   3.253
 6892SOL     OW21574   2.959   2.206   3.595
 6892SOL    HW121575   2.919   2.116   3.576
 6892SOL    HW221576   2.930   2.237   3.685
 6893SOL     OW21577   4.177   4.240   7.001
 6893SOL    HW121578   4.109   4.223   6.930
 6893SOL    HW221579   4.220   4.329   6.986
 6894SOL     OW21580   6.187   4.630   0.371
 6894SOL    HW121581   6.205   4.535   0.397
 6894SOL    HW221582   6.202   4.641   0.273
 6895SOL     OW21583   2.440   5.564   0.099
 6895SOL    HW121584   2.342   5.570   0.077
 6895SOL    HW221585   2.490   5.529   0.020
 6896SOL     OW21586   1.803   6.893   3.576
 6896SOL    HW121587   1.751   6.974   3.603
 6896SOL    HW221588   1.778   6.867   3.483
 6897SOL     OW21589   3.500   3.773   6.269
 6897SOL    HW121590   3.540   3.865   6.272
 6897SOL    HW221591   3.456   3.759   6.180
 6898SOL     OW21592   3.913   1.564   1.981
 6898SOL    HW121593   3.828   1.568   1.930
 6898SOL    HW221594   3.913   1.482   2.039
 6899SOL     OW21595   6.030   6.558   0.979
 6899SOL    HW121596   6.039   6.590   0.885
 6899SOL    HW221597   5.942   6.513   0.991
 6900SOL     OW21598   6.700   6.412   5.644
 6900SOL    HW121599   6.639   6.446   5.715
 6900SOL    HW221600   6.779   6.367   5.687
 6901SOL     OW21601   0.214   6.123   6.170
 6901SOL    HW121602   0.254   6.033   6.156
 6901SOL    HW221603   0.269   6.192   6.123
 6902SOL     OW21604   5.792   5.985   6.987
 6902SOL    HW121605   5.876   6.038   7.003
 6902SOL    HW221606   5.723   6.046   6.948
 6903SOL     OW21607   3.253   5.560   4.416
 6903SOL    HW121608   3.254   5.652   4.377
 6903SOL    HW221609   3.201   5.560   4.501
 6904SOL     OW21610   6.046   1.017   4.629
 6904SOL    HW121611   6.089   0.957   4.696
 6904SOL    HW221612   5.987   0.964   4.569
 6905SOL     OW21613   6.092   6.237   6.382
 6905SOL    HW121614   6.151   6.162   6.413
 6905SOL    HW221615   6.075   6.299   6.458
 6906SOL     OW21616   4.920   1.027   3.631
 6906SOL    HW121617   4.907   1.047   3.534
 6906SOL    HW221618   5.018   1.026   3.652
 6907SOL     OW21619   5.205   2.580   1.309
 6907SOL    HW121620   5.109   2.564   1.283
 6907SOL    HW221621   5.218   2.678   1.327
 6908SOL     OW21622   0.805   5.723   6.251
 6908SOL    HW121623   0.727   5.767   6.296
 6908SOL    HW221624   0.791   5.624   6.250
 6909SOL     OW21625   6.023   4.395   1.388
 6909SOL    HW121626   6.093   4.422   1.322
 6909SOL    HW221627   6.023   4.460   1.464
 6910SOL     OW21628   6.712   2.599   3.377
 6910SOL    HW121629   6.751   2.509   3.358
 6910SOL    HW221630   6.685   2.605   3.473
 6911SOL     OW21631   4.013   5.969   3.806
 6911SOL    HW121632   4.003   5.987   3.904
 6911SOL    HW221633   4.078   6.035   3.767
 6912SOL     OW21634   3.078   5.424   0.398
 6912SOL    HW121635   2.983   5.416   0.369
 6912SOL    HW221636   3.110   5.337   0.436
 6913SOL     OW21637   4.726   5.177   4.835
 6913SOL    HW121638   4.630   5.179   4.865
 6913SOL    HW221639   4.765   5.087   4.854
 6914SOL     OW21640   6.427   4.068   5.617
 6914SOL    HW121641   6.405   4.163   5.596
 6914SOL    HW221642   6.520   4.047   5.586
 6915SOL     OW21643   6.207   3.425   1.366
 6915SOL    HW121644   6.302   3.414   1.337
 6915SOL    HW221645   6.167   3.335   1.385
 6916SOL     OW21646   0.063   3.406   0.018
 6916SOL    HW121647   0.145   3.429   0.070
 6916SOL    HW221648   0.069   3.446   6.948
 6917SOL     OW21649   2.841   5.817   1.320
 6917SOL    HW121650   2.883   5.815   1.411
 6917SOL    HW221651   2.913   5.822   1.250
 6918SOL     OW21652   6.907   3.076   4.588
 6918SOL    HW121653   6.817   3.105   4.555
 6918SOL    HW221654   6.928   3.124   4.674
 6919SOL     OW21655   0.175   6.188   2.277
 6919SOL    HW121656   0.186   6.269   2.220
 6919SOL    HW221657   0.121   6.119   2.228
 6920SOL     OW21658   4.438   5.184   5.463
 6920SOL    HW121659   4.353   5.236   5.467
 6920SOL    HW221660   4.514   5.243   5.490
 6921SOL     OW21661   5.438   5.745   2.876
 6921SOL    HW121662   5.519   5.738   2.817
 6921SOL    HW221663   5.457   5.698   2.963
 6922SOL     OW21664   1.782   5.955   5.930
 6922SOL    HW121665   1.777   5.935   6.027
 6922SOL    HW221666   1.805   5.872   5.879
 6923SOL     OW21667   4.233   5.382   3.474
 6923SOL    HW121668   4.300   5.375   3.547
 6923SOL    HW221669   4.238   5.301   3.416
 6924SOL     OW21670   2.205   3.977   6.698
 6924SOL    HW121671   2.195   4.023   6.786
 6924SOL    HW221672   2.157   3.890   6.700
 6925SOL     OW21673   4.248   6.190   5.075
 6925SOL    HW121674   4.253   6.131   4.994
 6925SOL    HW221675   4.339   6.229   5.094
 6926SOL     OW21676   3.347   2.959   1.107
 6926SOL    HW121677   3.266   2.900   1.114
 6926SOL    HW221678   3.411   2.920   1.040
 6927SOL     OW21679   5.114   2.863   6.459
 6927SOL    HW121680   5.108   2.778   6.407
 6927SOL    HW221681   5.168   2.930   6.408
 6928SOL     OW21682   6.253   5.985   1.022
 6928SOL    HW121683   6.261   5.886   1.011
 6928SOL    HW221684   6.280   6.011   1.115
 6929SOL     OW21685   6.129   4.856   0.711
 6929SOL    HW121686   6.197   4.822   0.647
 6929SOL    HW221687   6.095   4.781   0.768
 6930SOL     OW21688   0.270   6.370   2.079
 6930SOL    HW121689   0.353   6.376   2.135
 6930SOL    HW221690   0.291   6.395   1.985
 6931SOL     OW21691   2.207   0.905   2.402
 6931SOL    HW121692   2.166   0.889   2.313
 6931SOL    HW221693   2.230   0.818   2.445
 6932SOL     OW21694   4.119   6.838   0.796
 6932SOL    HW121695   4.050   6.872   0.733
 6932SOL    HW221696   4.083   6.761   0.848
 6933SOL     OW21697   2.949   6.500   4.391
 6933SOL    HW121698   2.955   6.523   4.488
 6933SOL    HW221699   2.938   6.584   4.338
 6934SOL     OW21700   4.902   3.506   6.151
 6934SOL    HW121701   4.951   3.591   6.171
 6934SOL    HW221702   4.844   3.518   6.071
 6935SOL     OW21703   4.117   4.777   3.095
 6935SOL    HW121704   4.156   4.749   3.007
 6935SOL    HW221705   4.125   4.876   3.105
 6936SOL     OW21706   6.233   2.210   4.225
 6936SOL    HW121707   6.330   2.194   4.242
 6936SOL    HW221708   6.188   2.238   4.310
 6937SOL     OW21709   0.386   6.375   0.247
 6937SOL    HW121710   0.306   6.419   0.206
 6937SOL    HW221711   0.412   6.296   0.193
 6938SOL     OW21712   5.362   3.339   5.690
 6938SOL    HW121713   5.394   3.353   5.597
 6938SOL    HW221714   5.305   3.416   5.719
 6939SOL     OW21715   0.804   4.562   2.272
 6939SOL    HW121716   0.791   4.470   2.309
 6939SOL    HW221717   0.880   4.607   2.319
 6940SOL     OW21718   4.648   0.842   0.181
 6940SOL    HW121719   4.694   0.919   0.137
 6940SOL    HW221720   4.643   0.765   0.117
 6941SOL     OW21721   3.746   3.207   1.670
 6941SOL    HW121722   3.708   3.182   1.759
 6941SOL    HW221723   3.841   3.236   1.682
 6942SOL     OW21724   5.329   0.718   1.846
 6942SOL    HW121725   5.285   0.648   1.790
 6942SOL    HW221726   5.348   0.682   1.937
 6943SOL     OW21727   4.485   6.402   7.011
 6943SOL    HW121728   4.465   6.338   6.936
 6943SOL    HW221729   4.532   6.482   6.974
 6944SOL     OW21730   0.918   3.928   6.990
 6944SOL    HW121731   0.820   3.909   6.979
 6944SOL    HW221732   0.964   3.917   6.902
 6945SOL     OW21733   6.365   1.894   6.311
 6945SOL    HW121734   6.390   1.890   6.408
 6945SOL    HW221735   6.271   1.928   6.302
 6946SOL     OW21736   6.209   6.209   0.908
 6946SOL    HW121737   6.242   6.121   0.942
 6946SOL    HW221738   6.138   6.194   0.839
 6947SOL     OW21739   3.726   6.271   6.255
 6947SOL    HW121740   3.716   6.172   6.259
 6947SOL    HW221741   3.751   6.299   6.162
 6948SOL     OW21742   6.662   0.287   6.944
 6948SOL    HW121743   6.678   0.385   6.941
 6948SOL    HW221744   6.749   0.240   6.962
 6949SOL     OW21745   4.828   6.578   2.666
 6949SOL    HW121746   4.744   6.622   2.635
 6949SOL    HW221747   4.857   6.620   2.753
 6950SOL     OW21748   2.478   0.952   4.717
 6950SOL    HW121749   2.379   0.960   4.703
 6950SOL    HW221750   2.499   0.968   4.814
 6951SOL     OW21751   6.742   5.759   5.472
 6951SOL    HW121752   6.651   5.770   5.432
 6951SOL    HW221753   6.736   5.767   5.571
 6952SOL     OW21754   0.608   6.364   3.759
 6952SOL    HW121755   0.526   6.331   3.806
 6952SOL    HW221756   0.634   6.454   3.796
 6953SOL     OW21757   5.129   6.401   0.345
 6953SOL    HW121758   5.093   6.491   0.320
 6953SOL    HW221759   5.087   6.371   0.431
 6954SOL     OW21760   0.177   3.923   3.656
 6954SOL    HW121761   0.258   3.930   3.713
 6954SOL    HW221762   0.175   3.998   3.590
 6955SOL     OW21763   6.674   0.753   2.528
 6955SOL    HW121764   6.615   0.830   2.553
 6955SOL    HW221765   6.623   0.668   2.535
 6956SOL     OW21766   5.368   5.707   3.170
 6956SOL    HW121767   5.360   5.608   3.178
 6956SOL    HW221768   5.281   5.750   3.195
 6957SOL     OW21769   6.340   5.033   0.899
 6957SOL    HW121770   6.338   5.026   0.799
 6957SOL    HW221771   6.248   5.053   0.932
 6958SOL     OW21772   2.989   3.376   4.499
 6958SOL    HW121773   2.983   3.341   4.592
 6958SOL    HW221774   3.010   3.301   4.436
 6959SOL     OW21775   1.750   1.783   4.497
 6959SOL    HW121776   1.726   1.686   4.510
 6959SOL    HW221777   1.820   1.791   4.426
 6960SOL     OW21778   2.327   4.881   1.748
 6960SOL    HW121779   2.289   4.950   1.810
 6960SOL    HW221780   2.255   4.849   1.686
 6961SOL     OW21781   5.745   2.064   3.989
 6961SOL    HW121782   5.692   2.001   3.932
 6961SOL    HW221783   5.711   2.157   3.977
 6962SOL     OW21784   4.569   6.058   1.880
 6962SOL    HW121785   4.609   6.112   1.806
 6962SOL    HW221786   4.477   6.027   1.853
 6963SOL     OW21787   5.421   5.958   1.213
 6963SOL    HW121788   5.370   5.902   1.148
 6963SOL    HW221789   5.397   6.054   1.201
 6964SOL     OW21790   3.484   0.493   4.953
 6964SOL    HW121791   3.435   0.430   4.893
 6964SOL    HW221792   3.518   0.570   4.898
 6965SOL     OW21793   0.961   3.233   1.283
 6965SOL    HW121794   0.876   3.247   1.335
 6965SOL    HW221795   1.036   3.213   1.346
 6966SOL     OW21796   6.798   2.457   3.054
 6966SOL    HW121797   6.854   2.540   3.054
 6966SOL    HW221798   6.810   2.409   3.141
 6967SOL     OW21799   2.229   6.426   5.436
 6967SOL    HW121800   2.259   6.339   5.477
 6967SOL    HW221801   2.159   6.408   5.368
 6968SOL     OW21802   4.386   6.655   2.537
 6968SOL    HW121803   4.338   6.705   2.464
 6968SOL    HW221804   4.337   6.570   2.557
 6969SOL     OW21805   2.987   2.292   1.359
 6969SOL    HW121806   2.921   2.327   1.292
 6969SOL    HW221807   2.938   2.259   1.439
 6970SOL     OW21808   3.150   4.454   6.702
 6970SOL    HW121809   3.162   4.505   6.788
 6970SOL    HW221810   3.068   4.487   6.655
 6971SOL     OW21811   6.022   4.319   2.258
 6971SOL    HW121812   5.930   4.327   2.297
 6971SOL    HW221813   6.018   4.264   2.174
 6972SOL     OW21814   4.907   3.977   3.219
 6972SOL    HW121815   4.961   3.898   3.192
 6972SOL    HW221816   4.823   3.979   3.165
 6973SOL     OW21817   0.615   2.879   4.438
 6973SOL    HW121818   0.661   2.955   4.485
 6973SOL    HW221819   0.518   2.879   4.462
 6974SOL     OW21820   3.320   3.875   2.332
 6974SOL    HW121821   3.379   3.955   2.320
 6974SOL    HW221822   3.345   3.805   2.266
 6975SOL     OW21823   2.065   6.652   6.316
 6975SOL    HW121824   1.992   6.595   6.277
 6975SOL    HW221825   2.146   6.595   6.333
 6976SOL     OW21826   5.025   5.992   4.792
 6976SOL    HW121827   4.955   5.928   4.761
 6976SOL    HW221828   5.086   5.945   4.856
 6977SOL     OW21829   4.084   2.525   1.682
 6977SOL    HW121830   4.131   2.605   1.643
 6977SOL    HW221831   4.009   2.556   1.741
 6978SOL     OW21832   4.795   1.256   2.640
 6978SOL    HW121833   4.750   1.345   2.653
 6978SOL    HW221834   4.783   1.227   2.545
 6979SOL     OW21835   0.866   4.218   1.216
 6979SOL    HW121836   0.931   4.265   1.156
 6979SOL    HW221837   0.786   4.190   1.163
 6980SOL     OW21838   1.743   1.187   3.616
 6980SOL    HW121839   1.828   1.138   3.598
 6980SOL    HW221840   1.723   1.185   3.714
 6981SOL     OW21841   3.925   2.381   5.739
 6981SOL    HW121842   3.885   2.441   5.669
 6981SOL    HW221843   3.942   2.291   5.699
 6982SOL     OW21844   1.442   0.610   4.233
 6982SOL    HW121845   1.512   0.553   4.276
 6982SOL    HW221846   1.355   0.600   4.281
 6983SOL     OW21847   3.830   1.966   3.641
 6983SOL    HW121848   3.832   1.916   3.728
 6983SOL    HW221849   3.921   1.999   3.619
 6984SOL     OW21850   2.526   1.848   3.652
 6984SOL    HW121851   2.455   1.794   3.697
 6984SOL    HW221852   2.485   1.901   3.578
 6985SOL     OW21853   4.815   5.017   1.962
 6985SOL    HW121854   4.893   4.972   2.006
 6985SOL    HW221855   4.785   5.094   2.017
 6986SOL     OW21856   1.747   6.942   6.368
 6986SOL    HW121857   1.710   0.008   6.400
 6986SOL    HW221858   1.674   6.874   6.365
 6987SOL     OW21859   6.205   1.637   5.656
 6987SOL    HW121860   6.168   1.720   5.697
 6987SOL    HW221861   6.141   1.562   5.670
 6988SOL     OW21862   0.494   0.345   5.658
 6988SOL    HW121863   0.417   0.389   5.704
 6988SOL    HW221864   0.523   0.400   5.580
 6989SOL     OW21865   0.607   4.191   2.977
 6989SOL    HW121866   0.538   4.242   3.028
 6989SOL    HW221867   0.681   4.253   2.952
 6990SOL     OW21868   4.809   2.840   1.360
 6990SOL    HW121869   4.878   2.880   1.420
 6990SOL    HW221870   4.727   2.818   1.413
 6991SOL     OW21871   3.464   5.006   3.469
 6991SOL    HW121872   3.441   4.951   3.550
 6991SOL    HW221873   3.399   5.081   3.460
 6992SOL     OW21874   5.164   6.015   6.534
 6992SOL    HW121875   5.214   6.079   6.476
 6992SOL    HW221876   5.124   5.943   6.478
 6993SOL     OW21877   6.042   0.661   2.635
 6993SOL    HW121878   6.099   0.727   2.586
 6993SOL    HW221879   6.063   0.568   2.603
 6994SOL     OW21880   0.423   2.477   4.364
 6994SOL    HW121881   0.376   2.548   4.312
 6994SOL    HW221882   0.499   2.441   4.310
 6995SOL     OW21883   0.106   4.373   6.375
 6995SOL    HW121884   0.178   4.331   6.430
 6995SOL    HW221885   0.123   4.354   6.278
 6996SOL     OW21886   1.348   0.332   6.782
 6996SOL    HW121887   1.295   0.407   6.742
 6996SOL    HW221888   1.314   0.311   6.874
 6997SOL     OW21889   0.025   5.751   4.956
 6997SOL    HW121890   7.019   5.843   4.984
 6997SOL    HW221891   0.124   5.748   4.940
 6998SOL     OW21892   2.202   0.786   1.979
 6998SOL    HW121893   2.198   0.695   2.018
 6998SOL    HW221894   2.297   0.813   1.964
 6999SOL     OW21895   2.448   2.329   6.000
 6999SOL    HW121896   2.501   2.414   6.001
 6999SOL    HW221897   2.415   2.309   6.092
 7000SOL     OW21898   5.426   6.265   1.302
 7000SOL    HW121899   5.363   6.340   1.320
 7000SOL    HW221900   5.475   6.242   1.386
 7001SOL     OW21901   1.908   2.775   5.325
 7001SOL    HW121902   1.939   2.797   5.233
 7001SOL    HW221903   1.986   2.742   5.379
 7002SOL     OW21904   1.687   5.487   4.056
 7002SOL    HW121905   1.667   5.401   4.103
 7002SOL    HW221906   1.704   5.470   3.959
 7003SOL     OW21907   3.978   4.907   0.409
 7003SOL    HW121908   4.077   4.894   0.405
 7003SOL    HW221909   3.933   4.849   0.341
 7004SOL     OW21910   1.101   4.523   2.531
 7004SOL    HW121911   1.141   4.496   2.443
 7004SOL    HW221912   1.054   4.611   2.520
 7005SOL     OW21913   1.657   0.524   0.322
 7005SOL    HW121914   1.707   0.608   0.343
 7005SOL    HW221915   1.638   0.475   0.407
 7006SOL     OW21916   5.104   4.980   3.720
 7006SOL    HW121917   5.114   4.895   3.669
 7006SOL    HW221918   5.192   5.028   3.723
 7007SOL     OW21919   5.395   6.628   3.491
 7007SOL    HW121920   5.314   6.627   3.549
 7007SOL    HW221921   5.368   6.646   3.396
 7008SOL     OW21922   1.006   3.929   4.795
 7008SOL    HW121923   1.022   3.846   4.742
 7008SOL    HW221924   0.934   3.912   4.863
 7009SOL     OW21925   5.454   6.109   2.070
 7009SOL    HW121926   5.554   6.106   2.066
 7009SOL    HW221927   5.426   6.181   2.134
 7010SOL     OW21928   5.504   4.594   4.273
 7010SOL    HW121929   5.582   4.544   4.235
 7010SOL    HW221930   5.428   4.591   4.207
 7011SOL     OW21931   3.711   6.628   6.565
 7011SOL    HW121932   3.721   6.678   6.652
 7011SOL    HW221933   3.799   6.628   6.517
 7012SOL     OW21934   1.347   2.238   1.226
 7012SOL    HW121935   1.268   2.299   1.219
 7012SOL    HW221936   1.380   2.215   1.135
 7013SOL     OW21937   0.462   0.555   0.295
 7013SOL    HW121938   0.377   0.551   0.242
 7013SOL    HW221939   0.442   0.590   0.386
 7014SOL     OW21940   4.156   3.431   1.112
 7014SOL    HW121941   4.069   3.386   1.131
 7014SOL    HW221942   4.142   3.529   1.100
 7015SOL     OW21943   5.449   5.028   2.397
 7015SOL    HW121944   5.497   4.942   2.383
 7015SOL    HW221945   5.424   5.067   2.308
 7016SOL     OW21946   3.869   4.741   1.537
 7016SOL    HW121947   3.848   4.837   1.518
 7016SOL    HW221948   3.867   4.688   1.452
 7017SOL     OW21949   1.875   4.862   2.104
 7017SOL    HW121950   1.864   4.777   2.053
 7017SOL    HW221951   1.897   4.936   2.040
 7018SOL     OW21952   5.563   3.924   4.194
 7018SOL    HW121953   5.532   3.862   4.122
 7018SOL    HW221954   5.662   3.915   4.206
 7019SOL     OW21955   3.287   4.059   0.183
 7019SOL    HW121956   3.336   3.975   0.162
 7019SOL    HW221957   3.218   4.076   0.112
 7020SOL     OW21958   6.623   5.398   6.983
 7020SOL    HW121959   6.648   5.324   0.025
 7020SOL    HW221960   6.523   5.408   6.982
 7021SOL     OW21961   1.264   1.704   5.622
 7021SOL    HW121962   1.203   1.771   5.664
 7021SOL    HW221963   1.356   1.743   5.615
 7022SOL     OW21964   4.799   6.913   6.168
 7022SOL    HW121965   4.781   6.818   6.143
 7022SOL    HW221966   4.858   6.915   6.249
 7023SOL     OW21967   0.356   1.735   4.688
 7023SOL    HW121968   0.448   1.761   4.716
 7023SOL    HW221969   0.304   1.817   4.663
 7024SOL     OW21970   2.685   4.034   5.312
 7024SOL    HW121971   2.611   4.033   5.245
 7024SOL    HW221972   2.646   4.030   5.404
 7025SOL     OW21973   2.704   1.502   0.493
 7025SOL    HW121974   2.738   1.426   0.437
 7025SOL    HW221975   2.605   1.493   0.506
 7026SOL     OW21976   3.520   1.754   2.006
 7026SOL    HW121977   3.437   1.715   2.046
 7026SOL    HW221978   3.514   1.854   2.008
 7027SOL     OW21979   2.500   5.459   4.094
 7027SOL    HW121980   2.419   5.505   4.057
 7027SOL    HW221981   2.513   5.372   4.047
 7028SOL     OW21982   3.754   1.220   4.030
 7028SOL    HW121983   3.829   1.179   4.081
 7028SOL    HW221984   3.738   1.168   3.946
 7029SOL     OW21985   5.258   4.704   5.217
 7029SOL    HW121986   5.240   4.619   5.169
 7029SOL    HW221987   5.199   4.710   5.298
 7030SOL     OW21988   1.596   1.071   5.349
 7030SOL    HW121989   1.551   1.044   5.264
 7030SOL    HW221990   1.530   1.064   5.425
 7031SOL     OW21991   2.641   5.950   4.845
 7031SOL    HW121992   2.585   5.935   4.764
 7031SOL    HW221993   2.606   6.028   4.896
 7032SOL     OW21994   4.019   0.501   2.997
 7032SOL    HW121995   4.066   0.415   3.017
 7032SOL    HW221996   4.017   0.558   3.080
 7033SOL     OW21997   1.588   2.577   3.640
 7033SOL    HW121998   1.657   2.528   3.693
 7033SOL    HW221999   1.549   2.516   3.571
 7034SOL     OW22000   6.280   0.586   3.953
 7034SOL    HW122001   6.325   0.547   3.872
 7034SOL    HW222002   6.347   0.640   4.005
 7035SOL     OW22003   1.548   6.372   1.571
 7035SOL    HW122004   1.475   6.336   1.513
 7035SOL    HW222005   1.545   6.472   1.571
 7036SOL     OW22006   0.286   0.573   2.971
 7036SOL    HW122007   0.377   0.552   2.935
 7036SOL    HW222008   0.276   0.530   3.061
 7037SOL     OW22009   1.654   1.573   6.796
 7037SOL    HW122010   1.692   1.605   6.883
 7037SOL    HW222011   1.592   1.497   6.812
 7038SOL     OW22012   2.935   3.185   5.529
 7038SOL    HW122013   2.997   3.220   5.600
 7038SOL    HW222014   2.934   3.085   5.532
 7039SOL     OW22015   3.191   4.987   1.701
 7039SOL    HW122016   3.100   4.988   1.660
 7039SOL    HW222017   3.260   4.986   1.629
 7040SOL     OW22018   6.306   1.826   5.187
 7040SOL    HW122019   6.246   1.901   5.213
 7040SOL    HW222020   6.349   1.787   5.268
 7041SOL     OW22021   6.702   1.686   1.929
 7041SOL    HW122022   6.618   1.639   1.956
 7041SOL    HW222023   6.700   1.704   1.831
 7042SOL     OW22024   4.684   4.991   5.262
 7042SOL    HW122025   4.626   4.988   5.181
 7042SOL    HW222026   4.643   4.936   5.335
 7043SOL     OW22027   1.971   3.881   2.974
 7043SOL    HW122028   1.905   3.956   2.969
 7043SOL    HW222029   1.981   3.839   2.884
 7044SOL     OW22030   4.420   4.697   4.259
 7044SOL    HW122031   4.355   4.739   4.323
 7044SOL    HW222032   4.394   4.721   4.165
 7045SOL     OW22033   5.128   5.814   3.208
 7045SOL    HW122034   5.081   5.787   3.292
 7045SOL    HW222035   5.067   5.801   3.130
 7046SOL     OW22036   3.349   0.792   3.372
 7046SOL    HW122037   3.437   0.780   3.326
 7046SOL    HW222038   3.346   0.883   3.415
 7047SOL     OW22039   6.806   1.648   2.600
 7047SOL    HW122040   6.872   1.715   2.632
 7047SOL    HW222041   6.829   1.620   2.506
 7048SOL     OW22042   5.396   6.288   2.850
 7048SOL    HW122043   5.464   6.247   2.910
 7048SOL    HW222044   5.346   6.216   2.802
 7049SOL     OW22045   3.744   1.670   0.642
 7049SOL    HW122046   3.801   1.681   0.724
 7049SOL    HW222047   3.802   1.645   0.564
 7050SOL     OW22048   4.428   3.244   1.126
 7050SOL    HW122049   4.377   3.331   1.124
 7050SOL    HW222050   4.401   3.189   1.046
 7051SOL     OW22051   6.885   0.262   1.785
 7051SOL    HW122052   6.859   0.221   1.873
 7051SOL    HW222053   6.984   0.259   1.775
 7052SOL     OW22054   5.830   2.796   3.453
 7052SOL    HW122055   5.867   2.820   3.363
 7052SOL    HW222056   5.764   2.722   3.443
 7053SOL     OW22057   0.838   3.360   5.625
 7053SOL    HW122058   0.904   3.400   5.689
 7053SOL    HW222059   0.882   3.286   5.574
 7054SOL     OW22060   1.060   6.718   0.479
 7054SOL    HW122061   1.096   6.628   0.456
 7054SOL    HW222062   1.135   6.785   0.478
 7055SOL     OW22063   2.777   6.861   5.384
 7055SOL    HW122064   2.838   6.794   5.427
 7055SOL    HW222065   2.798   6.868   5.287
 7056SOL     OW22066   6.306   4.633   2.234
 7056SOL    HW122067   6.337   4.543   2.205
 7056SOL    HW222068   6.223   4.658   2.184
 7057SOL     OW22069   1.548   5.693   4.171
 7057SOL    HW122070   1.463   5.710   4.121
 7057SOL    HW222071   1.595   5.615   4.131
 7058SOL     OW22072   5.850   4.939   5.699
 7058SOL    HW122073   5.757   4.928   5.732
 7058SOL    HW222074   5.852   4.926   5.599
 7059SOL     OW22075   6.683   1.258   4.036
 7059SOL    HW122076   6.605   1.271   4.097
 7059SOL    HW222077   6.692   1.161   4.014
 7060SOL     OW22078   4.174   0.059   1.439
 7060SOL    HW122079   4.239   0.068   1.364
 7060SOL    HW222080   4.135   0.148   1.461
 7061SOL     OW22081   0.651   2.952   3.273
 7061SOL    HW122082   0.694   2.865   3.251
 7061SOL    HW222083   0.568   2.963   3.218
 7062SOL     OW22084   4.133   0.911   5.409
 7062SOL    HW122085   4.069   0.962   5.467
 7062SOL    HW222086   4.123   0.813   5.426
 7063SOL     OW22087   1.550   0.302   1.900
 7063SOL    HW122088   1.606   0.230   1.859
 7063SOL    HW222089   1.459   0.300   1.859
 7064SOL     OW22090   4.054   1.980   0.776
 7064SOL    HW122091   4.042   2.030   0.690
 7064SOL    HW222092   4.148   1.946   0.781
 7065SOL     OW22093   4.310   3.930   6.107
 7065SOL    HW122094   4.328   3.851   6.048
 7065SOL    HW222095   4.346   3.912   6.198
 7066SOL     OW22096   4.744   0.692   6.728
 7066SOL    HW122097   4.809   0.639   6.783
 7066SOL    HW222098   4.706   0.634   6.656
 7067SOL     OW22099   1.681   2.593   5.285
 7067SOL    HW122100   1.621   2.616   5.209
 7067SOL    HW222101   1.760   2.655   5.284
 7068SOL     OW22102   6.430   4.521   4.607
 7068SOL    HW122103   6.447   4.549   4.513
 7068SOL    HW222104   6.504   4.461   4.637
 7069SOL     OW22105   5.396   1.785   4.350
 7069SOL    HW122106   5.425   1.869   4.305
 7069SOL    HW222107   5.447   1.707   4.312
 7070SOL     OW22108   6.918   6.573   4.651
 7070SOL    HW122109   6.945   6.669   4.654
 7070SOL    HW222110   6.889   6.549   4.558
 7071SOL     OW22111   3.057   5.907   5.995
 7071SOL    HW122112   3.057   5.857   6.082
 7071SOL    HW222113   3.018   5.998   6.010
 7072SOL     OW22114   1.957   6.627   0.083
 7072SOL    HW122115   1.995   6.716   0.057
 7072SOL    HW222116   1.976   6.610   0.179
 7073SOL     OW22117   5.060   6.620   4.328
 7073SOL    HW122118   5.157   6.612   4.306
 7073SOL    HW222119   5.012   6.659   4.250
 7074SOL     OW22120   5.000   2.319   1.575
 7074SOL    HW122121   4.949   2.252   1.631
 7074SOL    HW222122   5.029   2.395   1.633
 7075SOL     OW22123   1.761   4.076   5.402
 7075SOL    HW122124   1.851   4.052   5.437
 7075SOL    HW222125   1.770   4.147   5.332
 7076SOL     OW22126   6.084   2.267   6.051
 7076SOL    HW122127   6.117   2.350   6.006
 7076SOL    HW222128   6.147   2.244   6.126
 7077SOL     OW22129   2.786   4.730   3.694
 7077SOL    HW122130   2.831   4.734   3.783
 7077SOL    HW222131   2.696   4.688   3.704
 7078SOL     OW22132   6.962   6.743   1.703
 7078SOL    HW122133   7.005   6.822   1.748
 7078SOL    HW222134   7.002   6.731   1.612
 7079SOL     OW22135   6.830   5.983   4.059
 7079SOL    HW122136   6.838   5.907   3.994
 7079SOL    HW222137   6.878   5.959   4.143
 7080SOL     OW22138   3.448   1.023   5.078
 7080SOL    HW122139   3.451   1.064   4.987
 7080SOL    HW222140   3.375   0.955   5.082
 7081SOL     OW22141   2.615   6.693   6.950
 7081SOL    HW122142   2.601   6.611   7.006
 7081SOL    HW222143   2.537   6.705   6.889
 7082SOL     OW22144   6.707   4.001   0.125
 7082SOL    HW122145   6.632   3.935   0.122
 7082SOL    HW222146   6.793   3.954   0.102
 7083SOL     OW22147   2.473   0.361   0.980
 7083SOL    HW122148   2.391   0.412   1.008
 7083SOL    HW222149   2.529   0.420   0.922
 7084SOL     OW22150   0.265   5.756   5.754
 7084SOL    HW122151   0.301   5.842   5.792
 7084SOL    HW222152   0.321   5.728   5.676
 7085SOL     OW22153   1.117   1.582   1.936
 7085SOL    HW122154   1.021   1.570   1.961
 7085SOL    HW222155   1.123   1.621   1.844
 7086SOL     OW22156   5.435   7.010   5.706
 7086SOL    HW122157   5.451   0.087   5.714
 7086SOL    HW222158   5.336   6.992   5.709
 7087SOL     OW22159   6.215   4.043   4.624
 7087SOL    HW122160   6.152   4.081   4.556
 7087SOL    HW222161   6.208   3.944   4.624
 7088SOL     OW22162   5.192   2.754   3.767
 7088SOL    HW122163   5.110   2.722   3.815
 7088SOL    HW222164   5.240   2.821   3.824
 7089SOL     OW22165   2.961   1.991   4.925
 7089SOL    HW122166   2.967   1.986   5.025
 7089SOL    HW222167   3.053   2.005   4.887
 7090SOL     OW22168   2.226   0.804   0.193
 7090SOL    HW122169   2.149   0.797   0.257
 7090SOL    HW222170   2.310   0.824   0.243
 7091SOL     OW22171   0.533   2.236   0.635
 7091SOL    HW122172   0.599   2.309   0.619
 7091SOL    HW222173   0.564   2.179   0.712
 7092SOL     OW22174   3.658   3.320   5.759
 7092SOL    HW122175   3.574   3.271   5.736
 7092SOL    HW222176   3.733   3.285   5.702
 7093SOL     OW22177   3.186   3.917   2.560
 7093SOL    HW122178   3.221   3.931   2.468
 7093SOL    HW222179   3.258   3.935   2.627
 7094SOL     OW22180   0.019   6.126   5.894
 7094SOL    HW122181   0.015   6.052   5.826
 7094SOL    HW222182   0.013   6.088   5.986
 7095SOL     OW22183   4.366   4.661   5.559
 7095SOL    HW122184   4.294   4.592   5.560
 7095SOL    HW222185   4.427   4.645   5.482
 7096SOL     OW22186   6.830   0.969   3.423
 7096SOL    HW122187   6.885   1.052   3.426
 7096SOL    HW222188   6.734   0.992   3.436
 7097SOL     OW22189   5.463   1.625   1.670
 7097SOL    HW122190   5.373   1.582   1.656
 7097SOL    HW222191   5.508   1.638   1.581
 7098SOL     OW22192   1.838   5.610   5.816
 7098SOL    HW122193   1.826   5.512   5.835
 7098SOL    HW222194   1.875   5.655   5.898
 7099SOL     OW22195   3.627   1.248   5.522
 7099SOL    HW122196   3.677   1.324   5.564
 7099SOL    HW222197   3.603   1.272   5.428
 7100SOL     OW22198   6.283   3.327   0.178
 7100SOL    HW122199   6.187   3.308   0.196
 7100SOL    HW222200   6.334   3.329   0.265
 7101SOL     OW22201   2.121   1.283   5.243
 7101SOL    HW122202   2.110   1.340   5.325
 7101SOL    HW222203   2.036   1.287   5.190
 7102SOL     OW22204   5.269   0.012   0.720
 7102SOL    HW122205   5.263   0.032   0.622
 7102SOL    HW222206   5.321   0.085   0.765
 7103SOL     OW22207   5.091   5.035   2.704
 7103SOL    HW122208   5.183   5.006   2.731
 7103SOL    HW222209   5.088   5.045   2.604
 7104SOL     OW22210   6.923   3.188   3.544
 7104SOL    HW122211   6.871   3.148   3.468
 7104SOL    HW222212   7.012   3.143   3.550
 7105SOL     OW22213   3.064   3.318   5.265
 7105SOL    HW122214   2.992   3.314   5.196
 7105SOL    HW222215   3.124   3.238   5.255
 7106SOL     OW22216   3.801   3.430   2.251
 7106SOL    HW122217   3.876   3.457   2.311
 7106SOL    HW222218   3.720   3.410   2.305
 7107SOL     OW22219   4.549   1.041   0.625
 7107SOL    HW122220   4.623   0.990   0.669
 7107SOL    HW222221   4.505   1.100   0.693
 7108SOL     OW22222   3.568   6.429   2.586
 7108SOL    HW122223   3.635   6.442   2.659
 7108SOL    HW222224   3.489   6.488   2.602
 7109SOL     OW22225   2.504   0.200   5.997
 7109SOL    HW122226   2.521   0.145   5.916
 7109SOL    HW222227   2.587   0.204   6.053
 7110SOL     OW22228   2.971   5.643   4.283
 7110SOL    HW122229   3.051   5.608   4.331
 7110SOL    HW222230   2.980   5.626   4.185
 7111SOL     OW22231   1.218   2.969   5.415
 7111SOL    HW122232   1.269   3.017   5.486
 7111SOL    HW222233   1.244   3.004   5.326
 7112SOL     OW22234   1.937   4.922   4.520
 7112SOL    HW122235   1.889   4.988   4.577
 7112SOL    HW222236   1.871   4.854   4.487
 7113SOL     OW22237   3.532   3.826   4.984
 7113SOL    HW122238   3.477   3.754   5.026
 7113SOL    HW222239   3.573   3.791   4.900
 7114SOL     OW22240   5.125   6.092   1.470
 7114SOL    HW122241   5.031   6.069   1.496
 7114SOL    HW222242   5.131   6.100   1.370
 7115SOL     OW22243   5.269   3.202   0.880
 7115SOL    HW122244   5.351   3.169   0.927
 7115SOL    HW222245   5.192   3.201   0.944
 7116SOL     OW22246   6.025   4.193   2.882
 7116SOL    HW122247   5.952   4.138   2.921
 7116SOL    HW222248   6.103   4.194   2.944
 7117SOL     OW22249   0.470   6.544   5.494
 7117SOL    HW122250   0.515   6.596   5.567
 7117SOL    HW222251   0.458   6.602   5.414
 7118SOL     OW22252   2.970   4.878   0.813
 7118SOL    HW122253   2.972   4.933   0.897
 7118SOL    HW222254   2.894   4.814   0.816
 7119SOL     OW22255   4.582   1.914   4.087
 7119SOL    HW122256   4.523   1.913   4.168
 7119SOL    HW222257   4.550   1.983   4.022
 7120SOL     OW22258   3.507   1.912   2.322
 7120SOL    HW122259   3.507   1.812   2.316
 7120SOL    HW222260   3.422   1.948   2.282
 7121SOL     OW22261   0.926   0.187   3.656
 7121SOL    HW122262   0.875   0.103   3.638
 7121SOL    HW222263   1.011   0.164   3.704
 7122SOL     OW22264   1.577   0.517   5.889
 7122SOL    HW122265   1.535   0.510   5.798
 7122SOL    HW222266   1.674   0.493   5.883
 7123SOL     OW22267   1.733   4.728   2.946
 7123SOL    HW122268   1.688   4.732   3.035
 7123SOL    HW222269   1.683   4.667   2.885
 7124SOL     OW22270   6.694   2.157   1.249
 7124SOL    HW122271   6.690   2.228   1.319
 7124SOL    HW222272   6.693   2.067   1.293
 7125SOL     OW22273   0.809   0.197   0.916
 7125SOL    HW122274   0.858   0.273   0.874
 7125SOL    HW222275   0.729   0.173   0.861
 7126SOL     OW22276   3.442   5.259   0.486
 7126SOL    HW122277   3.425   5.163   0.509
 7126SOL    HW222278   3.437   5.270   0.386
 7127SOL     OW22279   1.590   4.962   5.991
 7127SOL    HW122280   1.684   4.994   5.996
 7127SOL    HW222281   1.581   4.876   6.041
 7128SOL     OW22282   2.707   5.075   7.013
 7128SOL    HW122283   2.786   5.093   0.051
 7128SOL    HW222284   2.738   5.067   6.918
 7129SOL     OW22285   2.357   1.823   0.382
 7129SOL    HW122286   2.436   1.834   0.442
 7129SOL    HW222287   2.387   1.794   0.292
 7130SOL     OW22288   3.717   5.531   5.012
 7130SOL    HW122289   3.770   5.512   5.095
 7130SOL    HW222290   3.619   5.522   5.032
 7131SOL     OW22291   2.521   0.750   1.451
 7131SOL    HW122292   2.594   0.685   1.429
 7131SOL    HW222293   2.542   0.795   1.538
 7132SOL     OW22294   4.022   3.903   0.361
 7132SOL    HW122295   3.997   3.909   0.265
 7132SOL    HW222296   3.945   3.931   0.418
 7133SOL     OW22297   4.800   5.657   5.918
 7133SOL    HW122298   4.888   5.667   5.871
 7133SOL    HW222299   4.803   5.576   5.976
 7134SOL     OW22300   5.134   6.655   1.577
 7134SOL    HW122301   5.119   6.575   1.519
 7134SOL    HW222302   5.117   6.739   1.525
 7135SOL     OW22303   1.470   2.420   3.436
 7135SOL    HW122304   1.479   2.321   3.444
 7135SOL    HW222305   1.387   2.451   3.482
 7136SOL     OW22306   2.362   2.101   0.322
 7136SOL    HW122307   2.384   2.125   0.416
 7136SOL    HW222308   2.341   2.003   0.317
 7137SOL     OW22309   3.486   0.412   6.544
 7137SOL    HW122310   3.515   0.416   6.639
 7137SOL    HW222311   3.566   0.415   6.484
 7138SOL     OW22312   2.826   2.202   0.327
 7138SOL    HW122313   2.850   2.143   0.404
 7138SOL    HW222314   2.763   2.154   0.266
 7139SOL     OW22315   6.304   3.832   1.661
 7139SOL    HW122316   6.327   3.901   1.593
 7139SOL    HW222317   6.243   3.764   1.621
 7140SOL     OW22318   6.360   3.603   2.407
 7140SOL    HW122319   6.360   3.703   2.395
 7140SOL    HW222320   6.370   3.581   2.504
 7141SOL     OW22321   4.012   6.014   0.751
 7141SOL    HW122322   4.084   6.082   0.738
 7141SOL    HW222323   3.983   5.980   0.661
 7142SOL     OW22324   4.318   6.944   2.902
 7142SOL    HW122325   4.369   6.862   2.876
 7142SOL    HW222326   4.237   6.953   2.844
 7143SOL     OW22327   1.551   2.536   5.825
 7143SOL    HW122328   1.638   2.491   5.843
 7143SOL    HW222329   1.555   2.583   5.737
 7144SOL     OW22330   2.134   2.374   2.770
 7144SOL    HW122331   2.046   2.410   2.741
 7144SOL    HW222332   2.199   2.382   2.694
 7145SOL     OW22333   4.279   6.818   0.097
 7145SOL    HW122334   4.307   6.825   0.193
 7145SOL    HW222335   4.185   6.851   0.088
 7146SOL     OW22336   2.065   6.918   0.294
 7146SOL    HW122337   2.150   6.903   0.244
 7146SOL    HW222338   1.992   6.942   0.229
 7147SOL     OW22339   6.954   0.163   2.972
 7147SOL    HW122340   6.858   0.140   2.953
 7147SOL    HW222341   6.961   0.201   3.064
 7148SOL     OW22342   0.223   6.745   1.153
 7148SOL    HW122343   0.238   6.788   1.242
 7148SOL    HW222344   0.259   6.651   1.155
 7149SOL     OW22345   6.554   6.813   3.328
 7149SOL    HW122346   6.493   6.804   3.250
 7149SOL    HW222347   6.538   6.738   3.392
 7150SOL     OW22348   3.585   2.697   1.377
 7150SOL    HW122349   3.662   2.663   1.431
 7150SOL    HW222350   3.615   2.773   1.320
 7151SOL     OW22351   2.980   6.784   0.381
 7151SOL    HW122352   2.896   6.809   0.430
 7151SOL    HW222353   2.993   6.685   0.385
 7152SOL     OW22354   0.360   0.884   5.989
 7152SOL    HW122355   0.315   0.957   6.041
 7152SOL    HW222356   0.298   0.806   5.980
 7153SOL     OW22357   4.258   5.373   1.495
 7153SOL    HW122358   4.261   5.298   1.561
 7153SOL    HW222359   4.306   5.452   1.533
 7154SOL     OW22360   4.812   6.579   3.422
 7154SOL    HW122361   4.852   6.554   3.510
 7154SOL    HW222362   4.842   6.515   3.352
 7155SOL     OW22363   2.201   3.669   0.941
 7155SOL    HW122364   2.121   3.610   0.938
 7155SOL    HW222365   2.174   3.760   0.972
 7156SOL     OW22366   6.971   3.278   4.205
 7156SOL    HW122367   6.874   3.254   4.212
 7156SOL    HW222368   7.012   3.230   4.128
 7157SOL     OW22369   0.329   3.491   1.539
 7157SOL    HW122370   0.349   3.580   1.580
 7157SOL    HW222371   0.374   3.419   1.592
 7158SOL     OW22372   1.373   0.139   3.903
 7158SOL    HW122373   1.330   0.140   3.993
 7158SOL    HW222374   1.389   0.045   3.874
 7159SOL     OW22375   0.778   4.563   3.201
 7159SOL    HW122376   0.871   4.598   3.189
 7159SOL    HW222377   0.731   4.615   3.272
 7160SOL     OW22378   5.767   0.499   2.840
 7160SOL    HW122379   5.718   0.585   2.821
 7160SOL    HW222380   5.861   0.507   2.807
 7161SOL     OW22381   3.367   4.096   3.142
 7161SOL    HW122382   3.404   4.015   3.097
 7161SOL    HW222383   3.280   4.072   3.185
 7162SOL     OW22384   1.225   5.436   6.924
 7162SOL    HW122385   1.234   5.506   6.995
 7162SOL    HW222386   1.304   5.441   6.862
 7163SOL     OW22387   2.763   6.537   2.821
 7163SOL    HW122388   2.664   6.519   2.820
 7163SOL    HW222389   2.780   6.629   2.858
 7164SOL     OW22390   3.170   0.470   4.201
 7164SOL    HW122391   3.157   0.466   4.102
 7164SOL    HW222392   3.172   0.565   4.231
 7165SOL     OW22393   6.994   0.928   2.713
 7165SOL    HW122394   6.937   0.965   2.639
 7165SOL    HW222395   6.938   0.868   2.770
 7166SOL     OW22396   4.886   2.013   0.930
 7166SOL    HW122397   4.874   2.112   0.933
 7166SOL    HW222398   4.854   1.977   0.842
 7167SOL     OW22399   5.584   3.343   4.553
 7167SOL    HW122400   5.640   3.351   4.635
 7167SOL    HW222401   5.643   3.348   4.472
 7168SOL     OW22402   1.936   2.623   2.979
 7168SOL    HW122403   2.015   2.619   3.040
 7168SOL    HW222404   1.933   2.541   2.922
 7169SOL     OW22405   0.728   3.169   5.914
 7169SOL    HW122406   0.811   3.129   5.875
 7169SOL    HW222407   0.652   3.155   5.851
 7170SOL     OW22408   5.327   6.459   3.857
 7170SOL    HW122409   5.317   6.383   3.793
 7170SOL    HW222410   5.351   6.424   3.948
 7171SOL     OW22411   6.520   3.803   0.119
 7171SOL    HW122412   6.595   3.744   0.150
 7171SOL    HW222413   6.433   3.756   0.135
 7172SOL     OW22414   1.078   6.959   5.054
 7172SOL    HW122415   0.988   6.945   5.013
 7172SOL    HW222416   1.149   6.932   4.990
 7173SOL     OW22417   6.649   4.271   6.675
 7173SOL    HW122418   6.661   4.230   6.765
 7173SOL    HW222419   6.737   4.300   6.639
 7174SOL     OW22420   1.625   3.580   0.537
 7174SOL    HW122421   1.569   3.516   0.589
 7174SOL    HW222422   1.576   3.607   0.454
 7175SOL     OW22423   5.734   2.923   6.653
 7175SOL    HW122424   5.715   2.899   6.558
 7175SOL    HW222425   5.697   2.852   6.713
 7176SOL     OW22426   6.819   0.828   3.179
 7176SOL    HW122427   6.835   0.866   3.270
 7176SOL    HW222428   6.739   0.872   3.138
 7177SOL     OW22429   1.399   4.965   4.785
 7177SOL    HW122430   1.360   4.968   4.693
 7177SOL    HW222431   1.407   5.059   4.820
 7178SOL     OW22432   0.470   1.656   5.889
 7178SOL    HW122433   0.539   1.588   5.914
 7178SOL    HW222434   0.380   1.613   5.886
 7179SOL     OW22435   2.200   3.103   4.197
 7179SOL    HW122436   2.205   3.098   4.297
 7179SOL    HW222437   2.274   3.048   4.157
 7180SOL     OW22438   1.916   5.314   0.463
 7180SOL    HW122439   1.915   5.402   0.415
 7180SOL    HW222440   1.985   5.255   0.422
 7181SOL     OW22441   2.093   0.553   0.505
 7181SOL    HW122442   2.085   0.650   0.525
 7181SOL    HW222443   2.091   0.538   0.406
 7182SOL     OW22444   0.439   3.268   4.972
 7182SOL    HW122445   0.521   3.254   5.027
 7182SOL    HW222446   0.463   3.318   4.889
 7183SOL     OW22447   1.545   5.776   1.205
 7183SOL    HW122448   1.477   5.780   1.278
 7183SOL    HW222449   1.538   5.688   1.157
 7184SOL     OW22450   6.555   1.013   3.389
 7184SOL    HW122451   6.508   0.935   3.347
 7184SOL    HW222452   6.489   1.068   3.440
 7185SOL     OW22453   5.656   0.234   4.675
 7185SOL    HW122454   5.569   0.187   4.664
 7185SOL    HW222455   5.653   0.293   4.756
 7186SOL     OW22456   6.310   1.791   1.515
 7186SOL    HW122457   6.398   1.743   1.512
 7186SOL    HW222458   6.257   1.758   1.593
 7187SOL     OW22459   3.745   4.461   6.046
 7187SOL    HW122460   3.748   4.379   5.988
 7187SOL    HW222461   3.708   4.537   5.993
 7188SOL     OW22462   5.496   0.273   0.036
 7188SOL    HW122463   5.428   0.345   0.050
 7188SOL    HW222464   5.475   0.222   6.973
 7189SOL     OW22465   6.167   0.833   5.124
 7189SOL    HW122466   6.168   0.905   5.194
 7189SOL    HW222467   6.255   0.787   5.123
 7190SOL     OW22468   0.129   4.005   2.289
 7190SOL    HW122469   0.220   3.976   2.318
 7190SOL    HW222470   0.099   3.949   2.212
 7191SOL     OW22471   1.617   5.364   2.629
 7191SOL    HW122472   1.552   5.384   2.554
 7191SOL    HW222473   1.585   5.408   2.712
 7192SOL     OW22474   2.739   4.761   5.682
 7192SOL    HW122475   2.793   4.698   5.627
 7192SOL    HW222476   2.757   4.745   5.779
 7193SOL     OW22477   1.149   2.729   2.792
 7193SOL    HW122478   1.200   2.720   2.877
 7193SOL    HW222479   1.168   2.817   2.749
 7194SOL     OW22480   2.722   2.797   1.091
 7194SOL    HW122481   2.662   2.718   1.103
 7194SOL    HW222482   2.681   2.877   1.134
 7195SOL     OW22483   1.434   4.373   0.005
 7195SOL    HW122484   1.498   4.379   0.081
 7195SOL    HW222485   1.415   4.277   7.005
 7196SOL     OW22486   2.649   4.094   1.331
 7196SOL    HW122487   2.565   4.040   1.336
 7196SOL    HW222488   2.632   4.177   1.279
 7197SOL     OW22489   0.571   2.254   6.247
 7197SOL    HW122490   0.607   2.166   6.216
 7197SOL    HW222491   0.647   2.312   6.276
 7198SOL     OW22492   0.220   0.895   0.799
 7198SOL    HW122493   0.230   0.970   0.865
 7198SOL    HW222494   0.188   0.931   0.711
 7199SOL     OW22495   1.735   0.913   2.266
 7199SOL    HW122496   1.784   0.890   2.182
 7199SOL    HW222497   1.663   0.979   2.245
 7200SOL     OW22498   2.460   2.666   6.794
 7200SOL    HW122499   2.468   2.616   6.708
 7200SOL    HW222500   2.536   2.731   6.802
 7201SOL     OW22501   0.629   5.941   4.255
 7201SOL    HW122502   0.549   5.883   4.266
 7201SOL    HW222503   0.700   5.911   4.319
 7202SOL     OW22504   5.395   7.009   0.136
 7202SOL    HW122505   5.443   0.040   0.208
 7202SOL    HW222506   5.364   6.922   0.173
 7203SOL     OW22507   0.412   1.627   0.692
 7203SOL    HW122508   0.452   1.603   0.604
 7203SOL    HW222509   0.462   1.579   0.765
 7204SOL     OW22510   0.078   0.189   5.664
 7204SOL    HW122511   0.044   0.097   5.680
 7204SOL    HW222512   0.013   0.239   5.607
 7205SOL     OW22513   1.227   4.145   4.243
 7205SOL    HW122514   1.192   4.186   4.327
 7205SOL    HW222515   1.322   4.171   4.230
 7206SOL     OW22516   1.668   0.993   1.726
 7206SOL    HW122517   1.599   1.065   1.729
 7206SOL    HW222518   1.625   0.905   1.710
 7207SOL     OW22519   3.876   0.711   2.587
 7207SOL    HW122520   3.813   0.695   2.664
 7207SOL    HW222521   3.914   0.803   2.594
 7208SOL     OW22522   4.287   6.770   3.841
 7208SOL    HW122523   4.360   6.819   3.794
 7208SOL    HW222524   4.265   6.686   3.791
 7209SOL     OW22525   2.606   3.466   1.739
 7209SOL    HW122526   2.532   3.470   1.806
 7209SOL    HW222527   2.681   3.410   1.774
 7210SOL     OW22528   4.460   1.248   3.393
 7210SOL    HW122529   4.441   1.334   3.346
 7210SOL    HW222530   4.511   1.267   3.477
 7211SOL     OW22531   2.603   0.015   4.660
 7211SOL    HW122532   2.665   0.066   4.600
 7211SOL    HW222533   2.533   6.992   4.605
 7212SOL     OW22534   0.230   6.415   4.963
 7212SOL    HW122535   0.187   6.504   4.970
 7212SOL    HW222536   0.189   6.352   5.029
 7213SOL     OW22537   4.601   5.739   0.096
 7213SOL    HW122538   4.660   5.820   0.094
 7213SOL    HW222539   4.643   5.668   0.152
 7214SOL     OW22540   6.409   6.744   5.373
 7214SOL    HW122541   6.391   6.665   5.314
 7214SOL    HW222542   6.363   6.824   5.335
 7215SOL     OW22543   6.757   3.646   4.524
 7215SOL    HW122544   6.785   3.607   4.611
 7215SOL    HW222545   6.828   3.630   4.456
 7216SOL     OW22546   2.955   0.198   0.132
 7216SOL    HW122547   2.995   0.220   0.221
 7216SOL    HW222548   2.948   0.098   0.123
 7217SOL     OW22549   2.143   4.010   3.670
 7217SOL    HW122550   2.182   4.042   3.584
 7217SOL    HW222551   2.136   3.910   3.669
 7218SOL     OW22552   5.443   3.081   5.358
 7218SOL    HW122553   5.431   3.102   5.261
 7218SOL    HW222554   5.391   2.999   5.381
 7219SOL     OW22555   4.891   0.123   3.260
 7219SOL    HW122556   4.920   0.212   3.294
 7219SOL    HW222557   4.879   0.060   3.336
 7220SOL     OW22558   1.254   4.589   5.182
 7220SOL    HW122559   1.341   4.592   5.232
 7220SOL    HW222560   1.257   4.654   5.106
 7221SOL     OW22561   3.756   6.056   4.489
 7221SOL    HW122562   3.659   6.076   4.476
 7221SOL    HW222563   3.766   5.971   4.541
 7222SOL     OW22564   6.078   6.882   3.487
 7222SOL    HW122565   6.010   6.843   3.549
 7222SOL    HW222566   6.090   6.822   3.408
 7223SOL     OW22567   2.440   1.395   0.635
 7223SOL    HW122568   2.471   1.385   0.730
 7223SOL    HW222569   2.459   1.310   0.585
 7224SOL     OW22570   5.386   1.534   3.976
 7224SOL    HW122571   5.320   1.595   3.932
 7224SOL    HW222572   5.339   1.454   4.012
 7225SOL     OW22573   0.633   5.488   0.750
 7225SOL    HW122574   0.570   5.491   0.673
 7225SOL    HW222575   0.679   5.399   0.753
 7226SOL     OW22576   6.424   1.566   1.977
 7226SOL    HW122577   6.398   1.472   1.999
 7226SOL    HW222578   6.363   1.602   1.906
 7227SOL     OW22579   1.858   2.135   1.120
 7227SOL    HW122580   1.934   2.110   1.180
 7227SOL    HW222581   1.825   2.226   1.144
 7228SOL     OW22582   0.992   2.365   2.975
 7228SOL    HW122583   0.907   2.317   2.951
 7228SOL    HW222584   1.062   2.344   2.908
 7229SOL     OW22585   1.166   6.134   5.295
 7229SOL    HW122586   1.218   6.201   5.347
 7229SOL    HW222587   1.211   6.117   5.208
 7230SOL     OW22588   3.336   5.366   4.250
 7230SOL    HW122589   3.306   5.446   4.302
 7230SOL    HW222590   3.420   5.330   4.292
 7231SOL     OW22591   3.962   0.997   6.691
 7231SOL    HW122592   3.913   1.069   6.641
 7231SOL    HW222593   3.899   0.949   6.751
 7232SOL     OW22594   5.313   6.193   3.195
 7232SOL    HW122595   5.399   6.199   3.144
 7232SOL    HW222596   5.329   6.221   3.290
 7233SOL     OW22597   1.056   1.962   3.598
 7233SOL    HW122598   1.070   1.896   3.672
 7233SOL    HW222599   0.998   2.037   3.630
 7234SOL     OW22600   5.489   2.777   4.145
 7234SOL    HW122601   5.493   2.876   4.136
 7234SOL    HW222602   5.427   2.752   4.220
 7235SOL     OW22603   6.947   4.950   2.448
 7235SOL    HW122604   7.013   5.024   2.458
 7235SOL    HW222605   6.923   4.914   2.539
 7236SOL     OW22606   2.137   2.307   1.958
 7236SOL    HW122607   2.092   2.223   1.930
 7236SOL    HW222608   2.215   2.325   1.899
 7237SOL     OW22609   4.014   0.273   5.039
 7237SOL    HW122610   4.066   0.232   4.964
 7237SOL    HW222611   4.052   0.243   5.126
 7238SOL     OW22612   3.490   1.795   0.251
 7238SOL    HW122613   3.410   1.845   0.218
 7238SOL    HW222614   3.570   1.854   0.247
 7239SOL     OW22615   1.364   2.541   2.680
 7239SOL    HW122616   1.331   2.477   2.610
 7239SOL    HW222617   1.287   2.573   2.735
 7240SOL     OW22618   1.197   6.956   5.923
 7240SOL    HW122619   1.297   6.962   5.912
 7240SOL    HW222620   1.152   6.993   5.842
 7241SOL     OW22621   1.254   0.663   1.170
 7241SOL    HW122622   1.283   0.570   1.191
 7241SOL    HW222623   1.333   0.718   1.142
 7242SOL     OW22624   6.567   6.056   0.334
 7242SOL    HW122625   6.568   5.977   0.272
 7242SOL    HW222626   6.661   6.089   0.347
 7243SOL     OW22627   6.714   4.586   6.453
 7243SOL    HW122628   6.735   4.497   6.492
 7243SOL    HW222629   6.758   4.657   6.509
 7244SOL     OW22630   6.197   1.126   1.765
 7244SOL    HW122631   6.160   1.081   1.846
 7244SOL    HW222632   6.150   1.092   1.684
 7245SOL     OW22633   0.567   2.392   5.561
 7245SOL    HW122634   0.663   2.364   5.553
 7245SOL    HW222635   0.509   2.330   5.508
 7246SOL     OW22636   0.071   0.115   4.155
 7246SOL    HW122637   0.110   0.191   4.207
 7246SOL    HW222638   0.076   0.137   4.057
 7247SOL     OW22639   2.015   0.740   4.257
 7247SOL    HW122640   2.075   0.797   4.201
 7247SOL    HW222641   2.070   0.690   4.324
 7248SOL     OW22642   2.261   1.131   3.423
 7248SOL    HW122643   2.215   1.145   3.510
 7248SOL    HW222644   2.360   1.133   3.437
 7249SOL     OW22645   6.337   4.919   2.446
 7249SOL    HW122646   6.401   4.859   2.400
 7249SOL    HW222647   6.288   4.974   2.378
 7250SOL     OW22648   4.726   6.695   6.015
 7250SOL    HW122649   4.756   6.600   6.010
 7250SOL    HW222650   4.730   6.736   5.924
 7251SOL     OW22651   0.538   6.655   5.763
 7251SOL    HW122652   0.573   6.562   5.777
 7251SOL    HW222653   0.444   6.660   5.797
 7252SOL     OW22654   3.832   3.498   2.570
 7252SOL    HW122655   3.776   3.573   2.534
 7252SOL    HW222656   3.916   3.535   2.609
 7253SOL     OW22657   1.740   6.195   6.601
 7253SOL    HW122658   1.717   6.126   6.533
 7253SOL    HW222659   1.658   6.248   6.623
 7254SOL     OW22660   4.677   5.199   4.336
 7254SOL    HW122661   4.668   5.232   4.242
 7254SOL    HW222662   4.647   5.103   4.340
 7255SOL     OW22663   2.897   4.050   1.431
 7255SOL    HW122664   2.958   4.126   1.412
 7255SOL    HW222665   2.803   4.076   1.407
 7256SOL     OW22666   3.340   5.043   4.140
 7256SOL    HW122667   3.320   4.968   4.203
 7256SOL    HW222668   3.387   5.116   4.190
 7257SOL     OW22669   6.025   2.888   3.613
 7257SOL    HW122670   6.099   2.922   3.554
 7257SOL    HW222671   5.947   2.862   3.556
 7258SOL     OW22672   4.046   1.465   3.883
 7258SOL    HW122673   4.123   1.529   3.881
 7258SOL    HW222674   3.994   1.478   3.967
 7259SOL     OW22675   2.994   3.806   1.343
 7259SOL    HW122676   2.981   3.741   1.418
 7259SOL    HW222677   2.982   3.899   1.377
 7260SOL     OW22678   3.709   1.670   1.822
 7260SOL    HW122679   3.631   1.707   1.872
 7260SOL    HW222680   3.690   1.673   1.723
 7261SOL     OW22681   1.564   2.727   1.521
 7261SOL    HW122682   1.498   2.745   1.448
 7261SOL    HW222683   1.576   2.628   1.531
 7262SOL     OW22684   4.964   1.894   5.516
 7262SOL    HW122685   4.865   1.893   5.502
 7262SOL    HW222686   5.002   1.804   5.492
 7263SOL     OW22687   0.701   0.514   0.700
 7263SOL    HW122688   0.725   0.423   0.666
 7263SOL    HW222689   0.621   0.548   0.651
 7264SOL     OW22690   5.835   1.974   6.590
 7264SOL    HW122691   5.763   2.042   6.604
 7264SOL    HW222692   5.835   1.944   6.495
 7265SOL     OW22693   5.539   5.723   5.879
 7265SOL    HW122694   5.583   5.711   5.790
 7265SOL    HW222695   5.580   5.660   5.945
 7266SOL     OW22696   5.556   6.965   1.378
 7266SOL    HW122697   5.554   6.954   1.279
 7266SOL    HW222698   5.642   6.929   1.414
 7267SOL     OW22699   6.561   5.795   5.275
 7267SOL    HW122700   6.625   5.866   5.245
 7267SOL    HW222701   6.474   5.806   5.228
 7268SOL     OW22702   5.345   5.109   3.699
 7268SOL    HW122703   5.408   5.075   3.629
 7268SOL    HW222704   5.392   5.174   3.759
 7269SOL     OW22705   0.486   6.804   0.145
 7269SOL    HW122706   0.467   6.886   0.199
 7269SOL    HW222707   0.493   6.829   0.048
 7270SOL     OW22708   1.560   3.404   5.510
 7270SOL    HW122709   1.631   3.418   5.578
 7270SOL    HW222710   1.505   3.487   5.501
 7271SOL     OW22711   0.525   6.078   2.902
 7271SOL    HW122712   0.527   6.053   2.999
 7271SOL    HW222713   0.509   6.177   2.894
 7272SOL     OW22714   5.499   5.669   1.910
 7272SOL    HW122715   5.476   5.574   1.892
 7272SOL    HW222716   5.456   5.728   1.842
 7273SOL     OW22717   5.664   4.997   1.952
 7273SOL    HW122718   5.587   5.002   2.014
 7273SOL    HW222719   5.686   4.901   1.933
 7274SOL     OW22720   1.036   6.007   6.629
 7274SOL    HW122721   1.053   5.983   6.533
 7274SOL    HW222722   1.004   5.926   6.678
 7275SOL     OW22723   7.008   6.879   2.894
 7275SOL    HW122724   0.025   6.812   2.958
 7275SOL    HW222725   6.990   6.965   2.942
 7276SOL     OW22726   3.848   1.750   2.559
 7276SOL    HW122727   3.825   1.722   2.465
 7276SOL    HW222728   3.925   1.813   2.556
 7277SOL     OW22729   4.814   0.268   3.561
 7277SOL    HW122730   4.791   0.191   3.621
 7277SOL    HW222731   4.793   0.354   3.606
 7278SOL     OW22732   3.177   2.743   1.163
 7278SOL    HW122733   3.100   2.722   1.104
 7278SOL    HW222734   3.233   2.661   1.176
 7279SOL     OW22735   3.772   3.974   5.868
 7279SOL    HW122736   3.859   3.939   5.901
 7279SOL    HW222737   3.752   3.935   5.778
 7280SOL     OW22738   0.013   2.226   3.989
 7280SOL    HW122739   0.009   2.233   3.889
 7280SOL    HW222740   6.964   2.161   4.020
 7281SOL     OW22741   1.447   1.275   0.670
 7281SOL    HW122742   1.547   1.276   0.678
 7281SOL    HW222743   1.422   1.256   0.575
 7282SOL     OW22744   5.791   6.063   1.315
 7282SOL    HW122745   5.833   6.074   1.225
 7282SOL    HW222746   5.847   6.110   1.384
 7283SOL     OW22747   4.053   0.719   1.937
 7283SOL    HW122748   4.048   0.682   1.844
 7283SOL    HW222749   4.071   0.817   1.932
 7284SOL     OW22750   6.857   2.155   5.724
 7284SOL    HW122751   6.801   2.077   5.753
 7284SOL    HW222752   6.806   2.209   5.656
 7285SOL     OW22753   5.679   3.156   2.170
 7285SOL    HW122754   5.644   3.223   2.105
 7285SOL    HW222755   5.708   3.203   2.254
 7286SOL     OW22756   1.027   0.778   1.315
 7286SOL    HW122757   0.974   0.693   1.310
 7286SOL    HW222758   1.107   0.771   1.255
 7287SOL     OW22759   6.333   2.924   5.553
 7287SOL    HW122760   6.300   2.836   5.518
 7287SOL    HW222761   6.362   2.913   5.649
 7288SOL     OW22762   1.714   2.052   1.642
 7288SOL    HW122763   1.727   2.092   1.733
 7288SOL    HW222764   1.617   2.053   1.619
 7289SOL     OW22765   5.533   2.409   4.174
 7289SOL    HW122766   5.568   2.463   4.098
 7289SOL    HW222767   5.585   2.323   4.180
 7290SOL     OW22768   2.326   1.184   5.053
 7290SOL    HW122769   2.367   1.240   4.981
 7290SOL    HW222770   2.287   1.243   5.124
 7291SOL     OW22771   1.521   0.114   0.236
 7291SOL    HW122772   1.596   0.138   0.175
 7291SOL    HW222773   1.496   0.195   0.291
 7292SOL     OW22774   3.189   0.368   3.198
 7292SOL    HW122775   3.205   0.418   3.283
 7292SOL    HW222776   3.195   0.270   3.216
 7293SOL     OW22777   0.754   2.037   4.935
 7293SOL    HW122778   0.799   1.948   4.944
 7293SOL    HW222779   0.800   2.090   4.864
 7294SOL     OW22780   3.073   5.008   0.340
 7294SOL    HW122781   2.975   4.989   0.342
 7294SOL    HW222782   3.094   5.081   0.405
 7295SOL     OW22783   6.503   4.303   0.800
 7295SOL    HW122784   6.436   4.301   0.726
 7295SOL    HW222785   6.538   4.397   0.810
 7296SOL     OW22786   4.179   5.752   1.844
 7296SOL    HW122787   4.216   5.830   1.794
 7296SOL    HW222788   4.109   5.783   1.908
 7297SOL     OW22789   2.899   6.591   1.204
 7297SOL    HW122790   2.952   6.584   1.120
 7297SOL    HW222791   2.919   6.677   1.250
 7298SOL     OW22792   4.612   5.305   5.907
 7298SOL    HW122793   4.549   5.229   5.893
 7298SOL    HW222794   4.575   5.388   5.864
 7299SOL     OW22795   1.017   2.433   0.790
 7299SOL    HW122796   1.110   2.468   0.798
 7299SOL    HW222797   1.017   2.350   0.733
 7300SOL     OW22798   0.395   0.126   2.331
 7300SOL    HW122799   0.413   0.059   2.260
 7300SOL    HW222800   0.302   0.114   2.367
 7301SOL     OW22801   5.568   2.295   4.920
 7301SOL    HW122802   5.534   2.385   4.893
 7301SOL    HW222803   5.653   2.276   4.871
 7302SOL     OW22804   0.131   2.417   6.080
 7302SOL    HW122805   0.098   2.411   6.174
 7302SOL    HW222806   0.074   2.361   6.020
 7303SOL     OW22807   3.355   1.214   0.402
 7303SOL    HW122808   3.321   1.306   0.416
 7303SOL    HW222809   3.426   1.215   0.332
 7304SOL     OW22810   2.884   4.901   1.612
 7304SOL    HW122811   2.845   4.913   1.704
 7304SOL    HW222812   2.817   4.931   1.544
 7305SOL     OW22813   5.216   1.538   1.592
 7305SOL    HW122814   5.164   1.514   1.510
 7305SOL    HW222815   5.161   1.600   1.649
 7306SOL     OW22816   3.933   1.927   1.683
 7306SOL    HW122817   3.902   1.963   1.771
 7306SOL    HW222818   3.890   1.980   1.609
 7307SOL     OW22819   3.450   6.587   2.341
 7307SOL    HW122820   3.458   6.672   2.393
 7307SOL    HW222821   3.426   6.512   2.404
 7308SOL     OW22822   6.453   1.754   4.571
 7308SOL    HW122823   6.392   1.676   4.585
 7308SOL    HW222824   6.515   1.762   4.649
 7309SOL     OW22825   3.805   5.566   1.470
 7309SOL    HW122826   3.850   5.545   1.557
 7309SOL    HW222827   3.708   5.582   1.486
 7310SOL     OW22828   1.855   3.880   6.958
 7310SOL    HW122829   1.904   3.830   0.009
 7310SOL    HW222830   1.820   3.815   6.890
 7311SOL     OW22831   1.672   1.926   1.099
 7311SOL    HW122832   1.725   2.010   1.110
 7311SOL    HW222833   1.731   1.847   1.119
 7312SOL     OW22834   0.926   2.683   4.783
 7312SOL    HW122835   0.964   2.645   4.699
 7312SOL    HW222836   0.992   2.745   4.824
 7313SOL     OW22837   1.961   1.425   0.505
 7313SOL    HW122838   2.059   1.446   0.496
 7313SOL    HW222839   1.922   1.481   0.578
 7314SOL     OW22840   0.142   3.967   6.522
 7314SOL    HW122841   0.048   3.938   6.541
 7314SOL    HW222842   0.205   3.897   6.554
 7315SOL     OW22843   5.164   5.561   1.601
 7315SOL    HW122844   5.153   5.661   1.597
 7315SOL    HW222845   5.256   5.539   1.634
 7316SOL     OW22846   3.051   3.269   6.329
 7316SOL    HW122847   3.093   3.178   6.333
 7316SOL    HW222848   3.081   3.323   6.408
 7317SOL     OW22849   4.207   1.938   1.363
 7317SOL    HW122850   4.152   1.860   1.394
 7317SOL    HW222851   4.177   2.021   1.411
 7318SOL     OW22852   3.058   0.198   2.260
 7318SOL    HW122853   3.046   0.283   2.208
 7318SOL    HW222854   2.971   0.149   2.264
 7319SOL     OW22855   6.016   3.789   6.901
 7319SOL    HW122856   6.057   3.698   6.906
 7319SOL    HW222857   6.086   3.858   6.918
 7320SOL     OW22858   0.628   3.720   1.625
 7320SOL    HW122859   0.634   3.754   1.531
 7320SOL    HW222860   0.532   3.715   1.652
 7321SOL     OW22861   1.959   6.629   5.789
 7321SOL    HW122862   1.998   6.661   5.875
 7321SOL    HW222863   1.969   6.701   5.719
 7322SOL     OW22864   6.440   2.920   2.607
 7322SOL    HW122865   6.416   3.017   2.609
 7322SOL    HW222866   6.357   2.864   2.598
 7323SOL     OW22867   2.359   3.055   1.582
 7323SOL    HW122868   2.315   2.988   1.521
 7323SOL    HW222869   2.316   3.144   1.571
 7324SOL     OW22870   5.494   5.141   1.535
 7324SOL    HW122871   5.564   5.155   1.606
 7324SOL    HW222872   5.406   5.175   1.569
 7325SOL     OW22873   2.562   0.040   6.327
 7325SOL    HW122874   2.463   0.025   6.327
 7325SOL    HW222875   2.581   0.138   6.321
 7326SOL     OW22876   3.364   6.184   6.263
 7326SOL    HW122877   3.389   6.181   6.360
 7326SOL    HW222878   3.358   6.091   6.227
 7327SOL     OW22879   6.109   2.432   5.357
 7327SOL    HW122880   6.098   2.469   5.449
 7327SOL    HW222881   6.183   2.479   5.310
 7328SOL     OW22882   4.596   0.019   6.052
 7328SOL    HW122883   4.521   6.976   6.069
 7328SOL    HW222884   4.678   7.009   6.101
 7329SOL     OW22885   0.668   4.347   0.608
 7329SOL    HW122886   0.680   4.265   0.664
 7329SOL    HW222887   0.585   4.395   0.635
 7330SOL     OW22888   2.426   3.514   0.290
 7330SOL    HW122889   2.371   3.440   0.328
 7330SOL    HW222890   2.523   3.493   0.304
 7331SOL     OW22891   5.341   6.567   0.611
 7331SOL    HW122892   5.360   6.481   0.563
 7331SOL    HW222893   5.287   6.627   0.551
 7332SOL     OW22894   3.332   5.351   0.253
 7332SOL    HW122895   3.246   5.384   0.291
 7332SOL    HW222896   3.362   5.411   0.179
 7333SOL     OW22897   6.256   3.083   3.123
 7333SOL    HW122898   6.241   3.042   3.032
 7333SOL    HW222899   6.230   3.179   3.120
 7334SOL     OW22900   1.380   6.447   6.309
 7334SOL    HW122901   1.374   6.492   6.220
 7334SOL    HW222902   1.318   6.369   6.312
 7335SOL     OW22903   0.205   3.305   3.199
 7335SOL    HW122904   0.207   3.311   3.299
 7335SOL    HW222905   0.295   3.277   3.165
 7336SOL     OW22906   2.309   6.925   2.341
 7336SOL    HW122907   2.354   6.908   2.428
 7336SOL    HW222908   2.228   6.867   2.333
 7337SOL     OW22909   1.502   2.963   2.084
 7337SOL    HW122910   1.533   2.979   2.178
 7337SOL    HW222911   1.552   3.024   2.022
 7338SOL     OW22912   5.474   1.207   1.832
 7338SOL    HW122913   5.415   1.269   1.883
 7338SOL    HW222914   5.481   1.119   1.880
 7339SOL     OW22915   5.919   0.389   5.166
 7339SOL    HW122916   5.908   0.311   5.104
 7339SOL    HW222917   5.901   0.474   5.116
 7340SOL     OW22918   3.099   1.516   0.017
 7340SOL    HW122919   3.044   1.447   6.991
 7340SOL    HW222920   3.039   1.576   0.070
 7341SOL     OW22921   0.933   4.420   4.721
 7341SOL    HW122922   0.945   4.340   4.662
 7341SOL    HW222923   0.991   4.411   4.802
 7342SOL     OW22924   0.324   6.982   5.914
 7342SOL    HW122925   0.266   0.030   5.871
 7342SOL    HW222926   0.393   0.007   5.971
 7343SOL     OW22927   5.627   4.394   1.702
 7343SOL    HW122928   5.594   4.370   1.793
 7343SOL    HW222929   5.645   4.492   1.698
 7344SOL     OW22930   1.073   0.647   5.940
 7344SOL    HW122931   0.978   0.651   5.973
 7344SOL    HW222932   1.130   0.708   5.994
 7345SOL     OW22933   4.993   5.712   5.270
 7345SOL    HW122934   5.079   5.757   5.245
 7345SOL    HW222935   5.004   5.664   5.357
 7346SOL     OW22936   4.820   3.989   1.801
 7346SOL    HW122937   4.797   4.079   1.763
 7346SOL    HW222938   4.766   3.919   1.755
 7347SOL     OW22939   0.642   3.104   1.249
 7347SOL    HW122940   0.686   3.044   1.183
 7347SOL    HW222941   0.544   3.083   1.252
 7348SOL     OW22942   1.102   3.860   3.431
 7348SOL    HW122943   1.025   3.822   3.380
 7348SOL    HW222944   1.185   3.807   3.411
 7349SOL     OW22945   4.395   2.024   0.292
 7349SOL    HW122946   4.338   2.104   0.308
 7349SOL    HW222947   4.414   2.015   0.194
 7350SOL     OW22948   1.932   2.991   5.546
 7350SOL    HW122949   1.994   3.059   5.506
 7350SOL    HW222950   1.902   2.927   5.474
 7351SOL     OW22951   4.782   6.083   5.395
 7351SOL    HW122952   4.824   6.148   5.332
 7351SOL    HW222953   4.841   6.071   5.475
 7352SOL     OW22954   1.874   2.970   3.123
 7352SOL    HW122955   1.915   3.055   3.155
 7352SOL    HW222956   1.793   2.949   3.178
 7353SOL     OW22957   0.731   0.170   5.829
 7353SOL    HW122958   0.681   0.230   5.891
 7353SOL    HW222959   0.673   0.091   5.806
 7354SOL     OW22960   0.521   1.883   6.631
 7354SOL    HW122961   0.484   1.828   6.705
 7354SOL    HW222962   0.616   1.856   6.613
 7355SOL     OW22963   2.252   1.070   0.483
 7355SOL    HW122964   2.163   1.111   0.502
 7355SOL    HW222965   2.254   0.976   0.515
 7356SOL     OW22966   3.779   3.381   5.984
 7356SOL    HW122967   3.697   3.378   6.041
 7356SOL    HW222968   3.754   3.356   5.890
 7357SOL     OW22969   4.262   6.657   1.625
 7357SOL    HW122970   4.293   6.679   1.717
 7357SOL    HW222971   4.333   6.604   1.578
 7358SOL     OW22972   6.685   3.299   3.024
 7358SOL    HW122973   6.714   3.276   2.931
 7358SOL    HW222974   6.741   3.248   3.090
 7359SOL     OW22975   2.386   2.444   6.293
 7359SOL    HW122976   2.319   2.474   6.226
 7359SOL    HW222977   2.353   2.462   6.385
 7360SOL     OW22978   3.445   4.368   5.969
 7360SOL    HW122979   3.413   4.299   5.903
 7360SOL    HW222980   3.502   4.324   6.038
 7361SOL     OW22981   4.863   0.167   1.550
 7361SOL    HW122982   4.951   0.121   1.544
 7361SOL    HW222983   4.794   0.112   1.503
 7362SOL     OW22984   1.099   5.078   4.329
 7362SOL    HW122985   1.110   5.068   4.427
 7362SOL    HW222986   1.007   5.114   4.309
 7363SOL     OW22987   4.296   1.223   1.181
 7363SOL    HW122988   4.238   1.242   1.260
 7363SOL    HW222989   4.338   1.308   1.149
 7364SOL     OW22990   4.547   0.747   1.167
 7364SOL    HW122991   4.548   0.719   1.071
 7364SOL    HW222992   4.517   0.842   1.175
 7365SOL     OW22993   1.676   0.109   1.523
 7365SOL    HW122994   1.674   0.146   1.430
 7365SOL    HW222995   1.739   0.164   1.578
 7366SOL     OW22996   2.196   5.617   0.041
 7366SOL    HW122997   2.190   5.599   6.963
 7366SOL    HW222998   2.152   5.704   0.061
 7367SOL     OW22999   5.151   3.607   1.143
 7367SOL    HW123000   5.085   3.540   1.177
 7367SOL    HW223001   5.228   3.559   1.100
 7368SOL     OW23002   3.671   2.963   3.312
 7368SOL    HW123003   3.585   3.012   3.302
 7368SOL    HW223004   3.716   2.990   3.397
 7369SOL     OW23005   3.957   2.661   6.702
 7369SOL    HW123006   3.975   2.599   6.625
 7369SOL    HW223007   4.020   2.738   6.697
 7370SOL     OW23008   2.217   0.782   4.881
 7370SOL    HW123009   2.232   0.862   4.823
 7370SOL    HW223010   2.274   0.707   4.849
 7371SOL     OW23011   1.925   6.142   3.786
 7371SOL    HW123012   1.987   6.092   3.726
 7371SOL    HW223013   1.943   6.240   3.779
 7372SOL     OW23014   4.460   1.358   4.980
 7372SOL    HW123015   4.470   1.259   4.995
 7372SOL    HW223016   4.430   1.401   5.065
 7373SOL     OW23017   5.752   1.385   4.498
 7373SOL    HW123018   5.807   1.311   4.535
 7373SOL    HW223019   5.713   1.439   4.573
 7374SOL     OW23020   2.916   1.397   5.314
 7374SOL    HW123021   2.869   1.392   5.402
 7374SOL    HW223022   2.855   1.435   5.245
 7375SOL     OW23023   2.137   3.484   3.453
 7375SOL    HW123024   2.119   3.389   3.428
 7375SOL    HW223025   2.170   3.534   3.373
 7376SOL     OW23026   3.349   1.896   0.035
 7376SOL    HW123027   3.315   1.921   6.966
 7376SOL    HW223028   3.449   1.885   0.030
 7377SOL     OW23029   5.589   4.157   0.420
 7377SOL    HW123030   5.493   4.167   0.447
 7377SOL    HW223031   5.620   4.064   0.442
 7378SOL     OW23032   0.390   1.011   5.752
 7378SOL    HW123033   0.406   0.954   5.832
 7378SOL    HW223034   0.475   1.018   5.699
 7379SOL     OW23035   3.292   2.081   2.847
 7379SOL    HW123036   3.379   2.046   2.882
 7379SOL    HW223037   3.229   2.006   2.833
 7380SOL     OW23038   0.394   3.804   5.136
 7380SOL    HW123039   0.330   3.731   5.157
 7380SOL    HW223040   0.351   3.870   5.074
 7381SOL     OW23041   4.472   3.559   1.610
 7381SOL    HW123042   4.520   3.475   1.635
 7381SOL    HW223043   4.498   3.585   1.517
 7382SOL     OW23044   0.207   5.754   6.311
 7382SOL    HW123045   0.122   5.802   6.332
 7382SOL    HW223046   0.229   5.768   6.214
 7383SOL     OW23047   1.036   6.771   1.275
 7383SOL    HW123048   1.092   6.748   1.355
 7383SOL    HW223049   1.018   6.689   1.222
 7384SOL     OW23050   5.776   0.804   3.601
 7384SOL    HW123051   5.840   0.742   3.555
 7384SOL    HW223052   5.826   0.883   3.636
 7385SOL     OW23053   4.397   5.575   1.935
 7385SOL    HW123054   4.313   5.621   1.908
 7385SOL    HW223055   4.476   5.633   1.911
 7386SOL     OW23056   0.330   2.113   5.546
 7386SOL    HW123057   0.345   2.094   5.643
 7386SOL    HW223058   0.410   2.083   5.494
 7387SOL     OW23059   4.781   6.131   4.430
 7387SOL    HW123060   4.818   6.201   4.368
 7387SOL    HW223061   4.816   6.148   4.523
 7388SOL     OW23062   0.219   4.983   2.605
 7388SOL    HW123063   0.268   4.980   2.691
 7388SOL    HW223064   0.185   4.892   2.582
 7389SOL     OW23065   0.545   3.343   6.334
 7389SOL    HW123066   0.545   3.432   6.289
 7389SOL    HW223067   0.488   3.347   6.416
 7390SOL     OW23068   1.829   2.112   0.252
 7390SOL    HW123069   1.873   2.187   0.303
 7390SOL    HW223070   1.900   2.057   0.207
 7391SOL     OW23071   4.169   3.637   4.924
 7391SOL    HW123072   4.123   3.689   4.852
 7391SOL    HW223073   4.246   3.691   4.960
 7392SOL     OW23074   2.540   6.076   6.921
 7392SOL    HW123075   2.578   6.012   6.853
 7392SOL    HW223076   2.520   6.163   6.877
 7393SOL     OW23077   5.266   4.766   2.551
 7393SOL    HW123078   5.239   4.674   2.523
 7393SOL    HW223079   5.344   4.796   2.496
 7394SOL     OW23080   3.194   2.006   5.412
 7394SOL    HW123081   3.111   1.971   5.456
 7394SOL    HW223082   3.271   1.946   5.434
 7395SOL     OW23083   1.949   2.421   6.971
 7395SOL    HW123084   1.903   2.500   7.011
 7395SOL    HW223085   2.011   2.452   6.899
 7396SOL     OW23086   1.305   6.842   0.462
 7396SOL    HW123087   1.370   6.765   0.468
 7396SOL    HW223088   1.310   6.882   0.371
 7397SOL     OW23089   4.472   5.174   5.099
 7397SOL    HW123090   4.405   5.139   5.165
 7397SOL    HW223091   4.505   5.264   5.129
 7398SOL     OW23092   2.425   4.735   4.274
 7398SOL    HW123093   2.468   4.790   4.345
 7398SOL    HW223094   2.459   4.641   4.280
 7399SOL     OW23095   0.809   2.159   5.654
 7399SOL    HW123096   0.743   2.161   5.579
 7399SOL    HW223097   0.836   2.065   5.673
 7400SOL     OW23098   4.216   2.767   5.841
 7400SOL    HW123099   4.155   2.815   5.778
 7400SOL    HW223100   4.295   2.825   5.862
 7401SOL     OW23101   1.590   0.672   4.671
 7401SOL    HW123102   1.549   0.762   4.654
 7401SOL    HW223103   1.670   0.660   4.612
 7402SOL     OW23104   2.784   5.866   6.099
 7402SOL    HW123105   2.816   5.781   6.139
 7402SOL    HW223106   2.788   5.860   5.999
 7403SOL     OW23107   2.176   3.822   2.397
 7403SOL    HW123108   2.259   3.829   2.452
 7403SOL    HW223109   2.120   3.746   2.431
 7404SOL     OW23110   2.078   5.194   1.136
 7404SOL    HW123111   2.073   5.117   1.073
 7404SOL    HW223112   2.095   5.278   1.085
 7405SOL     OW23113   3.633   5.111   4.010
 7405SOL    HW123114   3.542   5.079   4.039
 7405SOL    HW223115   3.624   5.161   3.924
 7406SOL     OW23116   0.207   3.328   3.475
 7406SOL    HW123117   0.200   3.240   3.521
 7406SOL    HW223118   0.303   3.356   3.470
 7407SOL     OW23119   0.420   6.312   4.255
 7407SOL    HW123120   0.473   6.227   4.249
 7407SOL    HW223121   0.374   6.316   4.343
 7408SOL     OW23122   2.545   4.102   6.386
 7408SOL    HW123123   2.515   4.043   6.461
 7408SOL    HW223124   2.587   4.185   6.424
 7409SOL     OW23125   0.178   1.585   5.884
 7409SOL    HW123126   0.116   1.520   5.840
 7409SOL    HW223127   0.127   1.646   5.944
 7410SOL     OW23128   0.410   6.960   0.583
 7410SOL    HW123129   0.340   7.019   0.623
 7410SOL    HW223130   0.375   6.867   0.577
 7411SOL     OW23131   2.619   0.037   5.229
 7411SOL    HW123132   2.568   6.973   5.217
 7411SOL    HW223133   2.710   0.027   5.189
 7412SOL     OW23134   5.051   0.022   1.836
 7412SOL    HW123135   5.022   0.110   1.872
 7412SOL    HW223136   4.971   6.983   1.825
 7413SOL     OW23137   4.944   5.816   4.413
 7413SOL    HW123138   4.948   5.785   4.318
 7413SOL    HW223139   4.975   5.911   4.419
 7414SOL     OW23140   6.986   0.305   3.567
 7414SOL    HW123141   7.012   0.278   3.474
 7414SOL    HW223142   6.891   0.333   3.567
 7415SOL     OW23143   1.810   4.461   4.376
 7415SOL    HW123144   1.742   4.434   4.309
 7415SOL    HW223145   1.767   4.468   4.466
 7416SOL     OW23146   2.089   1.598   3.264
 7416SOL    HW123147   1.995   1.630   3.279
 7416SOL    HW223148   2.153   1.665   3.300
 7417SOL     OW23149   1.894   0.594   0.113
 7417SOL    HW123150   1.896   0.502   0.154
 7417SOL    HW223151   1.811   0.642   0.141
 7418SOL     OW23152   3.103   5.560   1.127
 7418SOL    HW123153   3.108   5.660   1.119
 7418SOL    HW223154   3.078   5.536   1.220
 7419SOL     OW23155   5.526   2.818   5.198
 7419SOL    HW123156   5.553   2.819   5.102
 7419SOL    HW223157   5.606   2.807   5.256
 7420SOL     OW23158   0.702   6.942   1.591
 7420SOL    HW123159   0.719   6.934   1.493
 7420SOL    HW223160   0.674   0.015   1.612
 7421SOL     OW23161   3.626   4.082   0.797
 7421SOL    HW123162   3.534   4.043   0.796
 7421SOL    HW223163   3.693   4.008   0.800
 7422SOL     OW23164   6.827   3.228   2.808
 7422SOL    HW123165   6.916   3.273   2.819
 7422SOL    HW223166   6.840   3.129   2.806
 7423SOL     OW23167   6.012   3.872   5.601
 7423SOL    HW123168   6.101   3.863   5.556
 7423SOL    HW223169   6.026   3.892   5.698
 7424SOL     OW23170   6.835   6.823   5.884
 7424SOL    HW123171   6.791   6.741   5.922
 7424SOL    HW223172   6.865   6.804   5.791
 7425SOL     OW23173   4.201   5.059   6.845
 7425SOL    HW123174   4.207   4.980   6.906
 7425SOL    HW223175   4.216   5.143   6.898
 7426SOL     OW23176   2.220   1.124   5.790
 7426SOL    HW123177   2.296   1.155   5.733
 7426SOL    HW223178   2.135   1.130   5.739
 7427SOL     OW23179   4.031   0.244   4.036
 7427SOL    HW123180   4.090   0.260   4.115
 7427SOL    HW223181   4.072   0.174   3.978
 7428SOL     OW23182   3.483   1.438   6.135
 7428SOL    HW123183   3.457   1.343   6.119
 7428SOL    HW223184   3.525   1.447   6.225
 7429SOL     OW23185   0.077   6.741   3.792
 7429SOL    HW123186   0.120   6.791   3.717
 7429SOL    HW223187   0.027   6.663   3.755
 7430SOL     OW23188   0.747   2.975   0.094
 7430SOL    HW123189   0.666   2.922   0.069
 7430SOL    HW223190   0.811   2.977   0.017
 7431SOL     OW23191   0.870   2.625   2.904
 7431SOL    HW123192   0.952   2.679   2.885
 7431SOL    HW223193   0.896   2.542   2.954
 7432SOL     OW23194   1.121   0.838   3.214
 7432SOL    HW123195   1.144   0.766   3.150
 7432SOL    HW223196   1.203   0.865   3.265
 7433SOL     OW23197   4.526   5.485   6.288
 7433SOL    HW123198   4.548   5.392   6.258
 7433SOL    HW223199   4.595   5.516   6.353
 7434SOL     OW23200   5.082   6.360   6.073
 7434SOL    HW123201   5.118   6.400   6.157
 7434SOL    HW223202   5.032   6.429   6.021
 7435SOL     OW23203   4.101   5.646   0.734
 7435SOL    HW123204   4.016   5.604   0.702
 7435SOL    HW223205   4.131   5.715   0.669
 7436SOL     OW23206   5.893   3.719   6.320
 7436SOL    HW123207   5.936   3.655   6.384
 7436SOL    HW223208   5.828   3.670   6.263
 7437SOL     OW23209   1.063   6.360   6.943
 7437SOL    HW123210   1.157   6.343   6.913
 7437SOL    HW223211   1.006   6.283   6.916
 7438SOL     OW23212   1.203   5.618   0.110
 7438SOL    HW123213   1.272   5.629   0.181
 7438SOL    HW223214   1.124   5.571   0.148
 7439SOL     OW23215   1.607   5.661   5.429
 7439SOL    HW123216   1.633   5.738   5.372
 7439SOL    HW223217   1.599   5.691   5.524
 7440SOL     OW23218   0.111   3.868   4.480
 7440SOL    HW123219   0.104   3.783   4.428
 7440SOL    HW223220   0.067   3.857   4.568
 7441SOL     OW23221   5.504   6.131   4.010
 7441SOL    HW123222   5.444   6.057   4.042
 7441SOL    HW223223   5.547   6.104   3.924
 7442SOL     OW23224   6.352   1.038   5.794
 7442SOL    HW123225   6.255   1.031   5.819
 7442SOL    HW223226   6.392   1.120   5.836
 7443SOL     OW23227   0.083   0.133   2.026
 7443SOL    HW123228   7.019   0.159   2.072
 7443SOL    HW223229   0.143   0.213   2.021
 7444SOL     OW23230   6.118   2.779   5.751
 7444SOL    HW123231   6.020   2.763   5.758
 7444SOL    HW223232   6.160   2.707   5.695
 7445SOL     OW23233   3.855   1.400   1.530
 7445SOL    HW123234   3.826   1.403   1.625
 7445SOL    HW223235   3.794   1.339   1.479
 7446SOL     OW23236   5.860   3.461   1.106
 7446SOL    HW123237   5.947   3.424   1.073
 7446SOL    HW223238   5.784   3.419   1.056
 7447SOL     OW23239   0.965   3.182   6.407
 7447SOL    HW123240   0.874   3.200   6.445
 7447SOL    HW223241   0.968   3.209   6.311
 7448SOL     OW23242   7.016   6.172   5.444
 7448SOL    HW123243   6.925   6.139   5.419
 7448SOL    HW223244   0.039   6.105   5.504
 7449SOL     OW23245   6.372   3.418   1.833
 7449SOL    HW123246   6.414   3.372   1.911
 7449SOL    HW223247   6.290   3.466   1.862
 7450SOL     OW23248   5.176   2.066   4.392
 7450SOL    HW123249   5.116   2.126   4.340
 7450SOL    HW223250   5.231   2.010   4.330
 7451SOL     OW23251   0.043   0.450   3.076
 7451SOL    HW123252   0.056   0.545   3.105
 7451SOL    HW223253   0.076   0.438   2.983
 7452SOL     OW23254   0.328   6.315   4.494
 7452SOL    HW123255   0.415   6.363   4.510
 7452SOL    HW223256   0.260   6.346   4.561
 7453SOL     OW23257   4.622   0.024   5.772
 7453SOL    HW123258   4.620   0.023   5.872
 7453SOL    HW223259   4.528   0.020   5.737
 7454SOL     OW23260   0.380   2.498   2.692
 7454SOL    HW123261   0.471   2.526   2.724
 7454SOL    HW223262   0.386   2.466   2.598
 7455SOL     OW23263   0.074   1.600   2.282
 7455SOL    HW123264   0.166   1.599   2.244
 7455SOL    HW223265   0.058   1.515   2.333
 7456SOL     OW23266   0.868   1.240   4.253
 7456SOL    HW123267   0.787   1.297   4.266
 7456SOL    HW223268   0.949   1.290   4.284
 7457SOL     OW23269   3.819   0.183   5.805
 7457SOL    HW123270   3.898   0.224   5.852
 7457SOL    HW223271   3.750   0.253   5.790
 7458SOL     OW23272   1.706   6.591   5.838
 7458SOL    HW123273   1.683   6.496   5.814
 7458SOL    HW223274   1.802   6.608   5.816
 7459SOL     OW23275   4.458   0.498   1.766
 7459SOL    HW123276   4.528   0.570   1.756
 7459SOL    HW223277   4.484   0.437   1.841
 7460SOL     OW23278   0.903   5.347   0.603
 7460SOL    HW123279   0.970   5.392   0.663
 7460SOL    HW223280   0.914   5.381   0.510
 7461SOL     OW23281   5.908   1.179   5.957
 7461SOL    HW123282   5.858   1.172   6.044
 7461SOL    HW223283   5.853   1.230   5.891
 7462SOL     OW23284   1.973   3.786   2.706
 7462SOL    HW123285   1.953   3.874   2.662
 7462SOL    HW223286   1.974   3.714   2.637
 7463SOL     OW23287   2.223   4.508   1.136
 7463SOL    HW123288   2.171   4.442   1.082
 7463SOL    HW223289   2.180   4.598   1.129
 7464SOL     OW23290   4.887   0.452   6.672
 7464SOL    HW123291   4.816   0.475   6.606
 7464SOL    HW223292   4.862   0.368   6.720
 7465SOL     OW23293   0.642   5.501   0.085
 7465SOL    HW123294   0.562   5.486   0.027
 7465SOL    HW223295   0.675   5.413   0.121
 7466SOL     OW23296   0.031   0.771   5.450
 7466SOL    HW123297   0.104   0.744   5.387
 7466SOL    HW223298   0.061   0.849   5.505
 7467SOL     OW23299   0.274   1.787   0.968
 7467SOL    HW123300   0.356   1.753   1.015
 7467SOL    HW223301   0.261   1.884   0.988
 7468SOL     OW23302   5.682   2.743   3.730
 7468SOL    HW123303   5.682   2.779   3.636
 7468SOL    HW223304   5.776   2.737   3.764
 7469SOL     OW23305   0.071   1.142   0.772
 7469SOL    HW123306   0.149   1.203   0.757
 7469SOL    HW223307   7.012   1.177   0.722
 7470SOL     OW23308   6.703   3.662   4.214
 7470SOL    HW123309   6.654   3.609   4.145
 7470SOL    HW223310   6.661   3.648   4.303
 7471SOL     OW23311   6.681   5.864   6.063
 7471SOL    HW123312   6.747   5.939   6.068
 7471SOL    HW223313   6.660   5.844   5.967
 7472SOL     OW23314   6.324   6.834   4.880
 7472SOL    HW123315   6.295   6.787   4.796
 7472SOL    HW223316   6.321   6.933   4.866
 7473SOL     OW23317   6.137   5.237   3.221
 7473SOL    HW123318   6.188   5.168   3.170
 7473SOL    HW223319   6.180   5.250   3.311
 7474SOL     OW23320   1.449   1.410   5.443
 7474SOL    HW123321   1.501   1.471   5.501
 7474SOL    HW223322   1.429   1.325   5.493
 7475SOL     OW23323   4.867   1.862   2.083
 7475SOL    HW123324   4.795   1.923   2.116
 7475SOL    HW223325   4.828   1.794   2.022
 7476SOL     OW23326   3.495   6.736   4.066
 7476SOL    HW123327   3.580   6.783   4.043
 7476SOL    HW223328   3.487   6.652   4.012
 7477SOL     OW23329   0.474   0.810   4.930
 7477SOL    HW123330   0.483   0.802   5.029
 7477SOL    HW223331   0.393   0.865   4.908
 7478SOL     OW23332   4.988   5.527   6.445
 7478SOL    HW123333   5.007   5.541   6.543
 7478SOL    HW223334   5.031   5.600   6.392
 7479SOL     OW23335   4.628   2.184   1.838
 7479SOL    HW123336   4.552   2.123   1.818
 7479SOL    HW223337   4.605   2.277   1.808
 7480SOL     OW23338   0.461   4.091   1.846
 7480SOL    HW123339   0.367   4.078   1.814
 7480SOL    HW223340   0.489   4.011   1.900
 7481SOL     OW23341   6.071   4.960   1.304
 7481SOL    HW123342   6.100   4.949   1.209
 7481SOL    HW223343   5.987   5.013   1.307
 7482SOL     OW23344   4.604   2.109   3.000
 7482SOL    HW123345   4.619   2.060   2.914
 7482SOL    HW223346   4.649   2.059   3.074
 7483SOL     OW23347   4.551   2.627   4.634
 7483SOL    HW123348   4.529   2.612   4.537
 7483SOL    HW223349   4.632   2.685   4.641
 7484SOL     OW23350   1.906   0.631   3.610
 7484SOL    HW123351   1.900   0.637   3.710
 7484SOL    HW223352   1.989   0.582   3.585
 7485SOL     OW23353   4.070   0.218   4.755
 7485SOL    HW123354   3.988   0.201   4.701
 7485SOL    HW223355   4.136   0.269   4.700
 7486SOL     OW23356   2.127   0.180   0.709
 7486SOL    HW123357   2.043   0.200   0.760
 7486SOL    HW223358   2.195   0.141   0.771
 7487SOL     OW23359   2.299   6.515   2.833
 7487SOL    HW123360   2.374   6.457   2.863
 7487SOL    HW223361   2.222   6.505   2.896
 7488SOL     OW23362   2.346   6.894   3.830
 7488SOL    HW123363   2.371   6.983   3.870
 7488SOL    HW223364   2.273   6.908   3.763
 7489SOL     OW23365   4.799   2.319   5.384
 7489SOL    HW123366   4.785   2.360   5.294
 7489SOL    HW223367   4.883   2.355   5.425
 7490SOL     OW23368   1.138   0.942   1.869
 7490SOL    HW123369   1.059   1.000   1.852
 7490SOL    HW223370   1.171   0.956   1.963
 7491SOL     OW23371   5.580   2.148   6.106
 7491SOL    HW123372   5.620   2.231   6.144
 7491SOL    HW223373   5.483   2.143   6.132
 7492SOL     OW23374   2.032   0.432   2.950
 7492SOL    HW123375   2.019   0.464   3.044
 7492SOL    HW223376   2.116   0.378   2.944
 7493SOL     OW23377   0.329   3.787   6.586
 7493SOL    HW123378   0.353   3.747   6.498
 7493SOL    HW223379   0.372   3.734   6.660
 7494SOL     OW23380   4.884   0.971   2.619
 7494SOL    HW123381   4.794   0.960   2.661
 7494SOL    HW223382   4.890   1.060   2.574
 7495SOL     OW23383   2.012   1.616   0.010
 7495SOL    HW123384   2.002   1.649   0.104
 7495SOL    HW223385   2.108   1.623   7.003
 7496SOL     OW23386   5.870   3.423   5.926
 7496SOL    HW123387   5.888   3.387   5.835
 7496SOL    HW223388   5.942   3.394   5.989
 7497SOL     OW23389   2.224   4.291   7.011
 7497SOL    HW123390   2.304   4.267   6.956
 7497SOL    HW223391   2.195   4.384   6.990
 7498SOL     OW23392   2.859   0.649   5.659
 7498SOL    HW123393   2.762   0.646   5.635
 7498SOL    HW223394   2.914   0.647   5.575
 7499SOL     OW23395   3.354   1.643   2.935
 7499SOL    HW123396   3.329   1.555   2.977
 7499SOL    HW223397   3.401   1.625   2.848
 7500SOL     OW23398   3.129   5.150   3.078
 7500SOL    HW123399   3.112   5.183   2.986
 7500SOL    HW223400   3.185   5.067   3.074
 7501SOL     OW23401   5.549   4.258   4.638
 7501SOL    HW123402   5.528   4.351   4.669
 7501SOL    HW223403   5.567   4.260   4.540
 7502SOL     OW23404   1.730   0.611   3.987
 7502SOL    HW123405   1.816   0.634   3.942
 7502SOL    HW223406   1.722   0.512   3.996
 7503SOL     OW23407   2.294   0.835   1.349
 7503SOL    HW123408   2.291   0.935   1.340
 7503SOL    HW223409   2.378   0.809   1.396
 7504SOL     OW23410   1.487   0.086   2.731
 7504SOL    HW123411   1.521   0.180   2.725
 7504SOL    HW223412   1.402   0.085   2.783
 7505SOL     OW23413   2.109   1.462   5.448
 7505SOL    HW123414   2.157   1.513   5.378
 7505SOL    HW223415   2.129   1.501   5.538
 7506SOL     OW23416   5.719   0.721   3.055
 7506SOL    HW123417   5.637   0.727   3.113
 7506SOL    HW223418   5.696   0.748   2.962
 7507SOL     OW23419   0.501   1.189   2.439
 7507SOL    HW123420   0.583   1.226   2.396
 7507SOL    HW223421   0.525   1.149   2.528
 7508SOL     OW23422   1.143   7.001   1.391
 7508SOL    HW123423   1.144   6.940   1.311
 7508SOL    HW223424   1.078   6.965   1.459
 7509SOL     OW23425   5.335   4.190   0.489
 7509SOL    HW123426   5.298   4.126   0.556
 7509SOL    HW223427   5.266   4.207   0.418
 7510SOL     OW23428   4.039   3.811   5.398
 7510SOL    HW123429   3.996   3.807   5.488
 7510SOL    HW223430   4.050   3.906   5.370
 7511SOL     OW23431   2.705   6.616   4.122
 7511SOL    HW123432   2.636   6.556   4.080
 7511SOL    HW223433   2.784   6.623   4.061
 7512SOL     OW23434   3.059   6.386   6.489
 7512SOL    HW123435   3.018   6.474   6.512
 7512SOL    HW223436   3.061   6.375   6.390
 7513SOL     OW23437   2.684   0.916   1.655
 7513SOL    HW123438   2.667   1.009   1.622
 7513SOL    HW223439   2.686   0.916   1.755
 7514SOL     OW23440   2.534   6.237   1.916
 7514SOL    HW123441   2.474   6.180   1.860
 7514SOL    HW223442   2.503   6.332   1.911
 7515SOL     OW23443   6.968   5.070   2.885
 7515SOL    HW123444   0.039   5.098   2.911
 7515SOL    HW223445   6.923   5.145   2.836
 7516SOL     OW23446   6.755   6.705   5.162
 7516SOL    HW123447   6.776   6.803   5.153
 7516SOL    HW223448   6.742   6.683   5.259
 7517SOL     OW23449   0.285   2.835   0.934
 7517SOL    HW123450   0.246   2.744   0.921
 7517SOL    HW223451   0.300   2.851   1.031
 7518SOL     OW23452   4.131   4.797   4.176
 7518SOL    HW123453   4.182   4.742   4.110
 7518SOL    HW223454   4.158   4.771   4.268
 7519SOL     OW23455   0.511   6.762   3.186
 7519SOL    HW123456   0.473   6.704   3.258
 7519SOL    HW223457   0.598   6.724   3.155
 7520SOL     OW23458   2.291   0.176   2.278
 7520SOL    HW123459   2.304   0.077   2.271
 7520SOL    HW223460   2.322   0.208   2.368
 7521SOL     OW23461   4.814   4.281   6.212
 7521SOL    HW123462   4.830   4.286   6.114
 7521SOL    HW223463   4.853   4.196   6.248
 7522SOL     OW23464   1.571   0.775   6.236
 7522SOL    HW123465   1.634   0.849   6.211
 7522SOL    HW223466   1.502   0.810   6.300
 7523SOL     OW23467   5.977   0.382   5.572
 7523SOL    HW123468   6.018   0.452   5.514
 7523SOL    HW223469   5.936   0.424   5.653
 7524SOL     OW23470   1.415   2.092   5.476
 7524SOL    HW123471   1.361   2.025   5.426
 7524SOL    HW223472   1.454   2.158   5.412
 7525SOL     OW23473   3.065   0.639   6.226
 7525SOL    HW123474   3.072   0.602   6.319
 7525SOL    HW223475   2.981   0.605   6.183
 7526SOL     OW23476   2.861   3.347   2.100
 7526SOL    HW123477   2.861   3.424   2.163
 7526SOL    HW223478   2.906   3.269   2.142
 7527SOL     OW23479   2.998   5.927   2.971
 7527SOL    HW123480   3.018   5.844   3.022
 7527SOL    HW223481   3.065   5.937   2.896
 7528SOL     OW23482   5.473   1.964   0.150
 7528SOL    HW123483   5.446   2.018   0.230
 7528SOL    HW223484   5.569   1.981   0.129
 7529SOL     OW23485   4.862   1.278   4.593
 7529SOL    HW123486   4.944   1.297   4.647
 7529SOL    HW223487   4.821   1.192   4.624
 7530SOL     OW23488   6.907   2.940   2.824
 7530SOL    HW123489   6.894   2.908   2.918
 7530SOL    HW223490   6.833   2.905   2.767
 7531SOL     OW23491   5.152   3.181   4.790
 7531SOL    HW123492   5.159   3.247   4.715
 7531SOL    HW223493   5.056   3.164   4.810
 7532SOL     OW23494   5.192   5.552   6.900
 7532SOL    HW123495   5.243   5.622   6.950
 7532SOL    HW223496   5.254   5.478   6.875
 7533SOL     OW23497   2.500   1.577   1.914
 7533SOL    HW123498   2.549   1.540   1.835
 7533SOL    HW223499   2.407   1.543   1.914
 7534SOL     OW23500   4.503   6.173   5.520
 7534SOL    HW123501   4.593   6.140   5.493
 7534SOL    HW223502   4.494   6.269   5.493
 7535SOL     OW23503   1.649   0.230   4.866
 7535SOL    HW123504   1.686   0.180   4.944
 7535SOL    HW223505   1.703   0.208   4.784
 7536SOL     OW23506   4.753   4.652   4.759
 7536SOL    HW123507   4.654   4.648   4.747
 7536SOL    HW223508   4.797   4.663   4.670
 7537SOL     OW23509   2.995   5.683   2.246
 7537SOL    HW123510   2.928   5.685   2.321
 7537SOL    HW223511   3.026   5.776   2.226
 7538SOL     OW23512   2.152   3.553   1.245
 7538SOL    HW123513   2.207   3.540   1.162
 7538SOL    HW223514   2.195   3.623   1.302
 7539SOL     OW23515   1.363   3.811   4.305
 7539SOL    HW123516   1.320   3.901   4.291
 7539SOL    HW223517   1.413   3.811   4.391
 7540SOL     OW23518   3.883   0.376   4.402
 7540SOL    HW123519   3.949   0.427   4.347
 7540SOL    HW223520   3.855   0.431   4.481
 7541SOL     OW23521   0.375   4.730   5.084
 7541SOL    HW123522   0.282   4.698   5.067
 7541SOL    HW223523   0.388   4.744   5.182
 7542SOL     OW23524   1.095   5.216   6.513
 7542SOL    HW123525   1.002   5.218   6.551
 7542SOL    HW223526   1.115   5.123   6.481
 7543SOL     OW23527   3.546   1.845   6.533
 7543SOL    HW123528   3.513   1.932   6.496
 7543SOL    HW223529   3.495   1.822   6.616
 7544SOL     OW23530   6.613   2.581   2.909
 7544SOL    HW123531   6.608   2.681   2.914
 7544SOL    HW223532   6.686   2.549   2.969
 7545SOL     OW23533   0.194   5.722   1.063
 7545SOL    HW123534   0.170   5.819   1.057
 7545SOL    HW223535   0.292   5.711   1.046
 7546SOL     OW23536   3.465   2.115   1.766
 7546SOL    HW123537   3.463   2.076   1.858
 7546SOL    HW223538   3.540   2.181   1.760
 7547SOL     OW23539   5.363   1.074   0.930
 7547SOL    HW123540   5.410   1.161   0.947
 7547SOL    HW223541   5.408   1.001   0.981
 7548SOL     OW23542   4.367   1.179   7.008
 7548SOL    HW123543   4.404   1.265   6.974
 7548SOL    HW223544   4.293   1.149   6.948
 7549SOL     OW23545   4.494   2.693   0.573
 7549SOL    HW123546   4.533   2.626   0.636
 7549SOL    HW223547   4.532   2.679   0.481
 7550SOL     OW23548   2.494   5.088   2.431
 7550SOL    HW123549   2.520   5.048   2.344
 7550SOL    HW223550   2.554   5.165   2.452
 7551SOL     OW23551   5.728   3.622   6.110
 7551SOL    HW123552   5.768   3.691   6.050
 7551SOL    HW223553   5.731   3.533   6.064
 7552SOL     OW23554   1.446   6.351   2.715
 7552SOL    HW123555   1.514   6.317   2.650
 7552SOL    HW223556   1.355   6.347   2.673
 7553SOL     OW23557   4.373   6.309   5.738
 7553SOL    HW123558   4.450   6.349   5.786
 7553SOL    HW223559   4.406   6.240   5.673
 7554SOL     OW23560   4.762   1.233   0.352
 7554SOL    HW123561   4.663   1.224   0.340
 7554SOL    HW223562   4.782   1.315   0.405
 7555SOL     OW23563   2.229   4.752   5.895
 7555SOL    HW123564   2.222   4.721   5.989
 7555SOL    HW223565   2.301   4.822   5.887
 7556SOL     OW23566   2.091   3.122   0.186
 7556SOL    HW123567   2.169   3.121   0.249
 7556SOL    HW223568   2.018   3.180   0.224
 7557SOL     OW23569   5.354   0.800   5.417
 7557SOL    HW123570   5.274   0.758   5.373
 7557SOL    HW223571   5.325   0.880   5.468
 7558SOL     OW23572   1.292   2.661   4.078
 7558SOL    HW123573   1.213   2.704   4.033
 7558SOL    HW223574   1.333   2.727   4.141
 7559SOL     OW23575   5.024   3.394   0.005
 7559SOL    HW123576   4.973   3.333   6.964
 7559SOL    HW223577   5.097   3.439   6.974
 7560SOL     OW23578   5.407   0.215   0.837
 7560SOL    HW123579   5.406   0.246   0.932
 7560SOL    HW223580   5.364   0.285   0.779
 7561SOL     OW23581   0.953   3.605   6.993
 7561SOL    HW123582   0.907   3.551   0.043
 7561SOL    HW223583   0.965   3.699   0.006
 7562SOL     OW23584   0.235   6.679   4.007
 7562SOL    HW123585   0.183   6.722   3.934
 7562SOL    HW223586   0.221   6.580   4.004
 7563SOL     OW23587   3.194   0.305   1.201
 7563SOL    HW123588   3.137   0.321   1.121
 7563SOL    HW223589   3.281   0.352   1.191
 7564SOL     OW23590   4.794   0.275   3.003
 7564SOL    HW123591   4.851   0.206   2.958
 7564SOL    HW223592   4.818   0.280   3.100
 7565SOL     OW23593   5.265   3.448   0.421
 7565SOL    HW123594   5.283   3.448   0.520
 7565SOL    HW223595   5.166   3.449   0.405
 7566SOL     OW23596   6.169   4.830   2.790
 7566SOL    HW123597   6.237   4.757   2.779
 7566SOL    HW223598   6.077   4.790   2.791
 7567SOL     OW23599   2.036   2.034   4.541
 7567SOL    HW123600   2.086   2.118   4.556
 7567SOL    HW223601   2.056   1.999   4.449
 7568SOL     OW23602   5.310   5.978   3.016
 7568SOL    HW123603   5.311   6.047   3.088
 7568SOL    HW223604   5.364   5.899   3.044
 7569SOL     OW23605   3.768   4.930   6.068
 7569SOL    HW123606   3.840   4.891   6.011
 7569SOL    HW223607   3.805   4.955   6.157
 7570SOL     OW23608   5.532   3.313   5.465
 7570SOL    HW123609   5.482   3.235   5.426
 7570SOL    HW223610   5.610   3.335   5.406
 7571SOL     OW23611   4.127   5.172   3.350
 7571SOL    HW123612   4.050   5.230   3.378
 7571SOL    HW223613   4.122   5.085   3.399
 7572SOL     OW23614   4.801   1.020   1.230
 7572SOL    HW123615   4.759   1.003   1.319
 7572SOL    HW223616   4.747   0.974   1.159
 7573SOL     OW23617   0.257   0.501   5.377
 7573SOL    HW123618   0.214   0.478   5.465
 7573SOL    HW223619   0.351   0.465   5.377
 7574SOL     OW23620   5.031   0.176   5.470
 7574SOL    HW123621   4.980   0.260   5.454
 7574SOL    HW223622   5.129   0.195   5.461
 7575SOL     OW23623   4.955   0.255   6.132
 7575SOL    HW123624   5.022   0.323   6.104
 7575SOL    HW223625   4.877   0.257   6.069
 7576SOL     OW23626   4.465   4.222   6.884
 7576SOL    HW123627   4.473   4.321   6.896
 7576SOL    HW223628   4.454   4.179   6.974
 7577SOL     OW23629   0.694   6.747   6.990
 7577SOL    HW123630   0.775   6.693   6.968
 7577SOL    HW223631   0.716   6.812   0.043
 7578SOL     OW23632   1.778   5.127   1.204
 7578SOL    HW123633   1.762   5.143   1.106
 7578SOL    HW223634   1.693   5.140   1.254
 7579SOL     OW23635   0.410   1.134   1.943
 7579SOL    HW123636   0.440   1.093   2.029
 7579SOL    HW223637   0.357   1.068   1.891
 7580SOL     OW23638   0.499   3.968   4.222
 7580SOL    HW123639   0.488   3.870   4.236
 7580SOL    HW223640   0.516   4.013   4.310
 7581SOL     OW23641   6.998   1.139   1.271
 7581SOL    HW123642   0.054   1.081   1.242
 7581SOL    HW223643   6.935   1.085   1.326
 7582SOL     OW23644   4.022   1.206   1.740
 7582SOL    HW123645   4.105   1.258   1.719
 7582SOL    HW223646   3.955   1.267   1.782
 7583SOL     OW23647   6.074   3.385   2.120
 7583SOL    HW123648   6.036   3.299   2.085
 7583SOL    HW223649   6.103   3.373   2.214
 7584SOL     OW23650   3.310   0.057   1.257
 7584SOL    HW123651   3.255   0.140   1.252
 7584SOL    HW223652   3.260   7.002   1.216
 7585SOL     OW23653   1.602   2.919   6.620
 7585SOL    HW123654   1.515   2.925   6.572
 7585SOL    HW223655   1.675   2.953   6.561
 7586SOL     OW23656   2.700   0.269   3.548
 7586SOL    HW123657   2.709   0.202   3.622
 7586SOL    HW223658   2.771   0.339   3.558
 7587SOL     OW23659   2.293   2.860   6.913
 7587SOL    HW123660   2.352   2.815   6.846
 7587SOL    HW223661   2.232   2.792   6.954
 7588SOL     OW23662   1.561   3.066   3.577
 7588SOL    HW123663   1.603   3.084   3.665
 7588SOL    HW223664   1.466   3.039   3.590
 7589SOL     OW23665   0.962   0.754   2.353
 7589SOL    HW123666   0.870   0.753   2.390
 7589SOL    HW223667   1.024   0.798   2.418
 7590SOL     OW23668   3.762   1.745   5.906
 7590SOL    HW123669   3.677   1.774   5.862
 7590SOL    HW223670   3.743   1.667   5.966
 7591SOL     OW23671   7.014   3.423   0.686
 7591SOL    HW123672   6.966   3.415   0.599
 7591SOL    HW223673   0.074   3.364   0.685
 7592SOL     OW23674   6.495   4.940   4.641
 7592SOL    HW123675   6.538   4.851   4.631
 7592SOL    HW223676   6.401   4.929   4.674
 7593SOL     OW23677   6.040   3.292   0.911
 7593SOL    HW123678   6.012   3.358   0.841
 7593SOL    HW223679   5.971   3.220   0.918
 7594SOL     OW23680   1.411   5.113   2.499
 7594SOL    HW123681   1.346   5.189   2.500
 7594SOL    HW223682   1.454   5.104   2.589
 7595SOL     OW23683   6.257   2.903   6.060
 7595SOL    HW123684   6.211   2.973   6.007
 7595SOL    HW223685   6.336   2.869   6.009
 7596SOL     OW23686   3.694   5.363   3.893
 7596SOL    HW123687   3.723   5.448   3.938
 7596SOL    HW223688   3.745   5.286   3.932
 7597SOL     OW23689   2.428   6.227   2.556
 7597SOL    HW123690   2.516   6.192   2.588
 7597SOL    HW223691   2.444   6.308   2.499
 7598SOL     OW23692   0.273   1.109   3.474
 7598SOL    HW123693   0.238   1.122   3.567
 7598SOL    HW223694   0.210   1.152   3.409
 7599SOL     OW23695   5.552   2.258   2.129
 7599SOL    HW123696   5.463   2.216   2.150
 7599SOL    HW223697   5.625   2.203   2.167
 7600SOL     OW23698   1.407   1.748   2.998
 7600SOL    HW123699   1.446   1.802   3.073
 7600SOL    HW223700   1.472   1.744   2.923
 7601SOL     OW23701   2.058   5.374   2.632
 7601SOL    HW123702   2.000   5.363   2.713
 7601SOL    HW223703   2.001   5.392   2.552
 7602SOL     OW23704   2.163   4.062   6.442
 7602SOL    HW123705   2.153   3.976   6.392
 7602SOL    HW223706   2.195   4.043   6.535
 7603SOL     OW23707   1.479   5.978   6.365
 7603SOL    HW123708   1.427   6.022   6.292
 7603SOL    HW223709   1.439   6.004   6.454
 7604SOL     OW23710   2.165   3.831   4.618
 7604SOL    HW123711   2.139   3.842   4.523
 7604SOL    HW223712   2.242   3.892   4.639
 7605SOL     OW23713   1.361   0.416   1.333
 7605SOL    HW123714   1.277   0.411   1.386
 7605SOL    HW223715   1.382   0.327   1.294
 7606SOL     OW23716   5.893   4.043   5.045
 7606SOL    HW123717   5.834   4.053   5.125
 7606SOL    HW223718   5.884   3.950   5.008
 7607SOL     OW23719   3.477   5.692   0.339
 7607SOL    HW123720   3.437   5.649   0.420
 7607SOL    HW223721   3.425   5.774   0.316
 7608SOL     OW23722   3.921   3.922   1.837
 7608SOL    HW123723   3.838   3.914   1.782
 7608SOL    HW223724   4.000   3.929   1.776
 7609SOL     OW23725   1.298   3.278   4.494
 7609SOL    HW123726   1.393   3.306   4.485
 7609SOL    HW223727   1.257   3.271   4.403
 7610SOL     OW23728   4.651   4.899   6.115
 7610SOL    HW123729   4.614   4.844   6.189
 7610SOL    HW223730   4.733   4.947   6.147
 7611SOL     OW23731   6.105   3.538   1.903
 7611SOL    HW123732   6.110   3.488   1.989
 7611SOL    HW223733   6.033   3.607   1.908
 7612SOL     OW23734   4.686   2.759   3.145
 7612SOL    HW123735   4.628   2.839   3.161
 7612SOL    HW223736   4.647   2.705   3.071
 7613SOL     OW23737   6.623   2.771   0.869
 7613SOL    HW123738   6.704   2.829   0.856
 7613SOL    HW223739   6.543   2.817   0.830
 7614SOL     OW23740   4.872   3.307   0.272
 7614SOL    HW123741   4.859   3.302   0.173
 7614SOL    HW223742   4.916   3.394   0.295
 7615SOL     OW23743   3.807   5.633   0.725
 7615SOL    HW123744   3.804   5.554   0.663
 7615SOL    HW223745   3.831   5.602   0.817
 7616SOL     OW23746   5.672   6.169   4.699
 7616SOL    HW123747   5.579   6.197   4.725
 7616SOL    HW223748   5.673   6.147   4.601
 7617SOL     OW23749   3.981   5.639   2.453
 7617SOL    HW123750   4.035   5.710   2.499
 7617SOL    HW223751   4.036   5.599   2.380
 7618SOL     OW23752   6.874   1.206   5.345
 7618SOL    HW123753   6.814   1.165   5.414
 7618SOL    HW223754   6.905   1.136   5.282
 7619SOL     OW23755   5.856   2.930   5.422
 7619SOL    HW123756   5.807   2.842   5.419
 7619SOL    HW223757   5.822   2.984   5.499
 7620SOL     OW23758   4.035   5.842   0.998
 7620SOL    HW123759   3.993   5.903   0.931
 7620SOL    HW223760   4.034   5.748   0.963
 7621SOL     OW23761   6.740   1.418   1.344
 7621SOL    HW123762   6.838   1.433   1.335
 7621SOL    HW223763   6.717   1.405   1.441
 7622SOL     OW23764   4.576   5.027   6.956
 7622SOL    HW123765   4.523   5.082   0.001
 7622SOL    HW223766   4.518   4.953   6.921
 7623SOL     OW23767   4.517   4.271   0.231
 7623SOL    HW123768   4.552   4.193   0.180
 7623SOL    HW223769   4.593   4.329   0.261
 7624SOL     OW23770   7.010   3.212   4.815
 7624SOL    HW123771   6.945   3.259   4.874
 7624SOL    HW223772   0.068   3.270   4.799
 7625SOL     OW23773   4.542   0.258   1.529
 7625SOL    HW123774   4.460   0.296   1.571
 7625SOL    HW223775   4.621   0.315   1.553
 7626SOL     OW23776   5.965   0.266   4.217
 7626SOL    HW123777   5.964   0.327   4.296
 7626SOL    HW223778   5.940   0.174   4.246
 7627SOL     OW23779   4.808   3.284   6.676
 7627SOL    HW123780   4.712   3.260   6.665
 7627SOL    HW223781   4.831   3.359   6.614
 7628SOL     OW23782   3.496   2.025   2.021
 7628SOL    HW123783   3.582   2.077   2.020
 7628SOL    HW223784   3.434   2.064   2.089
 7629SOL     OW23785   0.028   6.217   3.093
 7629SOL    HW123786   6.961   6.186   3.130
 7629SOL    HW223787   0.041   6.179   3.001
 7630SOL     OW23788   0.314   6.906   1.362
 7630SOL    HW123789   0.319   6.996   1.320
 7630SOL    HW223790   0.405   6.867   1.370
 7631SOL     OW23791   0.910   1.216   5.825
 7631SOL    HW123792   0.828   1.266   5.799
 7631SOL    HW223793   0.931   1.148   5.755
 7632SOL     OW23794   4.246   3.358   1.388
 7632SOL    HW123795   4.172   3.419   1.418
 7632SOL    HW223796   4.224   3.322   1.298
 7633SOL     OW23797   5.262   0.735   1.038
 7633SOL    HW123798   5.287   0.660   1.100
 7633SOL    HW223799   5.185   0.786   1.077
 7634SOL     OW23800   1.855   2.032   2.480
 7634SOL    HW123801   1.907   2.071   2.557
 7634SOL    HW223802   1.897   1.945   2.453
 7635SOL     OW23803   3.121   5.255   5.033
 7635SOL    HW123804   3.128   5.297   5.123
 7635SOL    HW223805   3.087   5.161   5.042
 7636SOL     OW23806   1.598   2.899   3.958
 7636SOL    HW123807   1.694   2.924   3.971
 7636SOL    HW223808   1.581   2.811   4.004
 7637SOL     OW23809   1.769   5.086   2.317
 7637SOL    HW123810   1.684   5.045   2.284
 7637SOL    HW223811   1.780   5.177   2.277
 7638SOL     OW23812   2.490   6.191   1.222
 7638SOL    HW123813   2.566   6.137   1.187
 7638SOL    HW223814   2.519   6.286   1.233
 7639SOL     OW23815   0.934   2.156   0.624
 7639SOL    HW123816   1.017   2.117   0.585
 7639SOL    HW223817   0.879   2.198   0.551
 7640SOL     OW23818   2.345   0.948   6.148
 7640SOL    HW123819   2.363   0.955   6.050
 7640SOL    HW223820   2.344   0.852   6.175
 7641SOL     OW23821   1.596   4.030   2.573
 7641SOL    HW123822   1.569   3.987   2.487
 7641SOL    HW223823   1.533   4.002   2.646
 7642SOL     OW23824   3.608   1.496   2.937
 7642SOL    HW123825   3.605   1.455   2.846
 7642SOL    HW223826   3.598   1.425   3.006
 7643SOL     OW23827   4.684   2.346   3.144
 7643SOL    HW123828   4.668   2.428   3.089
 7643SOL    HW223829   4.626   2.272   3.111
 7644SOL     OW23830   5.660   1.390   1.852
 7644SOL    HW123831   5.612   1.304   1.835
 7644SOL    HW223832   5.612   1.441   1.924
 7645SOL     OW23833   4.699   3.639   5.638
 7645SOL    HW123834   4.774   3.705   5.629
 7645SOL    HW223835   4.694   3.583   5.555
 7646SOL     OW23836   1.574   3.629   3.499
 7646SOL    HW123837   1.547   3.687   3.576
 7646SOL    HW223838   1.568   3.533   3.526
 7647SOL     OW23839   6.618   2.843   3.231
 7647SOL    HW123840   6.663   2.771   3.284
 7647SOL    HW223841   6.526   2.815   3.207
 7648SOL     OW23842   3.305   0.985   3.131
 7648SOL    HW123843   3.217   0.937   3.138
 7648SOL    HW223844   3.302   1.049   3.054
 7649SOL     OW23845   0.679   0.884   3.008
 7649SOL    HW123846   0.741   0.879   3.086
 7649SOL    HW223847   0.588   0.855   3.035
 7650SOL     OW23848   5.103   1.260   0.605
 7650SOL    HW123849   5.196   1.296   0.590
 7650SOL    HW223850   5.041   1.336   0.627
 7651SOL     OW23851   2.123   0.487   3.579
 7651SOL    HW123852   2.200   0.518   3.522
 7651SOL    HW223853   2.153   0.480   3.674
 7652SOL     OW23854   6.164   3.225   5.637
 7652SOL    HW123855   6.222   3.155   5.595
 7652SOL    HW223856   6.217   3.310   5.648
 7653SOL     OW23857   1.215   1.586   0.061
 7653SOL    HW123858   1.266   1.666   0.027
 7653SOL    HW223859   1.204   1.520   7.009
 7654SOL     OW23860   4.790   2.999   4.385
 7654SOL    HW123861   4.761   2.908   4.354
 7654SOL    HW223862   4.743   3.021   4.470
 7655SOL     OW23863   4.509   6.587   3.033
 7655SOL    HW123864   4.420   6.589   3.078
 7655SOL    HW223865   4.518   6.504   2.979
 7656SOL     OW23866   3.170   3.840   6.078
 7656SOL    HW123867   3.089   3.831   6.020
 7656SOL    HW223868   3.249   3.805   6.029
 7657SOL     OW23869   1.437   2.517   3.895
 7657SOL    HW123870   1.429   2.577   3.816
 7657SOL    HW223871   1.369   2.543   3.964
 7658SOL     OW23872   4.189   6.608   6.187
 7658SOL    HW123873   4.185   6.661   6.271
 7658SOL    HW223874   4.136   6.523   6.198
 7659SOL     OW23875   5.858   4.692   6.250
 7659SOL    HW123876   5.921   4.718   6.323
 7659SOL    HW223877   5.838   4.772   6.194
 7660SOL     OW23878   0.055   5.959   3.687
 7660SOL    HW123879   0.154   5.962   3.696
 7660SOL    HW223880   0.014   6.034   3.739
 7661SOL     OW23881   5.589   2.429   5.190
 7661SOL    HW123882   5.592   2.399   5.095
 7661SOL    HW223883   5.667   2.390   5.239
 7662SOL     OW23884   0.919   2.910   3.410
 7662SOL    HW123885   0.895   2.970   3.334
 7662SOL    HW223886   0.939   2.965   3.492
 7663SOL     OW23887   0.312   5.072   5.101
 7663SOL    HW123888   0.333   4.978   5.074
 7663SOL    HW223889   0.366   5.135   5.046
 7664SOL     OW23890   3.966   0.240   1.594
 7664SOL    HW123891   3.969   0.313   1.663
 7664SOL    HW223892   3.943   0.154   1.638
 7665SOL     OW23893   6.165   0.288   4.941
 7665SOL    HW123894   6.178   0.350   4.863
 7665SOL    HW223895   6.067   0.269   4.952
 7666SOL     OW23896   0.793   5.470   1.756
 7666SOL    HW123897   0.701   5.437   1.776
 7666SOL    HW223898   0.813   5.457   1.659
 7667SOL     OW23899   4.339   6.988   2.146
 7667SOL    HW123900   4.379   0.054   2.177
 7667SOL    HW223901   4.394   6.952   2.071
 7668SOL     OW23902   3.613   4.700   0.361
 7668SOL    HW123903   3.571   4.746   0.283
 7668SOL    HW223904   3.557   4.715   0.442
 7669SOL     OW23905   4.405   1.265   4.606
 7669SOL    HW123906   4.447   1.188   4.654
 7669SOL    HW223907   4.467   1.298   4.535
 7670SOL     OW23908   0.619   4.736   0.293
 7670SOL    HW123909   0.527   4.752   0.256
 7670SOL    HW223910   0.615   4.734   0.393
 7671SOL     OW23911   4.577   1.040   1.417
 7671SOL    HW123912   4.511   1.020   1.344
 7671SOL    HW223913   4.529   1.079   1.495
 7672SOL     OW23914   0.378   6.734   2.203
 7672SOL    HW123915   0.418   6.824   2.189
 7672SOL    HW223916   0.399   6.675   2.125
 7673SOL     OW23917   1.512   6.525   0.704
 7673SOL    HW123918   1.603   6.483   0.705
 7673SOL    HW223919   1.502   6.586   0.783
 7674SOL     OW23920   5.602   1.035   3.282
 7674SOL    HW123921   5.686   1.069   3.324
 7674SOL    HW223922   5.586   0.941   3.310
 7675SOL     OW23923   6.198   6.852   2.173
 7675SOL    HW123924   6.170   6.758   2.192
 7675SOL    HW223925   6.272   6.853   2.106
 7676SOL     OW23926   3.000   2.183   0.889
 7676SOL    HW123927   3.079   2.190   0.950
 7676SOL    HW223928   3.006   2.098   0.837
 7677SOL     OW23929   0.280   4.841   1.651
 7677SOL    HW123930   0.227   4.796   1.723
 7677SOL    HW223931   0.327   4.920   1.688
 7678SOL     OW23932   1.656   3.231   5.129
 7678SOL    HW123933   1.559   3.218   5.151
 7678SOL    HW223934   1.699   3.143   5.111
 7679SOL     OW23935   3.240   6.058   5.640
 7679SOL    HW123936   3.165   6.123   5.650
 7679SOL    HW223937   3.300   6.087   5.565
 7680SOL     OW23938   0.818   1.109   6.980
 7680SOL    HW123939   0.800   1.175   0.032
 7680SOL    HW223940   0.739   1.049   6.969
 7681SOL     OW23941   3.085   1.130   1.003
 7681SOL    HW123942   3.098   1.207   0.941
 7681SOL    HW223943   3.173   1.086   1.020
 7682SOL     OW23944   3.314   0.322   2.119
 7682SOL    HW123945   3.330   0.334   2.217
 7682SOL    HW223946   3.395   0.281   2.077
 7683SOL     OW23947   5.683   2.029   4.477
 7683SOL    HW123948   5.617   2.094   4.515
 7683SOL    HW223949   5.736   1.987   4.551
 7684SOL     OW23950   2.802   1.914   1.744
 7684SOL    HW123951   2.863   1.990   1.766
 7684SOL    HW223952   2.857   1.835   1.714
 7685SOL     OW23953   2.451   2.006   5.887
 7685SOL    HW123954   2.484   2.077   5.949
 7685SOL    HW223955   2.351   2.003   5.891
 7686SOL     OW23956   6.867   6.430   3.181
 7686SOL    HW123957   6.953   6.459   3.138
 7686SOL    HW223958   6.812   6.380   3.114
 7687SOL     OW23959   5.955   4.847   3.425
 7687SOL    HW123960   6.019   4.781   3.388
 7687SOL    HW223961   5.962   4.848   3.525
 7688SOL     OW23962   0.744   6.126   5.171
 7688SOL    HW123963   0.660   6.158   5.128
 7688SOL    HW223964   0.734   6.029   5.192
 7689SOL     OW23965   5.393   6.519   2.504
 7689SOL    HW123966   5.424   6.424   2.507
 7689SOL    HW223967   5.441   6.567   2.430
 7690SOL     OW23968   5.372   5.174   0.128
 7690SOL    HW123969   5.464   5.146   0.100
 7690SOL    HW223970   5.366   5.273   0.129
 7691SOL     OW23971   5.396   3.994   4.678
 7691SOL    HW123972   5.458   4.071   4.662
 7691SOL    HW223973   5.370   3.954   4.590
 7692SOL     OW23974   0.653   6.327   1.698
 7692SOL    HW123975   0.564   6.288   1.676
 7692SOL    HW223976   0.709   6.332   1.615
 7693SOL     OW23977   3.082   6.611   1.606
 7693SOL    HW123978   3.169   6.621   1.655
 7693SOL    HW223979   3.007   6.637   1.667
 7694SOL     OW23980   5.678   3.793   4.490
 7694SOL    HW123981   5.713   3.859   4.424
 7694SOL    HW223982   5.718   3.811   4.580
 7695SOL     OW23983   5.067   0.281   0.511
 7695SOL    HW123984   5.025   0.222   0.580
 7695SOL    HW223985   5.141   0.334   0.553
 7696SOL     OW23986   0.558   0.725   5.645
 7696SOL    HW123987   0.548   0.818   5.610
 7696SOL    HW223988   0.654   0.707   5.667
 7697SOL     OW23989   2.452   6.880   2.560
 7697SOL    HW123990   2.509   6.800   2.541
 7697SOL    HW223991   2.418   6.875   2.654
 7698SOL     OW23992   5.813   1.068   4.015
 7698SOL    HW123993   5.732   1.117   4.047
 7698SOL    HW223994   5.872   1.047   4.093
 7699SOL     OW23995   3.507   5.443   6.658
 7699SOL    HW123996   3.571   5.368   6.672
 7699SOL    HW223997   3.439   5.418   6.588
 7700SOL     OW23998   4.430   5.938   2.968
 7700SOL    HW123999   4.446   5.947   3.066
 7700SOL    HW224000   4.352   5.994   2.941
 7701SOL     OW24001   6.140   2.241   0.719
 7701SOL    HW124002   6.062   2.185   0.745
 7701SOL    HW224003   6.224   2.201   0.756
 7702SOL     OW24004   3.032   6.352   5.092
 7702SOL    HW124005   3.130   6.337   5.076
 7702SOL    HW224006   3.003   6.300   5.172
 7703SOL     OW24007   6.852   6.169   6.453
 7703SOL    HW124008   6.776   6.105   6.439
 7703SOL    HW224009   6.825   6.238   6.521
 7704SOL     OW24010   5.914   6.686   4.658
 7704SOL    HW124011   5.992   6.640   4.700
 7704SOL    HW224012   5.944   6.772   4.617
 7705SOL     OW24013   2.760   6.010   0.558
 7705SOL    HW124014   2.703   6.030   0.478
 7705SOL    HW224015   2.726   6.060   0.637
 7706SOL     OW24016   3.845   3.594   4.989
 7706SOL    HW124017   3.781   3.659   4.949
 7706SOL    HW224018   3.932   3.640   5.006
 7707SOL     OW24019   6.879   4.656   5.997
 7707SOL    HW124020   6.907   4.625   6.088
 7707SOL    HW224021   6.793   4.707   6.004
 7708SOL     OW24022   0.902   6.604   5.915
 7708SOL    HW124023   0.832   6.533   5.904
 7708SOL    HW224024   0.860   6.685   5.955
 7709SOL     OW24025   6.275   4.219   1.978
 7709SOL    HW124026   6.308   4.140   1.927
 7709SOL    HW224027   6.178   4.207   1.998
 7710SOL     OW24028   3.098   2.076   0.113
 7710SOL    HW124029   3.099   2.174   0.135
 7710SOL    HW224030   3.185   2.051   0.071
 7711SOL     OW24031   5.571   6.361   6.082
 7711SOL    HW124032   5.561   6.304   6.000
 7711SOL    HW224033   5.644   6.427   6.068
 7712SOL     OW24034   6.438   5.221   2.004
 7712SOL    HW124035   6.467   5.306   1.959
 7712SOL    HW224036   6.431   5.237   2.103
 7713SOL     OW24037   2.163   4.142   1.121
 7713SOL    HW124038   2.124   4.232   1.097
 7713SOL    HW224039   2.156   4.128   1.220
 7714SOL     OW24040   6.980   3.570   5.720
 7714SOL    HW124041   0.044   3.568   5.772
 7714SOL    HW224042   6.951   3.664   5.705
 7715SOL     OW24043   2.893   2.020   0.507
 7715SOL    HW124044   2.988   2.050   0.502
 7715SOL    HW224045   2.879   1.966   0.590
 7716SOL     OW24046   6.824   4.616   2.052
 7716SOL    HW124047   6.755   4.568   1.999
 7716SOL    HW224048   6.915   4.586   2.024
 7717SOL     OW24049   1.991   0.793   5.402
 7717SOL    HW124050   1.965   0.886   5.378
 7717SOL    HW224051   2.004   0.786   5.501
 7718SOL     OW24052   6.957   3.794   3.610
 7718SOL    HW124053   0.034   3.811   3.621
 7718SOL    HW224054   6.942   3.739   3.528
 7719SOL     OW24055   6.936   4.320   5.458
 7719SOL    HW124056   6.852   4.291   5.412
 7719SOL    HW224057   6.955   4.259   5.534
 7720SOL     OW24058   0.086   1.633   6.315
 7720SOL    HW124059   0.080   1.681   6.227
 7720SOL    HW224060   0.089   1.701   6.389
 7721SOL     OW24061   0.432   5.247   2.319
 7721SOL    HW124062   0.397   5.157   2.293
 7721SOL    HW224063   0.460   5.296   2.236
 7722SOL     OW24064   1.106   4.121   3.563
 7722SOL    HW124065   1.196   4.157   3.540
 7722SOL    HW224066   1.090   4.037   3.510
 7723SOL     OW24067   4.571   3.433   5.984
 7723SOL    HW124068   4.604   3.526   6.001
 7723SOL    HW224069   4.592   3.407   5.889
 7724SOL     OW24070   3.265   3.889   1.211
 7724SOL    HW124071   3.201   3.813   1.215
 7724SOL    HW224072   3.236   3.954   1.141
 7725SOL     OW24073   6.675   1.806   3.011
 7725SOL    HW124074   6.634   1.844   2.927
 7725SOL    HW224075   6.608   1.748   3.057
 7726SOL     OW24076   1.365   4.961   5.551
 7726SOL    HW124077   1.433   5.012   5.604
 7726SOL    HW224078   1.291   5.023   5.524
 7727SOL     OW24079   0.046   2.316   2.611
 7727SOL    HW124080   0.111   2.266   2.554
 7727SOL    HW224081   0.017   2.258   2.687
 7728SOL     OW24082   2.060   3.280   5.011
 7728SOL    HW124083   1.964   3.277   4.982
 7728SOL    HW224084   2.083   3.373   5.039
 7729SOL     OW24085   5.565   2.082   1.511
 7729SOL    HW124086   5.578   1.986   1.485
 7729SOL    HW224087   5.653   2.130   1.505
 7730SOL     OW24088   6.405   5.652   0.654
 7730SOL    HW124089   6.408   5.751   0.667
 7730SOL    HW224090   6.498   5.616   0.643
 7731SOL     OW24091   6.932   1.263   6.735
 7731SOL    HW124092   6.873   1.238   6.812
 7731SOL    HW224093   6.916   1.200   6.659
 7732SOL     OW24094   4.964   7.014   0.310
 7732SOL    HW124095   5.029   0.038   0.250
 7732SOL    HW224096   4.970   0.033   0.402
 7733SOL     OW24097   5.057   5.908   2.406
 7733SOL    HW124098   5.022   5.899   2.312
 7733SOL    HW224099   4.991   5.869   2.470
 7734SOL     OW24100   1.269   4.926   3.692
 7734SOL    HW124101   1.276   4.831   3.725
 7734SOL    HW224102   1.302   4.988   3.763
 7735SOL     OW24103   5.056   6.383   6.866
 7735SOL    HW124104   5.051   6.365   6.767
 7735SOL    HW224105   4.979   6.338   6.911
 7736SOL     OW24106   3.256   2.998   6.816
 7736SOL    HW124107   3.346   3.010   6.775
 7736SOL    HW224108   3.192   2.966   6.746
 7737SOL     OW24109   3.292   6.484   2.604
 7737SOL    HW124110   3.264   6.551   2.673
 7737SOL    HW224111   3.211   6.441   2.565
 7738SOL     OW24112   2.867   5.443   0.038
 7738SOL    HW124113   2.848   5.525   0.093
 7738SOL    HW224114   2.948   5.459   7.002
 7739SOL     OW24115   0.013   2.077   0.859
 7739SOL    HW124116   6.991   2.166   0.844
 7739SOL    HW224117   7.004   2.039   0.946
 7740SOL     OW24118   2.614   1.369   3.027
 7740SOL    HW124119   2.529   1.422   3.032
 7740SOL    HW224120   2.677   1.414   2.963
 7741SOL     OW24121   0.094   4.748   5.883
 7741SOL    HW124122   0.009   4.701   5.906
 7741SOL    HW224123   0.083   4.796   5.796
 7742SOL     OW24124   4.298   1.766   3.258
 7742SOL    HW124125   4.221   1.821   3.289
 7742SOL    HW224126   4.264   1.683   3.213
 7743SOL     OW24127   5.568   1.505   0.178
 7743SOL    HW124128   5.622   1.531   0.098
 7743SOL    HW224129   5.500   1.437   0.152
 7744SOL     OW24130   0.208   0.336   4.265
 7744SOL    HW124131   0.162   0.422   4.244
 7744SOL    HW224132   0.253   0.343   4.354
 7745SOL     OW24133   3.618   1.280   0.218
 7745SOL    HW124134   3.701   1.256   0.267
 7745SOL    HW224135   3.617   1.234   0.129
 7746SOL     OW24136   1.627   0.362   0.539
 7746SOL    HW124137   1.714   0.405   0.565
 7746SOL    HW224138   1.643   0.266   0.518
 7747SOL     OW24139   5.280   5.655   1.368
 7747SOL    HW124140   5.276   5.588   1.442
 7747SOL    HW224141   5.294   5.746   1.406
 7748SOL     OW24142   2.966   3.644   4.539
 7748SOL    HW124143   2.997   3.549   4.542
 7748SOL    HW224144   2.870   3.649   4.566
 7749SOL     OW24145   2.847   3.587   5.696
 7749SOL    HW124146   2.780   3.615   5.766
 7749SOL    HW224147   2.938   3.584   5.737
 7750SOL     OW24148   0.082   6.300   1.498
 7750SOL    HW124149   0.013   6.361   1.459
 7750SOL    HW224150   0.060   6.283   1.594
 7751SOL     OW24151   1.644   2.664   2.294
 7751SOL    HW124152   1.720   2.716   2.333
 7751SOL    HW224153   1.566   2.666   2.357
 7752SOL     OW24154   5.571   6.204   5.844
 7752SOL    HW124155   5.554   6.114   5.884
 7752SOL    HW224156   5.663   6.206   5.805
 7753SOL     OW24157   1.773   0.540   4.310
 7753SOL    HW124158   1.721   0.621   4.283
 7753SOL    HW224159   1.867   0.549   4.279
 7754SOL     OW24160   3.756   6.757   2.256
 7754SOL    HW124161   3.806   6.768   2.343
 7754SOL    HW224162   3.734   6.661   2.242
 7755SOL     OW24163   1.201   2.147   5.865
 7755SOL    HW124164   1.110   2.109   5.852
 7755SOL    HW224165   1.199   2.245   5.849
 7756SOL     OW24166   2.343   5.778   2.420
 7756SOL    HW124167   2.261   5.771   2.362
 7756SOL    HW224168   2.417   5.724   2.380
 7757SOL     OW24169   6.260   5.003   6.290
 7757SOL    HW124170   6.317   5.085   6.284
 7757SOL    HW224171   6.260   4.956   6.201
 7758SOL     OW24172   1.578   1.112   5.893
 7758SOL    HW124173   1.639   1.115   5.815
 7758SOL    HW224174   1.546   1.018   5.907
 7759SOL     OW24175   1.141   1.675   5.391
 7759SOL    HW124176   1.180   1.597   5.342
 7759SOL    HW224177   1.184   1.683   5.481
 7760SOL     OW24178   5.275   3.378   3.145
 7760SOL    HW124179   5.288   3.414   3.237
 7760SOL    HW224180   5.276   3.278   3.148
 7761SOL     OW24181   0.404   0.391   5.045
 7761SOL    HW124182   0.488   0.341   5.069
 7761SOL    HW224183   0.427   0.485   5.022
 7762SOL     OW24184   3.642   0.247   4.176
 7762SOL    HW124185   3.692   0.208   4.099
 7762SOL    HW224186   3.703   0.255   4.255
 7763SOL     OW24187   1.347   1.207   6.603
 7763SOL    HW124188   1.278   1.145   6.565
 7763SOL    HW224189   1.438   1.179   6.571
 7764SOL     OW24190   3.773   2.972   3.564
 7764SOL    HW124191   3.717   2.943   3.642
 7764SOL    HW224192   3.863   3.001   3.597
 7765SOL     OW24193   6.335   3.453   5.467
 7765SOL    HW124194   6.378   3.366   5.490
 7765SOL    HW224195   6.374   3.526   5.524
 7766SOL     OW24196   6.940   3.444   0.268
 7766SOL    HW124197   6.957   3.452   0.170
 7766SOL    HW224198   0.006   3.452   0.318
 7767SOL     OW24199   5.084   6.181   2.233
 7767SOL    HW124200   4.987   6.168   2.252
 7767SOL    HW224201   5.138   6.125   2.297
 7768SOL     OW24202   4.184   4.761   2.638
 7768SOL    HW124203   4.116   4.789   2.570
 7768SOL    HW224204   4.177   4.820   2.718
 7769SOL     OW24205   4.430   2.213   3.374
 7769SOL    HW124206   4.471   2.289   3.424
 7769SOL    HW224207   4.338   2.238   3.346
 7770SOL     OW24208   1.759   4.301   2.965
 7770SOL    HW124209   1.820   4.380   2.971
 7770SOL    HW224210   1.665   4.332   2.954
 7771SOL     OW24211   3.395   2.290   5.343
 7771SOL    HW124212   3.318   2.327   5.290
 7771SOL    HW224213   3.454   2.237   5.282
 7772SOL     OW24214   4.744   0.183   1.934
 7772SOL    HW124215   4.763   0.146   2.025
 7772SOL    HW224216   4.704   0.274   1.943
 7773SOL     OW24217   2.797   6.282   4.761
 7773SOL    HW124218   2.789   6.279   4.661
 7773SOL    HW224219   2.822   6.374   4.790
 7774SOL     OW24220   5.294   1.689   5.300
 7774SOL    HW124221   5.210   1.664   5.348
 7774SOL    HW224222   5.372   1.680   5.361
 7775SOL     OW24223   4.783   5.403   0.900
 7775SOL    HW124224   4.767   5.339   0.825
 7775SOL    HW224225   4.731   5.373   0.980
 7776SOL     OW24226   1.276   5.393   6.261
 7776SOL    HW124227   1.279   5.461   6.334
 7776SOL    HW224228   1.182   5.361   6.249
 7777SOL     OW24229   6.084   6.256   4.865
 7777SOL    HW124230   6.178   6.289   4.854
 7777SOL    HW224231   6.063   6.191   4.792
 7778SOL     OW24232   5.506   3.923   0.837
 7778SOL    HW124233   5.431   3.954   0.778
 7778SOL    HW224234   5.477   3.842   0.888
 7779SOL     OW24235   2.776   2.489   1.674
 7779SOL    HW124236   2.700   2.522   1.729
 7779SOL    HW224237   2.861   2.500   1.725
 7780SOL     OW24238   1.299   4.889   5.054
 7780SOL    HW124239   1.201   4.879   5.071
 7780SOL    HW224240   1.314   4.912   4.958
 7781SOL     OW24241   1.665   5.204   0.943
 7781SOL    HW124242   1.579   5.171   0.983
 7781SOL    HW224243   1.650   5.294   0.901
 7782SOL     OW24244   5.656   5.090   4.434
 7782SOL    HW124245   5.588   5.157   4.462
 7782SOL    HW224246   5.743   5.109   4.479
 7783SOL     OW24247   1.123   5.834   5.598
 7783SOL    HW124248   1.043   5.820   5.656
 7783SOL    HW224249   1.139   5.932   5.586
 7784SOL     OW24250   3.528   1.922   1.586
 7784SOL    HW124251   3.516   1.997   1.652
 7784SOL    HW224252   3.462   1.932   1.512
 7785SOL     OW24253   1.988   5.803   4.743
 7785SOL    HW124254   1.896   5.795   4.705
 7785SOL    HW224255   2.004   5.727   4.806
 7786SOL     OW24256   2.720   6.289   0.090
 7786SOL    HW124257   2.638   6.345   0.080
 7786SOL    HW224258   2.776   6.297   0.008
 7787SOL     OW24259   1.931   2.846   5.982
 7787SOL    HW124260   1.876   2.923   5.950
 7787SOL    HW224261   1.971   2.798   5.904
 7788SOL     OW24262   2.319   4.976   1.114
 7788SOL    HW124263   2.411   5.007   1.092
 7788SOL    HW224264   2.323   4.904   1.184
 7789SOL     OW24265   1.895   6.453   6.238
 7789SOL    HW124266   1.970   6.446   6.173
 7789SOL    HW224267   1.849   6.365   6.247
 7790SOL     OW24268   5.684   5.574   3.430
 7790SOL    HW124269   5.594   5.571   3.387
 7790SOL    HW224270   5.685   5.645   3.501
 7791SOL     OW24271   2.483   5.067   2.937
 7791SOL    HW124272   2.387   5.056   2.961
 7791SOL    HW224273   2.495   5.056   2.838
 7792SOL     OW24274   1.896   5.224   5.065
 7792SOL    HW124275   1.962   5.237   5.139
 7792SOL    HW224276   1.821   5.289   5.076
 7793SOL     OW24277   3.616   0.701   1.016
 7793SOL    HW124278   3.575   0.609   1.017
 7793SOL    HW224279   3.556   0.763   0.964
 7794SOL     OW24280   6.363   3.749   2.937
 7794SOL    HW124281   6.366   3.743   3.036
 7794SOL    HW224282   6.456   3.758   2.901
 7795SOL     OW24283   1.898   3.687   5.570
 7795SOL    HW124284   1.984   3.732   5.593
 7795SOL    HW224285   1.883   3.689   5.472
 7796SOL     OW24286   4.013   3.088   3.632
 7796SOL    HW124287   4.023   3.121   3.538
 7796SOL    HW224288   4.102   3.061   3.667
 7797SOL     OW24289   1.868   0.226   1.699
 7797SOL    HW124290   1.835   0.163   1.769
 7797SOL    HW224291   1.872   0.319   1.736
 7798SOL     OW24292   2.104   3.548   4.691
 7798SOL    HW124293   2.117   3.551   4.790
 7798SOL    HW224294   2.128   3.637   4.651
 7799SOL     OW24295   1.605   6.052   2.059
 7799SOL    HW124296   1.505   6.056   2.059
 7799SOL    HW224297   1.635   5.961   2.085
 7800SOL     OW24298   0.876   5.949   1.614
 7800SOL    HW124299   0.882   5.961   1.713
 7800SOL    HW224300   0.817   5.871   1.593
 7801SOL     OW24301   2.576   2.086   2.059
 7801SOL    HW124302   2.609   1.996   2.028
 7801SOL    HW224303   2.493   2.073   2.114
 7802SOL     OW24304   5.462   3.060   1.004
 7802SOL    HW124305   5.500   3.092   1.090
 7802SOL    HW224306   5.515   3.098   0.928
 7803SOL     OW24307   4.313   1.927   5.817
 7803SOL    HW124308   4.280   1.895   5.728
 7803SOL    HW224309   4.237   1.935   5.880
 7804SOL     OW24310   4.225   2.128   4.645
 7804SOL    HW124311   4.226   2.175   4.557
 7804SOL    HW224312   4.200   2.192   4.718
 7805SOL     OW24313   5.492   2.333   1.587
 7805SOL    HW124314   5.516   2.240   1.559
 7805SOL    HW224315   5.405   2.358   1.544
 7806SOL     OW24316   6.558   1.934   0.100
 7806SOL    HW124317   6.465   1.930   0.062
 7806SOL    HW224318   6.559   1.894   0.191
 7807SOL     OW24319   1.010   4.767   5.703
 7807SOL    HW124320   1.067   4.689   5.679
 7807SOL    HW224321   0.922   4.734   5.739
 7808SOL     OW24322   6.202   3.785   4.583
 7808SOL    HW124323   6.193   3.818   4.489
 7808SOL    HW224324   6.214   3.686   4.583
 7809SOL     OW24325   3.350   4.903   4.434
 7809SOL    HW124326   3.303   4.937   4.516
 7809SOL    HW224327   3.288   4.845   4.382
 7810SOL     OW24328   3.207   0.430   4.594
 7810SOL    HW124329   3.238   0.369   4.521
 7810SOL    HW224330   3.200   0.524   4.559
 7811SOL     OW24331   1.680   5.877   1.682
 7811SOL    HW124332   1.672   5.930   1.598
 7811SOL    HW224333   1.593   5.879   1.731
 7812SOL     OW24334   0.047   2.245   4.263
 7812SOL    HW124335   0.025   2.277   4.171
 7812SOL    HW224336   0.047   2.145   4.264
 7813SOL     OW24337   4.733   2.512   0.566
 7813SOL    HW124338   4.736   2.528   0.468
 7813SOL    HW224339   4.822   2.480   0.598
 7814SOL     OW24340   0.414   3.900   3.810
 7814SOL    HW124341   0.468   3.978   3.844
 7814SOL    HW224342   0.388   3.842   3.887
 7815SOL     OW24343   6.106   1.411   5.015
 7815SOL    HW124344   6.175   1.482   4.999
 7815SOL    HW224345   6.112   1.379   5.109
 7816SOL     OW24346   1.428   2.385   6.007
 7816SOL    HW124347   1.490   2.430   5.943
 7816SOL    HW224348   1.410   2.446   6.085
 7817SOL     OW24349   4.695   4.565   3.977
 7817SOL    HW124350   4.773   4.562   3.914
 7817SOL    HW224351   4.702   4.647   4.034
 7818SOL     OW24352   4.590   0.417   2.005
 7818SOL    HW124353   4.515   0.443   2.066
 7818SOL    HW224354   4.669   0.475   2.022
 7819SOL     OW24355   6.922   4.232   3.016
 7819SOL    HW124356   6.932   4.295   3.093
 7819SOL    HW224357   6.890   4.143   3.050
 7820SOL     OW24358   1.204   1.448   5.621
 7820SOL    HW124359   1.107   1.426   5.629
 7820SOL    HW224360   1.216   1.547   5.612
 7821SOL     OW24361   5.852   5.365   7.008
 7821SOL    HW124362   5.814   5.325   6.925
 7821SOL    HW224363   5.876   5.292   0.052
 7822SOL     OW24364   1.289   1.654   6.759
 7822SOL    HW124365   1.219   1.588   6.786
 7822SOL    HW224366   1.356   1.609   6.700
 7823SOL     OW24367   2.980   4.032   5.329
 7823SOL    HW124368   3.045   3.998   5.262
 7823SOL    HW224369   2.887   4.028   5.292
 7824SOL     OW24370   5.862   1.029   3.736
 7824SOL    HW124371   5.857   1.054   3.833
 7824SOL    HW224372   5.806   1.093   3.683
 7825SOL     OW24373   1.185   3.227   0.873
 7825SOL    HW124374   1.274   3.212   0.917
 7825SOL    HW224375   1.118   3.162   0.907
 7826SOL     OW24376   6.089   1.386   0.286
 7826SOL    HW124377   6.108   1.391   0.188
 7826SOL    HW224378   6.072   1.477   0.322
 7827SOL     OW24379   3.059   4.728   1.488
 7827SOL    HW124380   3.073   4.753   1.393
 7827SOL    HW224381   2.994   4.793   1.530
 7828SOL     OW24382   0.797   5.141   0.036
 7828SOL    HW124383   0.699   5.119   0.030
 7828SOL    HW224384   0.837   5.140   6.965
 7829SOL     OW24385   1.849   3.058   0.771
 7829SOL    HW124386   1.889   3.122   0.837
 7829SOL    HW224387   1.921   2.997   0.736
 7830SOL     OW24388   2.699   4.283   5.921
 7830SOL    HW124389   2.622   4.341   5.947
 7830SOL    HW224390   2.704   4.278   5.821
 7831SOL     OW24391   1.560   5.971   0.903
 7831SOL    HW124392   1.578   5.930   0.992
 7831SOL    HW224393   1.541   6.068   0.915
 7832SOL     OW24394   4.685   0.864   3.663
 7832SOL    HW124395   4.718   0.933   3.729
 7832SOL    HW224396   4.677   0.906   3.573
 7833SOL     OW24397   0.827   0.682   6.430
 7833SOL    HW124398   0.857   0.601   6.379
 7833SOL    HW224399   0.736   0.709   6.399
 7834SOL     OW24400   6.394   1.191   3.527
 7834SOL    HW124401   6.295   1.177   3.529
 7834SOL    HW224402   6.419   1.264   3.592
 7835SOL     OW24403   2.650   1.866   5.347
 7835SOL    HW124404   2.650   1.928   5.269
 7835SOL    HW224405   2.584   1.897   5.415
 7836SOL     OW24406   3.423   2.876   4.871
 7836SOL    HW124407   3.415   2.778   4.885
 7836SOL    HW224408   3.384   2.924   4.950
 7837SOL     OW24409   5.953   6.025   1.090
 7837SOL    HW124410   5.900   6.048   1.008
 7837SOL    HW224411   6.026   5.962   1.066
 7838SOL     OW24412   4.779   6.950   6.935
 7838SOL    HW124413   4.739   6.900   7.012
 7838SOL    HW224414   4.783   0.027   6.957
 7839SOL     OW24415   5.906   4.109   5.551
 7839SOL    HW124416   5.944   4.196   5.520
 7839SOL    HW224417   5.971   4.035   5.531
 7840SOL     OW24418   6.286   2.873   4.185
 7840SOL    HW124419   6.277   2.791   4.128
 7840SOL    HW224420   6.196   2.903   4.214
 7841SOL     OW24421   3.930   1.922   6.613
 7841SOL    HW124422   4.018   1.923   6.565
 7841SOL    HW224423   3.883   2.009   6.600
 7842SOL     OW24424   1.636   2.047   2.746
 7842SOL    HW124425   1.736   2.042   2.743
 7842SOL    HW224426   1.603   2.112   2.677
 7843SOL     OW24427   5.627   5.363   2.503
 7843SOL    HW124428   5.580   5.451   2.506
 7843SOL    HW224429   5.657   5.343   2.409
 7844SOL     OW24430   3.961   6.386   2.330
 7844SOL    HW124431   3.886   6.434   2.285
 7844SOL    HW224432   3.936   6.365   2.424
 7845SOL     OW24433   5.328   1.924   3.833
 7845SOL    HW124434   5.284   1.835   3.846
 7845SOL    HW224435   5.261   1.991   3.801
 7846SOL     OW24436   1.143   1.081   3.026
 7846SOL    HW124437   1.080   1.063   2.950
 7846SOL    HW224438   1.143   1.003   3.089
 7847SOL     OW24439   0.096   1.649   3.140
 7847SOL    HW124440   0.148   1.563   3.132
 7847SOL    HW224441   0.057   1.672   3.051
 7848SOL     OW24442   3.478   3.313   0.457
 7848SOL    HW124443   3.550   3.247   0.484
 7848SOL    HW224444   3.456   3.300   0.361
 7849SOL     OW24445   5.706   4.087   2.954
 7849SOL    HW124446   5.729   4.015   2.887
 7849SOL    HW224447   5.745   4.063   3.043
 7850SOL     OW24448   0.214   2.051   5.263
 7850SOL    HW124449   0.162   2.083   5.184
 7850SOL    HW224450   0.258   2.128   5.308
 7851SOL     OW24451   6.785   1.232   1.973
 7851SOL    HW124452   6.825   1.266   1.888
 7851SOL    HW224453   6.803   1.134   1.982
 7852SOL     OW24454   2.385   1.465   5.657
 7852SOL    HW124455   2.349   1.467   5.750
 7852SOL    HW224456   2.416   1.372   5.635
 7853SOL     OW24457   4.592   2.103   1.477
 7853SOL    HW124458   4.654   2.068   1.407
 7853SOL    HW224459   4.641   2.111   1.564
 7854SOL     OW24460   3.480   3.854   0.104
 7854SOL    HW124461   3.517   3.945   0.088
 7854SOL    HW224462   3.534   3.786   0.055
 7855SOL     OW24463   4.081   5.306   5.354
 7855SOL    HW124464   4.109   5.402   5.357
 7855SOL    HW224465   4.067   5.278   5.259
 7856SOL     OW24466   6.378   4.345   5.535
 7856SOL    HW124467   6.460   4.346   5.592
 7856SOL    HW224468   6.381   4.421   5.470
 7857SOL     OW24469   5.651   2.084   5.226
 7857SOL    HW124470   5.661   2.099   5.324
 7857SOL    HW224471   5.604   1.997   5.210
 7858SOL     OW24472   5.312   5.769   3.494
 7858SOL    HW124473   5.365   5.697   3.538
 7858SOL    HW224474   5.234   5.729   3.445
 7859SOL     OW24475   5.540   2.387   6.521
 7859SOL    HW124476   5.444   2.371   6.497
 7859SOL    HW224477   5.556   2.485   6.530
 7860SOL     OW24478   4.468   0.164   2.594
 7860SOL    HW124479   4.479   0.175   2.495
 7860SOL    HW224480   4.516   0.238   2.641
 7861SOL     OW24481   3.816   5.045   1.859
 7861SOL    HW124482   3.717   5.030   1.867
 7861SOL    HW224483   3.865   4.962   1.884
 7862SOL     OW24484   3.182   3.639   1.737
 7862SOL    HW124485   3.137   3.729   1.739
 7862SOL    HW224486   3.138   3.579   1.804
 7863SOL     OW24487   0.518   5.590   3.748
 7863SOL    HW124488   0.481   5.639   3.827
 7863SOL    HW224489   0.445   5.577   3.680
 7864SOL     OW24490   0.601   5.491   5.352
 7864SOL    HW124491   0.676   5.556   5.336
 7864SOL    HW224492   0.555   5.472   5.266
 7865SOL     OW24493   5.708   6.602   4.484
 7865SOL    HW124494   5.792   6.591   4.537
 7865SOL    HW224495   5.685   6.515   4.440
 7866SOL     OW24496   1.520   1.976   6.595
 7866SOL    HW124497   1.600   1.920   6.575
 7866SOL    HW224498   1.437   1.925   6.574
 7867SOL     OW24499   5.383   6.647   3.205
 7867SOL    HW124500   5.303   6.589   3.192
 7867SOL    HW224501   5.455   6.621   3.141
 7868SOL     OW24502   5.607   6.718   1.764
 7868SOL    HW124503   5.554   6.751   1.842
 7868SOL    HW224504   5.545   6.687   1.692
 7869SOL     OW24505   6.144   3.871   0.205
 7869SOL    HW124506   6.194   3.785   0.197
 7869SOL    HW224507   6.185   3.927   0.278
 7870SOL     OW24508   4.078   5.094   4.243
 7870SOL    HW124509   4.134   5.102   4.326
 7870SOL    HW224510   4.051   4.998   4.231
 7871SOL     OW24511   4.874   2.782   2.416
 7871SOL    HW124512   4.826   2.728   2.347
 7871SOL    HW224513   4.914   2.863   2.373
 7872SOL     OW24514   2.572   4.531   3.330
 7872SOL    HW124515   2.667   4.554   3.352
 7872SOL    HW224516   2.511   4.595   3.376
 7873SOL     OW24517   5.416   0.345   6.099
 7873SOL    HW124518   5.405   0.253   6.138
 7873SOL    HW224519   5.505   0.351   6.053
 7874SOL     OW24520   5.557   1.803   0.613
 7874SOL    HW124521   5.468   1.842   0.638
 7874SOL    HW224522   5.567   1.805   0.514
 7875SOL     OW24523   5.850   2.293   6.812
 7875SOL    HW124524   5.886   2.308   6.720
 7875SOL    HW224525   5.849   2.195   6.832
 7876SOL     OW24526   0.013   6.872   4.593
 7876SOL    HW124527   0.039   6.823   4.510
 7876SOL    HW224528   0.004   6.970   4.573
 7877SOL     OW24529   0.624   2.502   2.797
 7877SOL    HW124530   0.709   2.552   2.811
 7877SOL    HW224531   0.595   2.459   2.882
 7878SOL     OW24532   5.686   5.123   4.141
 7878SOL    HW124533   5.689   5.116   4.241
 7878SOL    HW224534   5.630   5.202   4.115
 7879SOL     OW24535   4.539   5.411   4.526
 7879SOL    HW124536   4.585   5.377   4.444
 7879SOL    HW224537   4.606   5.423   4.600
 7880SOL     OW24538   1.960   4.930   1.293
 7880SOL    HW124539   1.921   5.022   1.280
 7880SOL    HW224540   2.059   4.935   1.291
 7881SOL     OW24541   5.853   4.656   4.568
 7881SOL    HW124542   5.831   4.559   4.560
 7881SOL    HW224543   5.786   4.710   4.517
 7882SOL     OW24544   0.781   3.196   3.184
 7882SOL    HW124545   0.856   3.140   3.147
 7882SOL    HW224546   0.699   3.140   3.191
 7883SOL     OW24547   1.006   0.344   0.828
 7883SOL    HW124548   1.046   0.353   0.919
 7883SOL    HW224549   1.068   0.291   0.770
 7884SOL     OW24550   1.857   4.172   3.998
 7884SOL    HW124551   1.917   4.250   3.984
 7884SOL    HW224552   1.856   4.115   3.915
 7885SOL     OW24553   6.276   5.813   1.525
 7885SOL    HW124554   6.367   5.839   1.556
 7885SOL    HW224555   6.274   5.715   1.503
 7886SOL     OW24556   3.224   5.812   0.540
 7886SOL    HW124557   3.324   5.814   0.545
 7886SOL    HW224558   3.191   5.721   0.564
 7887SOL     OW24559   3.252   2.645   5.325
 7887SOL    HW124560   3.229   2.568   5.265
 7887SOL    HW224561   3.267   2.612   5.418
 7888SOL     OW24562   6.341   6.494   5.267
 7888SOL    HW124563   6.256   6.442   5.277
 7888SOL    HW224564   6.419   6.433   5.280
 7889SOL     OW24565   1.266   4.932   0.849
 7889SOL    HW124566   1.328   4.881   0.789
 7889SOL    HW224567   1.247   5.021   0.809
 7890SOL     OW24568   0.430   3.683   3.640
 7890SOL    HW124569   0.412   3.771   3.683
 7890SOL    HW224570   0.378   3.675   3.555
 7891SOL     OW24571   2.451   4.440   4.322
 7891SOL    HW124572   2.424   4.425   4.417
 7891SOL    HW224573   2.390   4.389   4.262
 7892SOL     OW24574   1.949   1.748   3.683
 7892SOL    HW124575   1.850   1.740   3.679
 7892SOL    HW224576   1.989   1.704   3.602
 7893SOL     OW24577   6.652   6.337   2.101
 7893SOL    HW124578   6.617   6.404   2.035
 7893SOL    HW224579   6.752   6.336   2.098
 7894SOL     OW24580   4.086   6.286   0.675
 7894SOL    HW124581   3.995   6.324   0.692
 7894SOL    HW224582   4.087   6.244   0.584
 7895SOL     OW24583   5.547   0.603   5.442
 7895SOL    HW124584   5.481   0.674   5.420
 7895SOL    HW224585   5.639   0.640   5.436
 7896SOL     OW24586   3.720   3.379   1.175
 7896SOL    HW124587   3.631   3.379   1.128
 7896SOL    HW224588   3.726   3.458   1.235
 7897SOL     OW24589   3.306   2.857   0.395
 7897SOL    HW124590   3.251   2.871   0.477
 7897SOL    HW224591   3.257   2.895   0.316
 7898SOL     OW24592   3.936   1.694   3.450
 7898SOL    HW124593   3.848   1.723   3.413
 7898SOL    HW224594   3.933   1.696   3.550
 7899SOL     OW24595   5.893   6.950   0.867
 7899SOL    HW124596   5.980   6.928   0.823
 7899SOL    HW224597   5.831   6.872   0.860
 7900SOL     OW24598   1.399   5.142   2.060
 7900SOL    HW124599   1.436   5.096   2.141
 7900SOL    HW224600   1.300   5.145   2.066
 7901SOL     OW24601   4.492   1.204   6.237
 7901SOL    HW124602   4.441   1.134   6.187
 7901SOL    HW224603   4.484   1.188   6.335
 7902SOL     OW24604   6.330   6.923   1.294
 7902SOL    HW124605   6.291   6.998   1.348
 7902SOL    HW224606   6.318   6.837   1.343
 7903SOL     OW24607   4.989   1.387   1.439
 7903SOL    HW124608   4.952   1.340   1.359
 7903SOL    HW224609   4.969   1.485   1.433
 7904SOL     OW24610   5.756   6.887   3.540
 7904SOL    HW124611   5.815   6.865   3.462
 7904SOL    HW224612   5.798   6.852   3.624
 7905SOL     OW24613   5.546   1.747   0.324
 7905SOL    HW124614   5.590   1.670   0.278
 7905SOL    HW224615   5.506   1.808   0.255
 7906SOL     OW24616   0.300   5.391   1.197
 7906SOL    HW124617   0.291   5.322   1.125
 7906SOL    HW224618   0.209   5.414   1.232
 7907SOL     OW24619   5.305   1.627   2.657
 7907SOL    HW124620   5.247   1.589   2.729
 7907SOL    HW224621   5.358   1.704   2.693
 7908SOL     OW24622   1.737   0.793   5.634
 7908SOL    HW124623   1.716   0.808   5.538
 7908SOL    HW224624   1.729   0.880   5.684
 7909SOL     OW24625   5.355   4.525   4.519
 7909SOL    HW124626   5.413   4.541   4.599
 7909SOL    HW224627   5.395   4.568   4.439
 7910SOL     OW24628   2.906   3.768   6.019
 7910SOL    HW124629   2.835   3.835   6.000
 7910SOL    HW224630   2.870   3.676   6.002
 7911SOL     OW24631   1.860   4.150   0.317
 7911SOL    HW124632   1.860   4.052   0.337
 7911SOL    HW224633   1.954   4.181   0.298
 7912SOL     OW24634   6.471   4.768   0.910
 7912SOL    HW124635   6.544   4.791   0.975
 7912SOL    HW224636   6.427   4.851   0.878
 7913SOL     OW24637   1.367   4.613   1.689
 7913SOL    HW124638   1.331   4.704   1.713
 7913SOL    HW224639   1.435   4.586   1.757
 7914SOL     OW24640   0.632   4.445   0.362
 7914SOL    HW124641   0.639   4.397   0.449
 7914SOL    HW224642   0.545   4.494   0.357
 7915SOL     OW24643   4.978   2.620   2.071
 7915SOL    HW124644   4.980   2.677   1.988
 7915SOL    HW224645   4.889   2.629   2.116
 7916SOL     OW24646   1.014   4.894   5.106
 7916SOL    HW124647   0.968   4.807   5.125
 7916SOL    HW224648   1.049   4.932   5.191
 7917SOL     OW24649   3.338   3.301   4.601
 7917SOL    HW124650   3.429   3.335   4.622
 7917SOL    HW224651   3.341   3.244   4.519
 7918SOL     OW24652   0.578   1.300   5.186
 7918SOL    HW124653   0.484   1.310   5.154
 7918SOL    HW224654   0.629   1.241   5.125
 7919SOL     OW24655   2.221   4.558   3.065
 7919SOL    HW124656   2.165   4.538   3.145
 7919SOL    HW224657   2.300   4.496   3.063
 7920SOL     OW24658   0.274   6.786   0.372
 7920SOL    HW124659   0.257   6.837   0.288
 7920SOL    HW224660   0.367   6.749   0.371
 7921SOL     OW24661   5.327   5.897   1.477
 7921SOL    HW124662   5.368   5.950   1.403
 7921SOL    HW224663   5.245   5.945   1.510
 7922SOL     OW24664   0.085   6.576   0.824
 7922SOL    HW124665   0.013   6.507   0.826
 7922SOL    HW224666   0.147   6.558   0.748
 7923SOL     OW24667   3.415   0.151   0.939
 7923SOL    HW124668   3.332   0.129   0.989
 7923SOL    HW224669   3.486   0.181   1.002
 7924SOL     OW24670   4.786   6.849   1.719
 7924SOL    HW124671   4.811   6.792   1.797
 7924SOL    HW224672   4.728   6.924   1.749
 7925SOL     OW24673   1.241   1.552   6.032
 7925SOL    HW124674   1.325   1.516   5.991
 7925SOL    HW224675   1.177   1.477   6.048
 7926SOL     OW24676   4.834   1.469   5.553
 7926SOL    HW124677   4.803   1.376   5.572
 7926SOL    HW224678   4.819   1.526   5.634
 7927SOL     OW24679   4.748   5.533   2.622
 7927SOL    HW124680   4.707   5.592   2.692
 7927SOL    HW224681   4.811   5.469   2.666
 7928SOL     OW24682   1.099   1.694   5.061
 7928SOL    HW124683   1.159   1.642   5.001
 7928SOL    HW224684   1.108   1.661   5.155
 7929SOL     OW24685   4.888   4.378   5.716
 7929SOL    HW124686   4.904   4.351   5.621
 7929SOL    HW224687   4.797   4.418   5.725
 7930SOL     OW24688   4.235   5.403   4.856
 7930SOL    HW124689   4.176   5.358   4.923
 7930SOL    HW224690   4.319   5.434   4.901
 7931SOL     OW24691   2.635   2.971   0.111
 7931SOL    HW124692   2.702   2.977   0.038
 7931SOL    HW224693   2.635   2.878   0.149
 7932SOL     OW24694   1.252   6.336   6.611
 7932SOL    HW124695   1.158   6.361   6.591
 7932SOL    HW224696   1.314   6.404   6.570
 7933SOL     OW24697   0.383   5.991   5.874
 7933SOL    HW124698   0.468   6.040   5.893
 7933SOL    HW224699   0.332   6.039   5.802
 7934SOL     OW24700   1.759   4.921   6.966
 7934SOL    HW124701   1.843   4.905   7.019
 7934SOL    HW224702   1.783   4.943   6.871
 7935SOL     OW24703   5.834   6.061   0.835
 7935SOL    HW124704   5.900   6.132   0.810
 7935SOL    HW224705   5.817   6.003   0.755
 7936SOL     OW24706   3.414   5.835   2.608
 7936SOL    HW124707   3.448   5.922   2.645
 7936SOL    HW224708   3.479   5.762   2.632
 7937SOL     OW24709   6.422   6.451   3.728
 7937SOL    HW124710   6.391   6.366   3.685
 7937SOL    HW224711   6.485   6.429   3.802
 7938SOL     OW24712   6.991   5.622   3.524
 7938SOL    HW124713   6.918   5.595   3.586
 7938SOL    HW224714   0.028   5.543   3.504
 7939SOL     OW24715   1.394   2.887   4.815
 7939SOL    HW124716   1.405   2.983   4.789
 7939SOL    HW224717   1.467   2.862   4.879
 7940SOL     OW24718   1.802   3.470   1.615
 7940SOL    HW124719   1.717   3.461   1.564
 7940SOL    HW224720   1.811   3.393   1.679
 7941SOL     OW24721   5.478   0.887   1.399
 7941SOL    HW124722   5.456   0.880   1.496
 7941SOL    HW224723   5.542   0.814   1.374
 7942SOL     OW24724   6.436   5.903   2.487
 7942SOL    HW124725   6.398   5.958   2.561
 7942SOL    HW224726   6.504   5.840   2.525
 7943SOL     OW24727   5.933   3.622   0.190
 7943SOL    HW124728   5.949   3.574   0.103
 7943SOL    HW224729   5.972   3.714   0.185
 7944SOL     OW24730   0.560   2.296   1.399
 7944SOL    HW124731   0.598   2.204   1.414
 7944SOL    HW224732   0.460   2.290   1.390
 7945SOL     OW24733   5.839   5.153   0.992
 7945SOL    HW124734   5.786   5.070   0.974
 7945SOL    HW224735   5.791   5.233   0.955
 7946SOL     OW24736   2.950   0.684   5.387
 7946SOL    HW124737   3.036   0.655   5.345
 7946SOL    HW224738   2.919   0.769   5.345
 7947SOL     OW24739   3.613   2.211   6.234
 7947SOL    HW124740   3.632   2.304   6.265
 7947SOL    HW224741   3.553   2.214   6.155
 7948SOL     OW24742   0.953   0.036   1.072
 7948SOL    HW124743   0.904   0.097   1.010
 7948SOL    HW224744   0.995   0.089   1.145
 7949SOL     OW24745   4.489   4.617   4.731
 7949SOL    HW124746   4.433   4.568   4.663
 7949SOL    HW224747   4.450   4.603   4.822
 7950SOL     OW24748   5.000   5.127   4.328
 7950SOL    HW124749   4.941   5.191   4.277
 7950SOL    HW224750   4.961   5.113   4.419
 7951SOL     OW24751   2.088   4.138   2.023
 7951SOL    HW124752   2.126   4.063   2.077
 7951SOL    HW224753   2.028   4.102   1.953
 7952SOL     OW24754   0.284   3.514   0.161
 7952SOL    HW124755   0.229   3.478   0.236
 7952SOL    HW224756   0.376   3.533   0.194
 7953SOL     OW24757   2.641   2.027   3.904
 7953SOL    HW124758   2.596   2.115   3.908
 7953SOL    HW224759   2.629   1.987   3.813
 7954SOL     OW24760   3.278   4.221   6.755
 7954SOL    HW124761   3.314   4.178   6.672
 7954SOL    HW224762   3.213   4.292   6.730
 7955SOL     OW24763   1.644   0.128   6.485
 7955SOL    HW124764   1.605   0.211   6.444
 7955SOL    HW224765   1.610   0.116   6.578
 7956SOL     OW24766   3.704   6.078   2.103
 7956SOL    HW124767   3.648   6.160   2.110
 7956SOL    HW224768   3.800   6.104   2.093
 7957SOL     OW24769   1.052   1.224   1.711
 7957SOL    HW124770   1.102   1.160   1.653
 7957SOL    HW224771   0.973   1.177   1.752
 7958SOL     OW24772   3.347   5.233   4.583
 7958SOL    HW124773   3.285   5.164   4.622
 7958SOL    HW224774   3.393   5.194   4.503
 7959SOL     OW24775   4.459   5.881   0.738
 7959SOL    HW124776   4.424   5.820   0.666
 7959SOL    HW224777   4.538   5.839   0.781
 7960SOL     OW24778   2.676   1.108   6.400
 7960SOL    HW124779   2.730   1.038   6.352
 7960SOL    HW224780   2.649   1.074   6.489
 7961SOL     OW24781   6.865   1.242   0.667
 7961SOL    HW124782   6.812   1.158   0.676
 7961SOL    HW224783   6.810   1.311   0.620
 7962SOL     OW24784   1.108   0.744   6.493
 7962SOL    HW124785   1.059   0.715   6.411
 7962SOL    HW224786   1.137   0.664   6.545
 7963SOL     OW24787   6.255   5.997   4.364
 7963SOL    HW124788   6.159   5.969   4.371
 7963SOL    HW224789   6.309   5.949   4.434
 7964SOL     OW24790   0.425   4.616   2.240
 7964SOL    HW124791   0.436   4.656   2.331
 7964SOL    HW224792   0.343   4.655   2.197
 7965SOL     OW24793   3.995   2.084   5.887
 7965SOL    HW124794   3.943   2.006   5.922
 7965SOL    HW224795   4.032   2.136   5.964
 7966SOL     OW24796   1.532   2.752   6.004
 7966SOL    HW124797   1.616   2.730   6.054
 7966SOL    HW224798   1.513   2.679   5.937
 7967SOL     OW24799   2.860   6.520   3.237
 7967SOL    HW124800   2.829   6.442   3.183
 7967SOL    HW224801   2.958   6.535   3.223
 7968SOL     OW24802   1.411   2.753   3.748
 7968SOL    HW124803   1.483   2.713   3.692
 7968SOL    HW224804   1.452   2.809   3.820
 7969SOL     OW24805   4.055   6.369   0.177
 7969SOL    HW124806   3.999   6.443   0.212
 7969SOL    HW224807   4.098   6.397   0.091
 7970SOL     OW24808   6.138   2.786   2.887
 7970SOL    HW124809   6.186   2.728   2.820
 7970SOL    HW224810   6.158   2.882   2.868
 7971SOL     OW24811   3.446   2.061   0.462
 7971SOL    HW124812   3.509   1.985   0.475
 7971SOL    HW224813   3.457   2.127   0.537
 7972SOL     OW24814   2.113   3.148   0.602
 7972SOL    HW124815   2.043   3.129   0.533
 7972SOL    HW224816   2.083   3.223   0.660
 7973SOL     OW24817   4.233   4.820   4.420
 7973SOL    HW124818   4.303   4.830   4.490
 7973SOL    HW224819   4.149   4.866   4.450
 7974SOL     OW24820   5.895   1.317   5.438
 7974SOL    HW124821   5.796   1.322   5.425
 7974SOL    HW224822   5.928   1.227   5.412
 7975SOL     OW24823   6.259   1.511   2.696
 7975SOL    HW124824   6.258   1.607   2.666
 7975SOL    HW224825   6.293   1.506   2.790
 7976SOL     OW24826   0.507   0.091   6.065
 7976SOL    HW124827   0.531   0.092   6.162
 7976SOL    HW224828   0.500   0.185   6.031
 7977SOL     OW24829   4.700   6.280   1.995
 7977SOL    HW124830   4.626   6.219   1.967
 7977SOL    HW224831   4.663   6.368   2.024
 7978SOL     OW24832   5.845   3.922   6.755
 7978SOL    HW124833   5.769   3.857   6.751
 7978SOL    HW224834   5.921   3.882   6.807
 7979SOL     OW24835   4.207   5.982   5.208
 7979SOL    HW124836   4.109   5.979   5.228
 7979SOL    HW224837   4.228   6.063   5.154
 7980SOL     OW24838   2.767   5.283   6.819
 7980SOL    HW124839   2.774   5.191   6.780
 7980SOL    HW224840   2.762   5.277   6.918
 7981SOL     OW24841   0.512   5.608   1.431
 7981SOL    HW124842   0.540   5.534   1.369
 7981SOL    HW224843   0.421   5.640   1.405
 7982SOL     OW24844   0.953   1.446   0.157
 7982SOL    HW124845   1.049   1.431   0.180
 7982SOL    HW224846   0.946   1.484   0.065
 7983SOL     OW24847   6.171   2.098   1.753
 7983SOL    HW124848   6.100   2.119   1.820
 7983SOL    HW224849   6.140   2.023   1.694
 7984SOL     OW24850   1.922   1.399   0.975
 7984SOL    HW124851   1.992   1.427   1.041
 7984SOL    HW224852   1.887   1.309   1.000
 7985SOL     OW24853   2.681   0.902   4.047
 7985SOL    HW124854   2.714   0.969   4.114
 7985SOL    HW224855   2.758   0.865   3.996
 7986SOL     OW24856   3.129   1.475   6.580
 7986SOL    HW124857   3.065   1.551   6.596
 7986SOL    HW224858   3.217   1.511   6.551
 7987SOL     OW24859   1.482   2.739   6.281
 7987SOL    HW124860   1.448   2.817   6.333
 7987SOL    HW224861   1.471   2.757   6.183
 7988SOL     OW24862   0.791   2.126   4.268
 7988SOL    HW124863   0.858   2.119   4.343
 7988SOL    HW224864   0.700   2.109   4.304
 7989SOL     OW24865   3.697   2.813   5.634
 7989SOL    HW124866   3.733   2.855   5.551
 7989SOL    HW224867   3.696   2.880   5.708
 7990SOL     OW24868   0.046   3.751   4.728
 7990SOL    HW124869   7.002   3.680   4.756
 7990SOL    HW224870   0.138   3.724   4.755
 7991SOL     OW24871   5.943   6.783   3.700
 7991SOL    HW124872   5.901   6.694   3.718
 7991SOL    HW224873   5.988   6.816   3.783
 7992SOL     OW24874   1.533   0.490   1.528
 7992SOL    HW124875   1.459   0.471   1.463
 7992SOL    HW224876   1.496   0.531   1.610
 7993SOL     OW24877   0.763   0.110   0.189
 7993SOL    HW124878   0.712   0.192   0.215
 7993SOL    HW224879   0.814   0.129   0.105
 7994SOL     OW24880   4.256   6.562   3.676
 7994SOL    HW124881   4.163   6.527   3.663
 7994SOL    HW224882   4.320   6.486   3.685
 7995SOL     OW24883   4.731   5.627   3.697
 7995SOL    HW124884   4.779   5.541   3.679
 7995SOL    HW224885   4.643   5.626   3.651
 7996SOL     OW24886   3.123   6.927   4.421
 7996SOL    HW124887   3.223   6.925   4.418
 7996SOL    HW224888   3.090   7.010   4.375
 7997SOL     OW24889   0.321   1.490   1.258
 7997SOL    HW124890   0.366   1.533   1.179
 7997SOL    HW224891   0.390   1.455   1.321
 7998SOL     OW24892   3.224   6.248   1.273
 7998SOL    HW124893   3.164   6.284   1.345
 7998SOL    HW224894   3.316   6.287   1.284
 7999SOL     OW24895   0.706   0.333   6.390
 7999SOL    HW124896   0.670   0.247   6.355
 7999SOL    HW224897   0.646   0.408   6.365
 8000SOL     OW24898   4.910   0.155   6.444
 8000SOL    HW124899   5.005   0.187   6.436
 8000SOL    HW224900   4.879   0.167   6.538
 8001SOL     OW24901   4.146   6.369   1.195
 8001SOL    HW124902   4.138   6.351   1.097
 8001SOL    HW224903   4.066   6.332   1.243
 8002SOL     OW24904   0.641   1.872   5.980
 8002SOL    HW124905   0.544   1.864   5.958
 8002SOL    HW224906   0.682   1.780   5.985
 8003SOL     OW24907   2.770   5.149   2.564
 8003SOL    HW124908   2.770   5.082   2.489
 8003SOL    HW224909   2.732   5.235   2.532
 8004SOL     OW24910   2.164   3.588   3.214
 8004SOL    HW124911   2.072   3.628   3.211
 8004SOL    HW224912   2.162   3.497   3.172
 8005SOL     OW24913   3.158   0.864   1.658
 8005SOL    HW124914   3.103   0.832   1.735
 8005SOL    HW224915   3.136   0.809   1.577
 8006SOL     OW24916   1.832   0.598   6.287
 8006SOL    HW124917   1.812   0.523   6.224
 8006SOL    HW224918   1.746   0.638   6.319
 8007SOL     OW24919   0.046   0.562   4.217
 8007SOL    HW124920   6.997   0.559   4.146
 8007SOL    HW224921   0.021   0.631   4.286
 8008SOL     OW24922   4.193   5.636   6.466
 8008SOL    HW124923   4.210   5.599   6.375
 8008SOL    HW224924   4.103   5.606   6.498
 8009SOL     OW24925   5.502   1.012   2.474
 8009SOL    HW124926   5.459   0.935   2.520
 8009SOL    HW224927   5.486   1.096   2.528
 8010SOL     OW24928   0.657   1.043   6.261
 8010SOL    HW124929   0.737   1.035   6.202
 8010SOL    HW224930   0.631   0.953   6.296
 8011SOL     OW24931   3.594   2.461   1.050
 8011SOL    HW124932   3.525   2.508   1.105
 8011SOL    HW224933   3.618   2.375   1.094
 8012SOL     OW24934   1.330   4.186   1.849
 8012SOL    HW124935   1.262   4.254   1.822
 8012SOL    HW224936   1.383   4.158   1.769
 8013SOL     OW24937   1.024   5.249   3.536
 8013SOL    HW124938   0.997   5.270   3.442
 8013SOL    HW224939   1.106   5.193   3.536
 8014SOL     OW24940   1.002   6.526   5.352
 8014SOL    HW124941   1.014   6.623   5.329
 8014SOL    HW224942   1.029   6.470   5.273
 8015SOL     OW24943   2.675   0.952   7.003
 8015SOL    HW124944   2.659   0.855   6.986
 8015SOL    HW224945   2.602   0.988   0.040
 8016SOL     OW24946   5.391   6.955   5.964
 8016SOL    HW124947   5.422   6.975   5.871
 8016SOL    HW224948   5.297   6.920   5.961
 8017SOL     OW24949   5.580   0.035   0.342
 8017SOL    HW124950   5.588   0.104   0.413
 8017SOL    HW224951   5.536   6.974   0.380
 8018SOL     OW24952   3.304   1.767   5.680
 8018SOL    HW124953   3.205   1.750   5.686
 8018SOL    HW224954   3.330   1.779   5.585
 8019SOL     OW24955   2.276   4.601   6.720
 8019SOL    HW124956   2.264   4.514   6.674
 8019SOL    HW224957   2.244   4.675   6.660
 8020SOL     OW24958   5.522   0.872   0.998
 8020SOL    HW124959   5.540   0.941   1.069
 8020SOL    HW224960   5.442   0.817   1.025
 8021SOL     OW24961   1.221   2.945   1.090
 8021SOL    HW124962   1.172   2.892   1.159
 8021SOL    HW224963   1.160   3.015   1.053
 8022SOL     OW24964   5.150   6.551   2.598
 8022SOL    HW124965   5.245   6.543   2.567
 8022SOL    HW224966   5.095   6.482   2.552
 8023SOL     OW24967   5.866   5.605   2.812
 8023SOL    HW124968   5.806   5.649   2.746
 8023SOL    HW224969   5.819   5.595   2.900
 8024SOL     OW24970   2.227   4.947   6.885
 8024SOL    HW124971   2.274   5.033   6.867
 8024SOL    HW224972   2.185   4.913   6.801
 8025SOL     OW24973   2.061   6.704   6.680
 8025SOL    HW124974   2.106   6.785   6.717
 8025SOL    HW224975   1.995   6.732   6.610
 8026SOL     OW24976   0.763   4.335   6.856
 8026SOL    HW124977   0.666   4.324   6.835
 8026SOL    HW224978   0.818   4.280   6.792
 8027SOL     OW24979   4.848   0.399   5.466
 8027SOL    HW124980   4.912   0.470   5.494
 8027SOL    HW224981   4.788   0.376   5.544
 8028SOL     OW24982   2.776   5.324   4.678
 8028SOL    HW124983   2.768   5.409   4.625
 8028SOL    HW224984   2.844   5.264   4.636
 8029SOL     OW24985   4.970   2.960   1.546
 8029SOL    HW124986   5.070   2.960   1.552
 8029SOL    HW224987   4.933   3.035   1.601
 8030SOL     OW24988   4.410   4.447   1.003
 8030SOL    HW124989   4.374   4.355   1.014
 8030SOL    HW224990   4.335   4.509   0.979
 8031SOL     OW24991   5.721   6.579   2.114
 8031SOL    HW124992   5.779   6.646   2.068
 8031SOL    HW224993   5.691   6.509   2.049
 8032SOL     OW24994   6.744   5.104   1.324
 8032SOL    HW124995   6.661   5.124   1.377
 8032SOL    HW224996   6.822   5.100   1.386
 8033SOL     OW24997   4.964   1.348   6.007
 8033SOL    HW124998   4.896   1.419   6.024
 8033SOL    HW224999   5.007   1.322   6.094
 8034SOL     OW25000   5.301   6.641   4.577
 8034SOL    HW125001   5.295   6.652   4.478
 8034SOL    HW225002   5.369   6.571   4.599
 8035SOL     OW25003   5.111   1.916   4.059
 8035SOL    HW125004   5.014   1.908   4.036
 8035SOL    HW225005   5.139   2.012   4.053
 8036SOL     OW25006   0.010   4.127   3.352
 8036SOL    HW125007   6.958   4.185   3.316
 8036SOL    HW225008   0.085   4.184   3.385
 8037SOL     OW25009   1.692   3.433   0.217
 8037SOL    HW125010   1.632   3.511   0.237
 8037SOL    HW225011   1.641   3.348   0.230
 8038SOL     OW25012   4.230   6.973   2.467
 8038SOL    HW125013   4.267   6.935   2.382
 8038SOL    HW225014   4.238   0.052   2.465
 8039SOL     OW25015   0.684   2.031   4.575
 8039SOL    HW125016   0.638   2.028   4.487
 8039SOL    HW225017   0.783   2.026   4.561
 8040SOL     OW25018   1.575   5.916   0.109
 8040SOL    HW125019   1.625   6.000   0.091
 8040SOL    HW225020   1.569   5.863   0.024
 8041SOL     OW25021   2.493   1.734   2.967
 8041SOL    HW125022   2.424   1.665   2.942
 8041SOL    HW225023   2.447   1.821   2.987
 8042SOL     OW25024   2.881   3.507   3.786
 8042SOL    HW125025   2.929   3.463   3.710
 8042SOL    HW225026   2.782   3.494   3.774
 8043SOL     OW25027   3.549   6.999   1.741
 8043SOL    HW125028   3.499   0.006   1.658
 8043SOL    HW225029   3.614   6.927   1.717
 8044SOL     OW25030   3.955   2.421   1.308
 8044SOL    HW125031   3.972   2.350   1.240
 8044SOL    HW225032   4.039   2.475   1.320
 8045SOL     OW25033   5.213   1.394   2.552
 8045SOL    HW125034   5.257   1.484   2.563
 8045SOL    HW225035   5.119   1.406   2.521
 8046SOL     OW25036   0.278   5.372   1.537
 8046SOL    HW125037   0.260   5.464   1.503
 8046SOL    HW225038   0.228   5.305   1.481
 8047SOL     OW25039   4.057   5.621   4.774
 8047SOL    HW125040   3.975   5.609   4.830
 8047SOL    HW225041   4.109   5.535   4.773
 8048SOL     OW25042   4.891   0.720   5.517
 8048SOL    HW125043   4.919   0.736   5.423
 8048SOL    HW225044   4.945   0.779   5.578
 8049SOL     OW25045   0.924   0.404   0.103
 8049SOL    HW125046   0.952   0.345   0.027
 8049SOL    HW225047   0.825   0.403   0.112
 8050SOL     OW25048   1.550   4.253   3.295
 8050SOL    HW125049   1.480   4.293   3.236
 8050SOL    HW225050   1.552   4.154   3.284
 8051SOL     OW25051   4.564   5.476   3.471
 8051SOL    HW125052   4.487   5.540   3.462
 8051SOL    HW225053   4.530   5.387   3.499
 8052SOL     OW25054   4.648   1.319   1.869
 8052SOL    HW125055   4.598   1.404   1.888
 8052SOL    HW225056   4.747   1.338   1.867
 8053SOL     OW25057   2.894   3.545   3.322
 8053SOL    HW125058   2.834   3.591   3.257
 8053SOL    HW225059   2.964   3.609   3.354
 8054SOL     OW25060   5.058   6.534   4.687
 8054SOL    HW125061   4.986   6.600   4.666
 8054SOL    HW225062   5.146   6.570   4.658
 8055SOL     OW25063   0.543   0.085   5.581
 8055SOL    HW125064   0.522   0.174   5.620
 8055SOL    HW225065   0.612   0.096   5.509
 8056SOL     OW25066   2.677   1.313   4.306
 8056SOL    HW125067   2.635   1.359   4.227
 8056SOL    HW225068   2.679   1.376   4.383
 8057SOL     OW25069   3.120   1.520   3.138
 8057SOL    HW125070   3.107   1.618   3.124
 8057SOL    HW225071   3.107   1.471   3.052
 8058SOL     OW25072   3.720   0.109   2.094
 8058SOL    HW125073   3.767   0.127   2.180
 8058SOL    HW225074   3.787   0.098   2.021
 8059SOL     OW25075   3.328   2.012   4.775
 8059SOL    HW125076   3.305   1.978   4.684
 8059SOL    HW225077   3.295   1.947   4.844
 8060SOL     OW25078   6.178   2.229   4.554
 8060SOL    HW125079   6.190   2.268   4.646
 8060SOL    HW225080   6.211   2.134   4.554
 8061SOL     OW25081   0.443   1.220   2.976
 8061SOL    HW125082   0.500   1.281   3.030
 8061SOL    HW225083   0.403   1.151   3.036
 8062SOL     OW25084   3.825   5.191   4.230
 8062SOL    HW125085   3.919   5.156   4.232
 8062SOL    HW225086   3.778   5.154   4.150
 8063SOL     OW25087   0.866   2.613   1.302
 8063SOL    HW125088   0.848   2.558   1.220
 8063SOL    HW225089   0.940   2.572   1.354
 8064SOL     OW25090   0.126   3.829   1.862
 8064SOL    HW125091   0.186   3.856   1.937
 8064SOL    HW225092   0.098   3.734   1.873
 8065SOL     OW25093   2.106   5.791   3.568
 8065SOL    HW125094   2.148   5.865   3.621
 8065SOL    HW225095   2.123   5.805   3.471
 8066SOL     OW25096   0.074   1.990   5.642
 8066SOL    HW125097   7.019   2.053   5.657
 8066SOL    HW225098   0.129   2.022   5.566
 8067SOL     OW25099   4.618   2.789   1.733
 8067SOL    HW125100   4.623   2.868   1.794
 8067SOL    HW225101   4.711   2.763   1.705
 8068SOL     OW25102   0.243   3.732   1.139
 8068SOL    HW125103   0.197   3.807   1.093
 8068SOL    HW225104   0.205   3.645   1.108
 8069SOL     OW25105   2.199   6.744   1.227
 8069SOL    HW125106   2.152   6.819   1.274
 8069SOL    HW225107   2.131   6.682   1.187
 8070SOL     OW25108   3.794   2.919   0.202
 8070SOL    HW125109   3.802   2.952   0.108
 8070SOL    HW225110   3.698   2.905   0.225
 8071SOL     OW25111   2.882   6.156   4.958
 8071SOL    HW125112   2.845   6.201   4.876
 8071SOL    HW225113   2.934   6.223   5.011
 8072SOL     OW25114   3.604   1.194   0.736
 8072SOL    HW125115   3.639   1.269   0.679
 8072SOL    HW225116   3.546   1.134   0.681
 8073SOL     OW25117   2.948   5.184   4.512
 8073SOL    HW125118   3.027   5.229   4.470
 8073SOL    HW225119   2.958   5.085   4.503
 8074SOL     OW25120   3.939   2.437   0.711
 8074SOL    HW125121   3.933   2.418   0.809
 8074SOL    HW225122   4.035   2.446   0.685
 8075SOL     OW25123   6.965   0.505   1.021
 8075SOL    HW125124   0.038   0.469   1.030
 8075SOL    HW225125   6.962   0.572   0.947
 8076SOL     OW25126   6.696   1.410   5.209
 8076SOL    HW125127   6.730   1.325   5.252
 8076SOL    HW225128   6.749   1.487   5.243
 8077SOL     OW25129   2.744   5.904   2.159
 8077SOL    HW125130   2.748   5.804   2.169
 8077SOL    HW225131   2.649   5.934   2.162
 8078SOL     OW25132   0.225   1.315   0.153
 8078SOL    HW125133   0.246   1.412   0.135
 8078SOL    HW225134   0.168   1.280   0.079
 8079SOL     OW25135   4.477   1.515   3.333
 8079SOL    HW125136   4.496   1.533   3.236
 8079SOL    HW225137   4.423   1.591   3.371
 8080SOL     OW25138   0.411   2.556   0.432
 8080SOL    HW125139   0.313   2.533   0.429
 8080SOL    HW225140   0.421   2.655   0.434
 8081SOL     OW25141   5.692   5.973   5.276
 8081SOL    HW125142   5.623   5.948   5.209
 8081SOL    HW225143   5.648   5.999   5.362
 8082SOL     OW25144   4.715   6.604   1.576
 8082SOL    HW125145   4.745   6.677   1.636
 8082SOL    HW225146   4.765   6.520   1.597
 8083SOL     OW25147   4.910   3.476   2.752
 8083SOL    HW125148   4.953   3.386   2.758
 8083SOL    HW225149   4.883   3.494   2.657
 8084SOL     OW25150   4.690   0.150   0.508
 8084SOL    HW125151   4.713   0.239   0.546
 8084SOL    HW225152   4.596   0.127   0.531
 8085SOL     OW25153   6.383   6.567   1.676
 8085SOL    HW125154   6.361   6.637   1.608
 8085SOL    HW225155   6.304   6.507   1.688
 8086SOL     OW25156   5.249   0.959   3.144
 8086SOL    HW125157   5.188   0.898   3.195
 8086SOL    HW225158   5.241   0.939   3.046
 8087SOL     OW25159   2.861   1.706   0.600
 8087SOL    HW125160   2.809   1.632   0.556
 8087SOL    HW225161   2.955   1.676   0.616
 8088SOL     OW25162   4.933   1.968   1.426
 8088SOL    HW125163   5.003   2.035   1.450
 8088SOL    HW225164   4.878   1.946   1.507
 8089SOL     OW25165   5.376   2.196   0.786
 8089SOL    HW125166   5.307   2.127   0.809
 8089SOL    HW225167   5.441   2.204   0.862
 8090SOL     OW25168   5.005   1.650   0.089
 8090SOL    HW125169   4.947   1.726   0.118
 8090SOL    HW225170   4.953   1.565   0.092
 8091SOL     OW25171   2.567   3.455   5.326
 8091SOL    HW125172   2.576   3.551   5.353
 8091SOL    HW225173   2.652   3.407   5.346
 8092SOL     OW25174   6.257   2.199   5.227
 8092SOL    HW125175   6.169   2.235   5.258
 8092SOL    HW225176   6.263   2.207   5.127
 8093SOL     OW25177   4.111   5.320   2.979
 8093SOL    HW125178   4.078   5.351   3.068
 8093SOL    HW225179   4.034   5.293   2.922
 8094SOL     OW25180   1.836   3.789   4.816
 8094SOL    HW125181   1.782   3.707   4.830
 8094SOL    HW225182   1.929   3.775   4.851
 8095SOL     OW25183   7.019   4.461   5.154
 8095SOL    HW125184   6.934   4.410   5.164
 8095SOL    HW225185   0.049   4.458   5.239
 8096SOL     OW25186   2.443   6.434   3.251
 8096SOL    HW125187   2.463   6.506   3.185
 8096SOL    HW225188   2.498   6.353   3.230
 8097SOL     OW25189   4.703   0.171   4.082
 8097SOL    HW125190   4.773   0.124   4.028
 8097SOL    HW225191   4.655   0.104   4.139
 8098SOL     OW25192   1.714   0.438   3.360
 8098SOL    HW125193   1.647   0.506   3.329
 8098SOL    HW225194   1.804   0.463   3.325
 8099SOL     OW25195   3.557   0.183   4.555
 8099SOL    HW125196   3.499   0.172   4.635
 8099SOL    HW225197   3.560   0.279   4.529
 8100SOL     OW25198   6.029   1.139   0.654
 8100SOL    HW125199   6.016   1.108   0.748
 8100SOL    HW225200   6.064   1.233   0.655
 8101SOL     OW25201   2.067   6.977   3.242
 8101SOL    HW125202   2.113   0.004   3.168
 8101SOL    HW225203   2.035   6.888   3.210
 8102SOL     OW25204   0.474   4.481   4.306
 8102SOL    HW125205   0.528   4.436   4.377
 8102SOL    HW225206   0.377   4.469   4.327
 8103SOL     OW25207   4.061   6.921   1.171
 8103SOL    HW125208   4.052   7.005   1.225
 8103SOL    HW225209   4.110   6.852   1.224
 8104SOL     OW25210   3.109   0.133   6.150
 8104SOL    HW125211   3.042   0.088   6.209
 8104SOL    HW225212   3.185   0.168   6.206
 8105SOL     OW25213   0.447   2.566   3.128
 8105SOL    HW125214   0.503   2.494   3.084
 8105SOL    HW225215   0.388   2.608   3.059
 8106SOL     OW25216   2.133   5.842   2.823
 8106SOL    HW125217   2.079   5.860   2.740
 8106SOL    HW225218   2.228   5.870   2.807
 8107SOL     OW25219   0.440   5.110   4.331
 8107SOL    HW125220   0.462   5.077   4.239
 8107SOL    HW225221   0.501   5.066   4.397
 8108SOL     OW25222   5.970   3.166   5.249
 8108SOL    HW125223   6.014   3.247   5.289
 8108SOL    HW225224   5.936   3.107   5.322
 8109SOL     OW25225   1.561   3.832   4.502
 8109SOL    HW125226   1.527   3.791   4.587
 8109SOL    HW225227   1.657   3.805   4.489
 8110SOL     OW25228   3.199   6.401   1.007
 8110SOL    HW125229   3.289   6.426   1.041
 8110SOL    HW225230   3.161   6.327   1.063
 8111SOL     OW25231   4.565   0.328   4.832
 8111SOL    HW125232   4.493   0.303   4.896
 8111SOL    HW225233   4.646   0.272   4.849
 8112SOL     OW25234   2.406   2.564   4.882
 8112SOL    HW125235   2.391   2.619   4.799
 8112SOL    HW225236   2.457   2.482   4.858
 8113SOL     OW25237   3.074   3.449   0.816
 8113SOL    HW125238   2.998   3.442   0.881
 8113SOL    HW225239   3.060   3.529   0.757
 8114SOL     OW25240   1.907   3.860   1.745
 8114SOL    HW125241   1.972   3.818   1.808
 8114SOL    HW225242   1.919   3.960   1.747
 8115SOL     OW25243   3.319   0.384   0.301
 8115SOL    HW125244   3.324   0.389   0.201
 8115SOL    HW225245   3.407   0.412   0.340
 8116SOL     OW25246   4.276   5.594   5.807
 8116SOL    HW125247   4.366   5.556   5.828
 8116SOL    HW225248   4.277   5.635   5.716
 8117SOL     OW25249   1.767   0.927   3.761
 8117SOL    HW125250   1.810   0.919   3.671
 8117SOL    HW225251   1.668   0.916   3.751
 8118SOL     OW25252   5.952   4.082   6.097
 8118SOL    HW125253   5.884   4.065   6.025
 8118SOL    HW225254   5.942   4.176   6.131
 8119SOL     OW25255   6.079   5.990   5.674
 8119SOL    HW125256   6.113   6.025   5.587
 8119SOL    HW225257   6.144   6.012   5.747
 8120SOL     OW25258   2.116   5.126   0.412
 8120SOL    HW125259   2.157   5.043   0.373
 8120SOL    HW225260   2.112   5.117   0.512
 8121SOL     OW25261   0.855   4.295   1.813
 8121SOL    HW125262   0.810   4.258   1.894
 8121SOL    HW225263   0.794   4.361   1.769
 8122SOL     OW25264   0.999   5.850   2.086
 8122SOL    HW125265   1.056   5.770   2.069
 8122SOL    HW225266   1.021   5.889   2.175
 8123SOL     OW25267   6.267   0.737   6.379
 8123SOL    HW125268   6.209   0.747   6.460
 8123SOL    HW225269   6.229   0.791   6.304
 8124SOL     OW25270   6.302   6.618   0.997
 8124SOL    HW125271   6.318   6.712   1.027
 8124SOL    HW225272   6.207   6.592   1.016
 8125SOL     OW25273   1.147   1.096   4.043
 8125SOL    HW125274   1.086   1.028   4.003
 8125SOL    HW225275   1.154   1.175   3.983
 8126SOL     OW25276   5.309   4.785   2.833
 8126SOL    HW125277   5.409   4.782   2.826
 8126SOL    HW225278   5.269   4.770   2.743
 8127SOL     OW25279   3.185   5.985   6.484
 8127SOL    HW125280   3.092   5.976   6.519
 8127SOL    HW225281   3.218   5.895   6.455
 8128SOL     OW25282   2.885   1.688   1.567
 8128SOL    HW125283   2.940   1.626   1.623
 8128SOL    HW225284   2.944   1.731   1.498
 8129SOL     OW25285   4.174   0.812   5.763
 8129SOL    HW125286   4.152   0.887   5.825
 8129SOL    HW225287   4.251   0.839   5.704
 8130SOL     OW25288   0.468   3.577   5.818
 8130SOL    HW125289   0.531   3.509   5.857
 8130SOL    HW225290   0.392   3.530   5.773
 8131SOL     OW25291   3.532   2.073   0.802
 8131SOL    HW125292   3.630   2.083   0.820
 8131SOL    HW225293   3.501   2.147   0.743
 8132SOL     OW25294   5.984   6.320   5.999
 8132SOL    HW125295   5.987   6.376   6.082
 8132SOL    HW225296   6.001   6.378   5.919
 8133SOL     OW25297   2.849   4.485   1.367
 8133SOL    HW125298   2.918   4.422   1.404
 8133SOL    HW225299   2.788   4.435   1.306
 8134SOL     OW25300   0.427   2.754   5.456
 8134SOL    HW125301   0.427   2.830   5.391
 8134SOL    HW225302   0.337   2.709   5.455
 8135SOL     OW25303   2.412   5.852   1.298
 8135SOL    HW125304   2.352   5.872   1.222
 8135SOL    HW225305   2.365   5.869   1.385
 8136SOL     OW25306   4.367   4.927   3.208
 8136SOL    HW125307   4.391   4.895   3.116
 8136SOL    HW225308   4.341   4.848   3.264
 8137SOL     OW25309   3.538   1.268   5.231
 8137SOL    HW125310   3.498   1.183   5.196
 8137SOL    HW225311   3.565   1.325   5.153
 8138SOL     OW25312   6.010   1.640   0.320
 8138SOL    HW125313   6.056   1.701   0.385
 8138SOL    HW225314   5.922   1.612   0.359
 8139SOL     OW25315   0.689   1.404   3.607
 8139SOL    HW125316   0.730   1.316   3.632
 8139SOL    HW225317   0.639   1.394   3.521
 8140SOL     OW25318   4.911   0.341   0.794
 8140SOL    HW125319   4.953   0.394   0.868
 8140SOL    HW225320   4.969   0.263   0.771
 8141SOL     OW25321   4.473   6.451   5.448
 8141SOL    HW125322   4.377   6.425   5.435
 8141SOL    HW225323   4.478   6.548   5.475
 8142SOL     OW25324   1.594   4.604   0.002
 8142SOL    HW125325   1.527   4.586   6.950
 8142SOL    HW225326   1.629   4.697   7.013
 8143SOL     OW25327   0.151   4.798   0.866
 8143SOL    HW125328   0.077   4.767   0.806
 8143SOL    HW225329   0.115   4.816   0.957
 8144SOL     OW25330   6.859   6.334   5.888
 8144SOL    HW125331   6.799   6.314   5.966
 8144SOL    HW225332   6.935   6.269   5.887
 8145SOL     OW25333   5.579   5.727   1.389
 8145SOL    HW125334   5.621   5.793   1.327
 8145SOL    HW225335   5.488   5.701   1.354
 8146SOL     OW25336   4.680   0.847   5.038
 8146SOL    HW125337   4.701   0.771   4.976
 8146SOL    HW225338   4.585   0.839   5.069
 8147SOL     OW25339   7.004   1.376   2.098
 8147SOL    HW125340   6.929   1.331   2.051
 8147SOL    HW225341   7.004   1.349   2.195
 8148SOL     OW25342   5.362   4.321   0.808
 8148SOL    HW125343   5.279   4.325   0.753
 8148SOL    HW225344   5.342   4.279   0.896
 8149SOL     OW25345   2.116   6.153   2.881
 8149SOL    HW125346   2.168   6.213   2.942
 8149SOL    HW225347   2.161   6.064   2.876
 8150SOL     OW25348   1.851   3.833   1.236
 8150SOL    HW125349   1.849   3.742   1.193
 8150SOL    HW225350   1.813   3.900   1.173
 8151SOL     OW25351   5.742   4.555   2.617
 8151SOL    HW125352   5.655   4.510   2.595
 8151SOL    HW225353   5.747   4.643   2.568
 8152SOL     OW25354   6.019   2.119   3.107
 8152SOL    HW125355   6.048   2.165   3.023
 8152SOL    HW225356   5.924   2.142   3.126
 8153SOL     OW25357   1.368   1.889   3.861
 8153SOL    HW125358   1.271   1.895   3.886
 8153SOL    HW225359   1.380   1.923   3.767
 8154SOL     OW25360   4.086   5.508   2.722
 8154SOL    HW125361   4.078   5.517   2.623
 8154SOL    HW225362   4.180   5.530   2.749
 8155SOL     OW25363   1.602   3.118   1.870
 8155SOL    HW125364   1.535   3.190   1.884
 8155SOL    HW225365   1.593   3.081   1.777
 8156SOL     OW25366   4.871   6.208   0.406
 8156SOL    HW125367   4.771   6.212   0.406
 8156SOL    HW225368   4.906   6.246   0.320
 8157SOL     OW25369   6.232   4.837   6.052
 8157SOL    HW125370   6.181   4.874   5.975
 8157SOL    HW225371   6.178   4.765   6.097
 8158SOL     OW25372   5.023   4.565   6.942
 8158SOL    HW125373   4.966   4.601   6.869
 8158SOL    HW225374   5.002   4.613   0.007
 8159SOL     OW25375   2.500   5.624   2.763
 8159SOL    HW125376   2.496   5.722   2.783
 8159SOL    HW225377   2.416   5.595   2.719
 8160SOL     OW25378   5.430   0.485   3.614
 8160SOL    HW125379   5.525   0.514   3.608
 8160SOL    HW225380   5.372   0.545   3.559
 8161SOL     OW25381   6.125   2.429   6.425
 8161SOL    HW125382   6.117   2.511   6.482
 8161SOL    HW225383   6.120   2.454   6.329
 8162SOL     OW25384   6.251   6.506   6.900
 8162SOL    HW125385   6.268   6.414   6.864
 8162SOL    HW225386   6.157   6.534   6.879
 8163SOL     OW25387   2.661   4.388   5.554
 8163SOL    HW125388   2.681   4.296   5.588
 8163SOL    HW225389   2.716   4.407   5.473
 8164SOL     OW25390   4.958   2.488   0.348
 8164SOL    HW125391   4.872   2.536   0.333
 8164SOL    HW225392   5.033   2.542   0.308
 8165SOL     OW25393   0.866   3.935   6.169
 8165SOL    HW125394   0.808   3.963   6.246
 8165SOL    HW225395   0.842   3.988   6.088
 8166SOL     OW25396   1.500   0.640   3.283
 8166SOL    HW125397   1.427   0.581   3.316
 8166SOL    HW225398   1.534   0.697   3.358
 8167SOL     OW25399   0.074   0.228   3.896
 8167SOL    HW125400   0.109   0.153   3.841
 8167SOL    HW225401   6.995   0.232   3.888
 8168SOL     OW25402   2.074   1.757   2.763
 8168SOL    HW125403   2.073   1.660   2.787
 8168SOL    HW225404   2.038   1.810   2.840
 8169SOL     OW25405   4.835   1.980   0.655
 8169SOL    HW125406   4.905   2.008   0.589
 8169SOL    HW225407   4.750   2.030   0.637
 8170SOL     OW25408   1.135   5.140   2.032
 8170SOL    HW125409   1.055   5.081   2.049
 8170SOL    HW225410   1.127   5.181   1.941
 8171SOL     OW25411   1.752   1.885   6.446
 8171SOL    HW125412   1.852   1.884   6.458
 8171SOL    HW225413   1.729   1.847   6.357
 8172SOL     OW25414   0.430   2.368   2.430
 8172SOL    HW125415   0.525   2.396   2.440
 8172SOL    HW225416   0.386   2.422   2.357
 8173SOL     OW25417   5.621   1.611   2.349
 8173SOL    HW125418   5.616   1.511   2.341
 8173SOL    HW225419   5.605   1.652   2.259
 8174SOL     OW25420   6.517   1.294   2.061
 8174SOL    HW125421   6.608   1.286   2.021
 8174SOL    HW225422   6.507   1.229   2.136
 8175SOL     OW25423   0.700   2.976   5.543
 8175SOL    HW125424   0.792   3.003   5.513
 8175SOL    HW225425   0.704   2.886   5.587
 8176SOL     OW25426   2.117   4.750   1.584
 8176SOL    HW125427   2.046   4.680   1.575
 8176SOL    HW225428   2.075   4.841   1.587
 8177SOL     OW25429   3.656   6.385   3.823
 8177SOL    HW125430   3.746   6.366   3.861
 8177SOL    HW225431   3.587   6.331   3.873
 8178SOL     OW25432   2.689   6.246   0.385
 8178SOL    HW125433   2.617   6.184   0.416
 8178SOL    HW225434   2.684   6.255   0.285
 8179SOL     OW25435   4.805   1.941   4.921
 8179SOL    HW125436   4.713   1.955   4.957
 8179SOL    HW225437   4.800   1.929   4.822
 8180SOL     OW25438   6.557   0.540   5.006
 8180SOL    HW125439   6.632   0.561   4.942
 8180SOL    HW225440   6.540   0.442   5.006
 8181SOL     OW25441   2.210   1.445   0.844
 8181SOL    HW125442   2.241   1.489   0.760
 8181SOL    HW225443   2.110   1.452   0.850
 8182SOL     OW25444   3.085   3.624   5.824
 8182SOL    HW125445   3.010   3.646   5.887
 8182SOL    HW225446   3.112   3.706   5.774
 8183SOL     OW25447   6.540   2.076   4.889
 8183SOL    HW125448   6.577   2.023   4.965
 8183SOL    HW225449   6.453   2.117   4.917
 8184SOL     OW25450   6.559   0.866   0.180
 8184SOL    HW125451   6.624   0.813   0.235
 8184SOL    HW225452   6.468   0.859   0.222
 8185SOL     OW25453   2.432   0.550   0.226
 8185SOL    HW125454   2.454   0.531   0.130
 8185SOL    HW225455   2.445   0.467   0.280
 8186SOL     OW25456   3.718   4.789   5.382
 8186SOL    HW125457   3.701   4.822   5.289
 8186SOL    HW225458   3.653   4.832   5.445
 8187SOL     OW25459   1.360   1.938   4.669
 8187SOL    HW125460   1.308   2.018   4.638
 8187SOL    HW225461   1.297   1.862   4.684
 8188SOL     OW25462   5.875   2.765   2.950
 8188SOL    HW125463   5.962   2.776   2.903
 8188SOL    HW225464   5.800   2.789   2.887
 8189SOL     OW25465   4.599   4.420   2.812
 8189SOL    HW125466   4.666   4.352   2.783
 8189SOL    HW225467   4.556   4.461   2.732
 8190SOL     OW25468   4.855   5.160   4.559
 8190SOL    HW125469   4.822   5.185   4.649
 8190SOL    HW225470   4.783   5.175   4.491
 8191SOL     OW25471   3.409   6.403   1.581
 8191SOL    HW125472   3.481   6.381   1.514
 8191SOL    HW225473   3.383   6.321   1.630
 8192SOL     OW25474   3.863   4.787   0.672
 8192SOL    HW125475   3.914   4.778   0.587
 8192SOL    HW225476   3.842   4.884   0.689
 8193SOL     OW25477   6.650   5.776   4.648
 8193SOL    HW125478   6.731   5.834   4.650
 8193SOL    HW225479   6.651   5.715   4.727
 8194SOL     OW25480   5.460   2.590   1.164
 8194SOL    HW125481   5.381   2.554   1.213
 8194SOL    HW225482   5.539   2.530   1.179
 8195SOL     OW25483   1.637   0.533   2.020
 8195SOL    HW125484   1.592   0.462   1.966
 8195SOL    HW225485   1.572   0.574   2.083
 8196SOL     OW25486   3.758   6.058   5.778
 8196SOL    HW125487   3.702   6.056   5.861
 8196SOL    HW225488   3.844   6.011   5.795
 8197SOL     OW25489   4.375   1.927   0.003
 8197SOL    HW125490   4.370   1.939   6.925
 8197SOL    HW225491   4.294   1.877   0.034
 8198SOL     OW25492   3.663   6.781   2.957
 8198SOL    HW125493   3.743   6.825   2.917
 8198SOL    HW225494   3.584   6.793   2.897
 8199SOL     OW25495   6.132   2.910   6.580
 8199SOL    HW125496   6.184   2.955   6.507
 8199SOL    HW225497   6.151   2.956   6.667
 8200SOL     OW25498   5.248   4.424   1.961
 8200SOL    HW125499   5.179   4.377   2.017
 8200SOL    HW225500   5.261   4.516   1.998
 8201SOL     OW25501   5.687   0.353   3.550
 8201SOL    HW125502   5.626   0.303   3.611
 8201SOL    HW225503   5.748   0.289   3.503
 8202SOL     OW25504   0.583   5.635   4.115
 8202SOL    HW125505   0.666   5.672   4.073
 8202SOL    HW225506   0.503   5.670   4.066
 8203SOL     OW25507   4.062   2.390   0.198
 8203SOL    HW125508   4.058   2.401   0.099
 8203SOL    HW225509   4.020   2.469   0.243
 8204SOL     OW25510   2.517   5.066   6.740
 8204SOL    HW125511   2.458   5.125   6.795
 8204SOL    HW225512   2.525   4.977   6.785
 8205SOL     OW25513   0.397   4.698   0.760
 8205SOL    HW125514   0.413   4.753   0.678
 8205SOL    HW225515   0.321   4.737   0.811
 8206SOL     OW25516   4.883   2.783   6.174
 8206SOL    HW125517   4.841   2.813   6.259
 8206SOL    HW225518   4.941   2.856   6.138
 8207SOL     OW25519   3.304   4.138   4.787
 8207SOL    HW125520   3.284   4.146   4.689
 8207SOL    HW225521   3.269   4.218   4.835
 8208SOL     OW25522   2.344   0.045   1.243
 8208SOL    HW125523   2.351   0.137   1.203
 8208SOL    HW225524   2.252   0.032   1.279
 8209SOL     OW25525   0.640   1.248   5.461
 8209SOL    HW125526   0.639   1.326   5.524
 8209SOL    HW225527   0.593   1.273   5.376
 8210SOL     OW25528   2.334   1.385   1.254
 8210SOL    HW125529   2.401   1.314   1.234
 8210SOL    HW225530   2.329   1.399   1.353
 8211SOL     OW25531   3.828   3.945   2.087
 8211SOL    HW125532   3.873   3.962   1.999
 8211SOL    HW225533   3.835   4.026   2.144
 8212SOL     OW25534   1.957   1.999   2.099
 8212SOL    HW125535   1.989   2.044   2.182
 8212SOL    HW225536   1.921   1.908   2.121
 8213SOL     OW25537   6.440   4.547   2.478
 8213SOL    HW125538   6.374   4.552   2.403
 8213SOL    HW225539   6.525   4.504   2.445
 8214SOL     OW25540   0.098   5.431   4.750
 8214SOL    HW125541   0.098   5.483   4.835
 8214SOL    HW225542   0.034   5.355   4.757
 8215SOL     OW25543   2.517   5.800   6.081
 8215SOL    HW125544   2.471   5.883   6.049
 8215SOL    HW225545   2.610   5.822   6.110
 8216SOL     OW25546   4.961   5.356   3.927
 8216SOL    HW125547   4.905   5.400   3.856
 8216SOL    HW225548   4.927   5.382   4.017
 8217SOL     OW25549   2.153   4.114   1.389
 8217SOL    HW125550   2.233   4.165   1.419
 8217SOL    HW225551   2.136   4.038   1.452
 8218SOL     OW25552   0.945   6.315   4.401
 8218SOL    HW125553   1.020   6.306   4.335
 8218SOL    HW225554   0.958   6.248   4.475
 8219SOL     OW25555   4.166   3.098   0.684
 8219SOL    HW125556   4.127   3.095   0.777
 8219SOL    HW225557   4.226   3.178   0.676
 8220SOL     OW25558   3.142   4.022   4.211
 8220SOL    HW125559   3.108   3.944   4.264
 8220SOL    HW225560   3.138   4.104   4.268
 8221SOL     OW25561   6.180   6.032   3.391
 8221SOL    HW125562   6.253   6.026   3.459
 8221SOL    HW225563   6.207   5.981   3.309
 8222SOL     OW25564   5.222   0.957   1.263
 8222SOL    HW125565   5.180   1.041   1.229
 8222SOL    HW225566   5.307   0.979   1.311
 8223SOL     OW25567   1.623   4.375   5.110
 8223SOL    HW125568   1.706   4.340   5.152
 8223SOL    HW225569   1.583   4.446   5.169
 8224SOL     OW25570   5.546   2.679   2.380
 8224SOL    HW125571   5.526   2.611   2.309
 8224SOL    HW225572   5.534   2.770   2.343
 8225SOL     OW25573   4.046   1.389   1.083
 8225SOL    HW125574   4.092   1.457   1.026
 8225SOL    HW225575   4.103   1.307   1.089
 8226SOL     OW25576   3.457   6.138   0.744
 8226SOL    HW125577   3.496   6.053   0.707
 8226SOL    HW225578   3.421   6.194   0.670
 8227SOL     OW25579   0.268   1.494   2.530
 8227SOL    HW125580   0.196   1.542   2.581
 8227SOL    HW225581   0.233   1.405   2.499
 8228SOL     OW25582   0.060   1.777   6.063
 8228SOL    HW125583   0.100   1.864   6.033
 8228SOL    HW225584   6.983   1.776   6.041
 8229SOL     OW25585   4.691   3.662   1.302
 8229SOL    HW125586   4.634   3.709   1.234
 8229SOL    HW225587   4.636   3.593   1.350
 8230SOL     OW25588   3.392   6.722   5.139
 8230SOL    HW125589   3.434   6.792   5.081
 8230SOL    HW225590   3.296   6.746   5.156
 8231SOL     OW25591   2.957   2.995   1.633
 8231SOL    HW125592   2.895   2.922   1.604
 8231SOL    HW225593   2.984   3.049   1.554
 8232SOL     OW25594   5.515   1.838   2.431
 8232SOL    HW125595   5.529   1.748   2.392
 8232SOL    HW225596   5.603   1.885   2.439
 8233SOL     OW25597   1.467   0.081   6.235
 8233SOL    HW125598   1.411   0.161   6.214
 8233SOL    HW225599   1.468   0.065   6.334
 8234SOL     OW25600   2.782   3.987   6.969
 8234SOL    HW125601   2.820   3.902   6.934
 8234SOL    HW225602   2.837   4.019   0.025
 8235SOL     OW25603   0.278   3.422   6.705
 8235SOL    HW125604   0.364   3.466   6.732
 8235SOL    HW225605   0.201   3.469   6.749
 8236SOL     OW25606   0.335   5.048   0.514
 8236SOL    HW125607   0.399   4.990   0.564
 8236SOL    HW225608   0.369   5.062   0.421
 8237SOL     OW25609   4.617   5.851   6.216
 8237SOL    HW125610   4.593   5.912   6.140
 8237SOL    HW225611   4.585   5.759   6.196
 8238SOL     OW25612   0.429   5.444   6.964
 8238SOL    HW125613   0.435   5.517   6.895
 8238SOL    HW225614   0.354   5.382   6.940
 8239SOL     OW25615   0.325   0.963   5.331
 8239SOL    HW125616   0.276   0.947   5.416
 8239SOL    HW225617   0.267   0.938   5.254
 8240SOL     OW25618   3.856   3.986   2.538
 8240SOL    HW125619   3.803   3.993   2.623
 8240SOL    HW225620   3.864   4.076   2.496
 8241SOL     OW25621   2.783   5.612   6.219
 8241SOL    HW125622   2.735   5.549   6.157
 8241SOL    HW225623   2.848   5.561   6.275
 8242SOL     OW25624   0.656   4.060   6.351
 8242SOL    HW125625   0.712   4.120   6.408
 8242SOL    HW225626   0.590   4.012   6.408
 8243SOL     OW25627   6.559   3.124   0.891
 8243SOL    HW125628   6.633   3.177   0.849
 8243SOL    HW225629   6.590   3.085   0.977
 8244SOL     OW25630   0.111   0.955   3.257
 8244SOL    HW125631   0.073   1.046   3.243
 8244SOL    HW225632   0.112   0.933   3.354
 8245SOL     OW25633   3.825   2.137   2.476
 8245SOL    HW125634   3.804   2.101   2.385
 8245SOL    HW225635   3.898   2.205   2.469
 8246SOL     OW25636   0.693   3.670   6.623
 8246SOL    HW125637   0.672   3.659   6.526
 8246SOL    HW225638   0.783   3.630   6.641
 8247SOL     OW25639   2.291   0.728   3.065
 8247SOL    HW125640   2.281   0.692   2.972
 8247SOL    HW225641   2.203   0.721   3.113
 8248SOL     OW25642   0.157   4.808   4.577
 8248SOL    HW125643   0.102   4.862   4.513
 8248SOL    HW225644   0.215   4.870   4.631
 8249SOL     OW25645   1.719   1.299   5.580
 8249SOL    HW125646   1.693   1.395   5.587
 8249SOL    HW225647   1.703   1.267   5.487
 8250SOL     OW25648   2.384   2.402   1.772
 8250SOL    HW125649   2.358   2.468   1.842
 8250SOL    HW225650   2.477   2.370   1.790
 8251SOL     OW25651   5.020   3.135   4.458
 8251SOL    HW125652   4.955   3.091   4.396
 8251SOL    HW225653   4.998   3.232   4.467
 8252SOL     OW25654   3.490   2.109   6.442
 8252SOL    HW125655   3.390   2.115   6.440
 8252SOL    HW225656   3.526   2.143   6.355
 8253SOL     OW25657   3.876   5.522   5.992
 8253SOL    HW125658   3.876   5.617   6.021
 8253SOL    HW225659   3.783   5.486   5.994
 8254SOL     OW25660   4.611   4.577   5.350
 8254SOL    HW125661   4.662   4.655   5.387
 8254SOL    HW225662   4.636   4.494   5.400
 8255SOL     OW25663   1.744   6.147   5.361
 8255SOL    HW125664   1.841   6.132   5.344
 8255SOL    HW225665   1.717   6.237   5.327
 8256SOL     OW25666   6.917   6.534   2.333
 8256SOL    HW125667   6.986   6.604   2.316
 8256SOL    HW225668   6.836   6.576   2.373
 8257SOL     OW25669   5.203   3.525   2.413
 8257SOL    HW125670   5.241   3.574   2.491
 8257SOL    HW225671   5.103   3.531   2.416
 8258SOL     OW25672   5.276   2.571   1.884
 8258SOL    HW125673   5.301   2.474   1.875
 8258SOL    HW225674   5.265   2.593   1.981
 8259SOL     OW25675   3.789   1.599   4.888
 8259SOL    HW125676   3.886   1.592   4.913
 8259SOL    HW225677   3.769   1.693   4.860
 8260SOL     OW25678   2.560   6.969   1.388
 8260SOL    HW125679   2.489   7.003   1.327
 8260SOL    HW225680   2.569   6.870   1.378
 8261SOL     OW25681   5.561   6.486   2.734
 8261SOL    HW125682   5.517   6.400   2.762
 8261SOL    HW225683   5.510   6.526   2.658
 8262SOL     OW25684   1.176   3.512   0.176
 8262SOL    HW125685   1.078   3.523   0.187
 8262SOL    HW225686   1.204   3.421   0.208
 8263SOL     OW25687   0.272   2.458   6.387
 8263SOL    HW125688   0.183   2.504   6.388
 8263SOL    HW225689   0.304   2.447   6.481
 8264SOL     OW25690   1.762   6.721   0.601
 8264SOL    HW125691   1.748   6.715   0.502
 8264SOL    HW225692   1.853   6.758   0.619
 8265SOL     OW25693   6.154   0.329   1.655
 8265SOL    HW125694   6.102   0.386   1.592
 8265SOL    HW225695   6.094   0.301   1.730
 8266SOL     OW25696   2.212   0.992   4.689
 8266SOL    HW125697   2.168   1.081   4.700
 8266SOL    HW225698   2.224   0.973   4.591
 8267SOL     OW25699   1.550   3.812   1.569
 8267SOL    HW125700   1.506   3.723   1.581
 8267SOL    HW225701   1.575   3.824   1.473
 8268SOL     OW25702   2.708   6.427   6.636
 8268SOL    HW125703   2.727   6.525   6.632
 8268SOL    HW225704   2.714   6.396   6.731
 8269SOL     OW25705   4.484   1.928   2.403
 8269SOL    HW125706   4.466   1.942   2.501
 8269SOL    HW225707   4.529   1.840   2.389
 8270SOL     OW25708   2.934   6.534   4.666
 8270SOL    HW125709   2.834   6.539   4.669
 8270SOL    HW225710   2.973   6.609   4.719
 8271SOL     OW25711   0.436   0.025   2.860
 8271SOL    HW125712   0.467   0.009   2.767
 8271SOL    HW225713   0.393   6.963   2.896
 8272SOL     OW25714   6.300   2.033   2.872
 8272SOL    HW125715   6.305   1.969   2.948
 8272SOL    HW225716   6.271   2.123   2.906
 8273SOL     OW25717   2.778   1.786   1.018
 8273SOL    HW125718   2.782   1.847   1.097
 8273SOL    HW225719   2.723   1.706   1.041
 8274SOL     OW25720   3.721   5.495   4.733
 8274SOL    HW125721   3.807   5.444   4.723
 8274SOL    HW225722   3.708   5.520   4.829
 8275SOL     OW25723   5.409   0.139   4.635
 8275SOL    HW125724   5.354   0.169   4.713
 8275SOL    HW225725   5.367   0.057   4.595
 8276SOL     OW25726   0.873   1.808   5.008
 8276SOL    HW125727   0.792   1.764   5.046
 8276SOL    HW225728   0.954   1.754   5.032
 8277SOL     OW25729   1.067   6.119   5.816
 8277SOL    HW125730   1.084   6.215   5.837
 8277SOL    HW225731   1.133   6.087   5.748
 8278SOL     OW25732   3.173   2.202   6.840
 8278SOL    HW125733   3.143   2.209   6.745
 8278SOL    HW225734   3.266   2.166   6.843
 8279SOL     OW25735   0.650   6.388   4.782
 8279SOL    HW125736   0.738   6.433   4.774
 8279SOL    HW225737   0.603   6.389   4.694
 8280SOL     OW25738   2.887   3.104   0.322
 8280SOL    HW125739   2.807   3.090   0.265
 8280SOL    HW225740   2.871   3.065   0.413
 8281SOL     OW25741   2.520   4.704   1.698
 8281SOL    HW125742   2.540   4.693   1.601
 8281SOL    HW225743   2.448   4.773   1.710
 8282SOL     OW25744   3.976   3.980   6.498
 8282SOL    HW125745   3.936   4.071   6.484
 8282SOL    HW225746   4.023   3.951   6.415
 8283SOL     OW25747   1.826   4.833   4.877
 8283SOL    HW125748   1.864   4.740   4.879
 8283SOL    HW225749   1.838   4.876   4.966
 8284SOL     OW25750   1.342   3.705   1.407
 8284SOL    HW125751   1.246   3.688   1.431
 8284SOL    HW225752   1.375   3.786   1.456
 8285SOL     OW25753   3.606   4.210   4.740
 8285SOL    HW125754   3.517   4.187   4.779
 8285SOL    HW225755   3.636   4.299   4.775
 8286SOL     OW25756   5.270   1.988   4.863
 8286SOL    HW125757   5.307   2.067   4.910
 8286SOL    HW225758   5.285   1.906   4.918
 8287SOL     OW25759   1.174   4.873   4.138
 8287SOL    HW125760   1.112   4.819   4.195
 8287SOL    HW225761   1.163   4.970   4.158
 8288SOL     OW25762   2.852   2.203   2.419
 8288SOL    HW125763   2.935   2.197   2.475
 8288SOL    HW225764   2.875   2.185   2.323
 8289SOL     OW25765   0.351   6.324   6.013
 8289SOL    HW125766   0.423   6.357   6.075
 8289SOL    HW225767   0.385   6.326   5.919
 8290SOL     OW25768   5.134   2.076   0.796
 8290SOL    HW125769   5.126   2.103   0.701
 8290SOL    HW225770   5.043   2.071   0.838
 8291SOL     OW25771   4.868   4.735   5.839
 8291SOL    HW125772   4.937   4.800   5.808
 8291SOL    HW225773   4.904   4.680   5.914
 8292SOL     OW25774   3.337   6.406   6.757
 8292SOL    HW125775   3.314   6.375   6.665
 8292SOL    HW225776   3.436   6.404   6.769
 8293SOL     OW25777   2.001   5.497   0.972
 8293SOL    HW125778   1.974   5.425   0.908
 8293SOL    HW225779   2.099   5.493   0.988
 8294SOL     OW25780   5.325   3.762   4.828
 8294SOL    HW125781   5.313   3.852   4.785
 8294SOL    HW225782   5.388   3.770   4.905
 8295SOL     OW25783   4.956   3.314   2.359
 8295SOL    HW125784   4.984   3.363   2.276
 8295SOL    HW225785   4.910   3.378   2.421
 8296SOL     OW25786   2.449   4.970   0.104
 8296SOL    HW125787   2.438   5.044   0.039
 8296SOL    HW225788   2.532   4.918   0.082
 8297SOL     OW25789   0.036   3.364   2.814
 8297SOL    HW125790   0.032   3.436   2.884
 8297SOL    HW225791   0.124   3.370   2.765
 8298SOL     OW25792   6.940   1.592   0.598
 8298SOL    HW125793   6.967   1.557   0.508
 8298SOL    HW225794   7.014   1.647   0.637
 8299SOL     OW25795   0.581   2.847   2.863
 8299SOL    HW125796   0.532   2.882   2.943
 8299SOL    HW225797   0.676   2.880   2.866
 8300SOL     OW25798   0.413   6.250   3.900
 8300SOL    HW125799   0.478   6.209   3.964
 8300SOL    HW225800   0.344   6.302   3.951
 8301SOL     OW25801   4.539   1.056   0.353
 8301SOL    HW125802   4.562   1.020   0.444
 8301SOL    HW225803   4.560   0.986   0.284
 8302SOL     OW25804   5.424   6.505   6.277
 8302SOL    HW125805   5.450   6.435   6.211
 8302SOL    HW225806   5.403   6.590   6.228
 8303SOL     OW25807   6.124   0.265   3.781
 8303SOL    HW125808   6.103   0.192   3.716
 8303SOL    HW225809   6.053   0.335   3.777
 8304SOL     OW25810   5.584   3.967   1.586
 8304SOL    HW125811   5.575   3.945   1.489
 8304SOL    HW225812   5.496   3.997   1.622
 8305SOL     OW25813   4.850   4.588   4.305
 8305SOL    HW125814   4.821   4.639   4.386
 8305SOL    HW225815   4.842   4.647   4.224
 8306SOL     OW25816   5.984   1.382   3.397
 8306SOL    HW125817   6.064   1.351   3.346
 8306SOL    HW225818   5.964   1.477   3.374
 8307SOL     OW25819   3.973   5.440   1.667
 8307SOL    HW125820   3.892   5.388   1.696
 8307SOL    HW225821   4.049   5.422   1.730
 8308SOL     OW25822   2.229   6.067   0.304
 8308SOL    HW125823   2.254   5.974   0.331
 8308SOL    HW225824   2.270   6.087   0.215
 8309SOL     OW25825   6.373   6.059   2.198
 8309SOL    HW125826   6.396   6.017   2.285
 8309SOL    HW225827   6.457   6.071   2.143
 8310SOL     OW25828   0.749   5.679   1.572
 8310SOL    HW125829   0.736   5.657   1.668
 8310SOL    HW225830   0.667   5.653   1.520
 8311SOL     OW25831   6.373   1.678   5.440
 8311SOL    HW125832   6.314   1.665   5.520
 8311SOL    HW225833   6.468   1.688   5.470
 8312SOL     OW25834   4.961   0.852   6.926
 8312SOL    HW125835   5.011   0.840   6.841
 8312SOL    HW225836   4.881   0.911   6.911
 8313SOL     OW25837   6.078   0.105   6.237
 8313SOL    HW125838   6.107   0.200   6.237
 8313SOL    HW225839   6.039   0.083   6.147
 8314SOL     OW25840   5.976   6.495   6.839
 8314SOL    HW125841   5.954   6.591   6.822
 8314SOL    HW225842   5.983   6.479   6.937
 8315SOL     OW25843   3.734   3.124   2.472
 8315SOL    HW125844   3.660   3.191   2.469
 8315SOL    HW225845   3.729   3.072   2.557
 8316SOL     OW25846   1.295   2.838   2.200
 8316SOL    HW125847   1.284   2.742   2.174
 8316SOL    HW225848   1.380   2.874   2.160
 8317SOL     OW25849   1.611   2.421   2.944
 8317SOL    HW125850   1.583   2.457   2.856
 8317SOL    HW225851   1.611   2.494   3.012
 8318SOL     OW25852   3.868   1.373   6.091
 8318SOL    HW125853   3.812   1.325   6.023
 8318SOL    HW225854   3.922   1.444   6.046
 8319SOL     OW25855   1.053   1.465   1.564
 8319SOL    HW125856   1.088   1.392   1.623
 8319SOL    HW225857   1.117   1.480   1.488
 8320SOL     OW25858   2.941   3.835   2.701
 8320SOL    HW125859   2.963   3.877   2.790
 8320SOL    HW225860   3.004   3.870   2.632
 8321SOL     OW25861   6.473   6.756   6.963
 8321SOL    HW125862   6.529   6.819   7.017
 8321SOL    HW225863   6.411   6.706   0.001
 8322SOL     OW25864   6.674   1.047   0.628
 8322SOL    HW125865   6.605   0.976   0.642
 8322SOL    HW225866   6.640   1.114   0.562
 8323SOL     OW25867   4.522   4.670   1.647
 8323SOL    HW125868   4.573   4.680   1.562
 8323SOL    HW225869   4.547   4.585   1.692
 8324SOL     OW25870   5.989   0.058   1.284
 8324SOL    HW125871   5.938   0.100   1.209
 8324SOL    HW225872   5.930   7.012   1.329
 8325SOL     OW25873   1.313   3.524   5.156
 8325SOL    HW125874   1.233   3.571   5.120
 8325SOL    HW225875   1.393   3.583   5.147
 8326SOL     OW25876   4.659   4.205   5.476
 8326SOL    HW125877   4.629   4.263   5.401
 8326SOL    HW225878   4.589   4.137   5.497
 8327SOL     OW25879   6.948   0.351   5.903
 8327SOL    HW125880   0.008   0.305   5.941
 8327SOL    HW225881   6.883   0.282   5.871
 8328SOL     OW25882   2.636   5.875   6.772
 8328SOL    HW125883   2.587   5.800   6.728
 8328SOL    HW225884   2.708   5.838   6.831
 8329SOL     OW25885   0.954   2.879   5.344
 8329SOL    HW125886   1.039   2.923   5.373
 8329SOL    HW225887   0.926   2.813   5.414
 8330SOL     OW25888   2.801   0.885   6.319
 8330SOL    HW125889   2.762   0.824   6.250
 8330SOL    HW225890   2.874   0.939   6.279
 8331SOL     OW25891   3.316   0.686   1.280
 8331SOL    HW125892   3.335   0.666   1.377
 8331SOL    HW225893   3.366   0.621   1.223
 8332SOL     OW25894   5.919   5.437   2.159
 8332SOL    HW125895   6.007   5.399   2.185
 8332SOL    HW225896   5.930   5.501   2.083
 8333SOL     OW25897   0.682   5.350   6.709
 8333SOL    HW125898   0.773   5.374   6.745
 8333SOL    HW225899   0.613   5.406   6.754
 8334SOL     OW25900   3.524   1.758   4.417
 8334SOL    HW125901   3.542   1.660   4.430
 8334SOL    HW225902   3.595   1.811   4.464
 8335SOL     OW25903   4.871   1.406   0.115
 8335SOL    HW125904   4.909   1.316   0.093
 8335SOL    HW225905   4.828   1.403   0.205
 8336SOL     OW25906   0.786   4.711   2.670
 8336SOL    HW125907   0.746   4.622   2.650
 8336SOL    HW225908   0.715   4.781   2.666
 8337SOL     OW25909   0.833   6.286   3.614
 8337SOL    HW125910   0.824   6.188   3.595
 8337SOL    HW225911   0.766   6.313   3.683
 8338SOL     OW25912   4.020   5.093   1.632
 8338SOL    HW125913   3.973   5.138   1.707
 8338SOL    HW225914   4.112   5.130   1.623
 8339SOL     OW25915   6.841   0.583   2.133
 8339SOL    HW125916   6.837   0.628   2.223
 8339SOL    HW225917   6.845   0.484   2.146
 8340SOL     OW25918   4.938   3.877   1.383
 8340SOL    HW125919   4.916   3.789   1.341
 8340SOL    HW225920   4.982   3.861   1.471
 8341SOL     OW25921   2.282   0.014   6.342
 8341SOL    HW125922   2.287   6.992   6.252
 8341SOL    HW225923   2.192   7.019   6.382
 8342SOL     OW25924   4.652   0.098   0.219
 8342SOL    HW125925   4.654   7.020   0.200
 8342SOL    HW225926   4.666   0.113   0.316
 8343SOL     OW25927   0.541   6.064   3.559
 8343SOL    HW125928   0.628   6.038   3.516
 8343SOL    HW225929   0.522   6.160   3.541
 8344SOL     OW25930   6.227   5.723   4.666
 8344SOL    HW125931   6.225   5.678   4.577
 8344SOL    HW225932   6.138   5.764   4.685
 8345SOL     OW25933   4.162   2.131   2.602
 8345SOL    HW125934   4.143   2.153   2.506
 8345SOL    HW225935   4.220   2.202   2.641
 8346SOL     OW25936   3.733   5.122   0.652
 8346SOL    HW125937   3.796   5.134   0.576
 8346SOL    HW225938   3.641   5.105   0.616
 8347SOL     OW25939   3.397   6.832   4.831
 8347SOL    HW125940   3.453   6.750   4.841
 8347SOL    HW225941   3.329   6.817   4.759
 8348SOL     OW25942   2.084   1.509   1.161
 8348SOL    HW125943   2.172   1.470   1.188
 8348SOL    HW225944   2.033   1.536   1.243
 8349SOL     OW25945   0.888   0.166   2.306
 8349SOL    HW125946   0.916   0.113   2.225
 8349SOL    HW225947   0.932   0.128   2.387
 8350SOL     OW25948   2.797   6.127   6.240
 8350SOL    HW125949   2.787   6.036   6.201
 8350SOL    HW225950   2.732   6.138   6.316
 8351SOL     OW25951   5.097   5.629   4.581
 8351SOL    HW125952   5.051   5.542   4.600
 8351SOL    HW225953   5.028   5.699   4.561
 8352SOL     OW25954   0.357   0.064   3.224
 8352SOL    HW125955   0.327   0.122   3.148
 8352SOL    HW225956   0.456   0.051   3.219
 8353SOL     OW25957   0.364   3.992   1.469
 8353SOL    HW125958   0.457   3.984   1.431
 8353SOL    HW225959   0.317   4.069   1.426
 8354SOL     OW25960   3.327   0.305   4.795
 8354SOL    HW125961   3.336   0.206   4.800
 8354SOL    HW225962   3.269   0.330   4.718
 8355SOL     OW25963   2.806   1.398   5.562
 8355SOL    HW125964   2.738   1.471   5.552
 8355SOL    HW225965   2.795   1.355   5.652
 8356SOL     OW25966   0.931   0.292   1.893
 8356SOL    HW125967   0.979   0.379   1.901
 8356SOL    HW225968   0.945   0.254   1.802
 8357SOL     OW25969   3.511   6.923   5.394
 8357SOL    HW125970   3.509   6.827   5.366
 8357SOL    HW225971   3.568   6.934   5.475
 8358SOL     OW25972   1.882   4.010   5.132
 8358SOL    HW125973   1.804   4.049   5.082
 8358SOL    HW225974   1.943   4.083   5.162
 8359SOL     OW25975   3.288   0.734   5.277
 8359SOL    HW125976   3.324   0.748   5.370
 8359SOL    HW225977   3.312   0.642   5.247
 8360SOL     OW25978   4.015   6.988   0.367
 8360SOL    HW125979   4.084   0.039   0.371
 8360SOL    HW225980   3.973   6.977   0.457
 8361SOL     OW25981   3.419   0.553   1.507
 8361SOL    HW125982   3.453   0.466   1.470
 8361SOL    HW225983   3.362   0.535   1.587
 8362SOL     OW25984   4.560   1.423   1.037
 8362SOL    HW125985   4.525   1.515   1.022
 8362SOL    HW225986   4.618   1.422   1.118
 8363SOL     OW25987   4.711   2.800   6.790
 8363SOL    HW125988   4.714   2.703   6.814
 8363SOL    HW225989   4.803   2.839   6.794
 8364SOL     OW25990   0.333   2.230   3.789
 8364SOL    HW125991   0.308   2.172   3.866
 8364SOL    HW225992   0.296   2.191   3.704
 8365SOL     OW25993   1.836   3.015   2.679
 8365SOL    HW125994   1.860   3.014   2.582
 8365SOL    HW225995   1.883   2.940   2.726
 8366SOL     OW25996   2.399   5.325   1.154
 8366SOL    HW125997   2.386   5.229   1.177
 8366SOL    HW225998   2.475   5.362   1.208
 8367SOL     OW25999   3.917   6.083   4.857
 8367SOL    HW126000   3.889   6.009   4.918
 8367SOL    HW226001   3.838   6.139   4.833
 8368SOL     OW26002   0.642   6.710   6.510
 8368SOL    HW126003   0.711   6.727   6.580
 8368SOL    HW226004   0.561   6.669   6.551
 8369SOL     OW26005   0.565   0.355   5.958
 8369SOL    HW126006   0.540   0.423   5.889
 8369SOL    HW226007   0.545   0.390   6.049
 8370SOL     OW26008   2.648   1.579   5.814
 8370SOL    HW126009   2.701   1.652   5.771
 8370SOL    HW226010   2.620   1.512   5.744
 8371SOL     OW26011   1.699   4.411   0.942
 8371SOL    HW126012   1.697   4.349   1.020
 8371SOL    HW226013   1.744   4.366   0.865
 8372SOL     OW26014   1.487   5.427   1.695
 8372SOL    HW126015   1.539   5.413   1.780
 8372SOL    HW226016   1.550   5.458   1.623
 8373SOL     OW26017   2.018   6.691   3.865
 8373SOL    HW126018   2.021   6.699   3.765
 8373SOL    HW226019   2.110   6.682   3.901
 8374SOL     OW26020   0.112   0.499   5.091
 8374SOL    HW126021   0.210   0.481   5.087
 8374SOL    HW226022   0.073   0.492   4.999
 8375SOL     OW26023   3.918   6.419   5.212
 8375SOL    HW126024   3.891   6.505   5.170
 8375SOL    HW226025   3.967   6.363   5.144
 8376SOL     OW26026   0.482   1.315   4.605
 8376SOL    HW126027   0.424   1.368   4.666
 8376SOL    HW226028   0.503   1.370   4.524
 8377SOL     OW26029   5.474   6.148   0.607
 8377SOL    HW126030   5.484   6.052   0.579
 8377SOL    HW226031   5.499   6.158   0.703
 8378SOL     OW26032   3.831   4.849   2.842
 8378SOL    HW126033   3.856   4.759   2.877
 8378SOL    HW226034   3.787   4.839   2.752
 8379SOL     OW26035   5.006   2.890   1.126
 8379SOL    HW126036   5.085   2.897   1.188
 8379SOL    HW226037   4.922   2.882   1.180
 8380SOL     OW26038   1.040   0.551   1.891
 8380SOL    HW126039   0.998   0.604   1.965
 8380SOL    HW226040   1.057   0.610   1.812
 8381SOL     OW26041   0.702   2.760   4.192
 8381SOL    HW126042   0.638   2.783   4.265
 8381SOL    HW226043   0.661   2.783   4.104
 8382SOL     OW26044   2.026   0.050   2.443
 8382SOL    HW126045   2.084   7.020   2.378
 8382SOL    HW226046   1.986   7.007   2.508
 8383SOL     OW26047   3.190   6.796   5.963
 8383SOL    HW126048   3.230   6.811   5.872
 8383SOL    HW226049   3.099   6.837   5.966
 8384SOL     OW26050   6.505   1.539   1.512
 8384SOL    HW126051   6.468   1.524   1.420
 8384SOL    HW226052   6.530   1.451   1.552
 8385SOL     OW26053   4.912   2.746   0.085
 8385SOL    HW126054   4.935   2.784   7.016
 8385SOL    HW226055   4.814   2.724   0.087
 8386SOL     OW26056   1.733   6.452   1.806
 8386SOL    HW126057   1.663   6.479   1.740
 8386SOL    HW226058   1.731   6.353   1.817
 8387SOL     OW26059   1.062   1.690   1.694
 8387SOL    HW126060   1.070   1.605   1.642
 8387SOL    HW226061   1.070   1.768   1.633
 8388SOL     OW26062   2.453   0.568   0.609
 8388SOL    HW126063   2.428   0.487   0.556
 8388SOL    HW226064   2.510   0.541   0.687
 8389SOL     OW26065   6.864   3.784   3.860
 8389SOL    HW126066   6.892   3.780   3.764
 8389SOL    HW226067   6.880   3.696   3.903
 8390SOL     OW26068   4.594   6.638   0.364
 8390SOL    HW126069   4.585   6.553   0.312
 8390SOL    HW226070   4.660   6.624   0.439
 8391SOL     OW26071   5.971   4.618   0.774
 8391SOL    HW126072   5.950   4.620   0.676
 8391SOL    HW226073   6.067   4.595   0.787
 8392SOL     OW26074   6.999   4.861   5.037
 8392SOL    HW126075   0.032   4.779   5.015
 8392SOL    HW226076   6.902   4.841   5.029
 8393SOL     OW26077   0.362   0.393   2.679
 8393SOL    HW126078   0.275   0.371   2.724
 8393SOL    HW226079   0.400   0.309   2.639
 8394SOL     OW26080   0.159   2.869   1.749
 8394SOL    HW126081   0.129   2.777   1.727
 8394SOL    HW226082   0.219   2.867   1.829
 8395SOL     OW26083   2.499   6.324   4.638
 8395SOL    HW126084   2.483   6.335   4.737
 8395SOL    HW226085   2.489   6.227   4.614
 8396SOL     OW26086   4.120   5.059   3.084
 8396SOL    HW126087   4.113   5.093   3.178
 8396SOL    HW226088   4.155   5.132   3.025
 8397SOL     OW26089   2.501   0.794   2.714
 8397SOL    HW126090   2.600   0.800   2.730
 8397SOL    HW226091   2.466   0.885   2.692
 8398SOL     OW26092   4.267   2.464   6.706
 8398SOL    HW126093   4.221   2.429   6.788
 8398SOL    HW226094   4.198   2.496   6.640
 8399SOL     OW26095   6.200   5.966   0.215
 8399SOL    HW126096   6.125   6.031   0.200
 8399SOL    HW226097   6.217   5.956   0.313
 8400SOL     OW26098   1.608   1.271   4.326
 8400SOL    HW126099   1.590   1.173   4.319
 8400SOL    HW226100   1.691   1.294   4.275
 8401SOL     OW26101   3.145   1.703   6.385
 8401SOL    HW126102   3.062   1.757   6.373
 8401SOL    HW226103   3.144   1.625   6.323
 8402SOL     OW26104   3.638   2.141   5.746
 8402SOL    HW126105   3.599   2.058   5.787
 8402SOL    HW226106   3.576   2.175   5.675
 8403SOL     OW26107   1.454   2.481   4.463
 8403SOL    HW126108   1.389   2.531   4.519
 8403SOL    HW226109   1.491   2.542   4.392
 8404SOL     OW26110   4.263   6.776   5.734
 8404SOL    HW126111   4.228   6.731   5.816
 8404SOL    HW226112   4.324   6.852   5.761
 8405SOL     OW26113   2.773   0.049   5.706
 8405SOL    HW126114   2.696   7.006   5.713
 8405SOL    HW226115   2.759   0.109   5.626
 8406SOL     OW26116   5.918   6.931   0.377
 8406SOL    HW126117   5.958   6.974   0.296
 8406SOL    HW226118   5.832   6.977   0.400
 8407SOL     OW26119   3.911   6.245   4.358
 8407SOL    HW126120   3.874   6.297   4.281
 8407SOL    HW226121   3.852   6.167   4.377
 8408SOL     OW26122   5.809   3.888   2.499
 8408SOL    HW126123   5.888   3.947   2.483
 8408SOL    HW226124   5.819   3.804   2.444
 8409SOL     OW26125   5.524   3.057   4.169
 8409SOL    HW126126   5.623   3.061   4.173
 8409SOL    HW226127   5.486   3.062   4.261
 8410SOL     OW26128   5.167   1.015   1.931
 8410SOL    HW126129   5.267   1.007   1.937
 8410SOL    HW226130   5.140   1.017   1.835
 8411SOL     OW26131   0.361   4.786   0.183
 8411SOL    HW126132   0.276   4.782   0.236
 8411SOL    HW226133   0.381   4.696   0.144
 8412SOL     OW26134   3.264   1.854   1.499
 8412SOL    HW126135   3.167   1.871   1.516
 8412SOL    HW226136   3.301   1.928   1.442
 8413SOL     OW26137   4.052   5.588   0.329
 8413SOL    HW126138   4.093   5.558   0.242
 8413SOL    HW226139   4.105   5.665   0.365
 8414SOL     OW26140   3.543   5.250   3.260
 8414SOL    HW126141   3.483   5.291   3.329
 8414SOL    HW226142   3.577   5.162   3.293
 8415SOL     OW26143   6.985   6.183   3.792
 8415SOL    HW126144   0.021   6.249   3.840
 8415SOL    HW226145   6.900   6.228   3.761
 8416SOL     OW26146   5.220   3.839   2.744
 8416SOL    HW126147   5.291   3.910   2.735
 8416SOL    HW226148   5.258   3.751   2.717
 8417SOL     OW26149   1.640   4.312   5.765
 8417SOL    HW126150   1.624   4.213   5.771
 8417SOL    HW226151   1.584   4.351   5.693
 8418SOL     OW26152   5.568   4.569   1.153
 8418SOL    HW126153   5.648   4.510   1.161
 8418SOL    HW226154   5.537   4.571   1.058
 8419SOL     OW26155   5.376   0.255   2.161
 8419SOL    HW126156   5.327   0.251   2.073
 8419SOL    HW226157   5.397   0.350   2.183
 8420SOL     OW26158   4.371   6.457   0.484
 8420SOL    HW126159   4.416   6.415   0.406
 8420SOL    HW226160   4.273   6.437   0.481
 8421SOL     OW26161   1.836   5.754   6.774
 8421SOL    HW126162   1.819   5.837   6.827
 8421SOL    HW226163   1.748   5.712   6.749
 8422SOL     OW26164   3.865   0.978   1.256
 8422SOL    HW126165   3.834   1.043   1.186
 8422SOL    HW226166   3.879   1.027   1.343
 8423SOL     OW26167   3.456   4.664   5.924
 8423SOL    HW126168   3.552   4.691   5.926
 8423SOL    HW226169   3.448   4.565   5.936
 8424SOL     OW26170   2.295   2.495   2.976
 8424SOL    HW126171   2.246   2.459   2.896
 8424SOL    HW226172   2.245   2.472   3.059
 8425SOL     OW26173   4.898   5.237   6.910
 8425SOL    HW126174   4.962   5.162   6.929
 8425SOL    HW226175   4.915   5.271   6.817
 8426SOL     OW26176   3.369   3.598   4.004
 8426SOL    HW126177   3.368   3.669   4.074
 8426SOL    HW226178   3.347   3.510   4.045
 8427SOL     OW26179   3.778   3.329   4.701
 8427SOL    HW126180   3.733   3.247   4.665
 8427SOL    HW226181   3.827   3.305   4.785
 8428SOL     OW26182   0.292   4.502   1.693
 8428SOL    HW126183   0.373   4.471   1.642
 8428SOL    HW226184   0.321   4.567   1.763
 8429SOL     OW26185   1.353   5.740   3.747
 8429SOL    HW126186   1.343   5.762   3.844
 8429SOL    HW226187   1.333   5.822   3.692
 8430SOL     OW26188   3.248   5.175   3.426
 8430SOL    HW126189   3.164   5.179   3.371
 8430SOL    HW226190   3.225   5.147   3.519
 8431SOL     OW26191   3.450   5.017   0.604
 8431SOL    HW126192   3.438   4.918   0.606
 8431SOL    HW226193   3.392   5.059   0.674
 8432SOL     OW26194   5.918   6.887   6.263
 8432SOL    HW126195   5.946   6.829   6.339
 8432SOL    HW226196   5.991   6.953   6.242
 8433SOL     OW26197   5.347   2.754   0.311
 8433SOL    HW126198   5.281   2.720   0.378
 8433SOL    HW226199   5.439   2.733   0.341
 8434SOL     OW26200   2.669   6.551   4.711
 8434SOL    HW126201   2.611   6.473   4.688
 8434SOL    HW226202   2.624   6.608   4.780
 8435SOL     OW26203   6.162   0.956   1.550
 8435SOL    HW126204   6.083   1.008   1.516
 8435SOL    HW226205   6.239   0.966   1.487
 8436SOL     OW26206   4.041   0.121   3.557
 8436SOL    HW126207   4.127   0.128   3.607
 8436SOL    HW226208   4.044   0.042   3.496
 8437SOL     OW26209   2.008   0.252   3.570
 8437SOL    HW126210   1.970   0.230   3.481
 8437SOL    HW226211   2.059   0.338   3.565
 8438SOL     OW26212   2.616   4.654   2.479
 8438SOL    HW126213   2.530   4.705   2.483
 8438SOL    HW226214   2.666   4.665   2.564
 8439SOL     OW26215   5.908   5.048   2.305
 8439SOL    HW126216   5.983   5.071   2.367
 8439SOL    HW226217   5.877   4.955   2.323
 8440SOL     OW26218   0.698   2.528   3.794
 8440SOL    HW126219   0.669   2.441   3.833
 8440SOL    HW226220   0.753   2.511   3.712
 8441SOL     OW26221   5.803   0.052   6.796
 8441SOL    HW126222   5.763   0.038   6.886
 8441SOL    HW226223   5.888   0.105   6.805
 8442SOL     OW26224   2.868   1.711   5.360
 8442SOL    HW126225   2.800   1.783   5.351
 8442SOL    HW226226   2.852   1.641   5.291
 8443SOL     OW26227   2.221   5.520   3.515
 8443SOL    HW126228   2.317   5.544   3.497
 8443SOL    HW226229   2.163   5.600   3.504
 8444SOL     OW26230   2.543   5.942   3.518
 8444SOL    HW126231   2.532   5.938   3.617
 8444SOL    HW226232   2.624   5.889   3.491
 8445SOL     OW26233   4.115   6.695   0.383
 8445SOL    HW126234   4.214   6.686   0.369
 8445SOL    HW226235   4.091   6.791   0.396
 8446SOL     OW26236   4.404   4.800   6.642
 8446SOL    HW126237   4.457   4.883   6.624
 8446SOL    HW226238   4.393   4.788   6.741
 8447SOL     OW26239   4.610   2.093   2.098
 8447SOL    HW126240   4.517   2.056   2.087
 8447SOL    HW226241   4.640   2.134   2.012
 8448SOL     OW26242   4.650   5.988   4.185
 8448SOL    HW126243   4.676   6.069   4.134
 8448SOL    HW226244   4.584   6.012   4.256
 8449SOL     OW26245   6.698   2.700   3.969
 8449SOL    HW126246   6.629   2.767   3.995
 8449SOL    HW226247   6.704   2.696   3.869
 8450SOL     OW26248   0.834   6.525   1.264
 8450SOL    HW126249   0.925   6.484   1.254
 8450SOL    HW226250   0.764   6.454   1.257
 8451SOL     OW26251   3.828   2.247   0.050
 8451SOL    HW126252   3.788   2.300   0.124
 8451SOL    HW226253   3.888   2.176   0.088
 8452SOL     OW26254   6.410   1.481   2.949
 8452SOL    HW126255   6.343   1.428   3.001
 8452SOL    HW226256   6.436   1.562   3.001
 8453SOL     OW26257   0.532   4.326   6.450
 8453SOL    HW126258   0.445   4.278   6.461
 8453SOL    HW226259   0.607   4.266   6.479
 8454SOL     OW26260   0.028   6.983   1.442
 8454SOL    HW126261   6.964   0.008   1.466
 8454SOL    HW226262   0.045   6.992   1.344
 8455SOL     OW26263   6.161   3.026   1.633
 8455SOL    HW126264   6.241   2.983   1.592
 8455SOL    HW226265   6.148   3.118   1.594
 8456SOL     OW26266   4.571   6.295   2.574
 8456SOL    HW126267   4.534   6.294   2.667
 8456SOL    HW226268   4.671   6.288   2.578
 8457SOL     OW26269   6.331   6.382   4.898
 8457SOL    HW126270   6.358   6.454   4.962
 8457SOL    HW226271   6.411   6.329   4.871
 8458SOL     OW26272   3.362   1.578   6.487
 8458SOL    HW126273   3.292   1.636   6.445
 8458SOL    HW226274   3.450   1.627   6.485
 8459SOL     OW26275   3.096   6.400   2.453
 8459SOL    HW126276   3.095   6.445   2.364
 8459SOL    HW226277   3.004   6.367   2.474
 8460SOL     OW26278   4.407   3.596   5.295
 8460SOL    HW126279   4.408   3.696   5.288
 8460SOL    HW226280   4.469   3.557   5.226
 8461SOL     OW26281   0.063   4.552   3.741
 8461SOL    HW126282   0.038   4.463   3.705
 8461SOL    HW226283   0.098   4.542   3.834
 8462SOL     OW26284   3.115   2.494   6.292
 8462SOL    HW126285   3.029   2.459   6.330
 8462SOL    HW226286   3.109   2.494   6.192
 8463SOL     OW26287   6.740   6.920   0.896
 8463SOL    HW126288   6.680   6.950   0.970
 8463SOL    HW226289   6.823   6.976   0.895
 8464SOL     OW26290   5.579   3.541   5.064
 8464SOL    HW126291   5.503   3.496   5.112
 8464SOL    HW226292   5.549   3.631   5.032
 8465SOL     OW26293   1.220   2.623   0.914
 8465SOL    HW126294   1.231   2.700   0.851
 8465SOL    HW226295   1.146   2.643   0.978
 8466SOL     OW26296   0.545   6.683   4.956
 8466SOL    HW126297   0.464   6.711   4.904
 8466SOL    HW226298   0.627   6.700   4.902
 8467SOL     OW26299   4.370   6.753   1.064
 8467SOL    HW126300   4.412   6.673   1.021
 8467SOL    HW226301   4.308   6.723   1.136
 8468SOL     OW26302   3.907   2.161   6.373
 8468SOL    HW126303   3.960   2.224   6.316
 8468SOL    HW226304   3.811   2.161   6.343
 8469SOL     OW26305   3.148   1.472   6.246
 8469SOL    HW126306   3.094   1.400   6.203
 8469SOL    HW226307   3.242   1.468   6.210
 8470SOL     OW26308   1.649   4.040   0.050
 8470SOL    HW126309   1.712   3.987   7.014
 8470SOL    HW226310   1.645   4.000   0.141
 8471SOL     OW26311   3.909   0.969   3.400
 8471SOL    HW126312   3.848   0.935   3.472
 8471SOL    HW226313   3.880   1.061   3.372
 8472SOL     OW26314   0.015   0.775   5.002
 8472SOL    HW126315   6.957   0.785   5.062
 8472SOL    HW226316   0.011   0.687   4.955
 8473SOL     OW26317   6.825   6.159   0.384
 8473SOL    HW126318   6.923   6.180   0.374
 8473SOL    HW226319   6.771   6.238   0.355
 8474SOL     OW26320   3.436   3.034   1.790
 8474SOL    HW126321   3.432   2.934   1.793
 8474SOL    HW226322   3.515   3.065   1.842
 8475SOL     OW26323   6.450   2.554   3.968
 8475SOL    HW126324   6.549   2.569   3.967
 8475SOL    HW226325   6.407   2.608   3.896
 8476SOL     OW26326   6.609   2.034   1.003
 8476SOL    HW126327   6.678   1.971   0.968
 8476SOL    HW226328   6.630   2.056   1.098
 8477SOL     OW26329   5.280   6.785   0.847
 8477SOL    HW126330   5.305   6.699   0.801
 8477SOL    HW226331   5.276   6.859   0.781
 8478SOL     OW26332   1.854   0.032   6.123
 8478SOL    HW126333   1.792   7.015   6.191
 8478SOL    HW226334   1.917   6.982   6.091
 8479SOL     OW26335   1.005   3.106   1.052
 8479SOL    HW126336   0.922   3.050   1.051
 8479SOL    HW226337   1.002   3.168   1.131
 8480SOL     OW26338   4.439   1.963   6.698
 8480SOL    HW126339   4.437   2.062   6.709
 8480SOL    HW226340   4.356   1.923   6.736
 8481SOL     OW26341   4.180   2.318   4.388
 8481SOL    HW126342   4.259   2.308   4.327
 8481SOL    HW226343   4.176   2.413   4.422
 8482SOL     OW26344   4.356   5.932   1.724
 8482SOL    HW126345   4.360   5.969   1.631
 8482SOL    HW226346   4.367   5.833   1.722
 8483SOL     OW26347   4.444   5.989   2.380
 8483SOL    HW126348   4.435   6.088   2.368
 8483SOL    HW226349   4.539   5.962   2.365
 8484SOL     OW26350   0.278   6.435   3.617
 8484SOL    HW126351   0.346   6.500   3.649
 8484SOL    HW226352   0.323   6.362   3.566
 8485SOL     OW26353   3.672   2.561   7.013
 8485SOL    HW126354   3.758   2.609   6.995
 8485SOL    HW226355   3.597   2.627   7.019
 8486SOL     OW26356   3.013   1.418   2.894
 8486SOL    HW126357   3.012   1.319   2.881
 8486SOL    HW226358   2.982   1.463   2.810
 8487SOL     OW26359   5.819   1.172   6.205
 8487SOL    HW126360   5.745   1.212   6.259
 8487SOL    HW226361   5.903   1.225   6.219
 8488SOL     OW26362   5.148   5.654   0.244
 8488SOL    HW126363   5.226   5.665   0.181
 8488SOL    HW226364   5.182   5.630   0.335
 8489SOL     OW26365   6.477   1.842   1.191
 8489SOL    HW126366   6.406   1.907   1.218
 8489SOL    HW226367   6.519   1.872   1.105
 8490SOL     OW26368   4.468   6.402   3.694
 8490SOL    HW126369   4.506   6.317   3.728
 8490SOL    HW226370   4.537   6.474   3.698
 8491SOL     OW26371   2.795   6.143   0.907
 8491SOL    HW126372   2.779   6.169   1.002
 8491SOL    HW226373   2.793   6.044   0.899
 8492SOL     OW26374   4.881   3.830   5.557
 8492SOL    HW126375   4.866   3.896   5.630
 8492SOL    HW226376   4.939   3.871   5.486
 8493SOL     OW26377   2.172   2.510   6.753
 8493SOL    HW126378   2.085   2.540   6.714
 8493SOL    HW226379   2.217   2.587   6.797
 8494SOL     OW26380   3.145   5.165   1.379
 8494SOL    HW126381   3.065   5.190   1.434
 8494SOL    HW226382   3.175   5.073   1.403
 8495SOL     OW26383   6.123   5.273   2.515
 8495SOL    HW126384   6.036   5.315   2.538
 8495SOL    HW226385   6.194   5.307   2.577
 8496SOL     OW26386   1.254   2.999   1.688
 8496SOL    HW126387   1.190   2.991   1.611
 8496SOL    HW226388   1.347   2.983   1.656
 8497SOL     OW26389   6.368   0.914   3.739
 8497SOL    HW126390   6.407   1.006   3.742
 8497SOL    HW226391   6.269   0.920   3.729
 8498SOL     OW26392   0.045   6.579   2.991
 8498SOL    HW126393   0.133   6.593   3.037
 8498SOL    HW226394   0.058   6.518   2.913
 8499SOL     OW26395   1.785   4.848   6.688
 8499SOL    HW126396   1.812   4.834   6.593
 8499SOL    HW226397   1.808   4.767   6.742
 8500SOL     OW26398   1.602   5.912   5.272
 8500SOL    HW126399   1.598   5.973   5.351
 8500SOL    HW226400   1.613   5.967   5.189
 8501SOL     OW26401   0.694   2.281   6.857
 8501SOL    HW126402   0.610   2.244   6.817
 8501SOL    HW226403   0.715   2.231   6.941
 8502SOL     OW26404   1.360   4.007   1.156
 8502SOL    HW126405   1.275   4.014   1.208
 8502SOL    HW226406   1.343   3.955   1.072
 8503SOL     OW26407   1.386   6.191   4.050
 8503SOL    HW126408   1.294   6.152   4.045
 8503SOL    HW226409   1.421   6.206   3.958
 8504SOL     OW26410   2.558   5.022   2.177
 8504SOL    HW126411   2.561   5.110   2.129
 8504SOL    HW226412   2.486   4.965   2.137
 8505SOL     OW26413   4.925   3.501   4.108
 8505SOL    HW126414   4.865   3.462   4.178
 8505SOL    HW226415   5.016   3.460   4.116
 8506SOL     OW26416   6.903   0.615   6.395
 8506SOL    HW126417   6.946   0.618   6.305
 8506SOL    HW226418   6.804   0.620   6.385
 8507SOL     OW26419   3.467   1.042   5.596
 8507SOL    HW126420   3.523   1.125   5.591
 8507SOL    HW226421   3.370   1.067   5.591
 8508SOL     OW26422   5.927   1.640   4.985
 8508SOL    HW126423   5.976   1.558   5.014
 8508SOL    HW226424   5.972   1.721   5.021
 8509SOL     OW26425   4.927   1.586   4.197
 8509SOL    HW126426   5.010   1.594   4.252
 8509SOL    HW226427   4.941   1.518   4.125
 8510SOL     OW26428   6.065   3.920   3.080
 8510SOL    HW126429   6.015   4.001   3.109
 8510SOL    HW226430   6.140   3.947   3.019
 8511SOL     OW26431   5.871   3.653   2.320
 8511SOL    HW126432   5.914   3.674   2.232
 8511SOL    HW226433   5.826   3.564   2.314
 8512SOL     OW26434   3.167   1.938   1.865
 8512SOL    HW126435   3.154   1.966   1.961
 8512SOL    HW226436   3.177   2.019   1.808
 8513SOL     OW26437   5.790   4.404   1.174
 8513SOL    HW126438   5.815   4.333   1.109
 8513SOL    HW226439   5.826   4.381   1.264
 8514SOL     OW26440   2.579   2.303   3.926
 8514SOL    HW126441   2.588   2.350   4.014
 8514SOL    HW226442   2.584   2.371   3.853
 8515SOL     OW26443   5.476   1.859   1.080
 8515SOL    HW126444   5.440   1.805   1.156
 8515SOL    HW226445   5.545   1.805   1.031
 8516SOL     OW26446   5.793   2.220   1.451
 8516SOL    HW126447   5.804   2.221   1.351
 8516SOL    HW226448   5.830   2.305   1.489
 8517SOL     OW26449   1.116   2.652   6.176
 8517SOL    HW126450   1.181   2.713   6.130
 8517SOL    HW226451   1.090   2.692   6.264
 8518SOL     OW26452   4.247   3.921   6.936
 8518SOL    HW126453   4.181   3.906   6.862
 8518SOL    HW226454   4.213   3.993   6.996
 8519SOL     OW26455   1.170   4.022   2.067
 8519SOL    HW126456   1.215   4.064   1.989
 8519SOL    HW226457   1.123   3.939   2.037
 8520SOL     OW26458   3.317   2.459   0.219
 8520SOL    HW126459   3.338   2.364   0.243
 8520SOL    HW226460   3.353   2.519   0.290
 8521SOL     OW26461   2.219   5.466   6.212
 8521SOL    HW126462   2.311   5.439   6.239
 8521SOL    HW226463   2.222   5.552   6.161
 8522SOL     OW26464   1.458   6.157   1.740
 8522SOL    HW126465   1.460   6.232   1.673
 8522SOL    HW226466   1.552   6.132   1.764
 8523SOL     OW26467   2.284   6.524   6.576
 8523SOL    HW126468   2.212   6.556   6.637
 8523SOL    HW226469   2.267   6.429   6.552
 8524SOL     OW26470   0.485   2.699   4.886
 8524SOL    HW126471   0.417   2.766   4.857
 8524SOL    HW226472   0.512   2.642   4.809
 8525SOL     OW26473   6.199   4.226   3.084
 8525SOL    HW126474   6.263   4.182   3.147
 8525SOL    HW226475   6.166   4.311   3.124
 8526SOL     OW26476   3.882   5.613   0.095
 8526SOL    HW126477   3.911   5.643   0.186
 8526SOL    HW226478   3.885   5.691   0.032
 8527SOL     OW26479   2.439   0.474   6.036
 8527SOL    HW126480   2.479   0.524   5.959
 8527SOL    HW226481   2.435   0.376   6.014
 8528SOL     OW26482   3.843   2.472   6.124
 8528SOL    HW126483   3.770   2.462   6.192
 8528SOL    HW226484   3.803   2.476   6.032
 8529SOL     OW26485   0.387   0.318   1.452
 8529SOL    HW126486   0.370   0.228   1.493
 8529SOL    HW226487   0.301   0.354   1.416
 8530SOL     OW26488   3.113   3.679   4.974
 8530SOL    HW126489   3.207   3.645   4.972
 8530SOL    HW226490   3.050   3.604   4.954
 8531SOL     OW26491   6.621   5.203   2.606
 8531SOL    HW126492   6.550   5.147   2.650
 8531SOL    HW226493   6.646   5.162   2.519
 8532SOL     OW26494   3.841   5.129   4.510
 8532SOL    HW126495   3.809   5.152   4.418
 8532SOL    HW226496   3.871   5.212   4.556
 8533SOL     OW26497   1.998   0.220   5.847
 8533SOL    HW126498   2.026   0.164   5.769
 8533SOL    HW226499   2.056   0.200   5.926
 8534SOL     OW26500   6.156   3.386   4.039
 8534SOL    HW126501   6.177   3.436   4.123
 8534SOL    HW226502   6.226   3.405   3.970
 8535SOL     OW26503   6.689   1.364   4.464
 8535SOL    HW126504   6.729   1.344   4.375
 8535SOL    HW226505   6.608   1.422   4.453
 8536SOL     OW26506   5.926   2.430   4.893
 8536SOL    HW126507   5.868   2.365   4.844
 8536SOL    HW226508   5.992   2.469   4.829
 8537SOL     OW26509   5.796   1.768   1.676
 8537SOL    HW126510   5.718   1.771   1.739
 8537SOL    HW226511   5.881   1.760   1.728
 8538SOL     OW26512   0.730   1.273   6.357
 8538SOL    HW126513   0.717   1.182   6.318
 8538SOL    HW226514   0.741   1.265   6.456
 8539SOL     OW26515   6.120   0.955   1.981
 8539SOL    HW126516   6.177   1.013   2.038
 8539SOL    HW226517   6.037   0.930   2.031
 8540SOL     OW26518   5.023   1.144   0.041
 8540SOL    HW126519   5.090   1.186   7.001
 8540SOL    HW226520   5.070   1.104   0.120
 8541SOL     OW26521   2.802   2.372   4.602
 8541SOL    HW126522   2.746   2.444   4.644
 8541SOL    HW226523   2.898   2.386   4.626
 8542SOL     OW26524   2.868   5.029   6.775
 8542SOL    HW126525   2.863   5.005   6.678
 8542SOL    HW226526   2.960   5.008   6.810
 8543SOL     OW26527   3.207   1.024   0.275
 8543SOL    HW126528   3.265   1.088   0.325
 8543SOL    HW226529   3.117   1.065   0.262
 8544SOL     OW26530   5.772   2.941   4.369
 8544SOL    HW126531   5.806   2.851   4.342
 8544SOL    HW226532   5.676   2.934   4.396
 8545SOL     OW26533   4.846   6.381   4.276
 8545SOL    HW126534   4.906   6.378   4.197
 8545SOL    HW226535   4.826   6.476   4.299
 8546SOL     OW26536   0.380   0.416   3.205
 8546SOL    HW126537   0.303   0.360   3.235
 8546SOL    HW226538   0.464   0.363   3.211
 8547SOL     OW26539   1.321   6.876   6.401
 8547SOL    HW126540   1.407   6.844   6.362
 8547SOL    HW226541   1.337   6.957   6.456
 8548SOL     OW26542   6.374   3.180   5.933
 8548SOL    HW126543   6.370   3.277   5.957
 8548SOL    HW226544   6.281   3.145   5.919
 8549SOL     OW26545   1.354   3.178   4.752
 8549SOL    HW126546   1.325   3.242   4.823
 8549SOL    HW226547   1.315   3.206   4.664
 8550SOL     OW26548   1.839   4.924   6.419
 8550SOL    HW126549   1.906   4.925   6.345
 8550SOL    HW226550   1.778   5.003   6.410
 8551SOL     OW26551   2.662   3.384   6.490
 8551SOL    HW126552   2.648   3.396   6.588
 8551SOL    HW226553   2.664   3.474   6.446
 8552SOL     OW26554   2.856   0.353   3.277
 8552SOL    HW126555   2.884   0.327   3.369
 8552SOL    HW226556   2.756   0.345   3.268
 8553SOL     OW26557   4.030   3.885   6.792
 8553SOL    HW126558   4.062   3.884   6.697
 8553SOL    HW226559   3.975   3.966   6.808
 8554SOL     OW26560   0.498   5.090   1.248
 8554SOL    HW126561   0.582   5.035   1.246
 8554SOL    HW226562   0.426   5.042   1.197
 8555SOL     OW26563   2.185   0.900   4.114
 8555SOL    HW126564   2.116   0.944   4.057
 8555SOL    HW226565   2.271   0.951   4.109
 8556SOL     OW26566   1.083   5.854   5.188
 8556SOL    HW126567   1.098   5.943   5.231
 8556SOL    HW226568   1.029   5.795   5.248
 8557SOL     OW26569   6.393   0.031   2.857
 8557SOL    HW126570   6.312   0.074   2.896
 8557SOL    HW226571   6.381   6.953   2.854
 8558SOL     OW26572   1.955   4.496   2.978
 8558SOL    HW126573   2.050   4.483   2.951
 8558SOL    HW226574   1.935   4.594   2.986
 8559SOL     OW26575   1.672   0.635   2.294
 8559SOL    HW126576   1.732   0.709   2.264
 8559SOL    HW226577   1.726   0.565   2.341
 8560SOL     OW26578   6.800   6.637   1.899
 8560SOL    HW126579   6.859   6.669   1.974
 8560SOL    HW226580   6.849   6.647   1.812
 8561SOL     OW26581   3.825   0.339   2.553
 8561SOL    HW126582   3.822   0.370   2.648
 8561SOL    HW226583   3.863   0.412   2.495
 8562SOL     OW26584   4.018   6.040   6.063
 8562SOL    HW126585   4.033   6.138   6.051
 8562SOL    HW226586   4.004   5.997   5.974
 8563SOL     OW26587   1.186   4.330   0.810
 8563SOL    HW126588   1.225   4.333   0.718
 8563SOL    HW226589   1.246   4.379   0.873
 8564SOL     OW26590   3.236   0.837   5.041
 8564SOL    HW126591   3.174   0.784   4.983
 8564SOL    HW226592   3.246   0.791   5.129
 8565SOL     OW26593   3.560   5.304   1.061
 8565SOL    HW126594   3.531   5.212   1.089
 8565SOL    HW226595   3.537   5.370   1.132
 8566SOL     OW26596   1.355   0.135   1.280
 8566SOL    HW126597   1.296   0.076   1.335
 8566SOL    HW226598   1.394   0.081   1.204
 8567SOL     OW26599   0.499   2.759   3.494
 8567SOL    HW126600   0.507   2.663   3.517
 8567SOL    HW226601   0.579   2.788   3.443
 8568SOL     OW26602   5.810   1.247   7.013
 8568SOL    HW126603   5.781   1.341   6.998
 8568SOL    HW226604   5.792   1.220   0.087
 8569SOL     OW26605   4.368   0.992   6.094
 8569SOL    HW126606   4.325   0.928   6.158
 8569SOL    HW226607   4.300   1.022   6.027
 8570SOL     OW26608   1.709   1.594   4.793
 8570SOL    HW126609   1.655   1.580   4.710
 8570SOL    HW226610   1.804   1.612   4.768
 8571SOL     OW26611   1.006   5.731   4.772
 8571SOL    HW126612   0.939   5.756   4.842
 8571SOL    HW226613   1.050   5.645   4.797
 8572SOL     OW26614   3.329   5.077   6.541
 8572SOL    HW126615   3.407   5.114   6.491
 8572SOL    HW226616   3.300   4.991   6.498
 8573SOL     OW26617   3.295   6.637   6.596
 8573SOL    HW126618   3.290   6.588   6.508
 8573SOL    HW226619   3.313   6.571   6.669
 8574SOL     OW26620   0.296   6.092   6.443
 8574SOL    HW126621   0.273   6.069   6.349
 8574SOL    HW226622   0.380   6.044   6.469
 8575SOL     OW26623   2.413   2.627   4.191
 8575SOL    HW126624   2.375   2.701   4.135
 8575SOL    HW226625   2.348   2.604   4.264
 8576SOL     OW26626   1.274   4.339   5.816
 8576SOL    HW126627   1.326   4.386   5.888
 8576SOL    HW226628   1.335   4.281   5.763
 8577SOL     OW26629   1.166   6.243   4.713
 8577SOL    HW126630   1.183   6.211   4.806
 8577SOL    HW226631   1.081   6.202   4.679
 8578SOL     OW26632   6.058   6.370   4.156
 8578SOL    HW126633   6.007   6.327   4.230
 8578SOL    HW226634   6.035   6.326   4.069
 8579SOL     OW26635   2.191   0.423   1.850
 8579SOL    HW126636   2.200   0.475   1.935
 8579SOL    HW226637   2.096   0.394   1.839
 8580SOL     OW26638   2.640   5.913   1.528
 8580SOL    HW126639   2.601   5.835   1.480
 8580SOL    HW226640   2.584   5.994   1.510
 8581SOL     OW26641   3.292   3.961   1.620
 8581SOL    HW126642   3.330   3.945   1.711
 8581SOL    HW226643   3.343   3.907   1.553
 8582SOL     OW26644   4.672   4.225   4.315
 8582SOL    HW126645   4.734   4.292   4.358
 8582SOL    HW226646   4.614   4.273   4.250
 8583SOL     OW26647   5.570   0.236   4.395
 8583SOL    HW126648   5.572   0.240   4.495
 8583SOL    HW226649   5.571   0.141   4.366
 8584SOL     OW26650   0.635   4.955   5.768
 8584SOL    HW126651   0.696   5.028   5.739
 8584SOL    HW226652   0.542   4.974   5.734
 8585SOL     OW26653   0.608   6.691   6.140
 8585SOL    HW126654   0.682   6.645   6.190
 8585SOL    HW226655   0.521   6.646   6.159
 8586SOL     OW26656   3.124   6.602   2.001
 8586SOL    HW126657   3.211   6.593   1.954
 8586SOL    HW226658   3.057   6.645   1.941
 8587SOL     OW26659   1.024   6.868   3.973
 8587SOL    HW126660   1.113   6.903   4.002
 8587SOL    HW226661   0.954   6.896   4.039
 8588SOL     OW26662   3.038   0.895   0.592
 8588SOL    HW126663   2.990   0.916   0.678
 8588SOL    HW226664   3.052   0.979   0.541
 8589SOL     OW26665   5.259   2.806   5.746
 8589SOL    HW126666   5.160   2.813   5.739
 8589SOL    HW226667   5.289   2.716   5.714
 8590SOL     OW26668   6.670   6.221   3.293
 8590SOL    HW126669   6.731   6.280   3.345
 8590SOL    HW226670   6.724   6.151   3.245
 8591SOL     OW26671   0.394   4.180   0.324
 8591SOL    HW126672   0.463   4.128   0.273
 8591SOL    HW226673   0.324   4.118   0.358
 8592SOL     OW26674   6.670   2.793   6.238
 8592SOL    HW126675   6.605   2.733   6.193
 8592SOL    HW226676   6.743   2.817   6.174
 8593SOL     OW26677   1.795   1.852   0.552
 8593SOL    HW126678   1.850   1.893   0.478
 8593SOL    HW226679   1.755   1.924   0.607
 8594SOL     OW26680   4.312   2.390   5.540
 8594SOL    HW126681   4.285   2.320   5.607
 8594SOL    HW226682   4.328   2.477   5.587
 8595SOL     OW26683   0.463   2.450   3.515
 8595SOL    HW126684   0.557   2.424   3.539
 8595SOL    HW226685   0.433   2.395   3.437
 8596SOL     OW26686   1.025   5.166   2.963
 8596SOL    HW126687   1.053   5.120   2.878
 8596SOL    HW226688   1.104   5.211   3.005
 8597SOL     OW26689   4.260   1.796   0.724
 8597SOL    HW126690   4.282   1.834   0.635
 8597SOL    HW226691   4.326   1.724   0.747
 8598SOL     OW26692   6.067   0.369   0.425
 8598SOL    HW126693   6.158   0.348   0.461
 8598SOL    HW226694   6.045   0.308   0.349
 8599SOL     OW26695   1.431   2.564   5.108
 8599SOL    HW126696   1.411   2.466   5.116
 8599SOL    HW226697   1.346   2.614   5.093
 8600SOL     OW26698   5.378   4.558   4.992
 8600SOL    HW126699   5.449   4.528   5.055
 8600SOL    HW226700   5.388   4.656   4.974
 8601SOL     OW26701   1.090   1.392   4.327
 8601SOL    HW126702   1.081   1.475   4.382
 8601SOL    HW226703   1.180   1.392   4.283
 8602SOL     OW26704   3.160   5.689   1.866
 8602SOL    HW126705   3.166   5.590   1.881
 8602SOL    HW226706   3.174   5.737   1.953
 8603SOL     OW26707   4.892   5.816   0.612
 8603SOL    HW126708   4.932   5.902   0.580
 8603SOL    HW226709   4.857   5.828   0.705
 8604SOL     OW26710   0.189   3.253   5.086
 8604SOL    HW126711   0.273   3.273   5.036
 8604SOL    HW226712   0.132   3.191   5.032
 8605SOL     OW26713   2.827   6.046   4.056
 8605SOL    HW126714   2.803   5.992   4.136
 8605SOL    HW226715   2.806   6.143   4.074
 8606SOL     OW26716   1.886   3.215   6.220
 8606SOL    HW126717   1.831   3.293   6.188
 8606SOL    HW226718   1.842   3.175   6.300
 8607SOL     OW26719   3.739   5.799   0.503
 8607SOL    HW126720   3.820   5.842   0.463
 8607SOL    HW226721   3.765   5.746   0.583
 8608SOL     OW26722   3.733   4.860   2.549
 8608SOL    HW126723   3.660   4.907   2.599
 8608SOL    HW226724   3.718   4.870   2.451
 8609SOL     OW26725   5.377   0.646   2.655
 8609SOL    HW126726   5.373   0.746   2.648
 8609SOL    HW226727   5.315   0.615   2.726
 8610SOL     OW26728   1.286   2.203   2.991
 8610SOL    HW126729   1.309   2.115   2.950
 8610SOL    HW226730   1.370   2.249   3.019
 8611SOL     OW26731   2.729   1.571   4.439
 8611SOL    HW126732   2.768   1.642   4.497
 8611SOL    HW226733   2.751   1.590   4.343
 8612SOL     OW26734   2.766   3.766   0.892
 8612SOL    HW126735   2.725   3.680   0.921
 8612SOL    HW226736   2.695   3.834   0.876
 8613SOL     OW26737   2.728   1.968   1.237
 8613SOL    HW126738   2.826   1.988   1.232
 8613SOL    HW226739   2.714   1.877   1.275
 8614SOL     OW26740   1.014   3.044   3.106
 8614SOL    HW126741   1.105   3.048   3.149
 8614SOL    HW226742   1.024   3.048   3.007
 8615SOL     OW26743   4.495   1.047   4.791
 8615SOL    HW126744   4.493   1.061   4.890
 8615SOL    HW226745   4.442   0.965   4.768
 8616SOL     OW26746   3.037   4.495   1.627
 8616SOL    HW126747   3.009   4.497   1.723
 8616SOL    HW226748   3.048   4.588   1.593
 8617SOL     OW26749   6.396   1.568   6.462
 8617SOL    HW126750   6.419   1.488   6.406
 8617SOL    HW226751   6.298   1.586   6.456
 8618SOL     OW26752   6.086   5.030   0.953
 8618SOL    HW126753   5.999   5.077   0.963
 8618SOL    HW226754   6.081   4.966   0.876
 8619SOL     OW26755   3.702   4.871   2.273
 8619SOL    HW126756   3.654   4.833   2.194
 8619SOL    HW226757   3.788   4.913   2.243
 8620SOL     OW26758   1.429   0.137   3.255
 8620SOL    HW126759   1.417   0.187   3.169
 8620SOL    HW226760   1.416   0.200   3.332
 8621SOL     OW26761   5.734   1.722   3.074
 8621SOL    HW126762   5.753   1.624   3.062
 8621SOL    HW226763   5.820   1.773   3.069
 8622SOL     OW26764   5.651   3.385   0.958
 8622SOL    HW126765   5.624   3.454   0.892
 8622SOL    HW226766   5.638   3.294   0.919
 8623SOL     OW26767   0.868   3.708   4.373
 8623SOL    HW126768   0.846   3.767   4.296
 8623SOL    HW226769   0.959   3.731   4.407
 8624SOL     OW26770   1.613   3.935   4.831
 8624SOL    HW126771   1.581   3.981   4.913
 8624SOL    HW226772   1.701   3.891   4.850
 8625SOL     OW26773   4.178   0.472   6.270
 8625SOL    HW126774   4.138   0.444   6.357
 8625SOL    HW226775   4.277   0.460   6.274
 8626SOL     OW26776   3.544   3.033   6.082
 8626SOL    HW126777   3.613   3.032   6.154
 8626SOL    HW226778   3.506   2.941   6.071
 8627SOL     OW26779   1.288   1.924   3.261
 8627SOL    HW126780   1.201   1.971   3.272
 8627SOL    HW226781   1.272   1.825   3.255
 8628SOL     OW26782   6.310   6.370   1.119
 8628SOL    HW126783   6.269   6.313   1.047
 8628SOL    HW226784   6.331   6.460   1.081
 8629SOL     OW26785   1.129   5.479   4.966
 8629SOL    HW126786   1.203   5.447   5.025
 8629SOL    HW226787   1.041   5.457   5.008
 8630SOL     OW26788   5.523   4.370   3.979
 8630SOL    HW126789   5.593   4.440   3.976
 8630SOL    HW226790   5.566   4.280   3.987
 8631SOL     OW26791   0.392   4.893   6.022
 8631SOL    HW126792   0.418   4.973   6.075
 8631SOL    HW226793   0.382   4.918   5.926
 8632SOL     OW26794   3.533   5.236   4.365
 8632SOL    HW126795   3.598   5.161   4.374
 8632SOL    HW226796   3.582   5.323   4.366
 8633SOL     OW26797   5.201   1.596   5.919
 8633SOL    HW126798   5.105   1.624   5.919
 8633SOL    HW226799   5.215   1.524   5.851
 8634SOL     OW26800   4.651   3.105   6.935
 8634SOL    HW126801   4.595   3.070   6.861
 8634SOL    HW226802   4.745   3.117   6.903
 8635SOL     OW26803   5.553   3.631   6.363
 8635SOL    HW126804   5.590   3.581   6.441
 8635SOL    HW226805   5.613   3.617   6.284
 8636SOL     OW26806   5.686   5.742   0.940
 8636SOL    HW126807   5.596   5.701   0.929
 8636SOL    HW226808   5.683   5.812   1.011
 8637SOL     OW26809   2.315   1.205   0.011
 8637SOL    HW126810   2.291   1.235   0.104
 8637SOL    HW226811   2.402   1.246   7.006
 8638SOL     OW26812   3.639   2.423   5.385
 8638SOL    HW126813   3.700   2.348   5.358
 8638SOL    HW226814   3.547   2.386   5.402
 8639SOL     OW26815   5.263   3.017   0.184
 8639SOL    HW126816   5.278   3.094   0.246
 8639SOL    HW226817   5.296   2.933   0.227
 8640SOL     OW26818   4.047   3.592   6.768
 8640SOL    HW126819   4.002   3.679   6.749
 8640SOL    HW226820   3.980   3.526   6.799
 8641SOL     OW26821   4.639   4.739   3.608
 8641SOL    HW126822   4.631   4.834   3.638
 8641SOL    HW226823   4.733   4.720   3.581
 8642SOL     OW26824   1.657   6.093   2.939
 8642SOL    HW126825   1.646   6.188   2.967
 8642SOL    HW226826   1.730   6.050   2.992
 8643SOL     OW26827   2.311   0.138   6.872
 8643SOL    HW126828   2.366   0.168   6.950
 8643SOL    HW226829   2.353   0.169   6.787
 8644SOL     OW26830   5.357   2.506   5.313
 8644SOL    HW126831   5.435   2.472   5.261
 8644SOL    HW226832   5.291   2.550   5.251
 8645SOL     OW26833   4.569   4.270   1.402
 8645SOL    HW126834   4.633   4.204   1.441
 8645SOL    HW226835   4.620   4.339   1.350
 8646SOL     OW26836   6.812   1.880   0.825
 8646SOL    HW126837   6.809   1.913   0.731
 8646SOL    HW226838   6.908   1.872   0.855
 8647SOL     OW26839   2.866   5.334   6.561
 8647SOL    HW126840   2.832   5.342   6.655
 8647SOL    HW226841   2.923   5.252   6.553
 8648SOL     OW26842   6.797   0.545   2.821
 8648SOL    HW126843   6.867   0.608   2.857
 8648SOL    HW226844   6.707   0.586   2.834
 8649SOL     OW26845   5.296   5.382   5.764
 8649SOL    HW126846   5.322   5.391   5.860
 8649SOL    HW226847   5.212   5.328   5.757
 8650SOL     OW26848   2.217   5.527   4.123
 8650SOL    HW126849   2.233   5.454   4.191
 8650SOL    HW226850   2.118   5.534   4.106
 8651SOL     OW26851   4.238   0.213   6.440
 8651SOL    HW126852   4.187   0.127   6.440
 8651SOL    HW226853   4.324   0.201   6.392
 8652SOL     OW26854   1.663   4.652   3.622
 8652SOL    HW126855   1.759   4.680   3.617
 8652SOL    HW226856   1.638   4.636   3.717
 8653SOL     OW26857   5.758   0.339   6.169
 8653SOL    HW126858   5.846   0.385   6.183
 8653SOL    HW226859   5.727   0.355   6.075
 8654SOL     OW26860   1.082   4.792   1.885
 8654SOL    HW126861   1.024   4.855   1.937
 8654SOL    HW226862   1.157   4.760   1.943
 8655SOL     OW26863   6.968   1.224   4.038
 8655SOL    HW126864   6.909   1.305   4.036
 8655SOL    HW226865   6.913   1.143   4.017
 8656SOL     OW26866   6.947   6.930   1.179
 8656SOL    HW126867   6.991   6.852   1.135
 8656SOL    HW226868   6.864   6.899   1.225
 8657SOL     OW26869   5.500   4.477   6.911
 8657SOL    HW126870   5.506   4.380   6.889
 8657SOL    HW226871   5.414   4.514   6.874
 8658SOL     OW26872   6.204   5.902   0.480
 8658SOL    HW126873   6.298   5.902   0.516
 8658SOL    HW226874   6.168   5.808   0.483
 8659SOL     OW26875   4.389   1.986   2.667
 8659SOL    HW126876   4.372   1.957   2.762
 8659SOL    HW226877   4.321   2.055   2.641
 8660SOL     OW26878   6.623   3.921   1.736
 8660SOL    HW126879   6.570   3.837   1.723
 8660SOL    HW226880   6.561   3.997   1.757
 8661SOL     OW26881   6.316   4.186   1.270
 8661SOL    HW126882   6.249   4.260   1.261
 8661SOL    HW226883   6.356   4.167   1.180
 8662SOL     OW26884   4.531   5.713   1.472
 8662SOL    HW126885   4.502   5.712   1.377
 8662SOL    HW226886   4.455   5.686   1.531
 8663SOL     OW26887   2.786   6.212   1.475
 8663SOL    HW126888   2.734   6.143   1.525
 8663SOL    HW226889   2.752   6.303   1.499
 8664SOL     OW26890   1.768   6.425   0.648
 8664SOL    HW126891   1.790   6.523   0.644
 8664SOL    HW226892   1.843   6.373   0.607
 8665SOL     OW26893   5.497   5.928   5.085
 8665SOL    HW126894   5.498   5.829   5.075
 8665SOL    HW226895   5.568   5.968   5.026
 8666SOL     OW26896   5.492   1.311   3.858
 8666SOL    HW126897   5.439   1.392   3.886
 8666SOL    HW226898   5.585   1.339   3.836
 8667SOL     OW26899   3.920   2.153   3.276
 8667SOL    HW126900   3.892   2.171   3.182
 8667SOL    HW226901   3.842   2.118   3.328
 8668SOL     OW26902   4.941   3.343   3.327
 8668SOL    HW126903   4.975   3.250   3.319
 8668SOL    HW226904   4.905   3.357   3.420
 8669SOL     OW26905   1.365   6.513   6.046
 8669SOL    HW126906   1.404   6.451   5.979
 8669SOL    HW226907   1.271   6.537   6.020
 8670SOL     OW26908   3.784   4.517   5.310
 8670SOL    HW126909   3.685   4.499   5.313
 8670SOL    HW226910   3.802   4.606   5.351
 8671SOL     OW26911   5.106   1.523   2.799
 8671SOL    HW126912   5.056   1.523   2.885
 8671SOL    HW226913   5.067   1.455   2.737
 8672SOL     OW26914   1.042   5.352   4.286
 8672SOL    HW126915   0.995   5.378   4.201
 8672SOL    HW226916   0.986   5.378   4.365
 8673SOL     OW26917   5.844   2.697   0.452
 8673SOL    HW126918   5.857   2.605   0.488
 8673SOL    HW226919   5.905   2.760   0.501
 8674SOL     OW26920   5.040   5.972   2.943
 8674SOL    HW126921   4.985   6.054   2.963
 8674SOL    HW226922   5.131   5.983   2.984
 8675SOL     OW26923   3.781   2.099   4.234
 8675SOL    HW126924   3.800   2.182   4.287
 8675SOL    HW226925   3.690   2.065   4.258
 8676SOL     OW26926   5.228   0.093   2.658
 8676SOL    HW126927   5.209   7.017   2.676
 8676SOL    HW226928   5.184   0.120   2.573
 8677SOL     OW26929   2.146   5.235   6.044
 8677SOL    HW126930   2.161   5.316   6.100
 8677SOL    HW226931   2.226   5.174   6.052
 8678SOL     OW26932   0.166   0.379   2.254
 8678SOL    HW126933   0.199   0.376   2.160
 8678SOL    HW226934   0.223   0.441   2.308
 8679SOL     OW26935   0.174   2.077   3.293
 8679SOL    HW126936   0.269   2.061   3.268
 8679SOL    HW226937   0.128   2.131   3.222
 8680SOL     OW26938   0.565   3.567   0.148
 8680SOL    HW126939   0.563   3.490   0.085
 8680SOL    HW226940   0.657   3.574   0.189
 8681SOL     OW26941   5.070   5.118   0.904
 8681SOL    HW126942   5.055   5.179   0.982
 8681SOL    HW226943   5.150   5.149   0.852
 8682SOL     OW26944   5.393   6.316   2.217
 8682SOL    HW126945   5.298   6.328   2.190
 8682SOL    HW226946   5.447   6.393   2.182
 8683SOL     OW26947   1.912   1.778   4.272
 8683SOL    HW126948   1.848   1.777   4.195
 8683SOL    HW226949   1.975   1.855   4.262
 8684SOL     OW26950   6.047   2.837   5.230
 8684SOL    HW126951   5.967   2.877   5.275
 8684SOL    HW226952   6.120   2.905   5.225
 8685SOL     OW26953   0.449   2.165   6.715
 8685SOL    HW126954   0.350   2.163   6.726
 8685SOL    HW226955   0.484   2.072   6.706
 8686SOL     OW26956   0.199   1.382   3.121
 8686SOL    HW126957   0.279   1.383   3.181
 8686SOL    HW226958   0.221   1.331   3.038
 8687SOL     OW26959   5.305   4.723   1.335
 8687SOL    HW126960   5.352   4.683   1.414
 8687SOL    HW226961   5.255   4.651   1.286
 8688SOL     OW26962   1.375   5.180   6.487
 8688SOL    HW126963   1.311   5.255   6.469
 8688SOL    HW226964   1.403   5.139   6.400
 8689SOL     OW26965   3.636   3.724   1.155
 8689SOL    HW126966   3.624   3.697   1.059
 8689SOL    HW226967   3.666   3.646   1.209
 8690SOL     OW26968   1.487   3.921   3.669
 8690SOL    HW126969   1.584   3.897   3.661
 8690SOL    HW226970   1.432   3.838   3.672
 8691SOL     OW26971   3.506   1.887   5.815
 8691SOL    HW126972   3.467   1.919   5.901
 8691SOL    HW226973   3.436   1.838   5.763
 8692SOL     OW26974   2.864   1.388   4.884
 8692SOL    HW126975   2.920   1.420   4.807
 8692SOL    HW226976   2.897   1.298   4.913
 8693SOL     OW26977   5.713   0.559   0.086
 8693SOL    HW126978   5.623   0.561   0.043
 8693SOL    HW226979   5.777   0.509   0.028
 8694SOL     OW26980   4.769   0.637   4.888
 8694SOL    HW126981   4.830   0.559   4.903
 8694SOL    HW226982   4.687   0.607   4.839
 8695SOL     OW26983   4.367   3.422   6.180
 8695SOL    HW126984   4.418   3.385   6.257
 8695SOL    HW226985   4.426   3.428   6.100
 8696SOL     OW26986   1.945   4.949   5.930
 8696SOL    HW126987   2.000   4.999   5.863
 8696SOL    HW226988   1.929   4.856   5.896
 8697SOL     OW26989   0.355   3.075   6.401
 8697SOL    HW126990   0.350   3.069   6.302
 8697SOL    HW226991   0.435   3.129   6.427
 8698SOL     OW26992   4.855   5.780   4.773
 8698SOL    HW126993   4.787   5.793   4.702
 8698SOL    HW226994   4.813   5.793   4.863
 8699SOL     OW26995   1.407   2.303   5.099
 8699SOL    HW126996   1.433   2.319   5.004
 8699SOL    HW226997   1.468   2.235   5.139
 8700SOL     OW26998   1.158   1.586   3.917
 8700SOL    HW126999   1.249   1.629   3.917
 8700SOL    HW227000   1.093   1.648   3.960
 8701SOL     OW27001   1.440   0.879   6.816
 8701SOL    HW127002   1.458   0.948   6.746
 8701SOL    HW227003   1.524   0.827   6.834
 8702SOL     OW27004   5.478   4.875   1.557
 8702SOL    HW127005   5.480   4.974   1.542
 8702SOL    HW227006   5.542   4.832   1.493
 8703SOL     OW27007   2.527   4.464   6.800
 8703SOL    HW127008   2.472   4.545   6.776
 8703SOL    HW227009   2.617   4.472   6.758
 8704SOL     OW27010   0.043   4.312   3.588
 8704SOL    HW127011   0.137   4.279   3.594
 8704SOL    HW227012   0.036   4.381   3.516
 8705SOL     OW27013   5.396   1.026   6.299
 8705SOL    HW127014   5.437   1.034   6.208
 8705SOL    HW227015   5.384   0.929   6.322
 8706SOL     OW27016   5.351   1.984   6.921
 8706SOL    HW127017   5.259   1.946   6.934
 8706SOL    HW227018   5.406   1.966   7.003
 8707SOL     OW27019   6.798   1.324   6.227
 8707SOL    HW127020   6.829   1.405   6.277
 8707SOL    HW227021   6.837   1.242   6.270
 8708SOL     OW27022   4.555   1.589   2.176
 8708SOL    HW127023   4.467   1.597   2.223
 8708SOL    HW227024   4.540   1.588   2.077
 8709SOL     OW27025   0.524   6.606   0.368
 8709SOL    HW127026   0.534   6.646   0.277
 8709SOL    HW227027   0.522   6.506   0.360
 8710SOL     OW27028   2.173   3.238   3.706
 8710SOL    HW127029   2.232   3.171   3.749
 8710SOL    HW227030   2.168   3.220   3.608
 8711SOL     OW27031   1.871   6.815   3.139
 8711SOL    HW127032   1.815   6.822   3.221
 8711SOL    HW227033   1.848   6.890   3.076
 8712SOL     OW27034   3.813   2.035   4.658
 8712SOL    HW127035   3.873   2.054   4.581
 8712SOL    HW227036   3.836   2.097   4.734
 8713SOL     OW27037   6.456   3.308   4.261
 8713SOL    HW127038   6.404   3.393   4.248
 8713SOL    HW227039   6.405   3.246   4.321
 8714SOL     OW27040   0.533   0.483   5.432
 8714SOL    HW127041   0.566   0.570   5.470
 8714SOL    HW227042   0.610   0.433   5.392
 8715SOL     OW27043   4.222   6.724   1.302
 8715SOL    HW127044   4.265   6.727   1.393
 8715SOL    HW227045   4.131   6.684   1.309
 8716SOL     OW27046   6.971   0.193   0.892
 8716SOL    HW127047   7.017   0.169   0.977
 8716SOL    HW227048   6.874   0.209   0.910
 8717SOL     OW27049   2.936   3.273   4.795
 8717SOL    HW127050   2.931   3.336   4.873
 8717SOL    HW227051   2.845   3.254   4.761
 8718SOL     OW27052   1.800   3.354   5.337
 8718SOL    HW127053   1.747   3.352   5.421
 8718SOL    HW227054   1.751   3.304   5.265
 8719SOL     OW27055   3.750   0.174   6.879
 8719SOL    HW127056   3.728   0.078   6.860
 8719SOL    HW227057   3.829   0.178   6.941
 8720SOL     OW27058   6.956   5.421   6.137
 8720SOL    HW127059   6.922   5.451   6.048
 8720SOL    HW227060   0.011   5.357   6.124
 8721SOL     OW27061   6.771   2.521   1.618
 8721SOL    HW127062   6.757   2.479   1.708
 8721SOL    HW227063   6.861   2.564   1.615
 8722SOL     OW27064   3.563   1.460   0.609
 8722SOL    HW127065   3.521   1.471   0.519
 8722SOL    HW227066   3.623   1.538   0.627
 8723SOL     OW27067   4.673   6.186   1.684
 8723SOL    HW127068   4.767   6.219   1.692
 8723SOL    HW227069   4.611   6.264   1.675
 8724SOL     OW27070   5.026   6.735   5.318
 8724SOL    HW127071   4.959   6.665   5.343
 8724SOL    HW227072   5.115   6.712   5.358
 8725SOL     OW27073   1.438   6.375   5.810
 8725SOL    HW127074   1.479   6.403   5.723
 8725SOL    HW227075   1.457   6.278   5.827
 8726SOL     OW27076   0.007   1.857   3.665
 8726SOL    HW127077   6.945   1.825   3.619
 8726SOL    HW227078   0.060   1.914   3.602
 8727SOL     OW27079   5.919   6.989   2.144
 8727SOL    HW127080   5.996   6.959   2.200
 8727SOL    HW227081   5.896   0.063   2.167
 8728SOL     OW27082   6.508   0.615   2.254
 8728SOL    HW127083   6.538   0.547   2.187
 8728SOL    HW227084   6.501   0.571   2.344
 8729SOL     OW27085   3.660   5.228   5.173
 8729SOL    HW127086   3.674   5.322   5.203
 8729SOL    HW227087   3.563   5.206   5.177
 8730SOL     OW27088   6.113   4.508   2.457
 8730SOL    HW127089   6.088   4.442   2.386
 8730SOL    HW227090   6.099   4.467   2.547
 8731SOL     OW27091   1.676   2.627   3.092
 8731SOL    HW127092   1.641   2.707   3.141
 8731SOL    HW227093   1.759   2.652   3.042
 8732SOL     OW27094   5.856   4.775   1.523
 8732SOL    HW127095   5.786   4.782   1.452
 8732SOL    HW227096   5.866   4.864   1.569
 8733SOL     OW27097   2.220   5.187   1.499
 8733SOL    HW127098   2.192   5.108   1.554
 8733SOL    HW227099   2.138   5.229   1.458
 8734SOL     OW27100   0.840   4.203   2.111
 8734SOL    HW127101   0.748   4.229   2.081
 8734SOL    HW227102   0.907   4.266   2.071
 8735SOL     OW27103   1.051   2.664   0.436
 8735SOL    HW127104   0.967   2.678   0.490
 8735SOL    HW227105   1.029   2.617   0.351
 8736SOL     OW27106   0.161   5.542   0.462
 8736SOL    HW127107   0.138   5.452   0.499
 8736SOL    HW227108   0.088   5.572   0.401
 8737SOL     OW27109   2.021   6.880   0.005
 8737SOL    HW127110   2.029   6.909   6.930
 8737SOL    HW227111   2.101   6.911   0.056
 8738SOL     OW27112   2.834   5.262   4.178
 8738SOL    HW127113   2.791   5.176   4.204
 8738SOL    HW227114   2.794   5.337   4.230
 8739SOL     OW27115   6.416   5.803   6.962
 8739SOL    HW127116   6.408   5.855   6.876
 8739SOL    HW227117   6.325   5.780   6.996
 8740SOL     OW27118   4.585   1.350   4.415
 8740SOL    HW127119   4.662   1.413   4.408
 8740SOL    HW227120   4.613   1.259   4.382
 8741SOL     OW27121   2.468   1.224   2.174
 8741SOL    HW127122   2.394   1.213   2.241
 8741SOL    HW227123   2.489   1.322   2.165
 8742SOL     OW27124   5.132   6.418   1.414
 8742SOL    HW127125   5.120   6.341   1.352
 8742SOL    HW227126   5.151   6.385   1.506
 8743SOL     OW27127   1.781   0.043   1.887
 8743SOL    HW127128   1.797   0.090   1.974
 8743SOL    HW227129   1.766   6.966   1.905
 8744SOL     OW27130   4.186   2.847   6.695
 8744SOL    HW127131   4.196   2.919   6.764
 8744SOL    HW227132   4.271   2.840   6.642
 8745SOL     OW27133   6.507   2.208   6.360
 8745SOL    HW127134   6.604   2.184   6.350
 8745SOL    HW227135   6.457   2.178   6.278
 8746SOL     OW27136   4.704   5.439   4.796
 8746SOL    HW127137   4.712   5.341   4.811
 8746SOL    HW227138   4.616   5.471   4.831
 8747SOL     OW27139   0.305   2.375   3.281
 8747SOL    HW127140   0.234   2.330   3.227
 8747SOL    HW227141   0.339   2.455   3.232
 8748SOL     OW27142   0.171   1.439   4.365
 8748SOL    HW127143   0.119   1.367   4.318
 8748SOL    HW227144   0.125   1.527   4.352
 8749SOL     OW27145   2.094   0.264   4.974
 8749SOL    HW127146   2.065   0.170   4.961
 8749SOL    HW227147   2.085   0.314   4.888
 8750SOL     OW27148   3.342   3.661   4.685
 8750SOL    HW127149   3.257   3.614   4.709
 8750SOL    HW227150   3.411   3.594   4.660
 8751SOL     OW27151   5.941   1.641   2.124
 8751SOL    HW127152   5.976   1.668   2.214
 8751SOL    HW227153   5.842   1.634   2.127
 8752SOL     OW27154   3.349   3.587   6.760
 8752SOL    HW127155   3.309   3.665   6.807
 8752SOL    HW227156   3.299   3.503   6.783
 8753SOL     OW27157   3.744   1.673   6.450
 8753SOL    HW127158   3.683   1.750   6.468
 8753SOL    HW227159   3.691   1.589   6.445
 8754SOL     OW27160   2.306   3.517   5.575
 8754SOL    HW127161   2.273   3.443   5.633
 8754SOL    HW227162   2.406   3.517   5.575
 8755SOL     OW27163   2.243   1.209   1.011
 8755SOL    HW127164   2.219   1.301   0.979
 8755SOL    HW227165   2.342   1.204   1.028
 8756SOL     OW27166   0.984   3.213   4.303
 8756SOL    HW127167   0.960   3.118   4.320
 8756SOL    HW227168   1.083   3.220   4.291
 8757SOL     OW27169   3.789   5.990   6.275
 8757SOL    HW127170   3.875   6.040   6.287
 8757SOL    HW227171   3.762   5.948   6.362
 8758SOL     OW27172   4.895   5.789   2.604
 8758SOL    HW127173   4.873   5.692   2.594
 8758SOL    HW227174   4.907   5.811   2.701
 8759SOL     OW27175   4.967   2.889   6.880
 8759SOL    HW127176   5.037   2.951   6.917
 8759SOL    HW227177   5.008   2.828   6.813
 8760SOL     OW27178   2.178   0.478   5.273
 8760SOL    HW127179   2.197   0.379   5.273
 8760SOL    HW227180   2.249   0.526   5.222
 8761SOL     OW27181   6.360   2.307   1.778
 8761SOL    HW127182   6.426   2.275   1.709
 8761SOL    HW227183   6.275   2.255   1.768
 8762SOL     OW27184   1.383   4.026   3.078
 8762SOL    HW127185   1.373   4.123   3.102
 8762SOL    HW227186   1.313   4.001   3.011
 8763SOL     OW27187   7.014   6.579   6.259
 8763SOL    HW127188   0.060   6.585   6.184
 8763SOL    HW227189   6.970   6.668   6.271
 8764SOL     OW27190   5.350   6.912   4.820
 8764SOL    HW127191   5.363   6.821   4.782
 8764SOL    HW227192   5.438   6.961   4.820
 8765SOL     OW27193   5.344   6.783   3.970
 8765SOL    HW127194   5.289   6.722   4.027
 8765SOL    HW227195   5.290   6.814   3.892
 8766SOL     OW27196   4.835   4.744   4.520
 8766SOL    HW127197   4.774   4.814   4.482
 8766SOL    HW227198   4.930   4.768   4.500
 8767SOL     OW27199   5.046   5.300   3.134
 8767SOL    HW127200   4.963   5.245   3.126
 8767SOL    HW227201   5.054   5.335   3.227
 8768SOL     OW27202   1.401   2.618   0.167
 8768SOL    HW127203   1.466   2.632   0.092
 8768SOL    HW227204   1.328   2.557   0.137
 8769SOL     OW27205   0.492   0.566   3.540
 8769SOL    HW127206   0.404   0.583   3.496
 8769SOL    HW227207   0.565   0.571   3.472
 8770SOL     OW27208   4.664   4.322   2.265
 8770SOL    HW127209   4.653   4.291   2.171
 8770SOL    HW227210   4.650   4.421   2.270
 8771SOL     OW27211   1.311   1.820   6.509
 8771SOL    HW127212   1.256   1.797   6.590
 8771SOL    HW227213   1.292   1.754   6.436
 8772SOL     OW27214   4.838   0.662   6.419
 8772SOL    HW127215   4.756   0.606   6.430
 8772SOL    HW227216   4.909   0.610   6.371
 8773SOL     OW27217   5.351   2.314   3.665
 8773SOL    HW127218   5.321   2.356   3.751
 8773SOL    HW227219   5.358   2.384   3.594
 8774SOL     OW27220   1.692   0.909   6.996
 8774SOL    HW127221   1.755   0.918   6.918
 8774SOL    HW227222   1.726   0.965   0.051
 8775SOL     OW27223   5.833   6.747   5.796
 8775SOL    HW127224   5.754   6.779   5.744
 8775SOL    HW227225   5.838   6.796   5.883
 8776SOL     OW27226   3.918   2.661   0.264
 8776SOL    HW127227   3.940   2.758   0.266
 8776SOL    HW227228   3.882   2.637   0.173
 8777SOL     OW27229   6.790   4.292   2.790
 8777SOL    HW127230   6.722   4.365   2.799
 8777SOL    HW227231   6.835   4.278   2.878
 8778SOL     OW27232   5.902   3.265   5.641
 8778SOL    HW127233   5.829   3.198   5.657
 8778SOL    HW227234   5.986   3.217   5.613
 8779SOL     OW27235   2.791   5.002   2.317
 8779SOL    HW127236   2.709   4.987   2.262
 8779SOL    HW227237   2.827   4.914   2.347
 8780SOL     OW27238   0.416   6.338   2.953
 8780SOL    HW127239   0.321   6.367   2.952
 8780SOL    HW227240   0.458   6.364   3.041
 8781SOL     OW27241   4.889   0.900   3.144
 8781SOL    HW127242   4.874   0.806   3.111
 8781SOL    HW227243   4.800   0.941   3.168
 8782SOL     OW27244   6.514   6.603   1.262
 8782SOL    HW127245   6.567   6.686   1.242
 8782SOL    HW227246   6.548   6.527   1.207
 8783SOL     OW27247   6.594   4.738   4.063
 8783SOL    HW127248   6.671   4.675   4.064
 8783SOL    HW227249   6.592   4.790   4.149
 8784SOL     OW27250   6.108   4.432   5.832
 8784SOL    HW127251   6.122   4.393   5.741
 8784SOL    HW227252   6.181   4.401   5.893
 8785SOL     OW27253   5.544   4.025   0.168
 8785SOL    HW127254   5.554   4.080   0.251
 8785SOL    HW227255   5.585   3.935   0.184
 8786SOL     OW27256   2.928   0.677   0.927
 8786SOL    HW127257   2.936   0.609   0.854
 8786SOL    HW227258   2.928   0.769   0.888
 8787SOL     OW27259   3.387   1.462   1.856
 8787SOL    HW127260   3.362   1.558   1.846
 8787SOL    HW227261   3.420   1.427   1.768
 8788SOL     OW27262   6.134   0.714   5.432
 8788SOL    HW127263   6.179   0.627   5.412
 8788SOL    HW227264   6.110   0.760   5.346
 8789SOL     OW27265   5.897   6.339   4.621
 8789SOL    HW127266   5.813   6.320   4.671
 8789SOL    HW227267   5.954   6.256   4.619
 8790SOL     OW27268   0.345   0.501   6.449
 8790SOL    HW127269   0.279   0.450   6.505
 8790SOL    HW227270   0.426   0.522   6.504
 8791SOL     OW27271   4.841   6.312   5.228
 8791SOL    HW127272   4.931   6.344   5.199
 8791SOL    HW227273   4.788   6.283   5.148
 8792SOL     OW27274   2.462   5.825   3.004
 8792SOL    HW127275   2.519   5.744   3.016
 8792SOL    HW227276   2.465   5.855   2.909
 8793SOL     OW27277   1.098   4.561   2.889
 8793SOL    HW127278   1.067   4.485   2.947
 8793SOL    HW227279   1.119   4.526   2.798
 8794SOL     OW27280   4.778   0.031   2.219
 8794SOL    HW127281   4.805   0.078   2.303
 8794SOL    HW227282   4.748   6.959   2.241
 8795SOL     OW27283   1.334   4.687   5.640
 8795SOL    HW127284   1.342   4.730   5.729
 8795SOL    HW227285   1.304   4.754   5.572
 8796SOL     OW27286   3.978   2.100   4.442
 8796SOL    HW127287   3.951   2.043   4.365
 8796SOL    HW227288   4.049   2.164   4.413
 8797SOL     OW27289   0.196   0.306   6.674
 8797SOL    HW127290   0.098   0.289   6.679
 8797SOL    HW227291   0.242   0.226   6.634
 8798SOL     OW27292   5.545   5.159   6.309
 8798SOL    HW127293   5.465   5.205   6.348
 8798SOL    HW227294   5.529   5.141   6.212
 8799SOL     OW27295   2.546   4.601   3.733
 8799SOL    HW127296   2.562   4.550   3.818
 8799SOL    HW227297   2.469   4.560   3.684
 8800SOL     OW27298   6.796   4.309   5.865
 8800SOL    HW127299   6.862   4.370   5.822
 8800SOL    HW227300   6.824   4.291   5.960
 8801SOL     OW27301   6.989   1.026   5.200
 8801SOL    HW127302   6.920   0.972   5.154
 8801SOL    HW227303   0.059   0.990   5.179
 8802SOL     OW27304   2.101   0.128   0.052
 8802SOL    HW127305   2.166   0.085   7.010
 8802SOL    HW227306   2.035   0.182   7.020
 8803SOL     OW27307   0.169   6.351   6.868
 8803SOL    HW127308   0.269   6.340   6.874
 8803SOL    HW227309   0.146   6.448   6.868
 8804SOL     OW27310   2.438   6.820   2.126
 8804SOL    HW127311   2.405   6.844   2.217
 8804SOL    HW227312   2.441   6.903   2.070
 8805SOL     OW27313   3.236   6.058   3.757
 8805SOL    HW127314   3.183   5.991   3.706
 8805SOL    HW227315   3.226   6.041   3.855
 8806SOL     OW27316   3.264   4.832   2.066
 8806SOL    HW127317   3.221   4.788   1.988
 8806SOL    HW227318   3.364   4.825   2.057
 8807SOL     OW27319   4.882   0.579   6.983
 8807SOL    HW127320   4.903   0.675   6.964
 8807SOL    HW227321   4.790   0.572   7.021
 8808SOL     OW27322   6.120   2.550   6.873
 8808SOL    HW127323   6.145   2.455   6.856
 8808SOL    HW227324   6.154   2.608   6.799
 8809SOL     OW27325   4.435   5.079   3.449
 8809SOL    HW127326   4.406   5.046   3.359
 8809SOL    HW227327   4.516   5.136   3.438
 8810SOL     OW27328   6.315   0.555   4.823
 8810SOL    HW127329   6.252   0.619   4.779
 8810SOL    HW227330   6.385   0.606   4.873
 8811SOL     OW27331   3.684   0.675   2.802
 8811SOL    HW127332   3.593   0.634   2.809
 8811SOL    HW227333   3.705   0.723   2.887
 8812SOL     OW27334   1.756   0.749   0.406
 8812SOL    HW127335   1.722   0.750   0.500
 8812SOL    HW227336   1.734   0.836   0.362
 8813SOL     OW27337   2.137   4.975   1.913
 8813SOL    HW127338   2.202   5.036   1.958
 8813SOL    HW227339   2.146   4.882   1.949
 8814SOL     OW27340   6.121   7.020   0.549
 8814SOL    HW127341   6.054   6.975   0.490
 8814SOL    HW227342   6.156   6.955   0.616
 8815SOL     OW27343   5.842   6.684   0.723
 8815SOL    HW127344   5.743   6.693   0.718
 8815SOL    HW227345   5.880   6.682   0.630
 8816SOL     OW27346   1.504   6.657   0.463
 8816SOL    HW127347   1.583   6.717   0.462
 8816SOL    HW227348   1.516   6.586   0.532
 8817SOL     OW27349   0.276   4.867   3.743
 8817SOL    HW127350   0.222   4.812   3.679
 8817SOL    HW227351   0.363   4.891   3.701
 8818SOL     OW27352   0.622   4.461   4.533
 8818SOL    HW127353   0.673   4.541   4.566
 8818SOL    HW227354   0.588   4.409   4.611
 8819SOL     OW27355   5.886   5.241   5.714
 8819SOL    HW127356   5.894   5.147   5.679
 8819SOL    HW227357   5.796   5.254   5.754
 8820SOL     OW27358   2.728   0.405   4.912
 8820SOL    HW127359   2.728   0.417   4.813
 8820SOL    HW227360   2.648   0.351   4.939
 8821SOL     OW27361   1.880   5.982   0.513
 8821SOL    HW127362   1.958   5.949   0.567
 8821SOL    HW227363   1.818   5.906   0.495
 8822SOL     OW27364   0.519   0.237   3.895
 8822SOL    HW127365   0.514   0.253   3.797
 8822SOL    HW227366   0.437   0.274   3.939
 8823SOL     OW27367   2.411   1.040   2.660
 8823SOL    HW127368   2.442   1.119   2.714
 8823SOL    HW227369   2.466   1.033   2.577
 8824SOL     OW27370   1.544   1.920   0.040
 8824SOL    HW127371   1.549   1.985   0.115
 8824SOL    HW227372   1.528   1.968   6.975
 8825SOL     OW27373   2.046   1.278   2.204
 8825SOL    HW127374   2.047   1.178   2.204
 8825SOL    HW227375   1.954   1.311   2.227
 8826SOL     OW27376   0.105   3.907   0.260
 8826SOL    HW127377   0.052   3.977   0.211
 8826SOL    HW227378   0.146   3.947   0.342
 8827SOL     OW27379   4.520   1.531   1.586
 8827SOL    HW127380   4.595   1.548   1.521
 8827SOL    HW227381   4.467   1.452   1.555
 8828SOL     OW27382   3.885   5.786   6.097
 8828SOL    HW127383   3.967   5.803   6.043
 8828SOL    HW227384   3.846   5.874   6.126
 8829SOL     OW27385   4.949   3.011   0.819
 8829SOL    HW127386   4.996   2.964   0.744
 8829SOL    HW227387   4.939   3.108   0.796
 8830SOL     OW27388   1.659   2.202   2.476
 8830SOL    HW127389   1.739   2.148   2.503
 8830SOL    HW227390   1.678   2.250   2.391
 8831SOL     OW27391   4.548   2.513   4.294
 8831SOL    HW127392   4.590   2.422   4.297
 8831SOL    HW227393   4.512   2.530   4.202
 8832SOL     OW27394   0.329   6.766   2.983
 8832SOL    HW127395   0.253   6.810   3.030
 8832SOL    HW227396   0.407   6.758   3.046
 8833SOL     OW27397   2.481   4.875   5.894
 8833SOL    HW127398   2.477   4.856   5.795
 8833SOL    HW227399   2.515   4.968   5.909
 8834SOL     OW27400   5.798   4.304   4.937
 8834SOL    HW127401   5.850   4.218   4.930
 8834SOL    HW227402   5.700   4.284   4.928
 8835SOL     OW27403   4.559   0.671   5.477
 8835SOL    HW127404   4.642   0.647   5.527
 8835SOL    HW227405   4.504   0.589   5.462
 8836SOL     OW27406   4.841   1.863   0.182
 8836SOL    HW127407   4.894   1.943   0.212
 8836SOL    HW227408   4.774   1.892   0.114
 8837SOL     OW27409   0.057   6.340   2.503
 8837SOL    HW127410   0.005   6.401   2.443
 8837SOL    HW227411   0.101   6.269   2.449
 8838SOL     OW27412   2.014   5.368   3.488
 8838SOL    HW127413   1.951   5.402   3.418
 8838SOL    HW227414   2.077   5.441   3.515
 8839SOL     OW27415   5.469   5.479   1.578
 8839SOL    HW127416   5.472   5.437   1.668
 8839SOL    HW227417   5.561   5.482   1.539
 8840SOL     OW27418   0.260   1.856   3.007
 8840SOL    HW127419   0.310   1.811   2.934
 8840SOL    HW227420   0.240   1.789   3.079
 8841SOL     OW27421   0.717   1.184   4.713
 8841SOL    HW127422   0.636   1.242   4.705
 8841SOL    HW227423   0.709   1.107   4.650
 8842SOL     OW27424   3.407   2.854   2.404
 8842SOL    HW127425   3.391   2.901   2.491
 8842SOL    HW227426   3.505   2.855   2.384
 8843SOL     OW27427   2.255   3.290   5.760
 8843SOL    HW127428   2.289   3.215   5.704
 8843SOL    HW227429   2.323   3.315   5.829
 8844SOL     OW27430   0.316   1.352   5.996
 8844SOL    HW127431   0.242   1.417   6.011
 8844SOL    HW227432   0.332   1.342   5.898
 8845SOL     OW27433   3.394   3.793   1.449
 8845SOL    HW127434   3.379   3.831   1.357
 8845SOL    HW227435   3.367   3.697   1.449
 8846SOL     OW27436   3.437   5.446   3.825
 8846SOL    HW127437   3.345   5.416   3.852
 8846SOL    HW227438   3.505   5.397   3.879
 8847SOL     OW27439   2.349   0.975   2.991
 8847SOL    HW127440   2.378   0.986   2.896
 8847SOL    HW227441   2.333   0.878   3.010
 8848SOL     OW27442   2.900   1.893   2.564
 8848SOL    HW127443   2.803   1.909   2.579
 8848SOL    HW227444   2.947   1.981   2.552
 8849SOL     OW27445   2.867   6.272   3.120
 8849SOL    HW127446   2.838   6.192   3.173
 8849SOL    HW227447   2.963   6.263   3.096
 8850SOL     OW27448   1.533   2.100   6.844
 8850SOL    HW127449   1.608   2.164   6.864
 8850SOL    HW227450   1.546   2.062   6.752
 8851SOL     OW27451   1.458   5.530   2.057
 8851SOL    HW127452   1.379   5.555   2.000
 8851SOL    HW227453   1.529   5.490   2.000
 8852SOL     OW27454   5.214   3.542   5.811
 8852SOL    HW127455   5.158   3.576   5.735
 8852SOL    HW227456   5.166   3.467   5.856
 8853SOL     OW27457   3.090   1.559   0.574
 8853SOL    HW127458   3.091   1.554   0.475
 8853SOL    HW227459   3.183   1.577   0.608
 8854SOL     OW27460   3.229   1.181   5.603
 8854SOL    HW127461   3.174   1.107   5.566
 8854SOL    HW227462   3.207   1.266   5.555
 8855SOL     OW27463   0.180   6.161   1.262
 8855SOL    HW127464   0.238   6.091   1.304
 8855SOL    HW227465   0.127   6.207   1.333
 8856SOL     OW27466   0.424   6.396   6.564
 8856SOL    HW127467   0.488   6.324   6.538
 8856SOL    HW227468   0.340   6.388   6.510
 8857SOL     OW27469   6.733   1.700   4.185
 8857SOL    HW127470   6.727   1.673   4.089
 8857SOL    HW227471   6.689   1.789   4.197
 8858SOL     OW27472   0.677   2.632   5.450
 8858SOL    HW127473   0.586   2.675   5.446
 8858SOL    HW227474   0.667   2.534   5.464
 8859SOL     OW27475   0.457   0.681   3.770
 8859SOL    HW127476   0.361   0.675   3.794
 8859SOL    HW227477   0.475   0.628   3.687
 8860SOL     OW27478   0.208   2.960   2.825
 8860SOL    HW127479   0.261   3.045   2.814
 8860SOL    HW227480   0.114   2.982   2.848
 8861SOL     OW27481   4.157   1.559   5.843
 8861SOL    HW127482   4.176   1.484   5.907
 8861SOL    HW227483   4.126   1.639   5.894
 8862SOL     OW27484   5.648   0.423   3.909
 8862SOL    HW127485   5.592   0.394   3.987
 8862SOL    HW227486   5.634   0.521   3.892
 8863SOL     OW27487   1.428   4.945   4.103
 8863SOL    HW127488   1.405   5.023   4.044
 8863SOL    HW227489   1.347   4.887   4.114
 8864SOL     OW27490   3.203   4.782   6.460
 8864SOL    HW127491   3.256   4.699   6.477
 8864SOL    HW227492   3.149   4.771   6.376
 8865SOL     OW27493   2.826   0.516   6.144
 8865SOL    HW127494   2.751   0.580   6.125
 8865SOL    HW227495   2.854   0.473   6.058
 8866SOL     OW27496   5.213   0.202   3.059
 8866SOL    HW127497   5.300   0.188   3.107
 8866SOL    HW227498   5.230   0.251   2.974
 8867SOL     OW27499   5.844   4.180   2.645
 8867SOL    HW127500   5.913   4.240   2.687
 8867SOL    HW227501   5.853   4.088   2.682
 8868SOL     OW27502   6.627   2.526   0.961
 8868SOL    HW127503   6.650   2.617   0.925
 8868SOL    HW227504   6.545   2.492   0.915
 8869SOL     OW27505   4.117   5.914   4.724
 8869SOL    HW127506   4.057   5.973   4.778
 8869SOL    HW227507   4.089   5.819   4.737
 8870SOL     OW27508   3.557   0.568   0.683
 8870SOL    HW127509   3.589   0.663   0.682
 8870SOL    HW227510   3.457   0.566   0.681
 8871SOL     OW27511   1.857   1.230   4.083
 8871SOL    HW127512   1.837   1.145   4.131
 8871SOL    HW227513   1.940   1.270   4.120
 8872SOL     OW27514   1.605   4.104   5.076
 8872SOL    HW127515   1.552   4.063   5.150
 8872SOL    HW227516   1.584   4.202   5.069
 8873SOL     OW27517   0.999   6.918   1.662
 8873SOL    HW127518   0.899   6.920   1.667
 8873SOL    HW227519   1.037   6.955   1.747
 8874SOL     OW27520   1.706   6.132   2.299
 8874SOL    HW127521   1.803   6.108   2.312
 8874SOL    HW227522   1.679   6.113   2.205
 8875SOL     OW27523   0.044   3.876   5.438
 8875SOL    HW127524   0.034   3.960   5.385
 8875SOL    HW227525   7.018   3.887   5.526
 8876SOL     OW27526   2.482   6.419   4.916
 8876SOL    HW127527   2.392   6.432   4.957
 8876SOL    HW227528   2.544   6.490   4.948
 8877SOL     OW27529   3.261   1.643   3.678
 8877SOL    HW127530   3.179   1.656   3.735
 8877SOL    HW227531   3.270   1.719   3.615
 8878SOL     OW27532   6.832   4.582   0.280
 8878SOL    HW127533   6.777   4.607   0.200
 8878SOL    HW227534   6.885   4.662   0.309
 8879SOL     OW27535   4.868   4.669   2.913
 8879SOL    HW127536   4.795   4.606   2.941
 8879SOL    HW227537   4.950   4.617   2.891
 8880SOL     OW27538   5.224   5.877   4.946
 8880SOL    HW127539   5.316   5.886   4.907
 8880SOL    HW227540   5.229   5.889   5.045
 8881SOL     OW27541   5.765   6.724   4.082
 8881SOL    HW127542   5.853   6.755   4.045
 8881SOL    HW227543   5.701   6.710   4.006
 8882SOL     OW27544   5.575   1.059   1.205
 8882SOL    HW127545   5.655   1.112   1.235
 8882SOL    HW227546   5.539   1.007   1.283
 8883SOL     OW27547   1.174   6.233   6.312
 8883SOL    HW127548   1.104   6.262   6.248
 8883SOL    HW227549   1.138   6.160   6.370
 8884SOL     OW27550   6.788   3.777   6.139
 8884SOL    HW127551   6.743   3.750   6.224
 8884SOL    HW227552   6.729   3.840   6.089
 8885SOL     OW27553   6.535   3.552   1.431
 8885SOL    HW127554   6.576   3.482   1.373
 8885SOL    HW227555   6.519   3.635   1.378
 8886SOL     OW27556   2.885   6.925   4.697
 8886SOL    HW127557   2.883   6.915   4.598
 8886SOL    HW227558   2.799   6.965   4.728
 8887SOL     OW27559   4.035   0.740   0.598
 8887SOL    HW127560   4.114   0.701   0.646
 8887SOL    HW227561   4.067   0.794   0.520
 8888SOL     OW27562   1.660   1.627   5.900
 8888SOL    HW127563   1.650   1.532   5.929
 8888SOL    HW227564   1.743   1.666   5.940
 8889SOL     OW27565   6.660   0.284   6.146
 8889SOL    HW127566   6.582   0.345   6.157
 8889SOL    HW227567   6.646   0.202   6.202
 8890SOL     OW27568   6.506   5.862   4.145
 8890SOL    HW127569   6.563   5.880   4.225
 8890SOL    HW227570   6.506   5.764   4.125
 8891SOL     OW27571   4.274   3.453   6.736
 8891SOL    HW127572   4.212   3.531   6.736
 8891SOL    HW227573   4.262   3.402   6.821
 8892SOL     OW27574   3.252   5.405   3.161
 8892SOL    HW127575   3.295   5.457   3.087
 8892SOL    HW227576   3.247   5.309   3.137
 8893SOL     OW27577   0.707   5.776   3.584
 8893SOL    HW127578   0.634   5.729   3.633
 8893SOL    HW227579   0.794   5.760   3.630
 8894SOL     OW27580   4.032   2.268   6.594
 8894SOL    HW127581   3.981   2.243   6.512
 8894SOL    HW227582   3.978   2.247   6.675
 8895SOL     OW27583   6.286   2.735   2.039
 8895SOL    HW127584   6.236   2.794   2.103
 8895SOL    HW227585   6.356   2.788   1.993
 8896SOL     OW27586   2.805   3.195   5.267
 8896SOL    HW127587   2.720   3.144   5.277
 8896SOL    HW227588   2.847   3.209   5.357
 8897SOL     OW27589   2.049   2.759   3.199
 8897SOL    HW127590   1.983   2.814   3.149
 8897SOL    HW227591   2.004   2.712   3.275
 8898SOL     OW27592   5.148   2.926   2.697
 8898SOL    HW127593   5.237   2.953   2.662
 8898SOL    HW227594   5.152   2.917   2.796
 8899SOL     OW27595   1.299   5.756   1.371
 8899SOL    HW127596   1.302   5.783   1.467
 8899SOL    HW227597   1.265   5.662   1.364
 8900SOL     OW27598   5.541   2.907   3.254
 8900SOL    HW127599   5.550   2.909   3.353
 8900SOL    HW227600   5.622   2.948   3.212
 8901SOL     OW27601   1.999   0.703   5.103
 8901SOL    HW127602   2.080   0.756   5.078
 8901SOL    HW227603   1.959   0.663   5.021
 8902SOL     OW27604   2.017   6.966   0.589
 8902SOL    HW127605   2.061   0.035   0.593
 8902SOL    HW227606   1.994   6.944   0.495
 8903SOL     OW27607   0.178   1.809   4.909
 8903SOL    HW127608   0.255   1.795   4.847
 8903SOL    HW227609   0.133   1.721   4.926
 8904SOL     OW27610   6.368   0.108   4.367
 8904SOL    HW127611   6.369   0.207   4.356
 8904SOL    HW227612   6.403   0.064   4.284
 8905SOL     OW27613   1.448   4.007   3.928
 8905SOL    HW127614   1.458   3.973   3.835
 8905SOL    HW227615   1.510   3.956   3.988
 8906SOL     OW27616   0.585   6.147   6.565
 8906SOL    HW127617   0.535   6.107   6.642
 8906SOL    HW227618   0.682   6.152   6.587
 8907SOL     OW27619   2.722   2.424   5.247
 8907SOL    HW127620   2.701   2.518   5.221
 8907SOL    HW227621   2.784   2.383   5.180
 8908SOL     OW27622   1.282   4.926   7.007
 8908SOL    HW127623   1.278   4.999   6.939
 8908SOL    HW227624   1.193   4.881   7.014
 8909SOL     OW27625   2.318   0.665   6.190
 8909SOL    HW127626   2.370   0.622   6.115
 8909SOL    HW227627   2.362   0.643   6.277
 8910SOL     OW27628   0.058   2.413   5.699
 8910SOL    HW127629   0.013   2.391   5.786
 8910SOL    HW227630   7.019   2.471   5.645
 8911SOL     OW27631   4.205   2.275   4.874
 8911SOL    HW127632   4.283   2.309   4.822
 8911SOL    HW227633   4.199   2.325   4.961
 8912SOL     OW27634   3.507   3.666   6.565
 8912SOL    HW127635   3.476   3.603   6.636
 8912SOL    HW227636   3.435   3.679   6.497
 8913SOL     OW27637   4.867   5.123   5.882
 8913SOL    HW127638   4.873   5.073   5.796
 8913SOL    HW227639   4.780   5.172   5.886
 8914SOL     OW27640   4.546   0.574   4.717
 8914SOL    HW127641   4.550   0.582   4.617
 8914SOL    HW227642   4.554   0.478   4.744
 8915SOL     OW27643   0.650   3.166   4.006
 8915SOL    HW127644   0.651   3.102   3.929
 8915SOL    HW227645   0.557   3.172   4.043
 8916SOL     OW27646   6.655   2.903   0.446
 8916SOL    HW127647   6.585   2.832   0.457
 8916SOL    HW227648   6.734   2.865   0.398
 8917SOL     OW27649   6.507   3.303   6.824
 8917SOL    HW127650   6.516   3.301   6.724
 8917SOL    HW227651   6.523   3.212   6.860
 8918SOL     OW27652   6.484   4.144   1.033
 8918SOL    HW127653   6.566   4.151   1.090
 8918SOL    HW227654   6.487   4.214   0.962
 8919SOL     OW27655   3.981   4.006   0.878
 8919SOL    HW127656   3.932   3.931   0.835
 8919SOL    HW227657   4.000   4.077   0.810
 8920SOL     OW27658   7.010   0.889   6.735
 8920SOL    HW127659   7.015   0.796   6.698
 8920SOL    HW227660   6.979   0.952   6.664
 8921SOL     OW27661   2.456   2.261   2.341
 8921SOL    HW127662   2.467   2.162   2.340
 8921SOL    HW227663   2.536   2.304   2.383
 8922SOL     OW27664   4.500   4.563   1.229
 8922SOL    HW127665   4.419   4.555   1.286
 8922SOL    HW227666   4.483   4.519   1.140
 8923SOL     OW27667   1.712   2.128   6.154
 8923SOL    HW127668   1.616   2.101   6.142
 8923SOL    HW227669   1.753   2.144   6.064
 8924SOL     OW27670   3.386   5.246   5.133
 8924SOL    HW127671   3.327   5.194   5.193
 8924SOL    HW227672   3.343   5.254   5.043
 8925SOL     OW27673   0.915   1.943   3.149
 8925SOL    HW127674   0.972   1.985   3.220
 8925SOL    HW227675   0.943   1.976   3.059
 8926SOL     OW27676   6.483   2.969   5.795
 8926SOL    HW127677   6.434   3.046   5.835
 8926SOL    HW227678   6.482   2.891   5.858
 8927SOL     OW27679   6.948   1.323   4.862
 8927SOL    HW127680   6.980   1.361   4.775
 8927SOL    HW227681   6.857   1.357   4.882
 8928SOL     OW27682   0.576   0.112   6.341
 8928SOL    HW127683   0.496   0.147   6.391
 8928SOL    HW227684   0.571   0.012   6.336
 8929SOL     OW27685   5.849   2.374   4.095
 8929SOL    HW127686   5.884   2.422   4.176
 8929SOL    HW227687   5.799   2.292   4.124
 8930SOL     OW27688   1.832   3.422   3.962
 8930SOL    HW127689   1.888   3.356   3.913
 8930SOL    HW227690   1.825   3.395   4.058
 8931SOL     OW27691   2.260   3.462   0.526
 8931SOL    HW127692   2.307   3.542   0.563
 8931SOL    HW227693   2.164   3.484   0.513
 8932SOL     OW27694   6.486   1.443   1.243
 8932SOL    HW127695   6.582   1.419   1.258
 8932SOL    HW227696   6.475   1.482   1.151
 8933SOL     OW27697   2.064   2.995   6.171
 8933SOL    HW127698   2.014   2.946   6.099
 8933SOL    HW227699   2.009   3.073   6.201
 8934SOL     OW27700   3.614   4.952   4.385
 8934SOL    HW127701   3.666   4.894   4.447
 8934SOL    HW227702   3.516   4.941   4.404
 8935SOL     OW27703   6.804   4.556   0.708
 8935SOL    HW127704   6.823   4.502   0.790
 8935SOL    HW227705   6.828   4.503   0.627
 8936SOL     OW27706   1.469   3.182   2.994
 8936SOL    HW127707   1.409   3.128   3.053
 8936SOL    HW227708   1.544   3.124   2.961
 8937SOL     OW27709   6.960   0.087   4.495
 8937SOL    HW127710   6.862   0.087   4.472
 8937SOL    HW227711   6.989   0.180   4.517
 8938SOL     OW27712   0.296   0.369   0.732
 8938SOL    HW127713   0.252   0.294   0.683
 8938SOL    HW227714   0.228   0.438   0.756
 8939SOL     OW27715   6.021   4.547   4.230
 8939SOL    HW127716   5.931   4.553   4.271
 8939SOL    HW227717   6.090   4.576   4.296
 8940SOL     OW27718   6.456   1.142   2.410
 8940SOL    HW127719   6.541   1.194   2.411
 8940SOL    HW227720   6.381   1.200   2.442
 8941SOL     OW27721   5.547   2.545   4.802
 8941SOL    HW127722   5.471   2.604   4.777
 8941SOL    HW227723   5.595   2.515   4.719
 8942SOL     OW27724   6.542   5.394   5.948
 8942SOL    HW127725   6.544   5.484   5.992
 8942SOL    HW227726   6.549   5.323   6.018
 8943SOL     OW27727   3.780   5.281   0.896
 8943SOL    HW127728   3.767   5.219   0.819
 8943SOL    HW227729   3.692   5.302   0.938
 8944SOL     OW27730   5.249   5.593   5.002
 8944SOL    HW127731   5.187   5.672   5.006
 8944SOL    HW227732   5.337   5.617   5.044
 8945SOL     OW27733   0.967   0.932   3.527
 8945SOL    HW127734   1.057   0.931   3.572
 8945SOL    HW227735   0.958   0.850   3.470
 8946SOL     OW27736   2.487   1.581   4.320
 8946SOL    HW127737   2.486   1.598   4.222
 8946SOL    HW227738   2.573   1.615   4.359
 8947SOL     OW27739   2.568   3.502   5.634
 8947SOL    HW127740   2.644   3.567   5.628
 8947SOL    HW227741   2.602   3.409   5.616
 8948SOL     OW27742   6.200   5.841   4.110
 8948SOL    HW127743   6.277   5.845   4.174
 8948SOL    HW227744   6.207   5.758   4.055
 8949SOL     OW27745   3.500   6.182   1.027
 8949SOL    HW127746   3.462   6.172   0.935
 8949SOL    HW227747   3.593   6.219   1.021
 8950SOL     OW27748   4.541   4.529   6.569
 8950SOL    HW127749   4.565   4.621   6.541
 8950SOL    HW227750   4.562   4.465   6.496
 8951SOL     OW27751   1.951   0.822   4.673
 8951SOL    HW127752   2.037   0.848   4.717
 8951SOL    HW227753   1.926   0.890   4.604
 8952SOL     OW27754   0.408   5.573   2.367
 8952SOL    HW127755   0.430   5.531   2.279
 8952SOL    HW227756   0.492   5.601   2.413
 8953SOL     OW27757   1.259   4.107   0.429
 8953SOL    HW127758   1.213   4.039   0.485
 8953SOL    HW227759   1.220   4.198   0.448
 8954SOL     OW27760   6.559   6.652   4.603
 8954SOL    HW127761   6.635   6.694   4.653
 8954SOL    HW227762   6.474   6.667   4.654
 8955SOL     OW27763   6.902   5.851   2.559
 8955SOL    HW127764   6.943   5.839   2.469
 8955SOL    HW227765   6.974   5.856   2.628
 8956SOL     OW27766   1.916   1.595   6.464
 8956SOL    HW127767   1.943   1.505   6.497
 8956SOL    HW227768   1.934   1.602   6.366
 8957SOL     OW27769   1.640   4.837   1.289
 8957SOL    HW127770   1.722   4.886   1.320
 8957SOL    HW227771   1.660   4.740   1.281
 8958SOL     OW27772   0.206   1.977   4.630
 8958SOL    HW127773   0.250   2.065   4.648
 8958SOL    HW227774   0.219   1.952   4.534
 8959SOL     OW27775   1.438   4.367   2.018
 8959SOL    HW127776   1.402   4.310   1.944
 8959SOL    HW227777   1.459   4.309   2.097
 8960SOL     OW27778   4.195   5.821   3.228
 8960SOL    HW127779   4.109   5.777   3.252
 8960SOL    HW227780   4.182   5.878   3.147
 8961SOL     OW27781   3.065   0.807   3.715
 8961SOL    HW127782   3.134   0.736   3.698
 8961SOL    HW227783   3.100   0.895   3.682
 8962SOL     OW27784   6.564   6.023   2.743
 8962SOL    HW127785   6.634   6.047   2.677
 8962SOL    HW227786   6.475   6.058   2.713
 8963SOL     OW27787   4.377   0.277   5.022
 8963SOL    HW127788   4.306   0.208   5.009
 8963SOL    HW227789   4.436   0.250   5.099
 8964SOL     OW27790   5.355   3.541   2.932
 8964SOL    HW127791   5.333   3.631   2.968
 8964SOL    HW227792   5.328   3.471   2.998
 8965SOL     OW27793   2.343   5.503   0.759
 8965SOL    HW127794   2.301   5.501   0.850
 8965SOL    HW227795   2.418   5.569   0.759
 8966SOL     OW27796   6.627   4.234   0.235
 8966SOL    HW127797   6.660   4.146   0.202
 8966SOL    HW227798   6.641   4.240   0.334
 8967SOL     OW27799   4.147   0.536   1.410
 8967SOL    HW127800   4.201   0.524   1.326
 8967SOL    HW227801   4.143   0.634   1.432
 8968SOL     OW27802   4.681   5.540   3.213
 8968SOL    HW127803   4.688   5.515   3.309
 8968SOL    HW227804   4.588   5.525   3.181
 8969SOL     OW27805   6.620   0.570   4.253
 8969SOL    HW127806   6.622   0.476   4.219
 8969SOL    HW227807   6.579   0.572   4.344
 8970SOL     OW27808   2.361   3.080   6.581
 8970SOL    HW127809   2.371   3.127   6.669
 8970SOL    HW227810   2.427   3.004   6.577
 8971SOL     OW27811   5.921   5.001   1.651
 8971SOL    HW127812   5.909   5.088   1.698
 8971SOL    HW227813   6.012   4.964   1.671
 8972SOL     OW27814   5.055   3.188   6.618
 8972SOL    HW127815   4.964   3.219   6.644
 8972SOL    HW227816   5.112   3.178   6.700
 8973SOL     OW27817   0.619   3.600   3.166
 8973SOL    HW127818   0.612   3.615   3.068
 8973SOL    HW227819   0.536   3.634   3.211
 8974SOL     OW27820   1.350   4.301   4.899
 8974SOL    HW127821   1.329   4.213   4.857
 8974SOL    HW227822   1.441   4.331   4.869
 8975SOL     OW27823   1.367   6.077   6.596
 8975SOL    HW127824   1.336   6.172   6.600
 8975SOL    HW227825   1.326   6.024   6.670
 8976SOL     OW27826   0.504   5.582   6.740
 8976SOL    HW127827   0.563   5.654   6.777
 8976SOL    HW227828   0.458   5.616   6.658
 8977SOL     OW27829   6.942   3.157   6.605
 8977SOL    HW127830   7.019   3.107   6.564
 8977SOL    HW227831   6.960   3.173   6.702
 8978SOL     OW27832   5.376   6.342   4.139
 8978SOL    HW127833   5.354   6.318   4.233
 8978SOL    HW227834   5.434   6.270   4.099
 8979SOL     OW27835   1.298   4.062   4.796
 8979SOL    HW127836   1.207   4.023   4.783
 8979SOL    HW227837   1.341   4.077   4.707
 8980SOL     OW27838   4.324   3.059   5.350
 8980SOL    HW127839   4.282   3.080   5.438
 8980SOL    HW227840   4.294   2.969   5.319
 8981SOL     OW27841   4.448   0.830   5.644
 8981SOL    HW127842   4.495   0.774   5.576
 8981SOL    HW227843   4.484   0.810   5.735
 8982SOL     OW27844   1.704   2.129   1.889
 8982SOL    HW127845   1.752   2.197   1.945
 8982SOL    HW227846   1.679   2.051   1.946
 8983SOL     OW27847   1.031   5.678   6.873
 8983SOL    HW127848   0.949   5.703   6.925
 8983SOL    HW227849   1.110   5.677   6.935
 8984SOL     OW27850   6.591   0.332   3.865
 8984SOL    HW127851   6.542   0.249   3.841
 8984SOL    HW227852   6.557   0.409   3.810
 8985SOL     OW27853   2.311   1.857   0.729
 8985SOL    HW127854   2.314   1.952   0.760
 8985SOL    HW227855   2.398   1.812   0.749
 8986SOL     OW27856   4.275   5.195   1.715
 8986SOL    HW127857   4.311   5.104   1.734
 8986SOL    HW227858   4.252   5.241   1.801
 8987SOL     OW27859   4.902   6.763   0.397
 8987SOL    HW127860   4.905   6.684   0.335
 8987SOL    HW227861   4.918   6.847   0.345
 8988SOL     OW27862   1.428   3.933   6.664
 8988SOL    HW127863   1.437   4.010   6.727
 8988SOL    HW227864   1.518   3.904   6.633
 8989SOL     OW27865   5.162   4.297   2.223
 8989SOL    HW127866   5.234   4.242   2.267
 8989SOL    HW227867   5.073   4.253   2.238
 8990SOL     OW27868   2.104   5.775   2.257
 8990SOL    HW127869   2.011   5.813   2.253
 8990SOL    HW227870   2.125   5.730   2.170
 8991SOL     OW27871   2.138   2.290   0.117
 8991SOL    HW127872   2.116   2.193   0.114
 8991SOL    HW227873   2.060   2.343   0.083
 8992SOL     OW27874   6.456   2.178   6.793
 8992SOL    HW127875   6.491   2.084   6.788
 8992SOL    HW227876   6.503   2.227   6.867
 8993SOL     OW27877   4.593   2.620   2.385
 8993SOL    HW127878   4.594   2.657   2.478
 8993SOL    HW227879   4.560   2.526   2.386
 8994SOL     OW27880   0.646   5.139   4.802
 8994SOL    HW127881   0.659   5.040   4.806
 8994SOL    HW227882   0.617   5.173   4.892
 8995SOL     OW27883   1.162   2.602   6.548
 8995SOL    HW127884   1.251   2.594   6.592
 8995SOL    HW227885   1.129   2.510   6.525
 8996SOL     OW27886   6.457   5.370   1.634
 8996SOL    HW127887   6.552   5.342   1.648
 8996SOL    HW227888   6.453   5.443   1.565
 8997SOL     OW27889   4.163   1.490   6.727
 8997SOL    HW127890   4.149   1.421   6.799
 8997SOL    HW227891   4.077   1.505   6.679
 8998SOL     OW27892   6.351   3.634   4.984
 8998SOL    HW127893   6.399   3.583   4.913
 8998SOL    HW227894   6.276   3.686   4.943
 8999SOL     OW27895   5.062   6.750   7.008
 8999SOL    HW127896   5.007   6.832   6.991
 8999SOL    HW227897   5.114   6.727   6.926
 9000SOL     OW27898   2.569   4.673   0.508
 9000SOL    HW127899   2.604   4.766   0.498
 9000SOL    HW227900   2.562   4.651   0.605
 9001SOL     OW27901   1.258   5.699   2.594
 9001SOL    HW127902   1.279   5.668   2.686
 9001SOL    HW227903   1.164   5.672   2.570
 9002SOL     OW27904   6.831   5.088   5.379
 9002SOL    HW127905   6.849   5.065   5.475
 9002SOL    HW227906   6.917   5.115   5.335
 9003SOL     OW27907   5.251   2.866   1.283
 9003SOL    HW127908   5.346   2.858   1.254
 9003SOL    HW227909   5.247   2.901   1.376
 9004SOL     OW27910   5.169   6.406   0.814
 9004SOL    HW127911   5.241   6.446   0.758
 9004SOL    HW227912   5.172   6.444   0.906
 9005SOL     OW27913   4.858   2.375   5.102
 9005SOL    HW127914   4.920   2.403   5.029
 9005SOL    HW227915   4.860   2.276   5.111
 9006SOL     OW27916   2.931   6.663   0.706
 9006SOL    HW127917   3.017   6.678   0.658
 9006SOL    HW227918   2.880   6.588   0.662
 9007SOL     OW27919   4.813   0.518   4.115
 9007SOL    HW127920   4.826   0.455   4.191
 9007SOL    HW227921   4.761   0.473   4.043
 9008SOL     OW27922   0.475   6.011   3.199
 9008SOL    HW127923   0.386   5.969   3.180
 9008SOL    HW227924   0.526   5.953   3.263
 9009SOL     OW27925   2.496   1.182   0.512
 9009SOL    HW127926   2.420   1.121   0.533
 9009SOL    HW227927   2.576   1.128   0.485
 9010SOL     OW27928   0.784   0.060   4.486
 9010SOL    HW127929   0.834   0.144   4.470
 9010SOL    HW227930   0.847   7.010   4.518
 9011SOL     OW27931   4.605   2.506   1.817
 9011SOL    HW127932   4.589   2.588   1.761
 9011SOL    HW227933   4.562   2.518   1.906
 9012SOL     OW27934   3.527   4.635   1.400
 9012SOL    HW127935   3.433   4.600   1.396
 9012SOL    HW227936   3.534   4.703   1.472
 9013SOL     OW27937   0.178   6.469   4.686
 9013SOL    HW127938   0.208   6.434   4.775
 9013SOL    HW227939   0.080   6.485   4.688
 9014SOL     OW27940   0.578   1.426   6.997
 9014SOL    HW127941   0.608   1.365   0.050
 9014SOL    HW227942   0.658   1.476   6.962
 9015SOL     OW27943   5.840   1.498   1.344
 9015SOL    HW127944   5.772   1.491   1.416
 9015SOL    HW227945   5.930   1.472   1.379
 9016SOL     OW27946   0.846   6.139   6.330
 9016SOL    HW127947   0.860   6.142   6.428
 9016SOL    HW227948   0.748   6.142   6.310
 9017SOL     OW27949   4.437   2.003   1.783
 9017SOL    HW127950   4.416   1.953   1.867
 9017SOL    HW227951   4.352   2.022   1.733
 9018SOL     OW27952   4.477   1.460   6.342
 9018SOL    HW127953   4.561   1.495   6.383
 9018SOL    HW227954   4.496   1.373   6.297
 9019SOL     OW27955   0.774   0.659   1.601
 9019SOL    HW127956   0.759   0.735   1.538
 9019SOL    HW227957   0.823   0.692   1.682
 9020SOL     OW27958   1.152   3.558   1.640
 9020SOL    HW127959   1.074   3.524   1.588
 9020SOL    HW227960   1.215   3.483   1.659
 9021SOL     OW27961   6.847   0.531   3.962
 9021SOL    HW127962   6.778   0.537   3.889
 9021SOL    HW227963   6.920   0.468   3.934
 9022SOL     OW27964   2.610   1.947   0.508
 9022SOL    HW127965   2.556   2.028   0.531
 9022SOL    HW227966   2.701   1.975   0.478
 9023SOL     OW27967   3.404   3.715   2.143
 9023SOL    HW127968   3.498   3.683   2.154
 9023SOL    HW227969   3.341   3.642   2.168
 9024SOL     OW27970   0.163   5.343   4.263
 9024SOL    HW127971   0.255   5.382   4.249
 9024SOL    HW227972   0.163   5.289   4.347
 9025SOL     OW27973   0.810   5.326   0.238
 9025SOL    HW127974   0.844   5.252   0.180
 9025SOL    HW227975   0.735   5.292   0.294
 9026SOL     OW27976   3.954   3.251   1.169
 9026SOL    HW127977   3.959   3.221   1.264
 9026SOL    HW227978   3.864   3.290   1.150
 9027SOL     OW27979   1.080   1.986   4.178
 9027SOL    HW127980   1.146   1.917   4.206
 9027SOL    HW227981   0.993   1.971   4.225
 9028SOL     OW27982   2.453   4.131   5.615
 9028SOL    HW127983   2.529   4.190   5.590
 9028SOL    HW227984   2.369   4.186   5.621
 9029SOL     OW27985   2.822   5.579   4.514
 9029SOL    HW127986   2.758   5.654   4.529
 9029SOL    HW227987   2.857   5.585   4.420
 9030SOL     OW27988   2.063   2.321   3.576
 9030SOL    HW127989   2.013   2.346   3.659
 9030SOL    HW227990   2.135   2.388   3.559
 9031SOL     OW27991   4.503   6.145   4.400
 9031SOL    HW127992   4.601   6.152   4.419
 9031SOL    HW227993   4.460   6.083   4.465
 9032SOL     OW27994   3.515   3.357   0.827
 9032SOL    HW127995   3.493   3.369   0.924
 9032SOL    HW227996   3.542   3.445   0.787
 9033SOL     OW27997   1.375   5.133   3.881
 9033SOL    HW127998   1.460   5.156   3.835
 9033SOL    HW227999   1.337   5.215   3.924
 9034SOL     OW28000   3.108   7.021   5.329
 9034SOL    HW128001   3.169   0.059   5.277
 9034SOL    HW228002   3.107   0.029   5.425
 9035SOL     OW28003   1.548   4.255   6.033
 9035SOL    HW128004   1.575   4.290   5.943
 9035SOL    HW228005   1.575   4.159   6.041
 9036SOL     OW28006   2.363   0.633   5.144
 9036SOL    HW128007   2.342   0.653   5.049
 9036SOL    HW228008   2.454   0.593   5.151
 9037SOL     OW28009   1.369   3.752   5.744
 9037SOL    HW128010   1.305   3.803   5.801
 9037SOL    HW228011   1.446   3.719   5.800
 9038SOL     OW28012   4.831   6.122   6.407
 9038SOL    HW128013   4.769   6.192   6.371
 9038SOL    HW228014   4.881   6.080   6.331
 9039SOL     OW28015   2.720   4.918   4.552
 9039SOL    HW128016   2.694   4.830   4.592
 9039SOL    HW228017   2.644   4.955   4.499
 9040SOL     OW28018   3.012   2.216   2.826
 9040SOL    HW128019   2.923   2.191   2.864
 9040SOL    HW228020   3.084   2.166   2.875
 9041SOL     OW28021   1.811   2.321   2.054
 9041SOL    HW128022   1.821   2.399   1.992
 9041SOL    HW228023   1.738   2.341   2.120
 9042SOL     OW28024   2.730   0.166   3.824
 9042SOL    HW128025   2.764   0.247   3.871
 9042SOL    HW228026   2.635   0.150   3.848
 9043SOL     OW28027   2.446   1.765   6.908
 9043SOL    HW128028   2.423   1.862   6.915
 9043SOL    HW228029   2.379   1.719   6.849
 9044SOL     OW28030   5.869   1.214   1.912
 9044SOL    HW128031   5.951   1.268   1.927
 9044SOL    HW228032   5.788   1.272   1.922
 9045SOL     OW28033   2.788   1.128   2.480
 9045SOL    HW128034   2.831   1.040   2.460
 9045SOL    HW228035   2.689   1.121   2.468
 9046SOL     OW28036   3.597   4.164   4.406
 9046SOL    HW128037   3.563   4.220   4.481
 9046SOL    HW228038   3.556   4.195   4.320
 9047SOL     OW28039   1.406   3.309   5.922
 9047SOL    HW128040   1.379   3.397   5.960
 9047SOL    HW228041   1.404   3.314   5.822
 9048SOL     OW28042   5.754   1.698   5.884
 9048SOL    HW128043   5.740   1.667   5.790
 9048SOL    HW228044   5.770   1.797   5.885
 9049SOL     OW28045   3.564   0.095   6.635
 9049SOL    HW128046   3.471   0.081   6.600
 9049SOL    HW228047   3.568   0.181   6.685
 9050SOL     OW28048   0.051   3.537   6.798
 9050SOL    HW128049   7.008   3.610   6.822
 9050SOL    HW228050   0.022   3.495   6.711
 9051SOL     OW28051   4.760   6.522   0.918
 9051SOL    HW128052   4.782   6.558   0.828
 9051SOL    HW228053   4.661   6.531   0.935
 9052SOL     OW28054   1.764   2.117   3.706
 9052SOL    HW128055   1.743   2.043   3.642
 9052SOL    HW228056   1.714   2.103   3.792
 9053SOL     OW28057   1.795   1.826   3.127
 9053SOL    HW128058   1.799   1.772   3.211
 9053SOL    HW228059   1.717   1.889   3.132
 9054SOL     OW28060   1.737   6.796   1.871
 9054SOL    HW128061   1.742   6.803   1.772
 9054SOL    HW228062   1.656   6.744   1.897
 9055SOL     OW28063   6.104   2.918   3.890
 9055SOL    HW128064   6.051   2.882   3.813
 9055SOL    HW228065   6.153   2.843   3.934
 9056SOL     OW28066   0.567   1.355   1.930
 9056SOL    HW128067   0.561   1.397   2.021
 9056SOL    HW228068   0.505   1.277   1.925
 9057SOL     OW28069   5.456   5.089   5.703
 9057SOL    HW128070   5.367   5.073   5.660
 9057SOL    HW228071   5.478   5.012   5.763
 9058SOL     OW28072   2.470   1.695   3.257
 9058SOL    HW128073   2.381   1.706   3.300
 9058SOL    HW228074   2.469   1.736   3.165
 9059SOL     OW28075   1.208   1.997   5.071
 9059SOL    HW128076   1.160   1.910   5.082
 9059SOL    HW228077   1.143   2.068   5.043
 9060SOL     OW28078   6.087   2.945   2.499
 9060SOL    HW128079   5.989   2.949   2.483
 9060SOL    HW228080   6.119   3.030   2.540
 9061SOL     OW28081   2.949   5.539   2.024
 9061SOL    HW128082   3.029   5.480   2.030
 9061SOL    HW228083   2.954   5.609   2.095
 9062SOL     OW28084   1.960   6.047   1.817
 9062SOL    HW128085   2.048   6.082   1.852
 9062SOL    HW228086   1.975   6.004   1.728
 9063SOL     OW28087   2.201   0.235   2.538
 9063SOL    HW128088   2.132   0.169   2.507
 9063SOL    HW228089   2.238   0.205   2.626
 9064SOL     OW28090   6.191   2.276   5.710
 9064SOL    HW128091   6.198   2.180   5.684
 9064SOL    HW228092   6.100   2.310   5.687
 9065SOL     OW28093   3.127   6.427   6.215
 9065SOL    HW128094   3.196   6.487   6.257
 9065SOL    HW228095   3.127   6.442   6.116
 9066SOL     OW28096   5.867   6.099   0.238
 9066SOL    HW128097   5.796   6.168   0.249
 9066SOL    HW228098   5.890   6.060   0.327
 9067SOL     OW28099   5.892   0.510   4.769
 9067SOL    HW128100   5.973   0.452   4.767
 9067SOL    HW228101   5.904   0.587   4.706
 9068SOL     OW28102   2.876   6.660   5.539
 9068SOL    HW128103   2.820   6.679   5.620
 9068SOL    HW228104   2.969   6.694   5.555
 9069SOL     OW28105   2.422   2.558   1.990
 9069SOL    HW128106   2.364   2.624   2.038
 9069SOL    HW228107   2.488   2.519   2.054
 9070SOL     OW28108   1.378   3.610   5.506
 9070SOL    HW128109   1.292   3.624   5.457
 9070SOL    HW228110   1.377   3.661   5.592
 9071SOL     OW28111   5.736   0.688   0.926
 9071SOL    HW128112   5.657   0.736   0.964
 9071SOL    HW228113   5.727   0.683   0.827
 9072SOL     OW28114   6.789   0.967   2.060
 9072SOL    HW128115   6.866   0.906   2.079
 9072SOL    HW228116   6.711   0.939   2.117
 9073SOL     OW28117   3.136   6.849   1.140
 9073SOL    HW128118   3.093   6.812   1.057
 9073SOL    HW228119   3.076   6.835   1.218
 9074SOL     OW28120   2.077   2.058   1.858
 9074SOL    HW128121   2.041   2.027   1.770
 9074SOL    HW228122   2.008   2.042   1.929
 9075SOL     OW28123   1.198   1.514   2.727
 9075SOL    HW128124   1.248   1.513   2.641
 9075SOL    HW228125   1.140   1.433   2.733
 9076SOL     OW28126   5.582   1.920   4.846
 9076SOL    HW128127   5.517   1.883   4.779
 9076SOL    HW228128   5.668   1.941   4.801
 9077SOL     OW28129   5.550   6.821   6.887
 9077SOL    HW128130   5.569   6.838   6.984
 9077SOL    HW228131   5.577   6.901   6.834
 9078SOL     OW28132   4.231   3.653   6.320
 9078SOL    HW128133   4.329   3.639   6.334
 9078SOL    HW228134   4.192   3.571   6.279
 9079SOL     OW28135   3.014   6.867   3.939
 9079SOL    HW128136   2.961   6.782   3.937
 9079SOL    HW228137   2.970   6.935   3.881
 9080SOL     OW28138   5.147   2.597   0.192
 9080SOL    HW128139   5.094   2.673   0.155
 9080SOL    HW228140   5.243   2.625   0.202
 9081SOL     OW28141   4.302   5.672   2.866
 9081SOL    HW128142   4.393   5.708   2.845
 9081SOL    HW228143   4.309   5.575   2.888
 9082SOL     OW28144   2.551   6.930   5.531
 9082SOL    HW128145   2.536   6.844   5.580
 9082SOL    HW228146   2.625   6.919   5.465
 9083SOL     OW28147   2.898   5.234   6.160
 9083SOL    HW128148   2.814   5.272   6.122
 9083SOL    HW228149   2.938   5.170   6.094
 9084SOL     OW28150   3.124   3.855   5.677
 9084SOL    HW128151   3.101   3.948   5.706
 9084SOL    HW228152   3.216   3.854   5.638
 9085SOL     OW28153   2.571   4.683   1.432
 9085SOL    HW128154   2.536   4.590   1.440
 9085SOL    HW228155   2.620   4.693   1.346
 9086SOL     OW28156   1.168   4.906   0.505
 9086SOL    HW128157   1.173   4.837   0.433
 9086SOL    HW228158   1.233   4.979   0.484
 9087SOL     OW28159   4.970   2.881   1.926
 9087SOL    HW128160   4.895   2.917   1.981
 9087SOL    HW228161   4.934   2.839   1.843
 9088SOL     OW28162   5.509   5.982   0.281
 9088SOL    HW128163   5.543   6.073   0.258
 9088SOL    HW228164   5.418   5.969   0.243
 9089SOL     OW28165   4.916   6.079   6.020
 9089SOL    HW128166   4.963   6.166   6.030
 9089SOL    HW228167   4.873   6.074   5.930
 9090SOL     OW28168   0.141   0.294   3.266
 9090SOL    HW128169   0.075   0.220   3.275
 9090SOL    HW228170   0.107   0.362   3.201
 9091SOL     OW28171   3.245   4.831   0.786
 9091SOL    HW128172   3.146   4.845   0.781
 9091SOL    HW228173   3.268   4.744   0.741
 9092SOL     OW28174   0.743   1.173   0.921
 9092SOL    HW128175   0.818   1.161   0.857
 9092SOL    HW228176   0.771   1.142   1.012
 9093SOL     OW28177   1.076   6.836   6.281
 9093SOL    HW128178   1.173   6.826   6.301
 9093SOL    HW228179   1.063   6.904   6.209
 9094SOL     OW28180   6.310   5.295   2.771
 9094SOL    HW128181   6.372   5.221   2.745
 9094SOL    HW228182   6.224   5.256   2.805
 9095SOL     OW28183   5.052   4.327   5.936
 9095SOL    HW128184   5.068   4.401   6.001
 9095SOL    HW228185   4.987   4.356   5.867
 9096SOL     OW28186   5.632   4.083   2.204
 9096SOL    HW128187   5.659   4.179   2.210
 9096SOL    HW228188   5.657   4.046   2.115
 9097SOL     OW28189   1.623   1.881   0.809
 9097SOL    HW128190   1.548   1.817   0.824
 9097SOL    HW228191   1.671   1.897   0.895
 9098SOL     OW28192   3.649   1.514   5.721
 9098SOL    HW128193   3.562   1.506   5.770
 9098SOL    HW228194   3.717   1.454   5.764
 9099SOL     OW28195   3.142   2.293   5.652
 9099SOL    HW128196   3.056   2.272   5.698
 9099SOL    HW228197   3.126   2.302   5.554
 9100SOL     OW28198   0.343   3.711   3.992
 9100SOL    HW128199   0.277   3.708   4.067
 9100SOL    HW228200   0.314   3.649   3.920
 9101SOL     OW28201   2.124   2.455   3.176
 9101SOL    HW128202   2.056   2.384   3.194
 9101SOL    HW228203   2.154   2.495   3.263
 9102SOL     OW28204   2.787   0.347   1.943
 9102SOL    HW128205   2.778   0.297   1.857
 9102SOL    HW228206   2.805   0.443   1.924
 9103SOL     OW28207   6.358   2.935   6.848
 9103SOL    HW128208   6.437   2.927   6.786
 9103SOL    HW228209   6.350   2.851   6.902
 9104SOL     OW28210   0.576   6.293   2.522
 9104SOL    HW128211   0.497   6.237   2.494
 9104SOL    HW228212   0.583   6.373   2.462
 9105SOL     OW28213   1.179   1.521   6.446
 9105SOL    HW128214   1.274   1.518   6.475
 9105SOL    HW228215   1.158   1.440   6.391
 9106SOL     OW28216   0.323   2.883   1.194
 9106SOL    HW128217   0.359   2.797   1.230
 9106SOL    HW228218   0.246   2.913   1.250
 9107SOL     OW28219   3.374   0.646   6.531
 9107SOL    HW128220   3.388   0.547   6.532
 9107SOL    HW228221   3.348   0.677   6.622
 9108SOL     OW28222   5.218   4.449   5.541
 9108SOL    HW128223   5.287   4.382   5.513
 9108SOL    HW228224   5.150   4.405   5.598
 9109SOL     OW28225   6.572   3.190   3.868
 9109SOL    HW128226   6.532   3.156   3.783
 9109SOL    HW228227   6.671   3.203   3.856
 9110SOL     OW28228   1.678   4.782   4.409
 9110SOL    HW128229   1.657   4.781   4.507
 9110SOL    HW228230   1.620   4.715   4.362
 9111SOL     OW28231   5.185   1.823   0.524
 9111SOL    HW128232   5.165   1.769   0.606
 9111SOL    HW228233   5.160   1.771   0.443
 9112SOL     OW28234   1.022   5.297   2.539
 9112SOL    HW128235   1.120   5.298   2.559
 9112SOL    HW228236   1.006   5.339   2.450
 9113SOL     OW28237   4.606   2.445   3.392
 9113SOL    HW128238   4.689   2.481   3.436
 9113SOL    HW228239   4.627   2.419   3.298
 9114SOL     OW28240   0.833   4.845   2.926
 9114SOL    HW128241   0.873   4.776   2.865
 9114SOL    HW228242   0.848   4.818   3.021
 9115SOL     OW28243   6.658   5.915   4.355
 9115SOL    HW128244   6.757   5.910   4.367
 9115SOL    HW228245   6.619   5.972   4.427
 9116SOL     OW28246   0.132   0.058   2.454
 9116SOL    HW128247   0.060   0.127   2.456
 9116SOL    HW228248   0.115   7.010   2.524
 9117SOL     OW28249   4.282   2.589   6.974
 9117SOL    HW128250   4.324   2.671   7.011
 9117SOL    HW228251   4.289   2.589   6.874
 9118SOL     OW28252   0.038   2.991   0.939
 9118SOL    HW128253   0.116   2.933   0.962
 9118SOL    HW228254   7.020   3.030   1.022
 9119SOL     OW28255   4.038   0.946   2.553
 9119SOL    HW128256   4.019   1.034   2.596
 9119SOL    HW228257   4.114   0.956   2.489
 9120SOL     OW28258   6.427   1.399   5.656
 9120SOL    HW128259   6.462   1.413   5.748
 9120SOL    HW228260   6.354   1.464   5.637
 9121SOL     OW28261   4.107   0.201   5.284
 9121SOL    HW128262   4.205   0.181   5.283
 9121SOL    HW228263   4.061   0.134   5.342
 9122SOL     OW28264   2.492   4.506   2.181
 9122SOL    HW128265   2.477   4.520   2.083
 9122SOL    HW228266   2.589   4.489   2.198
 9123SOL     OW28267   2.211   0.956   4.402
 9123SOL    HW128268   2.183   0.916   4.314
 9123SOL    HW228269   2.207   1.056   4.396
 9124SOL     OW28270   4.691   5.140   0.273
 9124SOL    HW128271   4.701   5.167   0.369
 9124SOL    HW228272   4.689   5.041   0.266
 9125SOL     OW28273   4.325   3.924   0.692
 9125SOL    HW128274   4.326   3.901   0.594
 9125SOL    HW228275   4.238   3.966   0.716
 9126SOL     OW28276   5.844   3.091   0.927
 9126SOL    HW128277   5.881   3.070   1.017
 9126SOL    HW228278   5.869   3.018   0.863
 9127SOL     OW28279   6.459   1.233   5.921
 9127SOL    HW128280   6.476   1.328   5.947
 9127SOL    HW228281   6.445   1.177   6.003
 9128SOL     OW28282   5.691   2.278   5.443
 9128SOL    HW128283   5.713   2.216   5.518
 9128SOL    HW228284   5.628   2.349   5.476
 9129SOL     OW28285   7.012   2.789   6.784
 9129SOL    HW128286   0.077   2.738   6.790
 9129SOL    HW228287   6.935   2.730   6.809
 9130SOL     OW28288   1.181   3.511   6.099
 9130SOL    HW128289   1.103   3.571   6.082
 9130SOL    HW228290   1.256   3.564   6.138
 9131SOL     OW28291   5.358   2.632   6.040
 9131SOL    HW128292   5.355   2.538   6.006
 9131SOL    HW228293   5.363   2.695   5.963
 9132SOL     OW28294   0.412   5.827   3.963
 9132SOL    HW128295   0.373   5.870   4.045
 9132SOL    HW228296   0.397   5.886   3.884
 9133SOL     OW28297   3.700   6.187   1.294
 9133SOL    HW128298   3.675   6.174   1.389
 9133SOL    HW228299   3.713   6.098   1.250
 9134SOL     OW28300   3.468   5.348   1.582
 9134SOL    HW128301   3.470   5.335   1.681
 9134SOL    HW228302   3.498   5.441   1.560
 9135SOL     OW28303   0.489   0.764   1.424
 9135SOL    HW128304   0.392   0.757   1.449
 9135SOL    HW228305   0.504   0.720   1.336
 9136SOL     OW28306   4.672   5.665   6.830
 9136SOL    HW128307   4.654   5.702   6.921
 9136SOL    HW228308   4.659   5.566   6.831
 9137SOL     OW28309   4.368   0.874   6.940
 9137SOL    HW128310   4.423   0.856   6.859
 9137SOL    HW228311   4.407   0.950   6.991
 9138SOL     OW28312   0.227   5.321   6.347
 9138SOL    HW128313   0.254   5.226   6.334
 9138SOL    HW228314   0.292   5.365   6.410
 9139SOL     OW28315   1.942   2.081   2.736
 9139SOL    HW128316   1.958   2.171   2.775
 9139SOL    HW228317   1.958   2.011   2.806
 9140SOL     OW28318   0.013   3.941   2.725
 9140SOL    HW128319   6.953   3.897   2.686
 9140SOL    HW228320   7.020   4.040   2.726
 9141SOL     OW28321   5.648   6.524   1.232
 9141SOL    HW128322   5.579   6.586   1.268
 9141SOL    HW228323   5.680   6.464   1.306
 9142SOL     OW28324   1.006   4.037   1.650
 9142SOL    HW128325   1.081   4.102   1.636
 9142SOL    HW228326   1.043   3.950   1.681
 9143SOL     OW28327   6.114   2.473   0.313
 9143SOL    HW128328   6.195   2.458   0.370
 9143SOL    HW228329   6.114   2.408   0.238
 9144SOL     OW28330   2.675   5.457   4.301
 9144SOL    HW128331   2.609   5.474   4.228
 9144SOL    HW228332   2.627   5.419   4.381
 9145SOL     OW28333   0.690   5.957   6.851
 9145SOL    HW128334   0.603   6.002   6.831
 9145SOL    HW228335   0.689   5.925   6.946
 9146SOL     OW28336   5.054   2.999   3.563
 9146SOL    HW128337   5.122   2.925   3.564
 9146SOL    HW228338   5.088   3.077   3.614
 9147SOL     OW28339   6.023   7.005   5.158
 9147SOL    HW128340   5.987   6.930   5.213
 9147SOL    HW228341   5.991   0.071   5.195
 9148SOL     OW28342   5.296   6.027   2.395
 9148SOL    HW128343   5.344   6.004   2.310
 9148SOL    HW228344   5.215   5.969   2.404
 9149SOL     OW28345   5.108   3.059   2.403
 9149SOL    HW128346   5.060   3.146   2.390
 9149SOL    HW228347   5.114   3.011   2.316
 9150SOL     OW28348   3.275   5.175   1.101
 9150SOL    HW128349   3.233   5.179   1.192
 9150SOL    HW228350   3.297   5.080   1.078
 9151SOL     OW28351   1.770   4.436   3.816
 9151SOL    HW128352   1.699   4.504   3.833
 9151SOL    HW228353   1.739   4.347   3.846
 9152SOL     OW28354   2.095   4.228   4.365
 9152SOL    HW128355   2.083   4.315   4.317
 9152SOL    HW228356   2.075   4.153   4.303
 9153SOL     OW28357   0.525   2.830   0.011
 9153SOL    HW128358   0.451   2.773   0.045
 9153SOL    HW228359   0.591   2.773   6.982
 9154SOL     OW28360   5.551   4.489   5.178
 9154SOL    HW128361   5.524   4.570   5.230
 9154SOL    HW228362   5.608   4.430   5.236
 9155SOL     OW28363   1.964   4.209   2.783
 9155SOL    HW128364   1.907   4.214   2.865
 9155SOL    HW228365   2.051   4.257   2.799
 9156SOL     OW28366   6.797   2.027   0.554
 9156SOL    HW128367   6.870   2.003   0.491
 9156SOL    HW228368   6.815   2.118   0.592
 9157SOL     OW28369   2.511   4.178   0.194
 9157SOL    HW128370   2.461   4.264   0.192
 9157SOL    HW228371   2.525   4.146   0.100
 9158SOL     OW28372   6.593   3.939   4.865
 9158SOL    HW128373   6.578   4.037   4.878
 9158SOL    HW228374   6.590   3.917   4.767
 9159SOL     OW28375   2.018   0.744   3.155
 9159SOL    HW128376   1.930   0.745   3.106
 9159SOL    HW228377   2.038   0.836   3.188
 9160SOL     OW28378   0.587   6.137   6.221
 9160SOL    HW128379   0.539   6.224   6.229
 9160SOL    HW228380   0.597   6.113   6.124
 9161SOL     OW28381   5.692   4.873   3.205
 9161SOL    HW128382   5.756   4.947   3.184
 9161SOL    HW228383   5.728   4.787   3.167
 9162SOL     OW28384   4.523   0.531   3.019
 9162SOL    HW128385   4.458   0.590   2.972
 9162SOL    HW228386   4.476   0.479   3.090
 9163SOL     OW28387   0.237   3.522   3.779
 9163SOL    HW128388   0.142   3.538   3.752
 9163SOL    HW228389   0.298   3.540   3.702
 9164SOL     OW28390   2.226   0.731   6.938
 9164SOL    HW128391   2.229   0.734   0.017
 9164SOL    HW228392   2.168   0.805   6.904
 9165SOL     OW28393   5.392   1.786   5.927
 9165SOL    HW128394   5.309   1.733   5.916
 9165SOL    HW228395   5.391   1.833   6.015
 9166SOL     OW28396   4.271   4.898   0.462
 9166SOL    HW128397   4.357   4.948   0.472
 9166SOL    HW228398   4.265   4.827   0.533
 9167SOL     OW28399   2.032   1.945   5.651
 9167SOL    HW128400   1.935   1.952   5.629
 9167SOL    HW228401   2.042   1.924   5.748
 9168SOL     OW28402   0.086   6.269   6.430
 9168SOL    HW128403   0.179   6.232   6.421
 9168SOL    HW228404   0.020   6.195   6.415
 9169SOL     OW28405   0.291   6.606   6.270
 9169SOL    HW128406   0.241   6.542   6.212
 9169SOL    HW228407   0.229   6.646   6.338
 9170SOL     OW28408   1.759   0.299   6.232
 9170SOL    HW128409   1.666   0.328   6.253
 9170SOL    HW228410   1.757   0.207   6.193
 9171SOL     OW28411   3.496   5.899   1.070
 9171SOL    HW128412   3.493   5.998   1.081
 9171SOL    HW228413   3.541   5.876   0.984
 9172SOL     OW28414   4.549   0.668   3.822
 9172SOL    HW128415   4.594   0.628   3.901
 9172SOL    HW228416   4.605   0.743   3.786
 9173SOL     OW28417   6.293   3.827   5.488
 9173SOL    HW128418   6.336   3.897   5.546
 9173SOL    HW228419   6.333   3.830   5.396
 9174SOL     OW28420   0.507   5.829   0.454
 9174SOL    HW128421   0.477   5.759   0.389
 9174SOL    HW228422   0.467   5.810   0.543
 9175SOL     OW28423   1.301   0.092   6.524
 9175SOL    HW128424   1.314   0.176   6.471
 9175SOL    HW228425   1.321   0.111   6.621
 9176SOL     OW28426   3.142   0.630   2.413
 9176SOL    HW128427   3.070   0.589   2.469
 9176SOL    HW228428   3.105   0.651   2.322
 9177SOL     OW28429   1.100   2.952   4.110
 9177SOL    HW128430   1.026   2.927   4.172
 9177SOL    HW228431   1.186   2.958   4.161
 9178SOL     OW28432   1.987   5.655   6.577
 9178SOL    HW128433   1.935   5.682   6.658
 9178SOL    HW228434   1.927   5.609   6.512
 9179SOL     OW28435   1.564   5.469   4.912
 9179SOL    HW128436   1.641   5.494   4.853
 9179SOL    HW228437   1.552   5.539   4.982
 9180SOL     OW28438   6.212   2.660   3.313
 9180SOL    HW128439   6.211   2.606   3.397
 9180SOL    HW228440   6.179   2.603   3.237
 9181SOL     OW28441   5.069   2.355   3.785
 9181SOL    HW128442   4.984   2.353   3.733
 9181SOL    HW228443   5.130   2.426   3.749
 9182SOL     OW28444   3.195   0.042   2.914
 9182SOL    HW128445   3.104   0.081   2.924
 9182SOL    HW228446   3.190   6.980   2.858
 9183SOL     OW28447   4.708   4.761   6.484
 9183SOL    HW128448   4.740   4.854   6.504
 9183SOL    HW228449   4.743   4.732   6.395
 9184SOL     OW28450   4.015   2.370   0.964
 9184SOL    HW128451   4.016   2.289   1.023
 9184SOL    HW228452   4.109   2.398   0.945
 9185SOL     OW28453   6.873   7.008   4.826
 9185SOL    HW128454   6.807   0.061   4.812
 9185SOL    HW228455   6.966   0.024   4.823
 9186SOL     OW28456   5.466   0.427   5.260
 9186SOL    HW128457   5.489   0.466   5.350
 9186SOL    HW228458   5.459   0.501   5.193
 9187SOL     OW28459   3.971   2.049   0.170
 9187SOL    HW128460   4.023   1.978   0.124
 9187SOL    HW228461   4.033   2.122   0.199
 9188SOL     OW28462   1.968   0.755   1.812
 9188SOL    HW128463   2.048   0.767   1.872
 9188SOL    HW228464   1.977   0.815   1.733
 9189SOL     OW28465   3.454   6.186   2.497
 9189SOL    HW128466   3.500   6.272   2.520
 9189SOL    HW228467   3.456   6.126   2.576
 9190SOL     OW28468   0.619   3.582   5.309
 9190SOL    HW128469   0.537   3.524   5.303
 9190SOL    HW228470   0.700   3.525   5.315
 9191SOL     OW28471   5.591   0.989   6.510
 9191SOL    HW128472   5.532   0.995   6.590
 9191SOL    HW228473   5.539   1.013   6.428
 9192SOL     OW28474   6.691   2.529   6.393
 9192SOL    HW128475   6.704   2.620   6.353
 9192SOL    HW228476   6.699   2.535   6.492
 9193SOL     OW28477   4.056   3.775   4.728
 9193SOL    HW128478   3.998   3.749   4.650
 9193SOL    HW228479   4.048   3.873   4.744
 9194SOL     OW28480   3.391   6.676   2.097
 9194SOL    HW128481   3.447   6.640   2.171
 9194SOL    HW228482   3.294   6.662   2.118
 9195SOL     OW28483   1.864   3.249   3.196
 9195SOL    HW128484   1.873   3.235   3.295
 9195SOL    HW228485   1.783   3.304   3.177
 9196SOL     OW28486   5.608   6.449   3.452
 9196SOL    HW128487   5.698   6.474   3.416
 9196SOL    HW228488   5.560   6.532   3.480
 9197SOL     OW28489   2.828   5.338   0.915
 9197SOL    HW128490   2.806   5.392   0.996
 9197SOL    HW228491   2.924   5.354   0.891
 9198SOL     OW28492   6.385   4.381   6.681
 9198SOL    HW128493   6.387   4.468   6.731
 9198SOL    HW228494   6.478   4.344   6.674
 9199SOL     OW28495   0.510   3.101   6.147
 9199SOL    HW128496   0.578   3.116   6.076
 9199SOL    HW228497   0.508   3.180   6.209
 9200SOL     OW28498   2.046   5.846   5.793
 9200SOL    HW128499   2.133   5.798   5.800
 9200SOL    HW228500   2.054   5.934   5.841
 9201SOL     OW28501   0.752   2.932   1.049
 9201SOL    HW128502   0.666   2.960   1.005
 9201SOL    HW228503   0.786   2.849   1.004
 9202SOL     OW28504   0.682   6.031   3.819
 9202SOL    HW128505   0.624   6.096   3.869
 9202SOL    HW228506   0.627   5.979   3.754
 9203SOL     OW28507   5.860   2.722   5.775
 9203SOL    HW128508   5.779   2.726   5.717
 9203SOL    HW228509   5.841   2.768   5.861
 9204SOL     OW28510   4.987   3.797   4.310
 9204SOL    HW128511   4.950   3.749   4.390
 9204SOL    HW228512   4.919   3.863   4.277
 9205SOL     OW28513   4.879   5.781   2.902
 9205SOL    HW128514   4.887   5.701   2.961
 9205SOL    HW228515   4.938   5.854   2.936
 9206SOL     OW28516   3.548   6.630   3.816
 9206SOL    HW128517   3.593   6.543   3.797
 9206SOL    HW228518   3.615   6.704   3.811
 9207SOL     OW28519   3.474   5.148   0.011
 9207SOL    HW128520   3.412   5.112   0.081
 9207SOL    HW228521   3.491   5.077   6.963
 9208SOL     OW28522   5.415   3.775   2.160
 9208SOL    HW128523   5.437   3.795   2.256
 9208SOL    HW228524   5.322   3.806   2.141
 9209SOL     OW28525   4.350   0.100   1.239
 9209SOL    HW128526   4.394   0.039   1.174
 9209SOL    HW228527   4.401   0.185   1.245
 9210SOL     OW28528   0.568   0.440   1.636
 9210SOL    HW128529   0.518   0.398   1.561
 9210SOL    HW228530   0.629   0.511   1.599
 9211SOL     OW28531   5.507   3.078   6.831
 9211SOL    HW128532   5.556   3.023   6.763
 9211SOL    HW228533   5.480   3.020   6.908
 9212SOL     OW28534   5.274   4.186   5.024
 9212SOL    HW128535   5.355   4.127   5.031
 9212SOL    HW228536   5.209   4.147   4.959
 9213SOL     OW28537   4.702   5.812   4.547
 9213SOL    HW128538   4.787   5.805   4.495
 9213SOL    HW228539   4.629   5.761   4.500
 9214SOL     OW28540   0.100   3.011   4.955
 9214SOL    HW128541   0.044   3.078   4.907
 9214SOL    HW228542   0.047   2.970   5.030
 9215SOL     OW28543   1.595   4.916   2.735
 9215SOL    HW128544   1.638   4.826   2.741
 9215SOL    HW228545   1.660   4.981   2.696
 9216SOL     OW28546   2.255   6.684   3.987
 9216SOL    HW128547   2.304   6.771   3.979
 9216SOL    HW228548   2.317   6.608   3.970
 9217SOL     OW28549   5.752   2.066   0.618
 9217SOL    HW128550   5.761   2.119   0.534
 9217SOL    HW228551   5.820   2.097   0.684
 9218SOL     OW28552   4.151   0.507   0.100
 9218SOL    HW128553   4.137   0.583   0.037
 9218SOL    HW228554   4.092   0.518   0.180
 9219SOL     OW28555   4.264   3.520   5.742
 9219SOL    HW128556   4.292   3.554   5.653
 9219SOL    HW228557   4.188   3.576   5.776
 9220SOL     OW28558   1.958   6.347   2.296
 9220SOL    HW128559   1.971   6.400   2.380
 9220SOL    HW228560   1.892   6.394   2.238
 9221SOL     OW28561   2.548   6.855   4.201
 9221SOL    HW128562   2.597   6.772   4.172
 9221SOL    HW228563   2.593   6.893   4.282
 9222SOL     OW28564   2.519   5.440   4.531
 9222SOL    HW128565   2.510   5.393   4.619
 9222SOL    HW228566   2.539   5.537   4.547
 9223SOL     OW28567   0.920   2.686   3.941
 9223SOL    HW128568   0.846   2.619   3.941
 9223SOL    HW228569   0.902   2.756   4.011
 9224SOL     OW28570   1.233   4.531   3.330
 9224SOL    HW128571   1.326   4.535   3.366
 9224SOL    HW228572   1.214   4.615   3.279
 9225SOL     OW28573   3.681   5.596   5.601
 9225SOL    HW128574   3.608   5.527   5.603
 9225SOL    HW228575   3.641   5.687   5.608
 9226SOL     OW28576   0.658   0.151   1.310
 9226SOL    HW128577   0.562   0.123   1.318
 9226SOL    HW228578   0.664   0.233   1.254
 9227SOL     OW28579   1.778   5.919   1.275
 9227SOL    HW128580   1.734   5.970   1.349
 9227SOL    HW228581   1.713   5.853   1.238
 9228SOL     OW28582   2.258   2.371   0.340
 9228SOL    HW128583   2.220   2.357   0.249
 9228SOL    HW228584   2.355   2.344   0.341
 9229SOL     OW28585   1.258   5.153   5.823
 9229SOL    HW128586   1.340   5.141   5.767
 9229SOL    HW228587   1.279   5.127   5.918
 9230SOL     OW28588   4.878   3.574   2.992
 9230SOL    HW128589   4.901   3.527   2.907
 9230SOL    HW228590   4.823   3.513   3.050
 9231SOL     OW28591   1.048   2.977   5.663
 9231SOL    HW128592   1.005   2.969   5.753
 9231SOL    HW228593   1.041   2.890   5.614
 9232SOL     OW28594   2.841   5.092   0.677
 9232SOL    HW128595   2.894   5.025   0.729
 9232SOL    HW228596   2.791   5.151   0.741
 9233SOL     OW28597   0.371   6.657   0.634
 9233SOL    HW128598   0.408   6.674   0.725
 9233SOL    HW228599   0.439   6.611   0.578
 9234SOL     OW28600   2.454   5.751   1.011
 9234SOL    HW128601   2.488   5.843   1.031
 9234SOL    HW228602   2.531   5.687   1.013
 9235SOL     OW28603   2.096   3.368   3.098
 9235SOL    HW128604   2.080   3.410   3.009
 9235SOL    HW228605   2.012   3.326   3.131
 9236SOL     OW28606   2.396   3.720   6.878
 9236SOL    HW128607   2.324   3.768   6.930
 9236SOL    HW228608   2.458   3.786   6.837
 9237SOL     OW28609   0.568   5.794   3.357
 9237SOL    HW128610   0.596   5.712   3.307
 9237SOL    HW228611   0.611   5.795   3.447
 9238SOL     OW28612   2.809   2.434   5.960
 9238SOL    HW128613   2.870   2.513   5.964
 9238SOL    HW228614   2.722   2.461   5.920
 9239SOL     OW28615   6.996   4.063   0.097
 9239SOL    HW128616   6.998   4.163   0.095
 9239SOL    HW228617   6.998   4.028   0.003
 9240SOL     OW28618   5.183   2.909   2.124
 9240SOL    HW128619   5.099   2.916   2.070
 9240SOL    HW228620   5.222   3.001   2.135
 9241SOL     OW28621   0.057   5.409   1.303
 9241SOL    HW128622   0.036   5.438   1.210
 9241SOL    HW228623   7.004   5.438   1.364
 9242SOL     OW28624   1.672   3.629   1.800
 9242SOL    HW128625   1.704   3.556   1.739
 9242SOL    HW228626   1.715   3.715   1.774
 9243SOL     OW28627   6.747   0.794   1.544
 9243SOL    HW128628   6.648   0.785   1.559
 9243SOL    HW228629   6.794   0.790   1.632
 9244SOL     OW28630   2.611   5.606   5.894
 9244SOL    HW128631   2.548   5.651   5.957
 9244SOL    HW228632   2.694   5.661   5.886
 9245SOL     OW28633   0.706   4.739   3.427
 9245SOL    HW128634   0.646   4.794   3.369
 9245SOL    HW228635   0.760   4.799   3.486
 9246SOL     OW28636   5.428   0.170   3.212
 9246SOL    HW128637   5.383   0.191   3.299
 9246SOL    HW228638   5.525   0.149   3.229
 9247SOL     OW28639   2.659   6.083   2.643
 9247SOL    HW128640   2.718   6.094   2.723
 9247SOL    HW228641   2.714   6.051   2.566
 9248SOL     OW28642   3.092   2.181   4.484
 9248SOL    HW128643   3.147   2.102   4.510
 9248SOL    HW228644   3.082   2.242   4.562
 9249SOL     OW28645   4.557   5.048   1.206
 9249SOL    HW128646   4.485   5.117   1.203
 9249SOL    HW228647   4.567   5.015   1.300
 9250SOL     OW28648   6.306   3.102   4.380
 9250SOL    HW128649   6.309   3.055   4.292
 9250SOL    HW228650   6.295   3.034   4.453
 9251SOL     OW28651   3.794   1.282   2.460
 9251SOL    HW128652   3.842   1.286   2.547
 9251SOL    HW228653   3.751   1.371   2.441
 9252SOL     OW28654   5.233   0.623   5.074
 9252SOL    HW128655   5.308   0.596   5.012
 9252SOL    HW228656   5.166   0.676   5.023
 9253SOL     OW28657   5.402   4.793   5.567
 9253SOL    HW128658   5.382   4.729   5.640
 9253SOL    HW228659   5.350   4.877   5.580
 9254SOL     OW28660   4.467   4.804   2.991
 9254SOL    HW128661   4.417   4.746   2.927
 9254SOL    HW228662   4.544   4.753   3.030
 9255SOL     OW28663   4.834   4.162   0.100
 9255SOL    HW128664   4.871   4.220   0.027
 9255SOL    HW228665   4.783   4.086   0.059
 9256SOL     OW28666   2.817   0.864   2.421
 9256SOL    HW128667   2.729   0.827   2.391
 9256SOL    HW228668   2.838   0.829   2.512
 9257SOL     OW28669   6.104   5.061   3.469
 9257SOL    HW128670   6.049   4.978   3.466
 9257SOL    HW228671   6.185   5.046   3.526
 9258SOL     OW28672   4.173   2.980   1.747
 9258SOL    HW128673   4.132   3.038   1.678
 9258SOL    HW228674   4.103   2.952   1.813
 9259SOL     OW28675   1.435   1.617   0.863
 9259SOL    HW128676   1.513   1.607   0.801
 9259SOL    HW228677   1.406   1.527   0.895
 9260SOL     OW28678   6.187   2.046   5.591
 9260SOL    HW128679   6.111   1.984   5.570
 9260SOL    HW228680   6.253   2.044   5.516
 9261SOL     OW28681   3.859   1.560   7.005
 9261SOL    HW128682   3.774   1.554   0.038
 9261SOL    HW228683   3.862   1.648   6.957
 9262SOL     OW28684   0.697   5.840   5.216
 9262SOL    HW128685   0.733   5.758   5.260
 9262SOL    HW228686   0.598   5.845   5.230
 9263SOL     OW28687   2.829   6.135   2.835
 9263SOL    HW128688   2.911   6.078   2.838
 9263SOL    HW228689   2.806   6.164   2.928
 9264SOL     OW28690   4.481   4.526   6.842
 9264SOL    HW128691   4.510   4.610   6.886
 9264SOL    HW228692   4.506   4.528   6.745
 9265SOL     OW28693   3.059   2.672   0.325
 9265SOL    HW128694   2.971   2.655   0.369
 9265SOL    HW228695   3.061   2.766   0.291
 9266SOL     OW28696   1.790   6.254   0.833
 9266SOL    HW128697   1.719   6.239   0.902
 9266SOL    HW228698   1.762   6.327   0.772
 9267SOL     OW28699   0.237   1.959   4.339
 9267SOL    HW128700   0.139   1.963   4.321
 9267SOL    HW228701   0.286   2.002   4.263
 9268SOL     OW28702   1.682   0.229   2.316
 9268SOL    HW128703   1.665   0.166   2.392
 9268SOL    HW228704   1.596   0.272   2.289
 9269SOL     OW28705   3.824   0.485   6.110
 9269SOL    HW128706   3.768   0.552   6.061
 9269SOL    HW228707   3.789   0.474   6.203
 9270SOL     OW28708   4.212   6.845   5.480
 9270SOL    HW128709   4.193   6.838   5.578
 9270SOL    HW228710   4.130   6.879   5.433
 9271SOL     OW28711   6.203   6.790   0.335
 9271SOL    HW128712   6.107   6.764   0.340
 9271SOL    HW228713   6.260   6.714   0.366
 9272SOL     OW28714   0.917   5.381   5.936
 9272SOL    HW128715   0.833   5.338   5.901
 9272SOL    HW228716   0.989   5.376   5.867
 9273SOL     OW28717   6.255   6.311   3.362
 9273SOL    HW128718   6.210   6.222   3.349
 9273SOL    HW228719   6.349   6.306   3.327
 9274SOL     OW28720   0.231   1.619   0.245
 9274SOL    HW128721   0.208   1.684   0.173
 9274SOL    HW228722   0.278   1.668   0.319
 9275SOL     OW28723   6.721   0.940   7.000
 9275SOL    HW128724   6.636   0.927   0.031
 9275SOL    HW228725   6.705   0.922   6.903
 9276SOL     OW28726   1.405   4.776   0.620
 9276SOL    HW128727   1.418   4.683   0.586
 9276SOL    HW228728   1.307   4.796   0.626
 9277SOL     OW28729   4.601   4.469   1.854
 9277SOL    HW128730   4.659   4.525   1.913
 9277SOL    HW228731   4.585   4.380   1.897
 9278SOL     OW28732   1.681   0.407   5.498
 9278SOL    HW128733   1.695   0.324   5.551
 9278SOL    HW228734   1.656   0.382   5.404
 9279SOL     OW28735   2.742   0.201   1.723
 9279SOL    HW128736   2.802   0.232   1.649
 9279SOL    HW228737   2.647   0.204   1.692
 9280SOL     OW28738   2.778   1.219   2.740
 9280SOL    HW128739   2.684   1.221   2.775
 9280SOL    HW228740   2.777   1.197   2.643
 9281SOL     OW28741   3.149   4.091   6.959
 9281SOL    HW128742   3.109   4.022   6.898
 9281SOL    HW228743   3.198   4.159   6.905
 9282SOL     OW28744   4.928   0.974   4.045
 9282SOL    HW128745   5.009   1.033   4.048
 9282SOL    HW228746   4.889   0.966   4.137
 9283SOL     OW28747   5.222   0.586   4.559
 9283SOL    HW128748   5.153   0.551   4.621
 9283SOL    HW228749   5.253   0.513   4.497
 9284SOL     OW28750   2.859   2.572   5.457
 9284SOL    HW128751   2.923   2.505   5.419
 9284SOL    HW228752   2.768   2.532   5.463
 9285SOL     OW28753   5.103   3.710   1.547
 9285SOL    HW128754   5.160   3.746   1.621
 9285SOL    HW228755   5.121   3.613   1.535
 9286SOL     OW28756   5.321   5.404   0.748
 9286SOL    HW128757   5.273   5.453   0.821
 9286SOL    HW228758   5.275   5.420   0.661
 9287SOL     OW28759   3.546   5.167   6.415
 9287SOL    HW128760   3.503   5.119   6.339
 9287SOL    HW228761   3.594   5.248   6.381
 9288SOL     OW28762   4.649   1.986   2.748
 9288SOL    HW128763   4.705   1.960   2.669
 9288SOL    HW228764   4.567   2.033   2.716
 9289SOL     OW28765   5.134   6.830   1.085
 9289SOL    HW128766   5.195   6.839   1.006
 9289SOL    HW228767   5.071   6.754   1.068
 9290SOL     OW28768   5.640   0.713   3.832
 9290SOL    HW128769   5.697   0.749   3.758
 9290SOL    HW228770   5.544   0.733   3.814
 9291SOL     OW28771   1.066   5.042   5.660
 9291SOL    HW128772   1.130   5.085   5.724
 9291SOL    HW228773   1.080   4.943   5.660
 9292SOL     OW28774   2.536   2.316   6.635
 9292SOL    HW128775   2.565   2.228   6.597
 9292SOL    HW228776   2.529   2.309   6.734
 9293SOL     OW28777   6.256   3.773   6.638
 9293SOL    HW128778   6.196   3.845   6.676
 9293SOL    HW228779   6.302   3.725   6.713
 9294SOL     OW28780   5.467   1.010   6.035
 9294SOL    HW128781   5.480   1.080   5.965
 9294SOL    HW228782   5.437   0.925   5.992
 9295SOL     OW28783   5.554   0.223   5.661
 9295SOL    HW128784   5.522   0.316   5.676
 9295SOL    HW228785   5.634   0.224   5.601
 9296SOL     OW28786   2.141   5.245   0.081
 9296SOL    HW128787   2.085   5.302   0.022
 9296SOL    HW228788   2.164   5.295   0.165
 9297SOL     OW28789   0.992   0.056   2.543
 9297SOL    HW128790   0.988   7.004   2.611
 9297SOL    HW228791   1.043   0.134   2.580
 9298SOL     OW28792   1.013   6.562   6.249
 9298SOL    HW128793   1.046   6.503   6.176
 9298SOL    HW228794   1.064   6.649   6.247
 9299SOL     OW28795   1.153   2.240   4.088
 9299SOL    HW128796   1.251   2.255   4.100
 9299SOL    HW228797   1.132   2.143   4.104
 9300SOL     OW28798   0.613   4.522   5.811
 9300SOL    HW128799   0.667   4.513   5.728
 9300SOL    HW228800   0.592   4.431   5.847
 9301SOL     OW28801   5.492   5.310   4.526
 9301SOL    HW128802   5.420   5.374   4.497
 9301SOL    HW228803   5.469   5.272   4.615
 9302SOL     OW28804   2.083   3.367   4.150
 9302SOL    HW128805   1.987   3.358   4.177
 9302SOL    HW228806   2.125   3.276   4.148
 9303SOL     OW28807   3.188   3.671   0.667
 9303SOL    HW128808   3.090   3.655   0.653
 9303SOL    HW228809   3.212   3.761   0.630
 9304SOL     OW28810   4.413   4.575   0.657
 9304SOL    HW128811   4.319   4.543   0.647
 9304SOL    HW228812   4.412   4.666   0.699
 9305SOL     OW28813   3.865   0.509   0.702
 9305SOL    HW128814   3.909   0.546   0.784
 9305SOL    HW228815   3.802   0.577   0.664
 9306SOL     OW28816   1.113   3.444   5.516
 9306SOL    HW128817   1.086   3.404   5.428
 9306SOL    HW228818   1.114   3.543   5.509
 9307SOL     OW28819   1.259   3.987   0.819
 9307SOL    HW128820   1.343   4.041   0.816
 9307SOL    HW228821   1.282   3.890   0.812
 9308SOL     OW28822   1.444   3.595   2.279
 9308SOL    HW128823   1.346   3.583   2.289
 9308SOL    HW228824   1.466   3.614   2.183
 9309SOL     OW28825   3.312   5.602   5.646
 9309SOL    HW128826   3.249   5.533   5.610
 9309SOL    HW228827   3.261   5.686   5.668
 9310SOL     OW28828   5.259   6.025   5.742
 9310SOL    HW128829   5.281   5.953   5.807
 9310SOL    HW228830   5.216   6.102   5.790
 9311SOL     OW28831   5.107   4.520   1.243
 9311SOL    HW128832   5.149   4.489   1.327
 9311SOL    HW228833   5.080   4.440   1.188
 9312SOL     OW28834   2.088   2.582   1.161
 9312SOL    HW128835   2.041   2.653   1.213
 9312SOL    HW228836   2.101   2.612   1.067
 9313SOL     OW28837   0.072   0.633   1.572
 9313SOL    HW128838   0.122   0.682   1.500
 9313SOL    HW228839   0.029   0.552   1.532
 9314SOL     OW28840   6.970   3.430   6.560
 9314SOL    HW128841   6.891   3.486   6.537
 9314SOL    HW228842   6.942   3.336   6.576
 9315SOL     OW28843   6.552   6.552   5.865
 9315SOL    HW128844   6.648   6.541   5.892
 9315SOL    HW228845   6.531   6.650   5.856
 9316SOL     OW28846   6.306   6.225   5.454
 9316SOL    HW128847   6.287   6.313   5.498
 9316SOL    HW228848   6.352   6.164   5.520
 9317SOL     OW28849   4.405   5.685   4.645
 9317SOL    HW128850   4.326   5.631   4.618
 9317SOL    HW228851   4.466   5.697   4.567
 9318SOL     OW28852   6.227   0.375   6.730
 9318SOL    HW128853   6.237   0.457   6.786
 9318SOL    HW228854   6.316   0.331   6.719
 9319SOL     OW28855   2.569   3.026   1.191
 9319SOL    HW128856   2.603   3.103   1.245
 9319SOL    HW228857   2.482   2.994   1.229
 9320SOL     OW28858   3.975   0.402   5.508
 9320SOL    HW128859   3.900   0.341   5.482
 9320SOL    HW228860   3.989   0.397   5.607
 9321SOL     OW28861   1.002   0.894   4.947
 9321SOL    HW128862   0.904   0.877   4.962
 9321SOL    HW228863   1.013   0.982   4.899
 9322SOL     OW28864   0.268   4.369   0.089
 9322SOL    HW128865   0.338   4.394   0.155
 9322SOL    HW228866   0.179   4.364   0.136
 9323SOL     OW28867   1.218   1.001   4.679
 9323SOL    HW128868   1.189   1.094   4.660
 9323SOL    HW228869   1.251   0.994   4.773
 9324SOL     OW28870   1.905   4.027   2.591
 9324SOL    HW128871   1.808   4.042   2.576
 9324SOL    HW228872   1.937   4.089   2.663
 9325SOL     OW28873   6.857   0.119   0.089
 9325SOL    HW128874   6.811   0.044   0.041
 9325SOL    HW228875   6.866   0.095   0.186
 9326SOL     OW28876   2.542   5.103   0.350
 9326SOL    HW128877   2.523   5.056   0.264
 9326SOL    HW228878   2.490   5.188   0.354
 9327SOL     OW28879   4.253   6.747   2.293
 9327SOL    HW128880   4.289   6.811   2.226
 9327SOL    HW228881   4.173   6.700   2.256
 9328SOL     OW28882   1.866   0.531   4.690
 9328SOL    HW128883   1.890   0.626   4.669
 9328SOL    HW228884   1.821   0.527   4.779
 9329SOL     OW28885   6.228   4.625   0.850
 9329SOL    HW128886   6.250   4.546   0.793
 9329SOL    HW228887   6.312   4.665   0.885
 9330SOL     OW28888   6.835   0.098   5.815
 9330SOL    HW128889   6.738   0.118   5.832
 9330SOL    HW228890   6.851   0.000   5.830
 9331SOL     OW28891   2.175   1.363   6.136
 9331SOL    HW128892   2.097   1.386   6.078
 9331SOL    HW228893   2.257   1.406   6.099
 9332SOL     OW28894   3.441   5.505   0.573
 9332SOL    HW128895   3.495   5.504   0.657
 9332SOL    HW228896   3.426   5.412   0.541
 9333SOL     OW28897   3.973   5.463   6.489
 9333SOL    HW128898   3.999   5.388   6.550
 9333SOL    HW228899   3.903   5.431   6.425
 9334SOL     OW28900   4.722   6.216   4.968
 9334SOL    HW128901   4.795   6.256   4.914
 9334SOL    HW228902   4.687   6.134   4.922
 9335SOL     OW28903   1.940   1.438   6.833
 9335SOL    HW128904   1.965   1.490   6.916
 9335SOL    HW228905   1.860   1.382   6.853
 9336SOL     OW28906   4.748   6.631   4.293
 9336SOL    HW128907   4.773   6.728   4.285
 9336SOL    HW228908   4.652   6.619   4.264
 9337SOL     OW28909   4.722   1.223   5.586
 9337SOL    HW128910   4.796   1.177   5.633
 9337SOL    HW228911   4.643   1.232   5.647
 9338SOL     OW28912   6.180   6.866   1.063
 9338SOL    HW128913   6.091   6.911   1.063
 9338SOL    HW228914   6.229   6.892   1.147
 9339SOL     OW28915   6.154   5.767   0.031
 9339SOL    HW128916   6.189   5.840   0.089
 9339SOL    HW228917   6.142   5.683   0.085
 9340SOL     OW28918   3.538   4.972   2.965
 9340SOL    HW128919   3.542   4.921   2.879
 9340SOL    HW228920   3.442   4.985   2.991
 9341SOL     OW28921   5.867   4.764   0.991
 9341SOL    HW128922   5.909   4.695   0.932
 9341SOL    HW228923   5.868   4.733   1.086
 9342SOL     OW28924   2.188   6.997   4.652
 9342SOL    HW128925   2.118   0.015   4.591
 9342SOL    HW228926   2.233   6.920   4.606
 9343SOL     OW28927   4.908   3.786   2.294
 9343SOL    HW128928   4.980   3.833   2.345
 9343SOL    HW228929   4.836   3.851   2.271
 9344SOL     OW28930   5.113   6.040   0.761
 9344SOL    HW128931   5.123   6.017   0.664
 9344SOL    HW228932   5.203   6.041   0.805
 9345SOL     OW28933   6.436   4.746   1.954
 9345SOL    HW128934   6.401   4.725   1.862
 9345SOL    HW228935   6.423   4.666   2.013
 9346SOL     OW28936   4.293   0.381   1.609
 9346SOL    HW128937   4.346   0.447   1.662
 9346SOL    HW228938   4.243   0.428   1.537
 9347SOL     OW28939   3.058   6.055   0.482
 9347SOL    HW128940   3.110   5.970   0.492
 9347SOL    HW228941   2.973   6.048   0.535
 9348SOL     OW28942   2.727   5.535   2.614
 9348SOL    HW128943   2.665   5.567   2.685
 9348SOL    HW228944   2.783   5.460   2.650
 9349SOL     OW28945   6.592   5.539   2.261
 9349SOL    HW128946   6.530   5.612   2.288
 9349SOL    HW228947   6.678   5.546   2.313
 9350SOL     OW28948   6.527   1.569   4.339
 9350SOL    HW128949   6.522   1.618   4.425
 9350SOL    HW228950   6.597   1.610   4.281
 9351SOL     OW28951   3.320   0.171   6.530
 9351SOL    HW128952   3.362   0.248   6.577
 9351SOL    HW228953   3.306   0.194   6.434
 9352SOL     OW28954   3.428   2.531   6.215
 9352SOL    HW128955   3.353   2.480   6.174
 9352SOL    HW228956   3.433   2.623   6.175
 9353SOL     OW28957   1.133   4.680   0.977
 9353SOL    HW128958   1.156   4.709   1.070
 9353SOL    HW228959   1.191   4.728   0.912
 9354SOL     OW28960   0.051   2.090   6.410
 9354SOL    HW128961   6.979   2.080   6.373
 9354SOL    HW228962   0.082   2.001   6.444
 9355SOL     OW28963   7.019   1.737   4.669
 9355SOL    HW128964   6.994   1.679   4.746
 9355SOL    HW228965   0.064   1.805   4.698
 9356SOL     OW28966   4.854   5.774   1.916
 9356SOL    HW128967   4.911   5.692   1.922
 9356SOL    HW228968   4.758   5.748   1.906
 9357SOL     OW28969   3.135   3.007   6.314
 9357SOL    HW128970   3.093   2.954   6.388
 9357SOL    HW228971   3.226   3.036   6.342
 9358SOL     OW28972   6.351   3.164   2.587
 9358SOL    HW128973   6.359   3.219   2.503
 9358SOL    HW228974   6.378   3.219   2.666
 9359SOL     OW28975   1.040   3.656   5.785
 9359SOL    HW128976   1.045   3.750   5.752
 9359SOL    HW228977   0.992   3.653   5.873
 9360SOL     OW28978   1.732   6.010   6.386
 9360SOL    HW128979   1.643   5.988   6.348
 9360SOL    HW228980   1.792   6.045   6.314
 9361SOL     OW28981   1.315   6.310   3.014
 9361SOL    HW128982   1.405   6.321   2.973
 9361SOL    HW228983   1.287   6.395   3.058
 9362SOL     OW28984   2.017   2.653   2.542
 9362SOL    HW128985   1.984   2.707   2.619
 9362SOL    HW228986   1.989   2.697   2.456
 9363SOL     OW28987   3.760   6.324   1.810
 9363SOL    HW128988   3.840   6.333   1.869
 9363SOL    HW228989   3.678   6.346   1.862
 9364SOL     OW28990   3.712   2.965   5.864
 9364SOL    HW128991   3.774   2.949   5.941
 9364SOL    HW228992   3.639   3.028   5.892
 9365SOL     OW28993   2.470   2.275   5.119
 9365SOL    HW128994   2.374   2.284   5.094
 9365SOL    HW228995   2.509   2.365   5.135
 9366SOL     OW28996   3.255   6.943   0.062
 9366SOL    HW128997   3.295   0.013   0.065
 9366SOL    HW228998   3.176   6.939   0.124
 9367SOL     OW28999   6.766   6.092   2.553
 9367SOL    HW129000   6.768   6.161   2.626
 9367SOL    HW229001   6.820   6.013   2.581
 9368SOL     OW29002   2.578   1.364   3.545
 9368SOL    HW129003   2.579   1.267   3.521
 9368SOL    HW229004   2.595   1.420   3.464
 9369SOL     OW29005   6.745   6.801   4.717
 9369SOL    HW129006   6.800   6.878   4.751
 9369SOL    HW229007   6.778   6.716   4.758
 9370SOL     OW29008   5.020   0.421   2.147
 9370SOL    HW129009   5.054   0.378   2.231
 9370SOL    HW229010   5.013   0.351   2.075
 9371SOL     OW29011   1.643   4.771   0.713
 9371SOL    HW129012   1.558   4.764   0.661
 9371SOL    HW229013   1.626   4.743   0.807
 9372SOL     OW29014   5.645   6.033   2.455
 9372SOL    HW129015   5.737   6.061   2.480
 9372SOL    HW229016   5.579   6.098   2.491
 9373SOL     OW29017   4.784   1.643   1.909
 9373SOL    HW129018   4.699   1.591   1.920
 9373SOL    HW229019   4.862   1.581   1.910
 9374SOL     OW29020   0.707   3.425   0.622
 9374SOL    HW129021   0.734   3.442   0.717
 9374SOL    HW229022   0.789   3.417   0.565
 9375SOL     OW29023   6.712   1.382   3.053
 9375SOL    HW129024   6.719   1.450   2.980
 9375SOL    HW229025   6.615   1.367   3.075
 9376SOL     OW29026   3.124   4.776   1.237
 9376SOL    HW129027   3.185   4.836   1.185
 9376SOL    HW229028   3.100   4.696   1.181
 9377SOL     OW29029   1.918   5.609   4.095
 9377SOL    HW129030   1.894   5.656   4.180
 9377SOL    HW229031   1.845   5.545   4.071
 9378SOL     OW29032   1.678   1.308   5.277
 9378SOL    HW129033   1.593   1.360   5.287
 9378SOL    HW229034   1.657   1.210   5.277
 9379SOL     OW29035   3.704   5.483   5.292
 9379SOL    HW129036   3.607   5.485   5.270
 9379SOL    HW229037   3.718   5.516   5.385
 9380SOL     OW29038   5.580   5.218   4.787
 9380SOL    HW129039   5.630   5.132   4.777
 9380SOL    HW229040   5.570   5.240   4.884
 9381SOL     OW29041   3.726   2.547   5.896
 9381SOL    HW129042   3.774   2.493   5.827
 9381SOL    HW229043   3.758   2.641   5.894
 9382SOL     OW29044   3.660   0.618   3.477
 9382SOL    HW129045   3.730   0.571   3.530
 9382SOL    HW229046   3.629   0.559   3.403
 9383SOL     OW29047   1.276   5.760   4.559
 9383SOL    HW129048   1.348   5.697   4.532
 9383SOL    HW229049   1.286   5.846   4.508
 9384SOL     OW29050   3.530   6.969   2.209
 9384SOL    HW129051   3.592   0.011   2.162
 9384SOL    HW229052   3.567   6.876   2.202
 9385SOL     OW29053   4.380   0.367   3.180
 9385SOL    HW129054   4.419   0.294   3.123
 9385SOL    HW229055   4.392   0.344   3.277
 9386SOL     OW29056   1.976   6.155   4.976
 9386SOL    HW129057   1.935   6.231   5.028
 9386SOL    HW229058   1.986   6.076   5.036
 9387SOL     OW29059   2.619   1.735   6.685
 9387SOL    HW129060   2.554   1.745   6.760
 9387SOL    HW229061   2.701   1.690   6.718
 9388SOL     OW29062   2.298   5.530   2.629
 9388SOL    HW129063   2.311   5.562   2.535
 9388SOL    HW229064   2.204   5.497   2.640
 9389SOL     OW29065   1.418   6.919   3.735
 9389SOL    HW129066   1.462   6.839   3.776
 9389SOL    HW229067   1.360   6.889   3.659
 9390SOL     OW29068   4.504   4.893   5.048
 9390SOL    HW129069   4.477   4.986   5.022
 9390SOL    HW229070   4.482   4.829   4.975
 9391SOL     OW29071   2.402   1.379   4.723
 9391SOL    HW129072   2.472   1.401   4.790
 9391SOL    HW229073   2.438   1.314   4.656
 9392SOL     OW29074   6.560   0.106   5.790
 9392SOL    HW129075   6.551   0.184   5.729
 9392SOL    HW229076   6.551   0.021   5.739
 9393SOL     OW29077   3.724   6.837   6.220
 9393SOL    HW129078   3.799   6.790   6.267
 9393SOL    HW229079   3.648   6.848   6.283
 9394SOL     OW29080   0.488   1.562   2.389
 9394SOL    HW129081   0.402   1.554   2.438
 9394SOL    HW229082   0.533   1.648   2.414
 9395SOL     OW29083   2.998   1.964   1.183
 9395SOL    HW129084   3.030   1.872   1.203
 9395SOL    HW229085   3.067   2.013   1.129
 9396SOL     OW29086   1.876   4.886   3.831
 9396SOL    HW129087   1.924   4.968   3.864
 9396SOL    HW229088   1.800   4.864   3.893
 9397SOL     OW29089   4.442   0.182   6.246
 9397SOL    HW129090   4.449   0.112   6.175
 9397SOL    HW229091   4.531   0.224   6.261
 9398SOL     OW29092   7.018   0.559   4.844
 9398SOL    HW129093   0.073   0.527   4.787
 9398SOL    HW229094   6.932   0.521   4.810
 9399SOL     OW29095   0.510   1.961   5.368
 9399SOL    HW129096   0.506   1.938   5.271
 9399SOL    HW229097   0.466   1.889   5.422
 9400SOL     OW29098   4.088   0.995   1.895
 9400SOL    HW129099   4.180   1.034   1.903
 9400SOL    HW229100   4.032   1.054   1.836
 9401SOL     OW29101   6.040   0.454   3.312
 9401SOL    HW129102   6.103   0.389   3.271
 9401SOL    HW229103   5.960   0.465   3.253
 9402SOL     OW29104   1.268   5.164   3.522
 9402SOL    HW129105   1.292   5.140   3.428
 9402SOL    HW229106   1.290   5.087   3.582
 9403SOL     OW29107   6.192   1.623   3.131
 9403SOL    HW129108   6.141   1.709   3.133
 9403SOL    HW229109   6.138   1.553   3.083
 9404SOL     OW29110   1.391   3.686   6.773
 9404SOL    HW129111   1.407   3.776   6.733
 9404SOL    HW229112   1.372   3.620   6.700
 9405SOL     OW29113   1.713   5.174   2.987
 9405SOL    HW129114   1.780   5.117   2.940
 9405SOL    HW229115   1.694   5.136   3.078
 9406SOL     OW29116   6.580   3.122   6.099
 9406SOL    HW129117   6.600   3.213   6.134
 9406SOL    HW229118   6.500   3.126   6.040
 9407SOL     OW29119   2.511   5.349   2.911
 9407SOL    HW129120   2.509   5.258   2.952
 9407SOL    HW229121   2.527   5.341   2.812
 9408SOL     OW29122   5.805   1.992   6.314
 9408SOL    HW129123   5.739   1.947   6.253
 9408SOL    HW229124   5.812   2.089   6.289
 9409SOL     OW29125   6.159   5.567   0.207
 9409SOL    HW129126   6.068   5.542   0.240
 9409SOL    HW229127   6.225   5.559   0.281
 9410SOL     OW29128   2.988   0.454   1.627
 9410SOL    HW129129   3.088   0.457   1.631
 9410SOL    HW229130   2.951   0.547   1.629
 9411SOL     OW29131   3.023   3.118   2.138
 9411SOL    HW129132   3.039   3.127   2.039
 9411SOL    HW229133   3.054   3.028   2.169
 9412SOL     OW29134   6.816   2.413   2.502
 9412SOL    HW129135   6.889   2.371   2.556
 9412SOL    HW229136   6.727   2.387   2.541
 9413SOL     OW29137   3.220   6.194   3.464
 9413SOL    HW129138   3.190   6.109   3.508
 9413SOL    HW229139   3.304   6.226   3.508
 9414SOL     OW29140   2.912   0.456   3.610
 9414SOL    HW129141   2.920   0.439   3.709
 9414SOL    HW229142   2.941   0.549   3.590
 9415SOL     OW29143   2.818   6.930   1.708
 9415SOL    HW129144   2.760   7.011   1.697
 9415SOL    HW229145   2.901   6.940   1.653
 9416SOL     OW29146   0.254   2.560   0.703
 9416SOL    HW129147   0.224   2.643   0.657
 9416SOL    HW229148   0.222   2.561   0.798
 9417SOL     OW29149   4.148   0.729   6.946
 9417SOL    HW129150   4.172   0.689   6.858
 9417SOL    HW229151   4.219   0.793   6.974
 9418SOL     OW29152   3.837   6.668   1.067
 9418SOL    HW129153   3.841   6.767   1.050
 9418SOL    HW229154   3.913   6.624   1.018
 9419SOL     OW29155   3.374   5.241   5.819
 9419SOL    HW129156   3.473   5.239   5.831
 9419SOL    HW229157   3.341   5.149   5.800
 9420SOL     OW29158   6.815   3.540   5.975
 9420SOL    HW129159   6.758   3.578   6.048
 9420SOL    HW229160   6.842   3.613   5.912
 9421SOL     OW29161   2.104   6.560   4.375
 9421SOL    HW129162   2.169   6.573   4.450
 9421SOL    HW229163   2.050   6.643   4.363
 9422SOL     OW29164   3.458   5.678   3.262
 9422SOL    HW129165   3.500   5.611   3.325
 9422SOL    HW229166   3.424   5.630   3.181
 9423SOL     OW29167   3.214   0.055   3.763
 9423SOL    HW129168   3.264   6.990   3.762
 9423SOL    HW229169   3.117   0.038   3.745
 9424SOL     OW29170   5.298   0.985   4.646
 9424SOL    HW129171   5.331   0.914   4.707
 9424SOL    HW229172   5.265   0.944   4.561
 9425SOL     OW29173   6.367   3.015   0.152
 9425SOL    HW129174   6.334   2.928   0.188
 9425SOL    HW229175   6.297   3.054   0.092
 9426SOL     OW29176   3.360   1.681   6.104
 9426SOL    HW129177   3.409   1.596   6.120
 9426SOL    HW229178   3.265   1.661   6.080
 9427SOL     OW29179   2.424   4.740   3.448
 9427SOL    HW129180   2.412   4.836   3.424
 9427SOL    HW229181   2.407   4.727   3.545
 9428SOL     OW29182   6.733   0.936   0.897
 9428SOL    HW129183   6.750   0.984   0.811
 9428SOL    HW229184   6.649   0.882   0.889
 9429SOL     OW29185   1.976   3.613   2.504
 9429SOL    HW129186   1.910   3.622   2.429
 9429SOL    HW229187   1.984   3.517   2.530
 9430SOL     OW29188   0.524   3.889   3.130
 9430SOL    HW129189   0.565   3.934   3.208
 9430SOL    HW229190   0.541   3.942   3.047
 9431SOL     OW29191   6.270   3.271   1.062
 9431SOL    HW129192   6.175   3.299   1.072
 9431SOL    HW229193   6.282   3.179   1.100
 9432SOL     OW29194   5.015   0.388   3.293
 9432SOL    HW129195   5.084   0.323   3.325
 9432SOL    HW229196   4.955   0.414   3.369
 9433SOL     OW29197   2.863   5.705   2.468
 9433SOL    HW129198   2.802   5.646   2.521
 9433SOL    HW229199   2.832   5.800   2.476
 9434SOL     OW29200   5.224   4.985   3.022
 9434SOL    HW129201   5.252   5.078   3.000
 9434SOL    HW229202   5.279   4.920   2.969
 9435SOL     OW29203   0.003   2.681   4.693
 9435SOL    HW129204   6.998   2.586   4.674
 9435SOL    HW229205   0.041   2.721   4.609
 9436SOL     OW29206   1.602   2.908   1.053
 9436SOL    HW129207   1.588   2.810   1.039
 9436SOL    HW229208   1.563   2.958   0.976
 9437SOL     OW29209   1.501   5.807   3.138
 9437SOL    HW129210   1.469   5.899   3.157
 9437SOL    HW229211   1.512   5.795   3.039
 9438SOL     OW29212   0.124   0.267   1.721
 9438SOL    HW129213   0.077   0.293   1.637
 9438SOL    HW229214   0.167   0.348   1.762
 9439SOL     OW29215   1.077   3.582   1.225
 9439SOL    HW129216   1.080   3.642   1.145
 9439SOL    HW229217   1.079   3.638   1.308
 9440SOL     OW29218   4.100   4.903   3.431
 9440SOL    HW129219   4.152   4.824   3.399
 9440SOL    HW229220   4.058   4.883   3.519
 9441SOL     OW29221   0.112   3.352   5.327
 9441SOL    HW129222   0.143   3.331   5.234
 9441SOL    HW229223   0.094   3.450   5.334
 9442SOL     OW29224   4.705   2.992   1.003
 9442SOL    HW129225   4.778   2.996   0.936
 9442SOL    HW229226   4.658   3.081   1.006
 9443SOL     OW29227   1.948   5.345   0.743
 9443SOL    HW129228   1.909   5.344   0.651
 9443SOL    HW229229   2.007   5.265   0.755
 9444SOL     OW29230   1.499   3.646   0.299
 9444SOL    HW129231   1.444   3.632   0.217
 9444SOL    HW229232   1.437   3.663   0.377
 9445SOL     OW29233   6.079   3.268   3.592
 9445SOL    HW129234   6.045   3.222   3.673
 9445SOL    HW229235   6.098   3.364   3.614
 9446SOL     OW29236   6.383   5.485   3.719
 9446SOL    HW129237   6.440   5.567   3.724
 9446SOL    HW229238   6.310   5.500   3.652
 9447SOL     OW29239   5.836   3.961   3.946
 9447SOL    HW129240   5.931   3.977   3.921
 9447SOL    HW229241   5.806   3.874   3.905
 9448SOL     OW29242   0.494   0.127   6.726
 9448SOL    HW129243   0.490   0.045   6.783
 9448SOL    HW229244   0.543   0.199   6.775
 9449SOL     OW29245   6.421   6.278   0.358
 9449SOL    HW129246   6.495   6.337   0.324
 9449SOL    HW229247   6.450   6.183   0.355
 9450SOL     OW29248   2.357   5.635   4.735
 9450SOL    HW129249   2.382   5.625   4.831
 9450SOL    HW229250   2.294   5.562   4.708
 9451SOL     OW29251   4.065   6.992   5.903
 9451SOL    HW129252   4.083   6.894   5.914
 9451SOL    HW229253   4.063   7.014   5.806
 9452SOL     OW29254   1.997   4.072   0.641
 9452SOL    HW129255   1.970   4.114   0.555
 9452SOL    HW229256   2.093   4.096   0.661
 9453SOL     OW29257   1.858   5.136   3.462
 9453SOL    HW129258   1.919   5.076   3.514
 9453SOL    HW229259   1.875   5.231   3.488
 9454SOL     OW29260   3.774   2.808   6.408
 9454SOL    HW129261   3.698   2.750   6.377
 9454SOL    HW229262   3.771   2.895   6.359
 9455SOL     OW29263   2.998   1.982   3.312
 9455SOL    HW129264   3.030   2.050   3.246
 9455SOL    HW229265   2.973   1.898   3.264
 9456SOL     OW29266   0.443   3.404   1.002
 9456SOL    HW129267   0.370   3.344   1.033
 9456SOL    HW229268   0.499   3.432   1.080
 9457SOL     OW29269   2.247   3.662   5.343
 9457SOL    HW129270   2.243   3.597   5.418
 9457SOL    HW229271   2.342   3.692   5.330
 9458SOL     OW29272   1.125   3.388   6.927
 9458SOL    HW129273   1.065   3.464   6.951
 9458SOL    HW229274   1.070   3.310   6.899
 9459SOL     OW29275   4.912   4.599   3.808
 9459SOL    HW129276   4.991   4.659   3.801
 9459SOL    HW229277   4.941   4.508   3.839
 9460SOL     OW29278   0.774   3.344   4.166
 9460SOL    HW129279   0.730   3.270   4.115
 9460SOL    HW229280   0.864   3.312   4.199
 9461SOL     OW29281   0.301   2.030   1.549
 9461SOL    HW129282   0.326   1.966   1.477
 9461SOL    HW229283   0.214   2.002   1.590
 9462SOL     OW29284   2.253   4.041   3.418
 9462SOL    HW129285   2.187   4.105   3.378
 9462SOL    HW229286   2.260   3.960   3.360
 9463SOL     OW29287   6.538   0.400   2.065
 9463SOL    HW129288   6.519   0.450   1.981
 9463SOL    HW229289   6.480   0.319   2.070
 9464SOL     OW29290   6.319   0.588   0.715
 9464SOL    HW129291   6.313   0.665   0.651
 9464SOL    HW229292   6.366   0.512   0.670
 9465SOL     OW29293   1.579   4.584   2.782
 9465SOL    HW129294   1.591   4.608   2.686
 9465SOL    HW229295   1.513   4.509   2.790
 9466SOL     OW29296   4.132   4.708   6.035
 9466SOL    HW129297   4.122   4.614   6.068
 9466SOL    HW229298   4.203   4.712   5.965
 9467SOL     OW29299   1.606   2.389   2.202
 9467SOL    HW129300   1.512   2.377   2.170
 9467SOL    HW229301   1.621   2.484   2.229
 9468SOL     OW29302   5.569   3.206   6.010
 9468SOL    HW129303   5.530   3.157   5.932
 9468SOL    HW229304   5.555   3.304   5.998
 9469SOL     OW29305   6.520   6.115   1.752
 9469SOL    HW129306   6.488   6.190   1.694
 9469SOL    HW229307   6.541   6.036   1.695
 9470SOL     OW29308   5.000   2.838   5.710
 9470SOL    HW129309   4.910   2.796   5.725
 9470SOL    HW229310   4.990   2.937   5.701
 9471SOL     OW29311   6.714   1.714   4.938
 9471SOL    HW129312   6.746   1.625   4.970
 9471SOL    HW229313   6.709   1.777   5.016
 9472SOL     OW29314   6.461   3.207   5.554
 9472SOL    HW129315   6.515   3.212   5.470
 9472SOL    HW229316   6.446   3.111   5.578
 9473SOL     OW29317   2.161   5.384   6.511
 9473SOL    HW129318   2.259   5.371   6.527
 9473SOL    HW229319   2.148   5.460   6.447
 9474SOL     OW29320   0.430   2.507   6.925
 9474SOL    HW129321   0.419   2.436   6.994
 9474SOL    HW229322   0.524   2.542   6.927
 9475SOL     OW29323   3.259   3.552   6.447
 9475SOL    HW129324   3.277   3.477   6.511
 9475SOL    HW229325   3.261   3.518   6.353
 9476SOL     OW29326   3.824   4.012   4.708
 9476SOL    HW129327   3.761   4.084   4.679
 9476SOL    HW229328   3.837   3.948   4.633
 9477SOL     OW29329   0.513   3.259   1.614
 9477SOL    HW129330   0.458   3.193   1.664
 9477SOL    HW229331   0.538   3.334   1.674
 9478SOL     OW29332   4.490   3.287   0.090
 9478SOL    HW129333   4.561   3.245   0.033
 9478SOL    HW229334   4.453   3.218   0.152
 9479SOL     OW29335   4.030   6.188   6.757
 9479SOL    HW129336   4.005   6.099   6.718
 9479SOL    HW229337   3.990   6.197   6.848
 9480SOL     OW29338   4.987   3.651   0.693
 9480SOL    HW129339   4.887   3.657   0.687
 9480SOL    HW229340   5.019   3.578   0.633
 9481SOL     OW29341   4.740   2.730   2.166
 9481SOL    HW129342   4.709   2.816   2.127
 9481SOL    HW229343   4.665   2.688   2.217
 9482SOL     OW29344   0.150   1.516   3.542
 9482SOL    HW129345   0.160   1.460   3.460
 9482SOL    HW229346   0.190   1.606   3.526
 9483SOL     OW29347   1.693   1.766   1.756
 9483SOL    HW129348   1.710   1.865   1.749
 9483SOL    HW229349   1.736   1.731   1.840
 9484SOL     OW29350   4.346   0.911   3.631
 9484SOL    HW129351   4.434   0.917   3.584
 9484SOL    HW229352   4.352   0.956   3.720
 9485SOL     OW29353   0.068   0.735   0.479
 9485SOL    HW129354   0.127   0.810   0.508
 9485SOL    HW229355   0.072   0.725   0.380
 9486SOL     OW29356   3.742   6.649   0.787
 9486SOL    HW129357   3.721   6.727   0.728
 9486SOL    HW229358   3.715   6.670   0.881
 9487SOL     OW29359   3.744   3.654   3.714
 9487SOL    HW129360   3.694   3.701   3.787
 9487SOL    HW229361   3.823   3.709   3.688
 9488SOL     OW29362   2.397   6.860   1.056
 9488SOL    HW129363   2.343   6.796   1.111
 9488SOL    HW229364   2.356   6.951   1.061
 9489SOL     OW29365   4.303   4.403   1.725
 9489SOL    HW129366   4.295   4.480   1.789
 9489SOL    HW229367   4.377   4.343   1.755
 9490SOL     OW29368   6.725   5.146   1.913
 9490SOL    HW129369   6.699   5.196   1.995
 9490SOL    HW229370   6.752   5.053   1.937
 9491SOL     OW29371   5.954   5.047   4.119
 9491SOL    HW129372   5.869   5.094   4.095
 9491SOL    HW229373   5.943   5.001   4.207
 9492SOL     OW29374   3.424   2.890   3.353
 9492SOL    HW129375   3.407   2.946   3.434
 9492SOL    HW229376   3.521   2.865   3.350
 9493SOL     OW29377   2.936   5.294   3.695
 9493SOL    HW129378   2.877   5.331   3.623
 9493SOL    HW229379   2.894   5.311   3.784
 9494SOL     OW29380   5.023   3.619   1.881
 9494SOL    HW129381   4.939   3.626   1.828
 9494SOL    HW229382   5.096   3.670   1.834
 9495SOL     OW29383   6.551   2.097   3.458
 9495SOL    HW129384   6.527   2.000   3.470
 9495SOL    HW229385   6.536   2.146   3.543
 9496SOL     OW29386   6.369   3.990   1.453
 9496SOL    HW129387   6.379   3.913   1.390
 9496SOL    HW229388   6.361   4.075   1.401
 9497SOL     OW29389   5.720   6.058   6.155
 9497SOL    HW129390   5.795   6.022   6.100
 9497SOL    HW229391   5.721   6.157   6.153
 9498SOL     OW29392   4.488   7.002   4.177
 9498SOL    HW129393   4.423   6.927   4.175
 9498SOL    HW229394   4.542   6.997   4.262
 9499SOL     OW29395   1.904   5.485   6.343
 9499SOL    HW129396   1.959   5.484   6.260
 9499SOL    HW229397   1.809   5.506   6.319
 9500SOL     OW29398   4.980   0.071   0.708
 9500SOL    HW129399   4.918   7.018   0.732
 9500SOL    HW229400   5.074   0.044   0.726
 9501SOL     OW29401   2.946   0.864   4.658
 9501SOL    HW129402   2.864   0.850   4.714
 9501SOL    HW229403   3.024   0.817   4.700
 9502SOL     OW29404   5.245   2.265   5.433
 9502SOL    HW129405   5.256   2.186   5.372
 9502SOL    HW229406   5.287   2.345   5.391
 9503SOL     OW29407   0.413   1.615   1.549
 9503SOL    HW129408   0.455   1.576   1.467
 9503SOL    HW229409   0.358   1.545   1.594
 9504SOL     OW29410   0.577   2.515   0.688
 9504SOL    HW129411   0.483   2.521   0.653
 9504SOL    HW229412   0.574   2.503   0.787
 9505SOL     OW29413   4.868   4.410   3.369
 9505SOL    HW129414   4.882   4.487   3.431
 9505SOL    HW229415   4.939   4.341   3.384
 9506SOL     OW29416   0.816   2.195   6.516
 9506SOL    HW129417   0.789   2.106   6.480
 9506SOL    HW229418   0.819   2.192   6.616
 9507SOL     OW29419   0.824   2.386   3.493
 9507SOL    HW129420   0.924   2.392   3.494
 9507SOL    HW229421   0.786   2.475   3.467
 9508SOL     OW29422   6.245   2.639   0.673
 9508SOL    HW129423   6.160   2.611   0.719
 9508SOL    HW229424   6.321   2.587   0.711
 9509SOL     OW29425   0.855   1.250   3.849
 9509SOL    HW129426   0.852   1.197   3.764
 9509SOL    HW229427   0.928   1.216   3.907
 9510SOL     OW29428   1.227   3.405   2.933
 9510SOL    HW129429   1.233   3.428   3.030
 9510SOL    HW229430   1.312   3.362   2.903
 9511SOL     OW29431   0.937   0.636   0.780
 9511SOL    HW129432   1.029   0.616   0.747
 9511SOL    HW229433   0.876   0.560   0.756
 9512SOL     OW29434   5.731   1.497   1.620
 9512SOL    HW129435   5.715   1.448   1.706
 9512SOL    HW229436   5.766   1.589   1.641
 9513SOL     OW29437   2.186   3.811   6.367
 9513SOL    HW129438   2.284   3.833   6.369
 9513SOL    HW229439   2.170   3.740   6.298
 9514SOL     OW29440   2.371   5.088   6.099
 9514SOL    HW129441   2.363   4.989   6.107
 9514SOL    HW229442   2.442   5.121   6.162
 9515SOL     OW29443   1.788   5.719   0.828
 9515SOL    HW129444   1.806   5.817   0.836
 9515SOL    HW229445   1.793   5.676   0.918
 9516SOL     OW29446   5.541   4.226   4.920
 9516SOL    HW129447   5.513   4.220   4.824
 9516SOL    HW229448   5.481   4.289   4.968
 9517SOL     OW29449   1.275   5.259   1.083
 9517SOL    HW129450   1.299   5.341   1.031
 9517SOL    HW229451   1.191   5.275   1.134
 9518SOL     OW29452   2.406   2.517   0.001
 9518SOL    HW129453   2.436   2.582   6.952
 9518SOL    HW229454   2.390   2.566   0.087
 9519SOL     OW29455   4.024   3.276   4.873
 9519SOL    HW129456   3.982   3.192   4.906
 9519SOL    HW229457   4.034   3.340   4.949
 9520SOL     OW29458   1.569   1.358   3.473
 9520SOL    HW129459   1.546   1.403   3.387
 9520SOL    HW229460   1.624   1.276   3.455
 9521SOL     OW29461   5.014   5.163   1.366
 9521SOL    HW129462   5.010   5.260   1.390
 9521SOL    HW229463   5.003   5.108   1.449
 9522SOL     OW29464   3.572   5.183   1.379
 9522SOL    HW129465   3.666   5.211   1.363
 9522SOL    HW229466   3.528   5.245   1.444
 9523SOL     OW29467   2.782   4.806   5.246
 9523SOL    HW129468   2.838   4.743   5.192
 9523SOL    HW229469   2.707   4.756   5.290
 9524SOL     OW29470   3.907   3.354   0.762
 9524SOL    HW129471   3.957   3.375   0.678
 9524SOL    HW229472   3.842   3.428   0.782
 9525SOL     OW29473   2.268   2.405   5.542
 9525SOL    HW129474   2.188   2.350   5.517
 9525SOL    HW229475   2.350   2.349   5.535
 9526SOL     OW29476   6.928   5.080   1.538
 9526SOL    HW129477   6.998   5.131   1.589
 9526SOL    HW229478   6.953   4.983   1.535
 9527SOL     OW29479   0.283   0.739   4.113
 9527SOL    HW129480   0.230   0.686   4.179
 9527SOL    HW229481   0.251   0.834   4.113
 9528SOL     OW29482   0.054   1.460   0.394
 9528SOL    HW129483   0.111   1.519   0.335
 9528SOL    HW229484   0.081   1.365   0.382
 9529SOL     OW29485   6.474   3.271   6.521
 9529SOL    HW129486   6.382   3.304   6.498
 9529SOL    HW229487   6.506   3.210   6.449
 9530SOL     OW29488   1.714   3.731   2.844
 9530SOL    HW129489   1.780   3.761   2.775
 9530SOL    HW229490   1.700   3.804   2.911
 9531SOL     OW29491   4.407   4.897   2.549
 9531SOL    HW129492   4.374   4.984   2.511
 9531SOL    HW229493   4.333   4.850   2.596
 9532SOL     OW29494   6.592   6.766   1.610
 9532SOL    HW129495   6.560   6.852   1.570
 9532SOL    HW229496   6.515   6.721   1.655
 9533SOL     OW29497   0.156   5.954   5.525
 9533SOL    HW129498   0.216   5.932   5.448
 9533SOL    HW229499   0.194   6.030   5.577
 9534SOL     OW29500   0.374   4.023   4.850
 9534SOL    HW129501   0.305   4.002   4.919
 9534SOL    HW229502   0.386   4.123   4.844
 9535SOL     OW29503   2.205   1.252   6.585
 9535SOL    HW129504   2.207   1.172   6.526
 9535SOL    HW229505   2.179   1.224   6.678
 9536SOL     OW29506   2.773   4.157   5.659
 9536SOL    HW129507   2.869   4.187   5.664
 9536SOL    HW229508   2.768   4.059   5.676
 9537SOL     OW29509   2.825   6.614   3.481
 9537SOL    HW129510   2.829   6.714   3.484
 9537SOL    HW229511   2.831   6.583   3.387
 9538SOL     OW29512   5.789   1.959   3.666
 9538SOL    HW129513   5.763   2.055   3.659
 9538SOL    HW229514   5.742   1.918   3.744
 9539SOL     OW29515   3.133   3.908   5.128
 9539SOL    HW129516   3.214   3.966   5.120
 9539SOL    HW229517   3.144   3.826   5.071
 9540SOL     OW29518   5.875   4.229   4.305
 9540SOL    HW129519   5.781   4.213   4.275
 9540SOL    HW229520   5.933   4.243   4.225
 9541SOL     OW29521   3.982   0.685   5.428
 9541SOL    HW129522   3.907   0.689   5.361
 9541SOL    HW229523   4.000   0.589   5.452
 9542SOL     OW29524   5.120   4.429   4.616
 9542SOL    HW129525   5.115   4.469   4.708
 9542SOL    HW229526   5.193   4.474   4.564
 9543SOL     OW29527   3.676   0.585   5.736
 9543SOL    HW129528   3.775   0.597   5.734
 9543SOL    HW229529   3.632   0.672   5.759
 9544SOL     OW29530   6.751   2.168   3.648
 9544SOL    HW129531   6.783   2.115   3.569
 9544SOL    HW229532   6.706   2.107   3.713
 9545SOL     OW29533   5.789   5.536   4.025
 9545SOL    HW129534   5.868   5.596   4.018
 9545SOL    HW229535   5.743   5.552   4.112
 9546SOL     OW29536   3.848   2.251   5.351
 9546SOL    HW129537   3.891   2.341   5.364
 9546SOL    HW229538   3.871   2.192   5.428
 9547SOL     OW29539   2.149   6.365   4.722
 9547SOL    HW129540   2.205   6.282   4.729
 9547SOL    HW229541   2.055   6.341   4.701
 9548SOL     OW29542   6.261   5.501   6.456
 9548SOL    HW129543   6.318   5.515   6.374
 9548SOL    HW229544   6.260   5.403   6.479
 9549SOL     OW29545   2.455   2.633   1.438
 9549SOL    HW129546   2.412   2.544   1.454
 9549SOL    HW229547   2.546   2.635   1.479
 9550SOL     OW29548   0.696   1.550   0.264
 9550SOL    HW129549   0.679   1.456   0.235
 9550SOL    HW229550   0.776   1.553   0.324
 9551SOL     OW29551   5.391   1.170   4.788
 9551SOL    HW129552   5.407   1.129   4.878
 9551SOL    HW229553   5.346   1.104   4.729
 9552SOL     OW29554   1.197   6.814   3.506
 9552SOL    HW129555   1.181   6.757   3.587
 9552SOL    HW229556   1.114   6.815   3.450
 9553SOL     OW29557   6.466   3.858   6.435
 9553SOL    HW129558   6.383   3.861   6.379
 9553SOL    HW229559   6.444   3.884   6.529
 9554SOL     OW29560   1.913   0.249   0.892
 9554SOL    HW129561   1.954   0.264   0.982
 9554SOL    HW229562   1.831   0.306   0.882
 9555SOL     OW29563   1.340   0.673   2.789
 9555SOL    HW129564   1.410   0.742   2.809
 9555SOL    HW229565   1.332   0.661   2.690
 9556SOL     OW29566   1.646   2.692   2.034
 9556SOL    HW129567   1.677   2.684   2.129
 9556SOL    HW229568   1.575   2.761   2.027
 9557SOL     OW29569   0.897   0.146   2.829
 9557SOL    HW129570   0.942   0.227   2.792
 9557SOL    HW229571   0.965   0.080   2.859
 9558SOL     OW29572   6.066   6.572   4.950
 9558SOL    HW129573   6.162   6.547   4.962
 9558SOL    HW229574   6.017   6.498   4.905
 9559SOL     OW29575   0.303   4.504   1.045
 9559SOL    HW129576   0.397   4.509   1.013
 9559SOL    HW229577   0.295   4.430   1.112
 9560SOL     OW29578   1.706   1.969   3.422
 9560SOL    HW129579   1.651   1.937   3.346
 9560SOL    HW229580   1.793   1.919   3.425
 9561SOL     OW29581   1.734   6.914   0.030
 9561SOL    HW129582   1.814   6.889   6.997
 9561SOL    HW229583   1.709   7.009   0.011
 9562SOL     OW29584   3.182   0.124   5.837
 9562SOL    HW129585   3.209   0.219   5.851
 9562SOL    HW229586   3.161   0.082   5.925
 9563SOL     OW29587   6.185   6.844   0.763
 9563SOL    HW129588   6.221   6.763   0.715
 9563SOL    HW229589   6.187   6.828   0.862
 9564SOL     OW29590   2.746   0.136   6.967
 9564SOL    HW129591   2.768   0.039   6.955
 9564SOL    HW229592   2.787   0.169   0.031
 9565SOL     OW29593   4.216   6.897   4.611
 9565SOL    HW129594   4.135   6.876   4.557
 9565SOL    HW229595   4.211   6.848   4.698
 9566SOL     OW29596   1.745   5.372   0.145
 9566SOL    HW129597   1.838   5.405   0.161
 9566SOL    HW229598   1.699   5.433   0.080
 9567SOL     OW29599   5.581   4.806   7.008
 9567SOL    HW129600   5.589   4.799   6.908
 9567SOL    HW229601   5.664   4.771   0.030
 9568SOL     OW29602   4.941   2.329   6.395
 9568SOL    HW129603   5.004   2.355   6.468
 9568SOL    HW229604   4.852   2.373   6.409
 9569SOL     OW29605   0.734   1.622   3.270
 9569SOL    HW129606   0.798   1.630   3.346
 9569SOL    HW229607   0.775   1.661   3.187
 9570SOL     OW29608   1.051   3.261   2.278
 9570SOL    HW129609   1.133   3.315   2.297
 9570SOL    HW229610   0.989   3.266   2.356
 9571SOL     OW29611   3.044   3.930   6.744
 9571SOL    HW129612   3.088   3.923   6.654
 9571SOL    HW229613   2.993   4.015   6.750
 9572SOL     OW29614   1.689   5.447   1.894
 9572SOL    HW129615   1.729   5.386   1.826
 9572SOL    HW229616   1.743   5.531   1.899
 9573SOL     OW29617   0.996   1.184   6.547
 9573SOL    HW129618   0.908   1.158   6.587
 9573SOL    HW229619   1.070   1.167   6.611
 9574SOL     OW29620   4.165   3.493   4.271
 9574SOL    HW129621   4.098   3.419   4.273
 9574SOL    HW229622   4.221   3.489   4.353
 9575SOL     OW29623   6.631   1.114   1.416
 9575SOL    HW129624   6.577   1.033   1.436
 9575SOL    HW229625   6.631   1.131   1.317
 9576SOL     OW29626   2.206   0.548   2.102
 9576SOL    HW129627   2.131   0.575   2.163
 9576SOL    HW229628   2.234   0.454   2.122
 9577SOL     OW29629   1.380   0.696   5.217
 9577SOL    HW129630   1.440   0.771   5.243
 9577SOL    HW229631   1.416   0.650   5.135
 9578SOL     OW29632   0.834   3.678   3.535
 9578SOL    HW129633   0.813   3.746   3.606
 9578SOL    HW229634   0.833   3.721   3.445
 9579SOL     OW29635   1.875   5.000   2.851
 9579SOL    HW129636   1.957   4.987   2.796
 9579SOL    HW229637   1.847   4.912   2.891
 9580SOL     OW29638   3.984   3.133   0.909
 9580SOL    HW129639   3.988   3.163   1.004
 9580SOL    HW229640   3.969   3.213   0.850
 9581SOL     OW29641   0.852   5.154   6.627
 9581SOL    HW129642   0.784   5.218   6.662
 9581SOL    HW229643   0.808   5.084   6.571
 9582SOL     OW29644   4.873   4.993   5.060
 9582SOL    HW129645   4.970   5.016   5.062
 9582SOL    HW229646   4.835   5.001   5.152
 9583SOL     OW29647   4.070   4.651   1.199
 9583SOL    HW129648   4.091   4.646   1.101
 9583SOL    HW229649   4.012   4.574   1.225
 9584SOL     OW29650   6.769   6.352   6.673
 9584SOL    HW129651   6.671   6.333   6.682
 9584SOL    HW229652   6.792   6.432   6.730
 9585SOL     OW29653   6.018   6.885   4.474
 9585SOL    HW129654   5.977   6.948   4.408
 9585SOL    HW229655   6.091   6.833   4.429
 9586SOL     OW29656   5.819   4.340   2.439
 9586SOL    HW129657   5.850   4.422   2.486
 9586SOL    HW229658   5.806   4.266   2.506
 9587SOL     OW29659   0.056   1.100   2.206
 9587SOL    HW129660   0.152   1.116   2.225
 9587SOL    HW229661   0.000   1.141   2.279
 9588SOL     OW29662   0.639   1.782   2.490
 9588SOL    HW129663   0.553   1.833   2.489
 9588SOL    HW229664   0.681   1.791   2.580
 9589SOL     OW29665   2.292   5.243   5.808
 9589SOL    HW129666   2.253   5.158   5.772
 9589SOL    HW229667   2.239   5.273   5.887
 9590SOL     OW29668   0.311   3.853   2.091
 9590SOL    HW129669   0.289   3.788   2.163
 9590SOL    HW229670   0.410   3.859   2.081
 9591SOL     OW29671   3.093   6.044   6.840
 9591SOL    HW129672   3.115   6.062   6.936
 9591SOL    HW229673   3.047   6.123   6.801
 9592SOL     OW29674   3.644   4.365   1.220
 9592SOL    HW129675   3.704   4.303   1.170
 9592SOL    HW229676   3.566   4.390   1.163
 9593SOL     OW29677   6.549   0.007   4.684
 9593SOL    HW129678   6.582   6.934   4.676
 9593SOL    HW229679   6.454   0.007   4.718
 9594SOL     OW29680   1.586   6.396   2.953
 9594SOL    HW129681   1.679   6.421   2.925
 9594SOL    HW229682   1.534   6.369   2.872
 9595SOL     OW29683   2.111   4.392   5.221
 9595SOL    HW129684   2.166   4.412   5.140
 9595SOL    HW229685   2.168   4.398   5.303
 9596SOL     OW29686   0.299   6.273   0.489
 9596SOL    HW129687   0.369   6.203   0.499
 9596SOL    HW229688   0.308   6.318   0.400
 9597SOL     OW29689   0.546   4.904   0.612
 9597SOL    HW129690   0.578   4.996   0.590
 9597SOL    HW229691   0.613   4.837   0.579
 9598SOL     OW29692   1.185   3.666   4.936
 9598SOL    HW129693   1.232   3.754   4.943
 9598SOL    HW229694   1.110   3.674   4.871
 9599SOL     OW29695   3.579   0.494   5.455
 9599SOL    HW129696   3.631   0.550   5.390
 9599SOL    HW229697   3.581   0.537   5.545
 9600SOL     OW29698   2.446   0.293   0.341
 9600SOL    HW129699   2.489   0.203   0.343
 9600SOL    HW229700   2.374   0.297   0.410
 9601SOL     OW29701   6.626   3.917   0.583
 9601SOL    HW129702   6.577   3.977   0.520
 9601SOL    HW229703   6.561   3.858   0.630
 9602SOL     OW29704   6.943   4.740   6.555
 9602SOL    HW129705   0.006   4.738   6.501
 9602SOL    HW229706   6.938   4.659   6.612
 9603SOL     OW29707   3.281   1.100   5.324
 9603SOL    HW129708   3.311   1.059   5.238
 9603SOL    HW229709   3.266   1.029   5.392
 9604SOL     OW29710   4.425   0.291   0.280
 9604SOL    HW129711   4.520   0.300   0.311
 9604SOL    HW229712   4.422   0.231   0.200
 9605SOL     OW29713   0.698   4.934   4.378
 9605SOL    HW129714   0.606   4.897   4.364
 9605SOL    HW229715   0.757   4.906   4.302
 9606SOL     OW29716   1.266   6.086   5.614
 9606SOL    HW129717   1.244   6.175   5.574
 9606SOL    HW229718   1.365   6.072   5.613
 9607SOL     OW29719   1.393   2.316   1.695
 9607SOL    HW129720   1.400   2.392   1.760
 9607SOL    HW229721   1.379   2.353   1.603
 9608SOL     OW29722   6.521   6.865   2.026
 9608SOL    HW129723   6.572   6.823   2.102
 9608SOL    HW229724   6.581   6.874   1.947
 9609SOL     OW29725   2.222   3.474   6.426
 9609SOL    HW129726   2.285   3.396   6.422
 9609SOL    HW229727   2.272   3.558   6.405
 9610SOL     OW29728   1.672   4.851   4.017
 9610SOL    HW129729   1.723   4.897   4.089
 9610SOL    HW229730   1.576   4.878   4.022
 9611SOL     OW29731   0.202   0.353   6.929
 9611SOL    HW129732   0.227   0.446   6.957
 9611SOL    HW229733   0.208   0.345   6.829
 9612SOL     OW29734   6.974   3.515   1.694
 9612SOL    HW129735   6.937   3.605   1.670
 9612SOL    HW229736   6.900   3.457   1.726
 9613SOL     OW29737   3.983   6.442   3.185
 9613SOL    HW129738   3.943   6.360   3.225
 9613SOL    HW229739   3.910   6.502   3.153
 9614SOL     OW29740   4.041   2.875   1.011
 9614SOL    HW129741   4.023   2.961   0.963
 9614SOL    HW229742   4.139   2.864   1.026
 9615SOL     OW29743   0.760   6.668   2.027
 9615SOL    HW129744   0.803   6.674   1.937
 9615SOL    HW229745   0.740   6.572   2.048
 9616SOL     OW29746   4.472   3.440   0.760
 9616SOL    HW129747   4.383   3.436   0.803
 9616SOL    HW229748   4.522   3.520   0.794
 9617SOL     OW29749   1.180   3.614   4.280
 9617SOL    HW129750   1.207   3.710   4.290
 9617SOL    HW229751   1.116   3.606   4.204
 9618SOL     OW29752   4.111   6.993   6.342
 9618SOL    HW129753   4.087   6.987   6.245
 9618SOL    HW229754   4.036   0.017   6.391
 9619SOL     OW29755   1.126   0.365   0.307
 9619SOL    HW129756   1.092   0.416   0.228
 9619SOL    HW229757   1.070   0.388   0.387
 9620SOL     OW29758   5.715   1.511   6.958
 9620SOL    HW129759   5.665   1.540   6.877
 9620SOL    HW229760   5.789   1.576   6.977
 9621SOL     OW29761   1.295   1.272   3.215
 9621SOL    HW129762   1.227   1.247   3.147
 9621SOL    HW229763   1.254   1.335   3.281
 9622SOL     OW29764   5.721   0.841   0.178
 9622SOL    HW129765   5.661   0.841   0.258
 9622SOL    HW229766   5.752   0.747   0.159
 9623SOL     OW29767   3.827   5.184   5.398
 9623SOL    HW129768   3.760   5.197   5.324
 9623SOL    HW229769   3.899   5.253   5.390
 9624SOL     OW29770   5.833   4.078   3.625
 9624SOL    HW129771   5.905   4.081   3.695
 9624SOL    HW229772   5.744   4.072   3.670
 9625SOL     OW29773   5.314   5.089   6.622
 9625SOL    HW129774   5.350   5.172   6.580
 9625SOL    HW229775   5.260   5.113   6.702
 9626SOL     OW29776   2.327   6.019   6.049
 9626SOL    HW129777   2.360   6.107   6.016
 9626SOL    HW229778   2.243   6.032   6.101
 9627SOL     OW29779   6.830   4.168   4.660
 9627SOL    HW129780   6.842   4.128   4.569
 9627SOL    HW229781   6.737   4.202   4.670
 9628SOL     OW29782   6.220   4.356   0.413
 9628SOL    HW129783   6.132   4.308   0.404
 9628SOL    HW229784   6.261   4.368   0.323
 9629SOL     OW29785   6.692   6.462   2.636
 9629SOL    HW129786   6.627   6.386   2.634
 9629SOL    HW229787   6.776   6.432   2.682
 9630SOL     OW29788   6.703   6.226   5.126
 9630SOL    HW129789   6.673   6.275   5.044
 9630SOL    HW229790   6.641   6.247   5.202
 9631SOL     OW29791   5.354   1.265   0.106
 9631SOL    HW129792   5.328   1.199   0.176
 9631SOL    HW229793   5.273   1.288   0.051
 9632SOL     OW29794   2.603   5.494   1.622
 9632SOL    HW129795   2.550   5.572   1.589
 9632SOL    HW229796   2.665   5.524   1.694
 9633SOL     OW29797   3.680   4.334   0.301
 9633SOL    HW129798   3.588   4.323   0.262
 9633SOL    HW229799   3.718   4.244   0.321
 9634SOL     OW29800   6.672   6.669   4.014
 9634SOL    HW129801   6.578   6.695   3.995
 9634SOL    HW229802   6.733   6.746   3.996
 9635SOL     OW29803   2.512   4.615   5.538
 9635SOL    HW129804   2.535   4.677   5.613
 9635SOL    HW229805   2.558   4.527   5.551
 9636SOL     OW29806   4.755   2.020   6.510
 9636SOL    HW129807   4.662   2.038   6.479
 9636SOL    HW229808   4.773   1.922   6.510
 9637SOL     OW29809   3.450   2.199   0.231
 9637SOL    HW129810   3.443   2.152   0.319
 9637SOL    HW229811   3.525   2.265   0.235
 9638SOL     OW29812   0.033   3.257   5.785
 9638SOL    HW129813   6.976   3.274   5.724
 9638SOL    HW229814   0.034   3.161   5.811
 9639SOL     OW29815   4.352   1.933   2.062
 9639SOL    HW129816   4.395   1.946   2.151
 9639SOL    HW229817   4.279   1.866   2.069
 9640SOL     OW29818   2.989   0.616   2.901
 9640SOL    HW129819   3.069   0.671   2.925
 9640SOL    HW229820   2.946   0.654   2.819
 9641SOL     OW29821   5.603   5.259   1.330
 9641SOL    HW129822   5.664   5.317   1.384
 9641SOL    HW229823   5.543   5.207   1.390
 9642SOL     OW29824   2.025   5.594   4.460
 9642SOL    HW129825   1.935   5.551   4.474
 9642SOL    HW229826   2.013   5.680   4.412
 9643SOL     OW29827   5.304   4.564   3.548
 9643SOL    HW129828   5.251   4.488   3.512
 9643SOL    HW229829   5.375   4.589   3.482
 9644SOL     OW29830   0.765   5.053   5.370
 9644SOL    HW129831   0.812   5.120   5.313
 9644SOL    HW229832   0.666   5.060   5.354
 9645SOL     OW29833   2.883   4.800   4.246
 9645SOL    HW129834   2.806   4.756   4.290
 9645SOL    HW229835   2.853   4.884   4.200
 9646SOL     OW29836   2.400   4.819   2.099
 9646SOL    HW129837   2.325   4.755   2.081
 9646SOL    HW229838   2.487   4.770   2.098
 9647SOL     OW29839   0.322   6.005   2.715
 9647SOL    HW129840   0.342   6.057   2.632
 9647SOL    HW229841   0.396   6.019   2.781
 9648SOL     OW29842   3.648   2.041   6.989
 9648SOL    HW129843   3.706   2.121   7.000
 9648SOL    HW229844   3.663   1.978   0.045
 9649SOL     OW29845   1.915   4.598   6.789
 9649SOL    HW129846   1.939   4.570   6.696
 9649SOL    HW229847   1.881   4.518   6.840
 9650SOL     OW29848   4.634   4.723   3.249
 9650SOL    HW129849   4.649   4.641   3.195
 9650SOL    HW229850   4.572   4.703   3.325
 9651SOL     OW29851   5.228   1.626   0.741
 9651SOL    HW129852   5.307   1.564   0.744
 9651SOL    HW229853   5.253   1.714   0.780
 9652SOL     OW29854   1.171   4.733   1.247
 9652SOL    HW129855   1.171   4.677   1.330
 9652SOL    HW229856   1.082   4.778   1.237
 9653SOL     OW29857   4.977   5.322   5.192
 9653SOL    HW129858   5.060   5.288   5.235
 9653SOL    HW229859   4.989   5.419   5.170
 9654SOL     OW29860   3.451   3.349   2.801
 9654SOL    HW129861   3.546   3.320   2.791
 9654SOL    HW229862   3.394   3.270   2.823
 9655SOL     OW29863   0.363   1.770   0.423
 9655SOL    HW129864   0.435   1.709   0.456
 9655SOL    HW229865   0.396   1.864   0.424
 9656SOL     OW29866   4.382   2.206   0.765
 9656SOL    HW129867   4.429   2.293   0.753
 9656SOL    HW229868   4.298   2.220   0.817
 9657SOL     OW29869   5.930   3.136   3.177
 9657SOL    HW129870   6.010   3.171   3.226
 9657SOL    HW229871   5.912   3.042   3.204
 9658SOL     OW29872   5.242   1.947   2.396
 9658SOL    HW129873   5.331   1.901   2.394
 9658SOL    HW229874   5.170   1.879   2.411
 9659SOL     OW29875   0.210   3.245   0.710
 9659SOL    HW129876   0.166   3.172   0.761
 9659SOL    HW229877   0.270   3.298   0.771
 9660SOL     OW29878   0.721   6.851   2.671
 9660SOL    HW129879   0.682   6.940   2.649
 9660SOL    HW229880   0.651   6.780   2.661
 9661SOL     OW29881   3.409   6.000   1.324
 9661SOL    HW129882   3.390   6.095   1.297
 9661SOL    HW229883   3.456   5.953   1.249
 9662SOL     OW29884   3.888   3.235   5.628
 9662SOL    HW129885   3.877   3.147   5.581
 9662SOL    HW229886   3.912   3.306   5.561
 9663SOL     OW29887   6.315   6.687   2.474
 9663SOL    HW129888   6.338   6.774   2.431
 9663SOL    HW229889   6.289   6.621   2.404
 9664SOL     OW29890   5.714   5.722   4.827
 9664SOL    HW129891   5.738   5.639   4.778
 9664SOL    HW229892   5.702   5.701   4.924
 9665SOL     OW29893   5.739   5.785   6.364
 9665SOL    HW129894   5.823   5.834   6.390
 9665SOL    HW229895   5.728   5.706   6.424
 9666SOL     OW29896   6.597   3.607   2.173
 9666SOL    HW129897   6.635   3.515   2.161
 9666SOL    HW229898   6.600   3.631   2.270
 9667SOL     OW29899   4.271   3.166   6.535
 9667SOL    HW129900   4.243   3.261   6.525
 9667SOL    HW229901   4.266   3.139   6.631
 9668SOL     OW29902   6.791   0.638   6.021
 9668SOL    HW129903   6.737   0.564   5.981
 9668SOL    HW229904   6.884   0.605   6.040
 9669SOL     OW29905   2.060   6.785   2.355
 9669SOL    HW129906   1.981   6.790   2.416
 9669SOL    HW229907   2.034   6.811   2.263
 9670SOL     OW29908   6.854   5.071   5.998
 9670SOL    HW129909   6.832   4.981   5.962
 9670SOL    HW229910   6.831   5.141   5.929
 9671SOL     OW29911   6.926   4.306   7.011
 9671SOL    HW129912   6.976   4.300   6.925
 9671SOL    HW229913   6.978   4.360   0.056
 9672SOL     OW29914   1.661   5.771   3.671
 9672SOL    HW129915   1.586   5.724   3.718
 9672SOL    HW229916   1.743   5.714   3.675
 9673SOL     OW29917   4.844   3.466   1.046
 9673SOL    HW129918   4.844   3.560   1.011
 9673SOL    HW229919   4.882   3.465   1.138
 9674SOL     OW29920   3.260   6.696   3.246
 9674SOL    HW129921   3.309   6.625   3.297
 9674SOL    HW229922   3.224   6.764   3.309
 9675SOL     OW29923   5.308   2.723   6.946
 9675SOL    HW129924   5.336   2.627   6.954
 9675SOL    HW229925   5.360   2.778   7.011
 9676SOL     OW29926   1.757   3.451   5.705
 9676SOL    HW129927   1.818   3.393   5.759
 9676SOL    HW229928   1.811   3.504   5.640
 9677SOL     OW29929   6.925   5.592   4.532
 9677SOL    HW129930   6.855   5.629   4.592
 9677SOL    HW229931   6.937   5.494   4.552
 9678SOL     OW29932   3.103   3.680   3.483
 9678SOL    HW129933   3.157   3.619   3.541
 9678SOL    HW229934   3.075   3.761   3.536
 9679SOL     OW29935   3.238   0.731   2.935
 9679SOL    HW129936   3.292   0.659   2.979
 9679SOL    HW229937   3.289   0.817   2.935
 9680SOL     OW29938   4.636   1.014   3.148
 9680SOL    HW129939   4.622   1.105   3.108
 9680SOL    HW229940   4.571   0.950   3.106
 9681SOL     OW29941   2.822   1.926   0.762
 9681SOL    HW129942   2.855   1.845   0.713
 9681SOL    HW229943   2.800   1.902   0.856
 9682SOL     OW29944   4.688   4.248   3.886
 9682SOL    HW129945   4.608   4.273   3.940
 9682SOL    HW229946   4.769   4.296   3.922
 9683SOL     OW29947   3.039   6.104   1.538
 9683SOL    HW129948   2.965   6.152   1.491
 9683SOL    HW229949   3.001   6.052   1.615
 9684SOL     OW29950   0.704   3.047   6.398
 9684SOL    HW129951   0.691   3.145   6.384
 9684SOL    HW229952   0.682   3.023   6.492
 9685SOL     OW29953   3.828   4.582   1.017
 9685SOL    HW129954   3.843   4.486   0.992
 9685SOL    HW229955   3.820   4.589   1.117
 9686SOL     OW29956   6.882   2.414   0.223
 9686SOL    HW129957   6.867   2.321   0.188
 9686SOL    HW229958   6.842   2.480   0.160
 9687SOL     OW29959   1.586   0.817   4.114
 9687SOL    HW129960   1.661   0.775   4.063
 9687SOL    HW229961   1.508   0.753   4.118
 9688SOL     OW29962   1.045   3.267   1.984
 9688SOL    HW129963   1.088   3.186   1.944
 9688SOL    HW229964   1.062   3.268   2.082
 9689SOL     OW29965   1.037   4.532   6.156
 9689SOL    HW129966   0.978   4.480   6.094
 9689SOL    HW229967   1.037   4.488   6.246
 9690SOL     OW29968   6.170   5.072   6.986
 9690SOL    HW129969   6.087   5.071   6.931
 9690SOL    HW229970   6.147   5.099   0.059
 9691SOL     OW29971   3.122   5.352   0.961
 9691SOL    HW129972   3.101   5.433   1.017
 9691SOL    HW229973   3.158   5.280   1.019
 9692SOL     OW29974   3.718   6.035   2.384
 9692SOL    HW129975   3.630   6.043   2.430
 9692SOL    HW229976   3.707   6.057   2.287
 9693SOL     OW29977   5.467   4.452   2.302
 9693SOL    HW129978   5.399   4.459   2.230
 9693SOL    HW229979   5.543   4.394   2.272
 9694SOL     OW29980   2.723   1.106   0.792
 9694SOL    HW129981   2.718   1.098   0.692
 9694SOL    HW229982   2.733   1.202   0.818
 9695SOL     OW29983   6.655   3.530   3.185
 9695SOL    HW129984   6.605   3.501   3.267
 9695SOL    HW229985   6.679   3.449   3.131
 9696SOL     OW29986   5.377   3.464   1.042
 9696SOL    HW129987   5.466   3.422   1.026
 9696SOL    HW229988   5.342   3.433   1.130
 9697SOL     OW29989   0.496   4.600   0.011
 9697SOL    HW129990   0.449   4.617   6.945
 9697SOL    HW229991   0.595   4.600   7.016
 9698SOL     OW29992   4.530   1.720   6.054
 9698SOL    HW129993   4.601   1.790   6.059
 9698SOL    HW229994   4.481   1.715   6.141
 9699SOL     OW29995   6.358   5.423   0.043
 9699SOL    HW129996   6.313   5.458   0.126
 9699SOL    HW229997   6.289   5.407   6.993
 9700SOL     OW29998   4.939   5.554   5.053
 9700SOL    HW129999   4.927   5.615   5.131
 9700SOL    HW230000   4.876   5.581   4.979
 9701SOL     OW30001   4.587   4.839   5.853
 9701SOL    HW130002   4.665   4.812   5.797
 9701SOL    HW230003   4.618   4.861   5.946
 9702SOL     OW30004   4.619   0.472   6.557
 9702SOL    HW130005   4.564   0.471   6.640
 9702SOL    HW230006   4.624   0.379   6.520
 9703SOL     OW30007   4.865   3.735   4.007
 9703SOL    HW130008   4.891   3.649   4.051
 9703SOL    HW230009   4.813   3.791   4.072
 9704SOL     OW30010   3.528   0.205   1.935
 9704SOL    HW130011   3.592   0.161   1.999
 9704SOL    HW230012   3.527   0.153   1.849
 9705SOL     OW30013   5.413   4.581   5.736
 9705SOL    HW130014   5.501   4.548   5.769
 9705SOL    HW230015   5.378   4.520   5.666
 9706SOL     OW30016   1.828   3.736   0.462
 9706SOL    HW130017   1.795   3.808   0.400
 9706SOL    HW230018   1.750   3.682   0.494
 9707SOL     OW30019   6.225   5.072   2.224
 9707SOL    HW130020   6.192   5.163   2.247
 9707SOL    HW230021   6.255   5.071   2.129
 9708SOL     OW30022   1.508   1.837   4.397
 9708SOL    HW130023   1.483   1.876   4.486
 9708SOL    HW230024   1.607   1.834   4.388
 9709SOL     OW30025   4.898   6.475   2.984
 9709SOL    HW130026   4.985   6.453   2.939
 9709SOL    HW230027   4.884   6.574   2.983
 9710SOL     OW30028   0.002   1.727   0.937
 9710SOL    HW130029   7.006   1.640   0.891
 9710SOL    HW230030   0.100   1.742   0.947
 9711SOL     OW30031   3.084   5.750   6.216
 9711SOL    HW130032   3.179   5.747   6.247
 9711SOL    HW230033   3.027   5.694   6.276
 9712SOL     OW30034   5.392   3.919   6.782
 9712SOL    HW130035   5.364   3.904   6.687
 9712SOL    HW230036   5.476   3.868   6.801
 9713SOL     OW30037   1.336   4.915   3.139
 9713SOL    HW130038   1.237   4.922   3.152
 9713SOL    HW230039   1.356   4.845   3.070
 9714SOL     OW30040   4.383   6.084   6.205
 9714SOL    HW130041   4.417   6.104   6.297
 9714SOL    HW230042   4.315   6.011   6.210
 9715SOL     OW30043   5.768   4.116   6.605
 9715SOL    HW130044   5.788   4.047   6.674
 9715SOL    HW230045   5.790   4.080   6.515
 9716SOL     OW30046   3.562   4.549   6.674
 9716SOL    HW130047   3.485   4.500   6.632
 9716SOL    HW230048   3.563   4.643   6.639
 9717SOL     OW30049   5.525   5.963   5.965
 9717SOL    HW130050   5.534   5.873   5.923
 9717SOL    HW230051   5.577   5.965   6.051
 9718SOL     OW30052   4.258   3.332   6.990
 9718SOL    HW130053   4.345   3.314   0.017
 9718SOL    HW230054   4.191   3.366   0.035
 9719SOL     OW30055   6.424   1.151   5.526
 9719SOL    HW130056   6.440   1.247   5.550
 9719SOL    HW230057   6.446   1.093   5.604
 9720SOL     OW30058   0.085   5.125   2.056
 9720SOL    HW130059   0.183   5.134   2.040
 9720SOL    HW230060   0.059   5.180   2.136
 9721SOL     OW30061   0.004   1.944   0.418
 9721SOL    HW130062   0.058   1.902   0.345
 9721SOL    HW230063   0.066   1.976   0.491
 9722SOL     OW30064   5.712   0.653   4.393
 9722SOL    HW130065   5.664   0.666   4.306
 9722SOL    HW230066   5.754   0.562   4.393
 9723SOL     OW30067   2.884   6.716   2.997
 9723SOL    HW130068   2.826   6.758   3.066
 9723SOL    HW230069   2.954   6.660   3.041
 9724SOL     OW30070   1.627   4.263   0.172
 9724SOL    HW130071   1.711   4.296   0.215
 9724SOL    HW230072   1.650   4.194   0.104
 9725SOL     OW30073   4.457   4.801   6.307
 9725SOL    HW130074   4.453   4.784   6.406
 9725SOL    HW230075   4.366   4.829   6.275
 9726SOL     OW30076   5.277   1.323   4.098
 9726SOL    HW130077   5.269   1.343   4.196
 9726SOL    HW230078   5.264   1.225   4.083
 9727SOL     OW30079   1.299   2.727   6.891
 9727SOL    HW130080   1.340   2.700   6.804
 9727SOL    HW230081   1.199   2.734   6.880
 9728SOL     OW30082   0.856   0.649   5.719
 9728SOL    HW130083   0.921   0.581   5.755
 9728SOL    HW230084   0.906   0.719   5.669
 9729SOL     OW30085   0.630   4.062   3.315
 9729SOL    HW130086   0.678   4.144   3.285
 9729SOL    HW230087   0.622   4.063   3.415
 9730SOL     OW30088   0.992   3.898   3.791
 9730SOL    HW130089   1.044   3.950   3.723
 9730SOL    HW230090   1.055   3.862   3.860
 9731SOL     OW30091   4.886   4.406   0.698
 9731SOL    HW130092   4.836   4.372   0.618
 9731SOL    HW230093   4.827   4.470   0.749
 9732SOL     OW30094   6.830   5.520   2.797
 9732SOL    HW130095   6.760   5.592   2.795
 9732SOL    HW230096   6.899   5.543   2.865
 9733SOL     OW30097   5.902   4.953   0.387
 9733SOL    HW130098   5.803   4.954   0.404
 9733SOL    HW230099   5.919   4.986   0.294
 9734SOL     OW30100   6.712   1.671   1.633
 9734SOL    HW130101   6.796   1.689   1.581
 9734SOL    HW230102   6.666   1.591   1.596
 9735SOL     OW30103   2.098   3.616   4.221
 9735SOL    HW130104   2.109   3.529   4.173
 9735SOL    HW230105   2.124   3.691   4.161
 9736SOL     OW30106   6.391   1.885   6.570
 9736SOL    HW130107   6.460   1.892   6.642
 9736SOL    HW230108   6.340   1.971   6.564
 9737SOL     OW30109   5.183   3.210   3.736
 9737SOL    HW130110   5.116   3.279   3.762
 9737SOL    HW230111   5.274   3.252   3.731
 9738SOL     OW30112   1.802   0.618   0.844
 9738SOL    HW130113   1.871   0.567   0.895
 9738SOL    HW230114   1.713   0.608   0.888
 9739SOL     OW30115   5.899   5.288   1.641
 9739SOL    HW130116   5.953   5.280   1.558
 9739SOL    HW230117   5.932   5.365   1.696
 9740SOL     OW30118   6.785   1.808   3.550
 9740SOL    HW130119   6.803   1.758   3.465
 9740SOL    HW230120   6.686   1.816   3.563
 9741SOL     OW30121   4.117   1.197   2.628
 9741SOL    HW130122   4.126   1.213   2.530
 9741SOL    HW230123   4.052   1.261   2.667
 9742SOL     OW30124   4.372   0.817   0.722
 9742SOL    HW130125   4.441   0.816   0.650
 9742SOL    HW230126   4.325   0.729   0.725
 9743SOL     OW30127   0.374   2.911   4.548
 9743SOL    HW130128   0.384   2.956   4.636
 9743SOL    HW230129   0.331   2.975   4.483
 9744SOL     OW30130   1.636   6.828   2.458
 9744SOL    HW130131   1.644   6.753   2.524
 9744SOL    HW230132   1.645   6.792   2.365
 9745SOL     OW30133   5.270   3.066   6.241
 9745SOL    HW130134   5.243   3.134   6.309
 9745SOL    HW230135   5.365   3.080   6.215
 9746SOL     OW30136   6.700   0.217   5.380
 9746SOL    HW130137   6.635   0.148   5.348
 9746SOL    HW230138   6.712   0.287   5.309
 9747SOL     OW30139   2.703   0.943   1.936
 9747SOL    HW130140   2.775   0.913   1.998
 9747SOL    HW230141   2.636   0.998   1.985
 9748SOL     OW30142   0.047   0.800   3.496
 9748SOL    HW130143   6.974   0.829   3.474
 9748SOL    HW230144   0.074   0.838   3.584
 9749SOL     OW30145   2.536   0.285   4.355
 9749SOL    HW130146   2.458   0.312   4.412
 9749SOL    HW230147   2.535   0.336   4.270
 9750SOL     OW30148   5.477   4.215   2.904
 9750SOL    HW130149   5.492   4.312   2.882
 9750SOL    HW230150   5.565   4.170   2.917
 9751SOL     OW30151   1.398   0.832   0.720
 9751SOL    HW130152   1.398   0.918   0.771
 9751SOL    HW230153   1.439   0.846   0.631
 9752SOL     OW30154   4.473   1.979   5.218
 9752SOL    HW130155   4.545   1.977   5.288
 9752SOL    HW230156   4.405   1.909   5.239
 9753SOL     OW30157   6.103   5.668   6.267
 9753SOL    HW130158   6.158   5.637   6.344
 9753SOL    HW230159   6.140   5.629   6.182
 9754SOL     OW30160   1.513   1.319   6.854
 9754SOL    HW130161   1.610   1.313   6.828
 9754SOL    HW230162   1.457   1.279   6.782
 9755SOL     OW30163   3.361   3.837   4.477
 9755SOL    HW130164   3.282   3.816   4.420
 9755SOL    HW230165   3.362   3.777   4.557
 9756SOL     OW30166   6.382   3.622   0.448
 9756SOL    HW130167   6.446   3.547   0.434
 9756SOL    HW230168   6.318   3.599   0.521
 9757SOL     OW30169   5.481   3.783   3.741
 9757SOL    HW130170   5.419   3.760   3.817
 9757SOL    HW230171   5.440   3.753   3.655
 9758SOL     OW30172   2.459   0.234   0.054
 9758SOL    HW130173   2.434   0.234   0.150
 9758SOL    HW230174   2.558   0.228   0.045
 9759SOL     OW30175   1.367   0.304   0.386
 9759SOL    HW130176   1.278   0.326   0.346
 9759SOL    HW230177   1.380   0.356   0.471
 9760SOL     OW30178   4.838   2.728   4.933
 9760SOL    HW130179   4.765   2.665   4.960
 9760SOL    HW230180   4.839   2.807   4.994
 9761SOL     OW30181   6.531   1.421   2.530
 9761SOL    HW130182   6.562   1.448   2.439
 9761SOL    HW230183   6.432   1.405   2.527
 9762SOL     OW30184   3.226   1.299   4.439
 9762SOL    HW130185   3.258   1.355   4.516
 9762SOL    HW230186   3.151   1.240   4.469
 9763SOL     OW30187   5.237   1.738   2.006
 9763SOL    HW130188   5.242   1.695   1.916
 9763SOL    HW230189   5.166   1.693   2.061
 9764SOL     OW30190   0.193   2.904   3.166
 9764SOL    HW130191   0.211   2.831   3.100
 9764SOL    HW230192   0.117   2.960   3.133
 9765SOL     OW30193   6.727   0.399   3.480
 9765SOL    HW130194   6.633   0.383   3.452
 9765SOL    HW230195   6.779   0.436   3.403
 9766SOL     OW30196   2.992   6.921   2.266
 9766SOL    HW130197   3.062   6.967   2.211
 9766SOL    HW230198   2.902   6.957   2.242
 9767SOL     OW30199   4.836   0.599   4.521
 9767SOL    HW130200   4.841   0.690   4.481
 9767SOL    HW230201   4.751   0.554   4.492
 9768SOL     OW30202   6.261   1.316   2.512
 9768SOL    HW130203   6.176   1.267   2.492
 9768SOL    HW230204   6.245   1.381   2.585
 9769SOL     OW30205   4.034   1.242   3.444
 9769SOL    HW130206   4.096   1.189   3.386
 9769SOL    HW230207   4.083   1.273   3.526
 9770SOL     OW30208   5.003   0.803   6.607
 9770SOL    HW130209   5.013   0.878   6.541
 9770SOL    HW230210   4.952   0.728   6.565
 9771SOL     OW30211   2.523   6.033   0.409
 9771SOL    HW130212   2.456   5.971   0.450
 9771SOL    HW230213   2.549   5.998   0.319
 9772SOL     OW30214   2.176   6.166   1.961
 9772SOL    HW130215   2.179   6.266   1.955
 9772SOL    HW230216   2.169   6.139   2.057
 9773SOL     OW30217   5.191   5.431   3.787
 9773SOL    HW130218   5.155   5.523   3.772
 9773SOL    HW230219   5.120   5.374   3.827
 9774SOL     OW30220   0.254   4.785   2.095
 9774SOL    HW130221   0.155   4.791   2.088
 9774SOL    HW230222   0.292   4.757   2.007
 9775SOL     OW30223   2.459   0.386   3.109
 9775SOL    HW130224   2.503   0.314   3.163
 9775SOL    HW230225   2.470   0.474   3.156
 9776SOL     OW30226   1.938   4.288   4.891
 9776SOL    HW130227   1.880   4.242   4.823
 9776SOL    HW230228   1.988   4.220   4.944
 9777SOL     OW30229   6.789   6.039   6.999
 9777SOL    HW130230   6.721   6.112   7.003
 9777SOL    HW230231   6.877   6.074   0.013
 9778SOL     OW30232   0.119   1.135   3.711
 9778SOL    HW130233   0.145   1.201   3.781
 9778SOL    HW230234   0.154   1.045   3.735
 9779SOL     OW30235   1.379   1.300   4.469
 9779SOL    HW130236   1.467   1.253   4.469
 9779SOL    HW230237   1.374   1.362   4.391
 9780SOL     OW30238   2.625   2.199   1.380
 9780SOL    HW130239   2.681   2.242   1.451
 9780SOL    HW230240   2.677   2.126   1.336
 9781SOL     OW30241   2.027   3.850   4.382
 9781SOL    HW130242   2.029   3.921   4.312
 9781SOL    HW230243   2.038   3.760   4.339
 9782SOL     OW30244   6.894   1.485   0.907
 9782SOL    HW130245   6.866   1.455   0.815
 9782SOL    HW230246   6.933   1.407   0.956
 9783SOL     OW30247   4.322   2.132   3.036
 9783SOL    HW130248   4.421   2.119   3.024
 9783SOL    HW230249   4.306   2.197   3.109
 9784SOL     OW30250   3.668   1.022   4.283
 9784SOL    HW130251   3.592   0.965   4.251
 9784SOL    HW230252   3.645   1.118   4.268
 9785SOL     OW30253   0.895   2.897   6.204
 9785SOL    HW130254   0.957   2.850   6.267
 9785SOL    HW230255   0.837   2.961   6.255
 9786SOL     OW30256   2.239   4.618   0.258
 9786SOL    HW130257   2.194   4.606   0.170
 9786SOL    HW230258   2.234   4.715   0.285
 9787SOL     OW30259   4.723   4.237   1.707
 9787SOL    HW130260   4.753   4.327   1.740
 9787SOL    HW230261   4.631   4.218   1.741
 9788SOL     OW30262   0.448   0.962   3.787
 9788SOL    HW130263   0.499   1.013   3.857
 9788SOL    HW230264   0.466   0.864   3.797
 9789SOL     OW30265   1.028   5.540   0.766
 9789SOL    HW130266   0.947   5.598   0.772
 9789SOL    HW230267   1.108   5.595   0.744
 9790SOL     OW30268   6.331   4.635   6.761
 9790SOL    HW130269   6.349   4.733   6.768
 9790SOL    HW230270   6.256   4.610   6.822
 9791SOL     OW30271   0.905   1.594   2.600
 9791SOL    HW130272   0.994   1.559   2.630
 9791SOL    HW230273   0.902   1.595   2.500
 9792SOL     OW30274   4.332   4.835   0.820
 9792SOL    HW130275   4.409   4.887   0.857
 9792SOL    HW230276   4.256   4.897   0.802
 9793SOL     OW30277   4.521   6.262   2.841
 9793SOL    HW130278   4.550   6.271   2.936
 9793SOL    HW230279   4.474   6.174   2.829
 9794SOL     OW30280   0.388   4.892   1.029
 9794SOL    HW130281   0.353   4.862   0.940
 9794SOL    HW230282   0.380   4.817   1.095
 9795SOL     OW30283   2.396   1.651   4.661
 9795SOL    HW130284   2.493   1.663   4.639
 9795SOL    HW230285   2.377   1.554   4.676
 9796SOL     OW30286   3.742   2.395   1.463
 9796SOL    HW130287   3.806   2.411   1.387
 9796SOL    HW230288   3.788   2.347   1.536
 9797SOL     OW30289   2.431   5.537   6.494
 9797SOL    HW130290   2.409   5.634   6.481
 9797SOL    HW230291   2.527   5.528   6.518
 9798SOL     OW30292   3.181   0.558   2.031
 9798SOL    HW130293   3.259   0.619   2.018
 9798SOL    HW230294   3.211   0.474   2.076
 9799SOL     OW30295   4.027   3.191   4.593
 9799SOL    HW130296   4.006   3.262   4.660
 9799SOL    HW230297   4.007   3.101   4.633
 9800SOL     OW30298   4.001   6.217   4.618
 9800SOL    HW130299   4.054   6.132   4.624
 9800SOL    HW230300   3.942   6.214   4.538
 9801SOL     OW30301   4.627   4.025   6.752
 9801SOL    HW130302   4.584   3.935   6.748
 9801SOL    HW230303   4.566   4.090   6.797
 9802SOL     OW30304   0.095   3.504   1.011
 9802SOL    HW130305   0.082   3.414   1.052
 9802SOL    HW230306   0.075   3.500   0.913
 9803SOL     OW30307   0.823   1.884   0.003
 9803SOL    HW130308   0.838   1.981   0.019
 9803SOL    HW230309   0.854   1.859   6.933
 9804SOL     OW30310   1.598   0.058   2.496
 9804SOL    HW130311   1.526   0.077   2.563
 9804SOL    HW230312   1.609   6.980   2.486
 9805SOL     OW30313   1.274   0.040   4.816
 9805SOL    HW130314   1.229   6.984   4.771
 9805SOL    HW230315   1.208   0.115   4.826
 9806SOL     OW30316   1.455   0.892   0.477
 9806SOL    HW130317   1.464   0.834   0.396
 9806SOL    HW230318   1.384   0.960   0.460
 9807SOL     OW30319   2.729   4.454   0.411
 9807SOL    HW130320   2.750   4.456   0.313
 9807SOL    HW230321   2.669   4.530   0.434
 9808SOL     OW30322   4.380   0.133   5.287
 9808SOL    HW130323   4.360   0.043   5.249
 9808SOL    HW230324   4.469   0.132   5.332
 9809SOL     OW30325   0.701   2.657   6.932
 9809SOL    HW130326   0.720   2.598   6.853
 9809SOL    HW230327   0.785   2.669   6.985
 9810SOL     OW30328   2.064   2.947   3.633
 9810SOL    HW130329   2.020   2.883   3.695
 9810SOL    HW230330   1.994   2.996   3.580
 9811SOL     OW30331   5.483   4.664   3.370
 9811SOL    HW130332   5.448   4.730   3.303
 9811SOL    HW230333   5.556   4.706   3.423
 9812SOL     OW30334   3.522   2.367   5.939
 9812SOL    HW130335   3.587   2.438   5.911
 9812SOL    HW230336   3.516   2.298   5.867
 9813SOL     OW30337   5.710   1.095   0.557
 9813SOL    HW130338   5.799   1.135   0.534
 9813SOL    HW230339   5.700   1.091   0.657
 9814SOL     OW30340   6.978   0.441   0.134
 9814SOL    HW130341   6.970   0.505   0.058
 9814SOL    HW230342   6.902   0.376   0.131
 9815SOL     OW30343   5.912   4.152   3.161
 9815SOL    HW130344   5.867   4.114   3.242
 9815SOL    HW230345   5.960   4.236   3.186
 9816SOL     OW30346   6.838   1.118   6.055
 9816SOL    HW130347   6.909   1.165   6.003
 9816SOL    HW230348   6.782   1.185   6.104
 9817SOL     OW30349   3.097   6.582   2.776
 9817SOL    HW130350   3.022   6.523   2.746
 9817SOL    HW230351   3.102   6.581   2.876
 9818SOL     OW30352   1.337   1.241   4.867
 9818SOL    HW130353   1.303   1.256   4.959
 9818SOL    HW230354   1.428   1.199   4.871
 9819SOL     OW30355   4.716   2.757   3.805
 9819SOL    HW130356   4.689   2.853   3.791
 9819SOL    HW230357   4.813   2.753   3.828
 9820SOL     OW30358   4.053   3.424   6.222
 9820SOL    HW130359   4.095   3.386   6.304
 9820SOL    HW230360   3.980   3.363   6.190
 9821SOL     OW30361   5.605   0.492   0.336
 9821SOL    HW130362   5.519   0.543   0.338
 9821SOL    HW230363   5.650   0.506   0.248
 9822SOL     OW30364   2.824   5.941   3.558
 9822SOL    HW130365   2.750   5.961   3.622
 9822SOL    HW230366   2.840   6.021   3.500
 9823SOL     OW30367   2.388   0.816   0.541
 9823SOL    HW130368   2.388   0.851   0.635
 9823SOL    HW230369   2.402   0.717   0.543
 9824SOL     OW30370   1.992   5.109   3.919
 9824SOL    HW130371   1.969   5.203   3.894
 9824SOL    HW230372   1.988   5.099   4.019
 9825SOL     OW30373   5.359   5.960   4.349
 9825SOL    HW130374   5.274   5.980   4.398
 9825SOL    HW230375   5.434   5.951   4.414
 9826SOL     OW30376   3.924   5.690   5.677
 9826SOL    HW130377   3.995   5.632   5.716
 9826SOL    HW230378   3.838   5.639   5.672
 9827SOL     OW30379   1.552   4.280   4.004
 9827SOL    HW130380   1.651   4.276   3.993
 9827SOL    HW230381   1.512   4.196   3.968
 9828SOL     OW30382   2.814   2.185   5.497
 9828SOL    HW130383   2.847   2.263   5.445
 9828SOL    HW230384   2.854   2.186   5.589
 9829SOL     OW30385   4.608   5.135   6.465
 9829SOL    HW130386   4.571   5.185   6.387
 9829SOL    HW230387   4.538   5.124   6.535
 9830SOL     OW30388   5.253   1.385   1.942
 9830SOL    HW130389   5.175   1.357   1.999
 9830SOL    HW230390   5.227   1.380   1.846
 9831SOL     OW30391   1.287   4.734   2.295
 9831SOL    HW130392   1.263   4.749   2.199
 9831SOL    HW230393   1.349   4.656   2.303
 9832SOL     OW30394   5.166   5.331   2.764
 9832SOL    HW130395   5.191   5.418   2.721
 9832SOL    HW230396   5.183   5.256   2.701
 9833SOL     OW30397   3.349   3.154   4.374
 9833SOL    HW130398   3.415   3.118   4.308
 9833SOL    HW230399   3.256   3.143   4.338
 9834SOL     OW30400   2.401   4.241   5.330
 9834SOL    HW130401   2.367   4.211   5.419
 9834SOL    HW230402   2.403   4.164   5.267
 9835SOL     OW30403   3.847   3.790   4.516
 9835SOL    HW130404   3.845   3.701   4.471
 9835SOL    HW230405   3.760   3.838   4.502
 9836SOL     OW30406   6.850   4.190   3.719
 9836SOL    HW130407   6.895   4.104   3.741
 9836SOL    HW230408   6.904   4.240   3.652
 9837SOL     OW30409   4.048   0.821   2.278
 9837SOL    HW130410   4.032   0.858   2.369
 9837SOL    HW230411   4.079   0.893   2.217
 9838SOL     OW30412   1.735   6.733   0.319
 9838SOL    HW130413   1.754   6.831   0.319
 9838SOL    HW230414   1.656   6.714   0.260
 9839SOL     OW30415   5.900   6.531   3.813
 9839SOL    HW130416   5.804   6.514   3.836
 9839SOL    HW230417   5.950   6.557   3.895
 9840SOL     OW30418   5.903   1.509   0.916
 9840SOL    HW130419   5.974   1.497   0.848
 9840SOL    HW230420   5.924   1.588   0.974
 9841SOL     OW30421   1.447   3.958   5.255
 9841SOL    HW130422   1.532   3.906   5.270
 9841SOL    HW230423   1.403   3.975   5.343
 9842SOL     OW30424   3.652   3.088   1.374
 9842SOL    HW130425   3.645   3.187   1.386
 9842SOL    HW230426   3.570   3.044   1.410
 9843SOL     OW30427   0.087   0.618   2.558
 9843SOL    HW130428   0.167   0.590   2.506
 9843SOL    HW230429   0.116   0.680   2.632
 9844SOL     OW30430   6.466   1.327   3.227
 9844SOL    HW130431   6.499   1.253   3.286
 9844SOL    HW230432   6.366   1.329   3.228
 9845SOL     OW30433   1.863   2.756   3.791
 9845SOL    HW130434   1.825   2.744   3.699
 9845SOL    HW230435   1.897   2.668   3.824
 9846SOL     OW30436   3.486   2.406   1.414
 9846SOL    HW130437   3.445   2.413   1.505
 9846SOL    HW230438   3.586   2.401   1.423
 9847SOL     OW30439   3.613   2.930   3.053
 9847SOL    HW130440   3.515   2.947   3.051
 9847SOL    HW230441   3.644   2.919   3.147
 9848SOL     OW30442   3.791   4.199   5.307
 9848SOL    HW130443   3.798   4.296   5.331
 9848SOL    HW230444   3.755   4.190   5.214
 9849SOL     OW30445   0.987   0.242   6.300
 9849SOL    HW130446   1.000   0.170   6.232
 9849SOL    HW230447   0.890   0.260   6.312
 9850SOL     OW30448   6.387   0.320   4.183
 9850SOL    HW130449   6.350   0.262   4.110
 9850SOL    HW230450   6.331   0.402   4.192
 9851SOL     OW30451   0.537   0.119   4.330
 9851SOL    HW130452   0.457   0.067   4.359
 9851SOL    HW230453   0.617   0.091   4.384
 9852SOL     OW30454   2.890   1.658   4.237
 9852SOL    HW130455   2.881   1.732   4.170
 9852SOL    HW230456   2.987   1.635   4.248
 9853SOL     OW30457   5.430   3.249   5.127
 9853SOL    HW130458   5.403   3.181   5.059
 9853SOL    HW230459   5.528   3.266   5.120
 9854SOL     OW30460   6.726   6.308   4.333
 9854SOL    HW130461   6.671   6.285   4.252
 9854SOL    HW230462   6.666   6.315   4.413
 9855SOL     OW30463   1.811   3.298   1.815
 9855SOL    HW130464   1.904   3.291   1.850
 9855SOL    HW230465   1.749   3.245   1.873
 9856SOL     OW30466   4.784   4.135   4.596
 9856SOL    HW130467   4.808   4.229   4.570
 9856SOL    HW230468   4.699   4.109   4.549
 9857SOL     OW30469   4.820   2.653   2.703
 9857SOL    HW130470   4.848   2.748   2.689
 9857SOL    HW230471   4.819   2.605   2.615
 9858SOL     OW30472   6.592   7.007   1.452
 9858SOL    HW130473   6.540   0.070   1.436
 9858SOL    HW230474   6.576   6.944   1.377
 9859SOL     OW30475   6.019   5.801   2.530
 9859SOL    HW130476   6.100   5.746   2.508
 9859SOL    HW230477   5.937   5.751   2.505
 9860SOL     OW30478   2.157   2.357   4.221
 9860SOL    HW130479   2.080   2.323   4.168
 9860SOL    HW230480   2.234   2.294   4.212
 9861SOL     OW30481   2.964   0.501   2.559
 9861SOL    HW130482   3.011   0.414   2.566
 9861SOL    HW230483   2.890   0.505   2.626
 9862SOL     OW30484   2.677   3.408   0.261
 9862SOL    HW130485   2.625   3.325   0.240
 9862SOL    HW230486   2.770   3.398   0.227
 9863SOL     OW30487   3.295   6.134   2.001
 9863SOL    HW130488   3.268   6.132   2.097
 9863SOL    HW230489   3.335   6.046   1.976
 9864SOL     OW30490   3.322   0.288   3.721
 9864SOL    HW130491   3.271   0.202   3.727
 9864SOL    HW230492   3.420   0.269   3.733
 9865SOL     OW30493   1.133   6.841   4.793
 9865SOL    HW130494   1.182   6.756   4.771
 9865SOL    HW230495   1.070   6.863   4.719
 9866SOL     OW30496   5.394   5.133   5.999
 9866SOL    HW130497   5.427   5.063   5.936
 9866SOL    HW230498   5.296   5.124   6.012
 9867SOL     OW30499   6.935   1.723   1.440
 9867SOL    HW130500   6.970   1.688   1.353
 9867SOL    HW230501   6.850   1.774   1.423
 9868SOL     OW30502   0.632   3.162   4.609
 9868SOL    HW130503   0.535   3.158   4.634
 9868SOL    HW230504   0.671   3.249   4.639
 9869SOL     OW30505   0.176   2.276   1.293
 9869SOL    HW130506   0.212   2.200   1.346
 9869SOL    HW230507   0.118   2.241   1.219
 9870SOL     OW30508   4.425   5.174   3.113
 9870SOL    HW130509   4.370   5.107   3.164
 9870SOL    HW230510   4.507   5.128   3.078
 9871SOL     OW30511   6.401   4.617   5.889
 9871SOL    HW130512   6.379   4.642   5.794
 9871SOL    HW230513   6.353   4.678   5.951
 9872SOL     OW30514   3.205   5.788   5.026
 9872SOL    HW130515   3.276   5.858   5.029
 9872SOL    HW230516   3.232   5.716   4.962
 9873SOL     OW30517   2.391   2.650   0.720
 9873SOL    HW130518   2.463   2.606   0.772
 9873SOL    HW230519   2.428   2.685   0.634
 9874SOL     OW30520   6.252   3.041   5.307
 9874SOL    HW130521   6.299   2.999   5.385
 9874SOL    HW230522   6.212   3.128   5.335
 9875SOL     OW30523   6.134   5.935   2.066
 9875SOL    HW130524   6.184   5.849   2.058
 9875SOL    HW230525   6.189   6.001   2.117
 9876SOL     OW30526   5.324   6.628   4.277
 9876SOL    HW130527   5.334   6.541   4.228
 9876SOL    HW230528   5.414   6.669   4.290
 9877SOL     OW30529   6.366   4.911   3.973
 9877SOL    HW130530   6.444   4.850   3.991
 9877SOL    HW230531   6.387   5.003   4.007
 9878SOL     OW30532   3.082   3.208   6.061
 9878SOL    HW130533   3.097   3.278   6.131
 9878SOL    HW230534   3.098   3.118   6.100
 9879SOL     OW30535   5.072   5.222   5.706
 9879SOL    HW130536   5.022   5.276   5.638
 9879SOL    HW230537   5.017   5.216   5.790
 9880SOL     OW30538   3.349   1.028   1.039
 9880SOL    HW130539   3.398   0.989   0.960
 9880SOL    HW230540   3.412   1.081   1.095
 9881SOL     OW30541   0.056   1.570   4.940
 9881SOL    HW130542   0.026   1.488   4.892
 9881SOL    HW230543   0.041   1.559   5.038
 9882SOL     OW30544   2.367   3.878   5.605
 9882SOL    HW130545   2.404   3.819   5.534
 9882SOL    HW230546   2.387   3.974   5.582
 9883SOL     OW30547   1.252   6.504   0.986
 9883SOL    HW130548   1.326   6.565   0.956
 9883SOL    HW230549   1.171   6.520   0.929
 9884SOL     OW30550   4.363   1.418   0.669
 9884SOL    HW130551   4.396   1.501   0.714
 9884SOL    HW230552   4.399   1.338   0.717
 9885SOL     OW30553   0.197   3.371   4.685
 9885SOL    HW130554   0.158   3.349   4.596
 9885SOL    HW230555   0.294   3.392   4.675
 9886SOL     OW30556   0.899   5.738   1.108
 9886SOL    HW130557   0.994   5.716   1.085
 9886SOL    HW230558   0.863   5.670   1.172
 9887SOL     OW30559   4.270   6.771   6.851
 9887SOL    HW130560   4.289   6.793   6.946
 9887SOL    HW230561   4.177   6.800   6.827
 9888SOL     OW30562   5.417   5.136   3.218
 9888SOL    HW130563   5.370   5.224   3.212
 9888SOL    HW230564   5.510   5.146   3.182
 9889SOL     OW30565   6.658   4.101   1.451
 9889SOL    HW130566   6.602   4.183   1.437
 9889SOL    HW230567   6.600   4.020   1.442
 9890SOL     OW30568   0.485   2.130   1.181
 9890SOL    HW130569   0.518   2.048   1.135
 9890SOL    HW230570   0.562   2.187   1.208
 9891SOL     OW30571   6.189   3.669   1.275
 9891SOL    HW130572   6.188   3.580   1.319
 9891SOL    HW230573   6.108   3.721   1.302
 9892SOL     OW30574   1.576   5.378   3.232
 9892SOL    HW130575   1.522   5.454   3.269
 9892SOL    HW230576   1.516   5.298   3.222
 9893SOL     OW30577   6.761   0.229   2.050
 9893SOL    HW130578   6.800   0.236   2.142
 9893SOL    HW230579   6.672   0.274   2.048
 9894SOL     OW30580   2.762   2.127   6.058
 9894SOL    HW130581   2.770   2.227   6.060
 9894SOL    HW230582   2.696   2.097   6.127
 9895SOL     OW30583   5.449   3.089   5.767
 9895SOL    HW130584   5.394   3.168   5.739
 9895SOL    HW230585   5.403   3.005   5.739
 9896SOL     OW30586   5.067   1.603   0.378
 9896SOL    HW130587   5.057   1.591   0.279
 9896SOL    HW230588   5.164   1.603   0.402
 9897SOL     OW30589   5.135   6.831   2.663
 9897SOL    HW130590   5.158   6.736   2.640
 9897SOL    HW230591   5.039   6.848   2.642
 9898SOL     OW30592   0.481   4.729   5.662
 9898SOL    HW130593   0.521   4.659   5.721
 9898SOL    HW230594   0.530   4.816   5.675
 9899SOL     OW30595   0.390   5.324   2.611
 9899SOL    HW130596   0.385   5.348   2.514
 9899SOL    HW230597   0.354   5.399   2.666
 9900SOL     OW30598   2.130   3.190   2.794
 9900SOL    HW130599   2.158   3.205   2.699
 9900SOL    HW230600   2.075   3.268   2.826
 9901SOL     OW30601   2.530   1.077   0.207
 9901SOL    HW130602   2.543   0.980   0.225
 9901SOL    HW230603   2.478   1.119   0.281
 9902SOL     OW30604   4.518   3.818   1.158
 9902SOL    HW130605   4.523   3.918   1.155
 9902SOL    HW230606   4.457   3.785   1.086
 9903SOL     OW30607   5.381   0.621   1.524
 9903SOL    HW130608   5.394   0.606   1.426
 9903SOL    HW230609   5.469   0.618   1.571
 9904SOL     OW30610   0.486   3.798   6.125
 9904SOL    HW130611   0.546   3.780   6.047
 9904SOL    HW230612   0.391   3.782   6.099
 9905SOL     OW30613   1.552   0.373   6.422
 9905SOL    HW130614   1.537   0.442   6.493
 9905SOL    HW230615   1.500   0.396   6.340
 9906SOL     OW30616   2.225   3.863   0.149
 9906SOL    HW130617   2.151   3.871   0.216
 9906SOL    HW230618   2.197   3.904   0.062
 9907SOL     OW30619   1.520   1.075   2.679
 9907SOL    HW130620   1.466   1.030   2.750
 9907SOL    HW230621   1.611   1.035   2.675
 9908SOL     OW30622   1.079   3.377   5.840
 9908SOL    HW130623   1.167   3.330   5.845
 9908SOL    HW230624   1.093   3.473   5.816
 9909SOL     OW30625   3.814   1.007   2.792
 9909SOL    HW130626   3.747   0.977   2.724
 9909SOL    HW230627   3.803   0.954   2.876
 9910SOL     OW30628   1.258   5.179   1.498
 9910SOL    HW130629   1.244   5.171   1.400
 9910SOL    HW230630   1.251   5.088   1.540
 9911SOL     OW30631   4.080   5.593   2.189
 9911SOL    HW130632   4.011   5.628   2.125
 9911SOL    HW230633   4.148   5.665   2.207
 9912SOL     OW30634   4.489   1.202   1.655
 9912SOL    HW130635   4.549   1.251   1.718
 9912SOL    HW230636   4.441   1.268   1.597
 9913SOL     OW30637   6.317   2.996   1.136
 9913SOL    HW130638   6.403   3.034   1.171
 9913SOL    HW230639   6.329   2.899   1.116
 9914SOL     OW30640   0.110   6.687   4.924
 9914SOL    HW130641   0.149   6.689   4.832
 9914SOL    HW230642   0.067   6.775   4.944
 9915SOL     OW30643   5.588   2.590   3.964
 9915SOL    HW130644   5.629   2.642   3.889
 9915SOL    HW230645   5.565   2.652   4.039
 9916SOL     OW30646   1.992   2.186   3.342
 9916SOL    HW130647   1.911   2.209   3.289
 9916SOL    HW230648   2.002   2.250   3.418
 9917SOL     OW30649   3.549   3.477   4.685
 9917SOL    HW130650   3.635   3.427   4.689
 9917SOL    HW230651   3.530   3.518   4.774
 9918SOL     OW30652   1.113   2.643   1.839
 9918SOL    HW130653   1.016   2.647   1.814
 9918SOL    HW230654   1.168   2.669   1.759
 9919SOL     OW30655   2.441   5.864   1.979
 9919SOL    HW130656   2.407   5.898   2.067
 9919SOL    HW230657   2.423   5.932   1.908
 9920SOL     OW30658   4.101   6.964   2.721
 9920SOL    HW130659   4.088   0.040   2.741
 9920SOL    HW230660   4.134   6.953   2.627
 9921SOL     OW30661   4.665   0.051   4.652
 9921SOL    HW130662   4.613   0.018   4.730
 9921SOL    HW230663   4.758   0.015   4.656
 9922SOL     OW30664   4.866   4.533   1.044
 9922SOL    HW130665   4.952   4.485   1.025
 9922SOL    HW230666   4.813   4.539   0.959
 9923SOL     OW30667   6.472   3.135   0.401
 9923SOL    HW130668   6.440   3.117   0.308
 9923SOL    HW230669   6.554   3.081   0.419
 9924SOL     OW30670   4.547   1.819   3.333
 9924SOL    HW130671   4.598   1.892   3.286
 9924SOL    HW230672   4.462   1.801   3.284
 9925SOL     OW30673   1.525   4.848   3.459
 9925SOL    HW130674   1.556   4.935   3.497
 9925SOL    HW230675   1.571   4.773   3.505
 9926SOL     OW30676   3.531   2.677   0.664
 9926SOL    HW130677   3.584   2.670   0.580
 9926SOL    HW230678   3.568   2.749   0.721
 9927SOL     OW30679   0.825   1.458   1.195
 9927SOL    HW130680   0.808   1.440   1.292
 9927SOL    HW230681   0.894   1.530   1.186
 9928SOL     OW30682   5.272   3.784   3.021
 9928SOL    HW130683   5.236   3.821   2.935
 9928SOL    HW230684   5.197   3.758   3.081
 9929SOL     OW30685   3.039   3.915   4.682
 9929SOL    HW130686   2.942   3.931   4.665
 9929SOL    HW230687   3.051   3.883   4.776
 9930SOL     OW30688   0.994   0.527   6.275
 9930SOL    HW130689   1.085   0.555   6.244
 9930SOL    HW230690   0.992   0.428   6.289
 9931SOL     OW30691   6.711   5.589   3.847
 9931SOL    HW130692   6.729   5.492   3.833
 9931SOL    HW230693   6.650   5.623   3.775
 9932SOL     OW30694   2.343   2.060   6.162
 9932SOL    HW130695   2.270   2.126   6.177
 9932SOL    HW230696   2.305   1.968   6.156
 9933SOL     OW30697   1.878   0.992   4.233
 9933SOL    HW130698   1.886   0.922   4.305
 9933SOL    HW230699   1.897   0.950   4.144
 9934SOL     OW30700   6.295   1.922   0.068
 9934SOL    HW130701   6.222   1.899   0.003
 9934SOL    HW230702   6.258   1.980   0.140
 9935SOL     OW30703   3.413   0.820   0.883
 9935SOL    HW130704   3.399   0.819   0.784
 9935SOL    HW230705   3.345   0.762   0.927
 9936SOL     OW30706   6.857   5.136   0.650
 9936SOL    HW130707   6.845   5.059   0.713
 9936SOL    HW230708   6.773   5.151   0.598
 9937SOL     OW30709   1.305   1.244   2.578
 9937SOL    HW130710   1.270   1.202   2.662
 9937SOL    HW230711   1.404   1.235   2.575
 9938SOL     OW30712   5.879   6.219   4.356
 9938SOL    HW130713   5.818   6.241   4.280
 9938SOL    HW230714   5.854   6.273   4.436
 9939SOL     OW30715   2.724   2.894   0.764
 9939SOL    HW130716   2.642   2.940   0.731
 9939SOL    HW230717   2.705   2.851   0.853
 9940SOL     OW30718   1.177   0.322   2.510
 9940SOL    HW130719   1.198   0.308   2.607
 9940SOL    HW230720   1.080   0.343   2.499
 9941SOL     OW30721   2.721   5.487   5.500
 9941SOL    HW130722   2.708   5.479   5.598
 9941SOL    HW230723   2.640   5.527   5.458
 9942SOL     OW30724   4.613   5.655   2.228
 9942SOL    HW130725   4.590   5.736   2.174
 9942SOL    HW230726   4.570   5.574   2.188
 9943SOL     OW30727   0.994   4.217   6.705
 9943SOL    HW130728   1.036   4.224   6.796
 9943SOL    HW230729   1.065   4.203   6.637
 9944SOL     OW30730   0.529   4.794   6.274
 9944SOL    HW130731   0.455   4.840   6.226
 9944SOL    HW230732   0.594   4.756   6.207
 9945SOL     OW30733   5.452   4.173   6.634
 9945SOL    HW130734   5.486   4.178   6.728
 9945SOL    HW230735   5.519   4.124   6.577
 9946SOL     OW30736   6.100   0.196   3.226
 9946SOL    HW130737   6.077   0.156   3.315
 9946SOL    HW230738   6.089   0.127   3.154
 9947SOL     OW30739   3.274   1.948   4.511
 9947SOL    HW130740   3.224   1.862   4.525
 9947SOL    HW230741   3.365   1.928   4.476
 9948SOL     OW30742   6.900   5.526   4.976
 9948SOL    HW130743   6.811   5.536   5.020
 9948SOL    HW230744   6.939   5.617   4.961
 9949SOL     OW30745   0.225   5.134   3.368
 9949SOL    HW130746   0.312   5.161   3.327
 9949SOL    HW230747   0.226   5.036   3.388
 9950SOL     OW30748   0.223   5.898   6.730
 9950SOL    HW130749   0.174   5.974   6.688
 9950SOL    HW230750   0.181   5.812   6.701
 9951SOL     OW30751   1.803   2.420   3.467
 9951SOL    HW130752   1.717   2.400   3.419
 9951SOL    HW230753   1.788   2.410   3.566
 9952SOL     OW30754   1.350   3.741   0.780
 9952SOL    HW130755   1.380   3.708   0.690
 9952SOL    HW230756   1.425   3.734   0.845
 9953SOL     OW30757   5.853   2.757   4.087
 9953SOL    HW130758   5.808   2.835   4.043
 9953SOL    HW230759   5.901   2.704   4.018
 9954SOL     OW30760   0.963   0.260   4.467
 9954SOL    HW130761   0.973   0.254   4.566
 9954SOL    HW230762   1.049   0.290   4.427
 9955SOL     OW30763   3.556   3.238   6.669
 9955SOL    HW130764   3.590   3.262   6.759
 9955SOL    HW230765   3.543   3.139   6.663
 9956SOL     OW30766   0.678   3.652   2.892
 9956SOL    HW130767   0.748   3.711   2.931
 9956SOL    HW230768   0.619   3.706   2.832
 9957SOL     OW30769   6.108   0.200   2.653
 9957SOL    HW130770   6.137   0.221   2.747
 9957SOL    HW230771   6.128   0.104   2.633
 9958SOL     OW30772   2.768   6.045   6.545
 9958SOL    HW130773   2.737   6.009   6.633
 9958SOL    HW230774   2.761   5.974   6.475
 9959SOL     OW30775   4.129   3.647   3.108
 9959SOL    HW130776   4.205   3.711   3.094
 9959SOL    HW230777   4.132   3.576   3.038
 9960SOL     OW30778   0.553   6.332   2.139
 9960SOL    HW130779   0.620   6.352   2.211
 9960SOL    HW230780   0.601   6.297   2.059
 9961SOL     OW30781   1.711   5.068   3.228
 9961SOL    HW130782   1.613   5.054   3.244
 9961SOL    HW230783   1.754   5.102   3.311
 9962SOL     OW30784   4.378   0.511   2.207
 9962SOL    HW130785   4.404   0.473   2.296
 9962SOL    HW230786   4.280   0.533   2.208
 9963SOL     OW30787   2.513   2.602   5.731
 9963SOL    HW130788   2.517   2.598   5.631
 9963SOL    HW230789   2.547   2.516   5.769
 9964SOL     OW30790   4.296   5.161   6.101
 9964SOL    HW130791   4.279   5.085   6.164
 9964SOL    HW230792   4.208   5.198   6.070
 9965SOL     OW30793   3.621   4.939   5.122
 9965SOL    HW130794   3.560   4.925   5.044
 9965SOL    HW230795   3.648   5.035   5.127
 9966SOL     OW30796   2.109   5.333   1.872
 9966SOL    HW130797   2.202   5.297   1.877
 9966SOL    HW230798   2.064   5.321   1.960
 9967SOL     OW30799   4.899   5.401   2.034
 9967SOL    HW130800   4.896   5.472   2.105
 9967SOL    HW230801   4.953   5.434   1.957
 9968SOL     OW30802   3.161   5.627   6.585
 9968SOL    HW130803   3.162   5.714   6.634
 9968SOL    HW230804   3.188   5.554   6.648
 9969SOL     OW30805   1.226   3.106   3.935
 9969SOL    HW130806   1.159   3.063   3.995
 9969SOL    HW230807   1.211   3.205   3.936
 9970SOL     OW30808   6.771   4.297   2.150
 9970SOL    HW130809   6.700   4.228   2.133
 9970SOL    HW230810   6.784   4.351   2.067
 9971SOL     OW30811   2.358   4.490   0.467
 9971SOL    HW130812   2.432   4.554   0.488
 9971SOL    HW230813   2.299   4.530   0.397
 9972SOL     OW30814   3.720   4.367   0.809
 9972SOL    HW130815   3.708   4.268   0.818
 9972SOL    HW230816   3.630   4.411   0.808
 9973SOL     OW30817   4.078   1.624   4.851
 9973SOL    HW130818   4.139   1.551   4.823
 9973SOL    HW230819   4.073   1.693   4.779
 9974SOL     OW30820   6.598   4.045   3.151
 9974SOL    HW130821   6.594   4.118   3.082
 9974SOL    HW230822   6.694   4.019   3.165
 9975SOL     OW30823   6.911   4.542   6.747
 9975SOL    HW130824   6.937   4.602   6.823
 9975SOL    HW230825   6.815   4.557   6.724
 9976SOL     OW30826   6.581   5.049   5.655
 9976SOL    HW130827   6.498   5.004   5.624
 9976SOL    HW230828   6.587   5.140   5.614
 9977SOL     OW30829   6.662   4.824   6.016
 9977SOL    HW130830   6.591   4.890   5.988
 9977SOL    HW230831   6.660   4.814   6.115
 9978SOL     OW30832   6.216   1.210   4.428
 9978SOL    HW130833   6.141   1.250   4.375
 9978SOL    HW230834   6.179   1.144   4.493
 9979SOL     OW30835   6.912   4.485   6.220
 9979SOL    HW130836   6.816   4.476   6.248
 9979SOL    HW230837   6.971   4.465   6.298
 9980SOL     OW30838   1.578   0.655   6.990
 9980SOL    HW130839   1.598   0.614   6.901
 9980SOL    HW230840   1.623   0.744   6.996
 9981SOL     OW30841   2.289   2.120   0.794
 9981SOL    HW130842   2.217   2.188   0.798
 9981SOL    HW230843   2.361   2.142   0.859
 9982SOL     OW30844   1.221   1.640   3.278
 9982SOL    HW130845   1.181   1.587   3.352
 9982SOL    HW230846   1.171   1.621   3.193
 9983SOL     OW30847   1.226   1.110   1.532
 9983SOL    HW130848   1.157   1.081   1.466
 9983SOL    HW230849   1.311   1.131   1.484
 9984SOL     OW30850   0.541   0.234   0.812
 9984SOL    HW130851   0.483   0.315   0.811
 9984SOL    HW230852   0.562   0.207   0.718
 9985SOL     OW30853   3.585   0.190   1.138
 9985SOL    HW130854   3.668   0.228   1.179
 9985SOL    HW230855   3.562   0.104   1.183
 9986SOL     OW30856   4.764   4.194   6.586
 9986SOL    HW130857   4.728   4.127   6.651
 9986SOL    HW230858   4.799   4.146   6.505
 9987SOL     OW30859   5.798   2.163   2.336
 9987SOL    HW130860   5.769   2.099   2.407
 9987SOL    HW230861   5.878   2.126   2.289
 9988SOL     OW30862   6.897   5.235   4.789
 9988SOL    HW130863   6.975   5.172   4.784
 9988SOL    HW230864   6.818   5.188   4.828
 9989SOL     OW30865   5.667   3.472   3.008
 9989SOL    HW130866   5.569   3.490   3.002
 9989SOL    HW230867   5.682   3.376   3.034
 9990SOL     OW30868   2.395   6.830   3.260
 9990SOL    HW130869   2.317   6.822   3.323
 9990SOL    HW230870   2.406   6.744   3.211
 9991SOL     OW30871   1.169   3.106   5.015
 9991SOL    HW130872   1.223   3.187   4.992
 9991SOL    HW230873   1.093   3.097   4.951
 9992SOL     OW30874   4.054   3.392   0.508
 9992SOL    HW130875   4.040   3.391   0.409
 9992SOL    HW230876   4.134   3.336   0.531
 9993SOL     OW30877   3.992   6.328   2.645
 9993SOL    HW130878   3.995   6.235   2.609
 9993SOL    HW230879   3.927   6.332   2.721
 9994SOL     OW30880   6.534   4.089   4.082
 9994SOL    HW130881   6.611   4.025   4.077
 9994SOL    HW230882   6.517   4.113   4.178
 9995SOL     OW30883   3.202   0.103   3.215
 9995SOL    HW130884   3.293   0.104   3.256
 9995SOL    HW230885   3.208   0.071   3.121
 9996SOL     OW30886   2.963   2.703   0.988
 9996SOL    HW130887   2.875   2.733   1.025
 9996SOL    HW230888   2.964   2.719   0.889
 9997SOL     OW30889   4.522   1.690   0.993
 9997SOL    HW130890   4.522   1.784   0.959
 9997SOL    HW230891   4.609   1.670   1.037
 9998SOL     OW30892   5.815   3.608   2.787
 9998SOL    HW130893   5.778   3.581   2.876
 9998SOL    HW230894   5.760   3.565   2.715
 9999SOL     OW30895   6.684   5.532   4.813
 9999SOL    HW130896   6.658   5.567   4.902
 9999SOL    HW230897   6.755   5.462   4.824
10000SOL     OW30898   6.130   1.758   6.934
10000SOL    HW130899   6.129   1.817   6.853
10000SOL    HW230900   6.201   1.689   6.924
10001SOL     OW30901   5.219   0.381   1.675
10001SOL    HW130902   5.223   0.349   1.580
10001SOL    HW230903   5.153   0.456   1.682
10002SOL     OW30904   1.204   1.468   1.352
10002SOL    HW130905   1.186   1.383   1.302
10002SOL    HW230906   1.298   1.497   1.336
10003SOL     OW30907   3.852   2.161   2.993
10003SOL    HW130908   3.857   2.199   2.901
10003SOL    HW230909   3.876   2.064   2.992
10004SOL     OW30910   5.616   2.856   4.661
10004SOL    HW130911   5.608   2.955   4.657
10004SOL    HW230912   5.532   2.817   4.699
10005SOL     OW30913   4.415   5.470   3.169
10005SOL    HW130914   4.334   5.488   3.224
10005SOL    HW230915   4.422   5.372   3.151
10006SOL     OW30916   4.848   1.263   4.943
10006SOL    HW130917   4.803   1.351   4.962
10006SOL    HW230918   4.832   1.238   4.847
10007SOL     OW30919   1.030   4.063   5.109
10007SOL    HW130920   1.098   4.009   5.059
10007SOL    HW230921   1.063   4.157   5.118
10008SOL     OW30922   4.237   1.094   3.342
10008SOL    HW130923   4.315   1.154   3.360
10008SOL    HW230924   4.269   0.999   3.335
10009SOL     OW30925   1.589   3.876   2.340
10009SOL    HW130926   1.577   3.933   2.258
10009SOL    HW230927   1.586   3.780   2.313
10010SOL     OW30928   2.145   6.478   0.280
10010SOL    HW130929   2.068   6.450   0.338
10010SOL    HW230930   2.133   6.439   0.189
10011SOL     OW30931   0.935   3.256   6.142
10011SOL    HW130932   0.995   3.310   6.084
10011SOL    HW230933   0.870   3.205   6.085
10012SOL     OW30934   4.922   6.813   2.400
10012SOL    HW130935   4.902   6.772   2.312
10012SOL    HW230936   4.862   6.774   2.470
10013SOL     OW30937   2.128   2.107   4.872
10013SOL    HW130938   2.185   2.132   4.793
10013SOL    HW230939   2.121   2.185   4.934
10014SOL     OW30940   0.027   1.612   1.224
10014SOL    HW130941   0.124   1.586   1.225
10014SOL    HW230942   0.005   1.652   1.135
10015SOL     OW30943   3.478   4.496   0.778
10015SOL    HW130944   3.519   4.577   0.820
10015SOL    HW230945   3.443   4.518   0.687
10016SOL     OW30946   2.106   6.745   4.969
10016SOL    HW130947   2.026   6.688   4.950
10016SOL    HW230948   2.135   6.732   5.064
10017SOL     OW30949   2.174   1.746   2.525
10017SOL    HW130950   2.137   1.763   2.616
10017SOL    HW230951   2.255   1.804   2.511
10018SOL     OW30952   5.855   5.327   6.046
10018SOL    HW130953   5.944   5.281   6.049
10018SOL    HW230954   5.857   5.408   6.104
10019SOL     OW30955   0.712   2.256   3.294
10019SOL    HW130956   0.778   2.307   3.349
10019SOL    HW230957   0.639   2.221   3.354
10020SOL     OW30958   0.389   1.321   0.936
10020SOL    HW130959   0.301   1.358   0.906
10020SOL    HW230960   0.375   1.233   0.981
10021SOL     OW30961   1.176   2.610   2.110
10021SOL    HW130962   1.120   2.588   2.190
10021SOL    HW230963   1.117   2.639   2.035
10022SOL     OW30964   3.803   6.927   1.008
10022SOL    HW130965   3.886   6.982   1.023
10022SOL    HW230966   3.748   6.927   1.091
10023SOL     OW30967   1.953   5.696   5.551
10023SOL    HW130968   1.945   5.598   5.532
10023SOL    HW230969   1.934   5.712   5.648
10024SOL     OW30970   2.162   6.452   1.813
10024SOL    HW130971   2.091   6.523   1.812
10024SOL    HW230972   2.248   6.491   1.845
10025SOL     OW30973   1.323   1.726   1.268
10025SOL    HW130974   1.300   1.811   1.316
10025SOL    HW230975   1.275   1.724   1.180
10026SOL     OW30976   4.191   6.115   3.617
10026SOL    HW130977   4.193   6.161   3.706
10026SOL    HW230978   4.099   6.119   3.579
10027SOL     OW30979   0.964   5.127   5.008
10027SOL    HW130980   0.996   5.131   4.913
10027SOL    HW230981   0.990   5.039   5.047
10028SOL     OW30982   1.326   2.130   1.884
10028SOL    HW130983   1.306   2.036   1.857
10028SOL    HW230984   1.339   2.186   1.802
10029SOL     OW30985   2.869   1.913   4.074
10029SOL    HW130986   2.956   1.942   4.033
10029SOL    HW230987   2.794   1.934   4.012
10030SOL     OW30988   2.443   6.904   4.476
10030SOL    HW130989   2.482   6.813   4.484
10030SOL    HW230990   2.407   6.917   4.383
10031SOL     OW30991   5.873   4.593   3.821
10031SOL    HW130992   5.968   4.611   3.846
10031SOL    HW230993   5.866   4.580   3.722
10032SOL     OW30994   3.741   0.759   5.257
10032SOL    HW130995   3.699   0.838   5.301
10032SOL    HW230996   3.747   0.775   5.159
10033SOL     OW30997   4.782   2.402   3.991
10033SOL    HW130998   4.856   2.445   4.042
10033SOL    HW230999   4.811   2.387   3.896
10034SOL     OW31000   3.800   0.148   3.938
10034SOL    HW131001   3.879   0.204   3.963
10034SOL    HW231002   3.831   0.055   3.917
10035SOL     OW31003   0.427   4.345   2.272
10035SOL    HW131004   0.416   4.441   2.248
10035SOL    HW231005   0.350   4.292   2.234
10036SOL     OW31006   5.768   1.238   1.298
10036SOL    HW131007   5.728   1.246   1.389
10036SOL    HW231008   5.831   1.314   1.282
10037SOL     OW31009   6.404   1.582   1.013
10037SOL    HW131010   6.473   1.653   1.011
10037SOL    HW231011   6.334   1.605   1.081
10038SOL     OW31012   4.110   1.140   6.867
10038SOL    HW131013   4.066   1.102   6.786
10038SOL    HW231014   4.046   1.201   6.914
10039SOL     OW31015   3.718   0.519   4.639
10039SOL    HW131016   3.692   0.593   4.702
10039SOL    HW231017   3.750   0.440   4.692
10040SOL     OW31018   4.160   5.658   6.050
10040SOL    HW131019   4.190   5.608   6.132
10040SOL    HW231020   4.219   5.634   5.973
10041SOL     OW31021   4.235   6.044   6.510
10041SOL    HW131022   4.307   5.976   6.525
10041SOL    HW231023   4.267   6.133   6.542
10042SOL     OW31024   0.935   1.722   4.086
10042SOL    HW131025   0.855   1.693   4.032
10042SOL    HW231026   0.947   1.661   4.164
10043SOL     OW31027   6.178   1.826   4.926
10043SOL    HW131028   6.227   1.895   4.872
10043SOL    HW231029   6.198   1.839   5.023
10044SOL     OW31030   3.498   1.183   4.844
10044SOL    HW131031   3.457   1.259   4.894
10044SOL    HW231032   3.552   1.217   4.768
10045SOL     OW31033   4.493   6.991   3.883
10045SOL    HW131034   4.494   0.002   3.978
10045SOL    HW231035   4.524   6.896   3.880
10046SOL     OW31036   2.293   3.763   1.399
10046SOL    HW131037   2.196   3.788   1.396
10046SOL    HW231038   2.317   3.734   1.492
10047SOL     OW31039   6.623   3.897   5.390
10047SOL    HW131040   6.688   3.866   5.320
10047SOL    HW231041   6.530   3.893   5.352
10048SOL     OW31042   6.551   0.639   2.888
10048SOL    HW131043   6.529   0.632   2.791
10048SOL    HW231044   6.480   0.593   2.942
10049SOL     OW31045   0.585   0.581   6.598
10049SOL    HW131046   0.545   0.541   6.681
10049SOL    HW231047   0.682   0.599   6.613
10050SOL     OW31048   5.262   3.624   5.387
10050SOL    HW131049   5.354   3.662   5.396
10050SOL    HW231050   5.258   3.567   5.304
10051SOL     OW31051   5.695   3.095   5.619
10051SOL    HW131052   5.665   3.159   5.549
10051SOL    HW231053   5.648   3.114   5.706
10052SOL     OW31054   1.982   1.919   2.958
10052SOL    HW131055   2.047   1.975   3.010
10052SOL    HW231056   1.904   1.895   3.016
10053SOL     OW31057   4.360   5.389   2.880
10053SOL    HW131058   4.269   5.361   2.910
10053SOL    HW231059   4.423   5.385   2.957
10054SOL     OW31060   5.462   5.821   6.411
10054SOL    HW131061   5.426   5.793   6.500
10054SOL    HW231062   5.560   5.839   6.419
10055SOL     OW31063   5.570   1.834   5.107
10055SOL    HW131064   5.474   1.823   5.134
10055SOL    HW231065   5.576   1.841   5.008
10056SOL     OW31066   5.503   4.208   3.344
10056SOL    HW131067   5.533   4.254   3.428
10056SOL    HW231068   5.505   4.272   3.268
10057SOL     OW31069   4.201   2.163   5.701
10057SOL    HW131070   4.211   2.072   5.662
10057SOL    HW231071   4.176   2.155   5.798
10058SOL     OW31072   0.041   3.616   5.387
10058SOL    HW131073   0.037   3.709   5.423
10058SOL    HW231074   6.969   3.581   5.374
10059SOL     OW31075   6.799   0.593   0.771
10059SOL    HW131076   6.852   0.659   0.823
10059SOL    HW231077   6.861   0.532   0.721
10060SOL     OW31078   1.803   2.552   1.853
10060SOL    HW131079   1.747   2.611   1.911
10060SOL    HW231080   1.766   2.551   1.760
10061SOL     OW31081   4.402   0.806   4.013
10061SOL    HW131082   4.374   0.895   3.976
10061SOL    HW231083   4.455   0.757   3.944
10062SOL     OW31084   6.156   0.486   4.170
10062SOL    HW131085   6.195   0.526   4.087
10062SOL    HW231086   6.104   0.404   4.146
10063SOL     OW31087   2.434   1.004   4.013
10063SOL    HW131088   2.509   0.937   4.013
10063SOL    HW231089   2.469   1.093   3.983
10064SOL     OW31090   5.032   0.018   6.927
10064SOL    HW131091   4.943   6.994   6.914
10064SOL    HW231092   5.020   0.100   6.983
10065SOL     OW31093   3.617   0.201   2.443
10065SOL    HW131094   3.639   0.103   2.436
10065SOL    HW231095   3.702   0.254   2.433
10066SOL     OW31096   0.231   2.672   4.244
10066SOL    HW131097   0.229   2.731   4.163
10066SOL    HW231098   0.185   2.586   4.223
10067SOL     OW31099   0.278   4.251   5.187
10067SOL    HW131100   0.339   4.197   5.246
10067SOL    HW231101   0.326   4.332   5.156
10068SOL     OW31102   0.264   3.629   3.429
10068SOL    HW131103   0.212   3.547   3.454
10068SOL    HW231104   0.202   3.701   3.399
10069SOL     OW31105   2.665   5.360   2.404
10069SOL    HW131106   2.686   5.434   2.467
10069SOL    HW231107   2.709   5.377   2.316
10070SOL     OW31108   0.149   6.272   5.203
10070SOL    HW131109   0.099   6.230   5.279
10070SOL    HW231110   0.230   6.218   5.183
10071SOL     OW31111   6.570   5.801   4.923
10071SOL    HW131112   6.654   5.834   4.966
10071SOL    HW231113   6.500   5.872   4.927
10072SOL     OW31114   6.333   6.292   4.490
10072SOL    HW131115   6.335   6.229   4.412
10072SOL    HW231116   6.426   6.321   4.512
10073SOL     OW31117   6.176   5.177   4.666
10073SOL    HW131118   6.206   5.088   4.700
10073SOL    HW231119   6.189   5.180   4.566
10074SOL     OW31120   1.687   0.096   5.097
10074SOL    HW131121   1.704   0.092   5.195
10074SOL    HW231122   1.702   0.006   5.056
10075SOL     OW31123   1.463   2.733   2.495
10075SOL    HW131124   1.417   2.702   2.578
10075SOL    HW231125   1.413   2.810   2.456
10076SOL     OW31126   6.205   6.246   3.759
10076SOL    HW131127   6.147   6.180   3.807
10076SOL    HW231128   6.288   6.200   3.727
10077SOL     OW31129   4.270   3.095   6.797
10077SOL    HW131130   4.247   3.178   6.849
10077SOL    HW231131   4.365   3.070   6.814
10078SOL     OW31132   0.268   5.836   3.371
10078SOL    HW131133   0.343   5.899   3.393
10078SOL    HW231134   0.180   5.883   3.384
10079SOL     OW31135   5.483   3.029   3.795
10079SOL    HW131136   5.412   2.978   3.844
10079SOL    HW231137   5.468   3.127   3.808
10080SOL     OW31138   4.238   0.391   5.562
10080SOL    HW131139   4.151   0.395   5.514
10080SOL    HW231140   4.313   0.400   5.496
10081SOL     OW31141   6.848   1.112   0.362
10081SOL    HW131142   6.817   1.018   0.376
10081SOL    HW231143   6.781   1.176   0.400
10082SOL     OW31144   6.727   5.250   1.673
10082SOL    HW131145   6.719   5.227   1.770
10082SOL    HW231146   6.785   5.182   1.627
10083SOL     OW31147   4.025   0.335   3.376
10083SOL    HW131148   4.030   0.273   3.453
10083SOL    HW231149   4.038   0.284   3.291
10084SOL     OW31150   2.073   0.731   6.316
10084SOL    HW131151   2.153   0.689   6.272
10084SOL    HW231152   1.992   0.676   6.296
10085SOL     OW31153   2.786   5.877   0.842
10085SOL    HW131154   2.715   5.817   0.807
10085SOL    HW231155   2.871   5.825   0.852
10086SOL     OW31156   4.960   6.231   1.982
10086SOL    HW131157   4.866   6.250   2.010
10086SOL    HW231158   5.017   6.218   2.063
10087SOL     OW31159   6.614   6.203   4.101
10087SOL    HW131160   6.672   6.124   4.086
10087SOL    HW231161   6.518   6.174   4.108
10088SOL     OW31162   6.590   0.326   2.370
10088SOL    HW131163   6.655   0.297   2.299
10088SOL    HW231164   6.640   0.343   2.455
10089SOL     OW31165   2.754   1.783   3.276
10089SOL    HW131166   2.659   1.767   3.299
10089SOL    HW231167   2.800   1.695   3.261
10090SOL     OW31168   0.608   4.920   1.773
10090SOL    HW131169   0.602   4.906   1.872
10090SOL    HW231170   0.557   5.002   1.747
10091SOL     OW31171   6.996   5.088   6.512
10091SOL    HW131172   7.006   5.050   6.420
10091SOL    HW231173   6.932   5.164   6.510
10092SOL     OW31174   2.548   2.929   5.570
10092SOL    HW131175   2.492   2.847   5.559
10092SOL    HW231176   2.583   2.933   5.663
10093SOL     OW31177   4.979   3.122   5.692
10093SOL    HW131178   4.966   3.206   5.639
10093SOL    HW231179   5.031   3.144   5.775
10094SOL     OW31180   3.484   5.538   1.210
10094SOL    HW131181   3.442   5.587   1.134
10094SOL    HW231182   3.420   5.472   1.248
10095SOL     OW31183   5.561   1.712   4.062
10095SOL    HW131184   5.640   1.674   4.109
10095SOL    HW231185   5.495   1.639   4.042
10096SOL     OW31186   3.944   5.658   3.279
10096SOL    HW131187   3.907   5.715   3.353
10096SOL    HW231188   3.878   5.653   3.205
10097SOL     OW31189   1.259   2.157   6.941
10097SOL    HW131190   1.359   2.152   6.930
10097SOL    HW231191   1.235   2.132   0.014
10098SOL     OW31192   3.255   0.440   5.220
10098SOL    HW131193   3.244   0.423   5.318
10098SOL    HW231194   3.205   0.370   5.168
10099SOL     OW31195   1.044   5.012   1.317
10099SOL    HW131196   1.061   5.008   1.219
10099SOL    HW231197   1.087   4.933   1.362
10100SOL     OW31198   4.628   5.977   5.850
10100SOL    HW131199   4.535   5.944   5.834
10100SOL    HW231200   4.633   6.025   5.937
10101SOL     OW31201   6.476   3.127   1.765
10101SOL    HW131202   6.460   3.138   1.667
10101SOL    HW231203   6.397   3.163   1.816
10102SOL     OW31204   0.049   0.836   2.161
10102SOL    HW131205   0.050   0.936   2.172
10102SOL    HW231206   7.020   0.795   2.237
10103SOL     OW31207   3.085   0.126   5.573
10103SOL    HW131208   2.988   0.109   5.559
10103SOL    HW231209   3.113   0.092   5.663
10104SOL     OW31210   1.012   2.200   5.003
10104SOL    HW131211   0.988   2.296   4.991
10104SOL    HW231212   0.954   2.160   5.075
10105SOL     OW31213   1.824   0.883   6.757
10105SOL    HW131214   1.801   0.816   6.687
10105SOL    HW231215   1.923   0.899   6.758
10106SOL     OW31216   4.030   6.563   0.896
10106SOL    HW131217   4.105   6.499   0.915
10106SOL    HW231218   4.012   6.566   0.798
10107SOL     OW31219   4.873   1.500   5.089
10107SOL    HW131220   4.960   1.457   5.112
10107SOL    HW231221   4.817   1.510   5.171
10108SOL     OW31222   0.238   0.940   0.507
10108SOL    HW131223   0.333   0.972   0.504
10108SOL    HW231224   0.177   1.014   0.478
10109SOL     OW31225   6.611   1.280   0.167
10109SOL    HW131226   6.681   1.215   0.196
10109SOL    HW231227   6.556   1.307   0.246
10110SOL     OW31228   5.140   4.883   4.274
10110SOL    HW131229   5.138   4.819   4.351
10110SOL    HW231230   5.075   4.957   4.290
10111SOL     OW31231   5.882   3.511   4.036
10111SOL    HW131232   5.971   3.472   4.013
10111SOL    HW231233   5.877   3.529   4.134
10112SOL     OW31234   5.918   3.780   3.691
10112SOL    HW131235   5.849   3.734   3.748
10112SOL    HW231236   5.884   3.786   3.597
10113SOL     OW31237   4.077   0.084   6.813
10113SOL    HW131238   4.060   7.021   6.864
10113SOL    HW231239   4.045   0.162   6.867
10114SOL     OW31240   4.134   2.192   2.338
10114SOL    HW131241   4.214   2.217   2.283
10114SOL    HW231242   4.073   2.134   2.284
10115SOL     OW31243   3.982   1.255   5.525
10115SOL    HW131244   3.949   1.349   5.515
10115SOL    HW231245   4.060   1.253   5.588
10116SOL     OW31246   1.221   0.858   0.260
10116SOL    HW131247   1.285   0.782   0.251
10116SOL    HW231248   1.227   0.917   0.179
10117SOL     OW31249   6.892   6.314   6.238
10117SOL    HW131250   6.969   6.374   6.259
10117SOL    HW231251   6.866   6.265   6.321
10118SOL     OW31252   1.789   4.437   3.266
10118SOL    HW131253   1.756   4.349   3.300
10118SOL    HW231254   1.723   4.475   3.201
10119SOL     OW31255   6.642   5.108   4.832
10119SOL    HW131256   6.608   5.040   4.766
10119SOL    HW231257   6.566   5.145   4.884
10120SOL     OW31258   2.155   3.125   4.460
10120SOL    HW131259   2.171   3.096   4.554
10120SOL    HW231260   2.142   3.224   4.456
10121SOL     OW31261   5.755   4.528   6.841
10121SOL    HW131262   5.662   4.541   6.875
10121SOL    HW231263   5.752   4.474   6.756
10122SOL     OW31264   5.338   3.114   3.187
10122SOL    HW131265   5.417   3.054   3.192
10122SOL    HW231266   5.255   3.062   3.209
10123SOL     OW31267   5.538   5.807   0.501
10123SOL    HW131268   5.458   5.749   0.488
10123SOL    HW231269   5.553   5.862   0.420
10124SOL     OW31270   1.579   5.179   0.614
10124SOL    HW131271   1.648   5.132   0.668
10124SOL    HW231272   1.611   5.190   0.519
10125SOL     OW31273   2.185   1.762   1.080
10125SOL    HW131274   2.170   1.775   0.982
10125SOL    HW231275   2.175   1.665   1.103
10126SOL     OW31276   0.082   6.924   0.186
10126SOL    HW131277   0.001   6.968   0.225
10126SOL    HW231278   0.133   6.990   0.130
10127SOL     OW31279   2.428   4.200   0.462
10127SOL    HW131280   2.470   4.173   0.376
10127SOL    HW231281   2.441   4.298   0.477
10128SOL     OW31282   3.190   0.846   6.364
10128SOL    HW131283   3.126   0.788   6.314
10128SOL    HW231284   3.264   0.790   6.401
10129SOL     OW31285   6.471   1.667   3.146
10129SOL    HW131286   6.518   1.659   3.234
10129SOL    HW231287   6.380   1.626   3.153
10130SOL     OW31288   1.496   3.582   1.234
10130SOL    HW131289   1.440   3.637   1.296
10130SOL    HW231290   1.437   3.524   1.178
10131SOL     OW31291   1.681   6.916   3.914
10131SOL    HW131292   1.642   6.936   4.004
10131SOL    HW231293   1.635   6.836   3.875
10132SOL     OW31294   2.584   0.230   3.297
10132SOL    HW131295   2.618   0.147   3.252
10132SOL    HW231296   2.633   0.245   3.382
10133SOL     OW31297   4.858   6.207   0.753
10133SOL    HW131298   4.838   6.279   0.819
10133SOL    HW231299   4.956   6.187   0.755
10134SOL     OW31300   6.279   1.032   2.739
10134SOL    HW131301   6.246   0.998   2.651
10134SOL    HW231302   6.260   1.130   2.746
10135SOL     OW31303   4.978   2.720   3.934
10135SOL    HW131304   4.999   2.640   3.989
10135SOL    HW231305   4.961   2.798   3.993
10136SOL     OW31306   5.023   1.654   2.201
10136SOL    HW131307   5.075   1.647   2.286
10136SOL    HW231308   4.962   1.733   2.205
10137SOL     OW31309   0.300   4.031   4.572
10137SOL    HW131310   0.327   4.021   4.668
10137SOL    HW231311   0.223   3.971   4.554
10138SOL     OW31312   5.257   3.780   0.532
10138SOL    HW131313   5.351   3.751   0.549
10138SOL    HW231314   5.209   3.709   0.481
10139SOL     OW31315   3.154   3.154   3.935
10139SOL    HW131316   3.111   3.234   3.975
10139SOL    HW231317   3.121   3.141   3.842
10140SOL     OW31318   0.018   6.137   6.904
10140SOL    HW131319   6.979   6.108   6.830
10140SOL    HW231320   0.072   6.216   6.874
10141SOL     OW31321   4.340   1.039   5.514
10141SOL    HW131322   4.388   0.968   5.566
10141SOL    HW231323   4.290   0.998   5.438
10142SOL     OW31324   6.147   6.539   5.878
10142SOL    HW131325   6.133   6.575   5.786
10142SOL    HW231326   6.141   6.614   5.944
10143SOL     OW31327   5.648   1.751   0.867
10143SOL    HW131328   5.633   1.769   0.770
10143SOL    HW231329   5.660   1.653   0.882
10144SOL     OW31330   3.838   0.063   6.404
10144SOL    HW131331   3.744   0.029   6.409
10144SOL    HW231332   3.865   0.075   6.309
10145SOL     OW31333   3.365   5.535   2.691
10145SOL    HW131334   3.355   5.515   2.594
10145SOL    HW231335   3.276   5.557   2.730
10146SOL     OW31336   5.525   4.529   4.745
10146SOL    HW131337   5.461   4.551   4.819
10146SOL    HW231338   5.607   4.585   4.754
10147SOL     OW31339   4.859   3.734   6.479
10147SOL    HW131340   4.882   3.798   6.552
10147SOL    HW231341   4.933   3.731   6.412
10148SOL     OW31342   5.570   5.044   6.707
10148SOL    HW131343   5.580   4.944   6.709
10148SOL    HW231344   5.480   5.068   6.673
10149SOL     OW31345   5.570   3.575   1.406
10149SOL    HW131346   5.503   3.636   1.364
10149SOL    HW231347   5.559   3.575   1.506
10150SOL     OW31348   3.739   2.884   1.568
10150SOL    HW131349   3.728   2.952   1.496
10150SOL    HW231350   3.692   2.915   1.651
10151SOL     OW31351   0.865   6.538   6.878
10151SOL    HW131352   0.925   6.470   6.920
10151SOL    HW231353   0.916   6.588   6.808
10152SOL     OW31354   0.123   6.445   3.833
10152SOL    HW131355   0.169   6.402   3.911
10152SOL    HW231356   0.189   6.459   3.759
10153SOL     OW31357   4.448   6.083   3.544
10153SOL    HW131358   4.491   6.162   3.501
10153SOL    HW231359   4.351   6.103   3.562
10154SOL     OW31360   3.739   6.319   4.650
10154SOL    HW131361   3.836   6.294   4.655
10154SOL    HW231362   3.687   6.262   4.713
10155SOL     OW31363   4.868   2.179   6.711
10155SOL    HW131364   4.825   2.130   6.636
10155SOL    HW231365   4.967   2.165   6.708
10156SOL     OW31366   5.886   0.490   1.975
10156SOL    HW131367   5.793   0.524   1.989
10156SOL    HW231368   5.939   0.502   2.060
10157SOL     OW31369   0.265   2.263   0.620
10157SOL    HW131370   0.239   2.357   0.642
10157SOL    HW231371   0.365   2.257   0.617
10158SOL     OW31372   6.638   6.201   0.783
10158SOL    HW131373   6.618   6.206   0.881
10158SOL    HW231374   6.560   6.237   0.731
10159SOL     OW31375   3.454   2.423   1.701
10159SOL    HW131376   3.514   2.391   1.775
10159SOL    HW231377   3.360   2.427   1.734
10160SOL     OW31378   1.263   3.097   3.188
10160SOL    HW131379   1.227   3.173   3.242
10160SOL    HW231380   1.302   3.028   3.248
10161SOL     OW31381   3.206   4.307   0.283
10161SOL    HW131382   3.245   4.224   0.244
10161SOL    HW231383   3.158   4.285   0.368
10162SOL     OW31384   3.094   5.182   0.535
10162SOL    HW131385   3.159   5.225   0.598
10162SOL    HW231386   3.005   5.173   0.581
10163SOL     OW31387   0.238   3.799   0.063
10163SOL    HW131388   0.233   3.701   0.077
10163SOL    HW231389   0.183   3.846   0.133
10164SOL     OW31390   6.166   3.973   5.129
10164SOL    HW131391   6.199   3.963   5.036
10164SOL    HW231392   6.142   4.069   5.145
10165SOL     OW31393   6.817   2.099   3.381
10165SOL    HW131394   6.723   2.076   3.407
10165SOL    HW231395   6.852   2.030   3.318
10166SOL     OW31396   2.591   1.670   1.608
10166SOL    HW131397   2.687   1.690   1.590
10166SOL    HW231398   2.535   1.748   1.581
10167SOL     OW31399   0.618   5.259   0.420
10167SOL    HW131400   0.665   5.227   0.502
10167SOL    HW231401   0.549   5.327   0.446
10168SOL     OW31402   6.670   2.107   6.056
10168SOL    HW131403   6.571   2.110   6.046
10168SOL    HW231404   6.712   2.085   5.968
10169SOL     OW31405   0.314   4.268   3.852
10169SOL    HW131406   0.241   4.247   3.916
10169SOL    HW231407   0.397   4.217   3.877
10170SOL     OW31408   6.703   5.277   6.173
10170SOL    HW131409   6.756   5.343   6.226
10170SOL    HW231410   6.763   5.229   6.109
10171SOL     OW31411   0.733   2.961   5.189
10171SOL    HW131412   0.800   2.942   5.260
10171SOL    HW231413   0.742   2.894   5.115
10172SOL     OW31414   0.922   6.045   4.173
10172SOL    HW131415   0.969   6.009   4.254
10172SOL    HW231416   0.878   6.132   4.195
10173SOL     OW31417   1.597   2.701   0.769
10173SOL    HW131418   1.661   2.659   0.833
10173SOL    HW231419   1.575   2.635   0.697
10174SOL     OW31420   5.134   4.794   3.513
10174SOL    HW131421   5.209   4.729   3.523
10174SOL    HW231422   5.159   4.863   3.445
10175SOL     OW31423   5.000   2.542   3.178
10175SOL    HW131424   4.993   2.513   3.082
10175SOL    HW231425   4.969   2.469   3.238
10176SOL     OW31426   6.910   3.218   5.433
10176SOL    HW131427   6.869   3.232   5.523
10176SOL    HW231428   7.001   3.258   5.430
10177SOL     OW31429   1.772   1.031   0.625
10177SOL    HW131430   1.750   1.038   0.528
10177SOL    HW231431   1.735   0.945   0.662
10178SOL     OW31432   0.615   0.909   6.996
10178SOL    HW131433   0.689   0.867   0.028
10178SOL    HW231434   0.590   0.847   6.921
10179SOL     OW31435   0.327   2.880   6.714
10179SOL    HW131436   0.400   2.831   6.666
10179SOL    HW231437   0.287   2.821   6.784
10180SOL     OW31438   4.582   0.605   0.002
10180SOL    HW131439   4.559   0.534   6.955
10180SOL    HW231440   4.502   0.622   0.060
10181SOL     OW31441   0.184   2.540   1.272
10181SOL    HW131442   0.240   2.585   1.343
10181SOL    HW231443   0.191   2.441   1.282
10182SOL     OW31444   5.086   0.598   0.249
10182SOL    HW131445   5.138   0.635   0.326
10182SOL    HW231446   4.988   0.608   0.267
10183SOL     OW31447   5.962   2.422   5.713
10183SOL    HW131448   6.012   2.469   5.787
10183SOL    HW231449   5.895   2.484   5.673
10184SOL     OW31450   4.504   2.048   6.367
10184SOL    HW131451   4.554   2.097   6.295
10184SOL    HW231452   4.442   2.110   6.413
10185SOL     OW31453   6.134   6.403   1.928
10185SOL    HW131454   6.147   6.501   1.946
10185SOL    HW231455   6.154   6.351   2.011
10186SOL     OW31456   5.371   4.279   4.171
10186SOL    HW131457   5.430   4.320   4.101
10186SOL    HW231458   5.311   4.349   4.210
10187SOL     OW31459   0.827   4.243   6.446
10187SOL    HW131460   0.881   4.252   6.530
10187SOL    HW231461   0.878   4.281   6.369
10188SOL     OW31462   3.306   5.090   0.230
10188SOL    HW131463   3.316   5.189   0.237
10188SOL    HW231464   3.213   5.063   0.255
10189SOL     OW31465   0.582   0.776   6.374
10189SOL    HW131466   0.505   0.781   6.311
10189SOL    HW231467   0.549   0.786   6.468
10190SOL     OW31468   3.913   2.727   1.448
10190SOL    HW131469   3.848   2.788   1.493
10190SOL    HW231470   4.004   2.771   1.448
10191SOL     OW31471   4.828   5.002   6.539
10191SOL    HW131472   4.750   5.058   6.512
10191SOL    HW231473   4.834   5.000   6.639
10192SOL     OW31474   3.980   1.168   5.066
10192SOL    HW131475   3.958   1.181   4.970
10192SOL    HW231476   3.944   1.244   5.120
10193SOL     OW31477   3.196   3.524   2.758
10193SOL    HW131478   3.278   3.486   2.801
10193SOL    HW231479   3.128   3.544   2.829
10194SOL     OW31480   5.024   0.474   4.694
10194SOL    HW131481   4.979   0.444   4.778
10194SOL    HW231482   4.956   0.513   4.632
10195SOL     OW31483   6.796   6.794   0.131
10195SOL    HW131484   6.815   6.888   0.157
10195SOL    HW231485   6.854   6.732   0.184
10196SOL     OW31486   4.227   1.640   3.964
10196SOL    HW131487   4.166   1.661   4.041
10196SOL    HW231488   4.321   1.639   3.995
10197SOL     OW31489   5.116   2.210   4.028
10197SOL    HW131490   5.215   2.199   4.025
10197SOL    HW231491   5.085   2.256   3.944
10198SOL     OW31492   3.737   6.780   1.733
10198SOL    HW131493   3.748   6.707   1.666
10198SOL    HW231494   3.683   6.747   1.811
10199SOL     OW31495   0.774   1.942   0.387
10199SOL    HW131496   0.843   1.874   0.360
10199SOL    HW231497   0.816   2.032   0.393
10200SOL     OW31498   5.004   3.039   5.432
10200SOL    HW131499   4.981   3.066   5.525
10200SOL    HW231500   4.970   3.108   5.368
10201SOL     OW31501   1.137   6.474   0.450
10201SOL    HW131502   1.204   6.432   0.511
10201SOL    HW231503   1.153   6.441   0.357
10202SOL     OW31504   2.166   4.537   6.954
10202SOL    HW131505   2.226   4.571   6.881
10202SOL    HW231506   2.072   4.565   6.935
10203SOL     OW31507   0.066   2.527   2.250
10203SOL    HW131508   0.030   2.579   2.173
10203SOL    HW231509   0.076   2.431   2.224
10204SOL     OW31510   3.888   5.654   6.678
10204SOL    HW131511   3.937   5.599   6.610
10204SOL    HW231512   3.791   5.629   6.676
10205SOL     OW31513   3.232   1.183   2.655
10205SOL    HW131514   3.290   1.259   2.683
10205SOL    HW231515   3.137   1.214   2.648
10206SOL     OW31516   6.641   6.557   6.410
10206SOL    HW131517   6.578   6.542   6.334
10206SOL    HW231518   6.599   6.619   6.476
10207SOL     OW31519   2.016   1.927   6.834
10207SOL    HW131520   1.959   1.987   6.776
10207SOL    HW231521   1.990   1.832   6.819
10208SOL     OW31522   6.615   5.036   3.231
10208SOL    HW131523   6.633   5.107   3.163
10208SOL    HW231524   6.697   4.980   3.243
10209SOL     OW31525   0.098   0.031   6.393
10209SOL    HW131526   0.047   0.109   6.357
10209SOL    HW231527   0.183   0.064   6.435
10210SOL     OW31528   5.262   6.198   0.975
10210SOL    HW131529   5.234   6.271   0.913
10210SOL    HW231530   5.361   6.185   0.968
10211SOL     OW31531   4.026   6.312   4.995
10211SOL    HW131532   3.987   6.238   4.942
10211SOL    HW231533   4.110   6.281   5.041
10212SOL     OW31534   6.747   6.986   5.144
10212SOL    HW131535   6.761   0.055   5.103
10212SOL    HW231536   6.650   6.974   5.166
10213SOL     OW31537   5.426   3.009   2.658
10213SOL    HW131538   5.462   2.981   2.569
10213SOL    HW231539   5.382   3.098   2.650
10214SOL     OW31540   0.840   1.552   1.921
10214SOL    HW131541   0.764   1.618   1.929
10214SOL    HW231542   0.822   1.489   1.846
10215SOL     OW31543   3.092   3.143   3.644
10215SOL    HW131544   3.052   3.233   3.625
10215SOL    HW231545   3.155   3.119   3.571
10216SOL     OW31546   0.744   0.370   1.204
10216SOL    HW131547   0.786   0.363   1.114
10216SOL    HW231548   0.675   0.443   1.203
10217SOL     OW31549   1.987   2.625   3.448
10217SOL    HW131550   1.918   2.553   3.451
10217SOL    HW231551   2.078   2.583   3.449
10218SOL     OW31552   1.777   1.103   1.455
10218SOL    HW131553   1.803   1.022   1.507
10218SOL    HW231554   1.830   1.182   1.487
10219SOL     OW31555   0.471   2.851   2.624
10219SOL    HW131556   0.371   2.854   2.627
10219SOL    HW231557   0.507   2.845   2.717
10220SOL     OW31558   3.785   1.388   0.949
10220SOL    HW131559   3.874   1.418   0.982
10220SOL    HW231560   3.797   1.322   0.874
10221SOL     OW31561   1.818   3.750   4.548
10221SOL    HW131562   1.899   3.775   4.495
10221SOL    HW231563   1.832   3.774   4.644
10222SOL     OW31564   2.637   3.202   5.646
10222SOL    HW131565   2.735   3.207   5.630
10222SOL    HW231566   2.593   3.150   5.573
10223SOL     OW31567   2.075   6.069   6.883
10223SOL    HW131568   2.087   6.142   6.815
10223SOL    HW231569   1.996   6.013   6.857
10224SOL     OW31570   6.652   2.025   5.386
10224SOL    HW131571   6.688   2.105   5.433
10224SOL    HW231572   6.718   1.951   5.391
10225SOL     OW31573   2.060   6.360   6.040
10225SOL    HW131574   2.149   6.370   6.084
10225SOL    HW231575   2.063   6.403   5.950
10226SOL     OW31576   2.408   0.651   6.749
10226SOL    HW131577   2.341   0.681   6.817
10226SOL    HW231578   2.360   0.606   6.673
10227SOL     OW31579   5.098   4.233   0.714
10227SOL    HW131580   5.027   4.167   0.741
10227SOL    HW231581   5.056   4.306   0.660
10228SOL     OW31582   1.045   6.238   1.684
10228SOL    HW131583   1.003   6.180   1.754
10228SOL    HW231584   1.001   6.327   1.684
10229SOL     OW31585   1.395   1.690   4.042
10229SOL    HW131586   1.417   1.763   3.977
10229SOL    HW231587   1.459   1.614   4.030
10230SOL     OW31588   6.631   6.719   2.744
10230SOL    HW131589   6.612   6.785   2.671
10230SOL    HW231590   6.663   6.633   2.704
10231SOL     OW31591   6.484   5.394   5.671
10231SOL    HW131592   6.517   5.392   5.766
10231SOL    HW231593   6.558   5.368   5.609
10232SOL     OW31594   2.500   0.942   4.428
10232SOL    HW131595   2.418   0.893   4.399
10232SOL    HW231596   2.516   0.925   4.525
10233SOL     OW31597   4.708   3.482   5.417
10233SOL    HW131598   4.666   3.393   5.405
10233SOL    HW231599   4.731   3.521   5.327
10234SOL     OW31600   5.703   0.066   0.034
10234SOL    HW131601   5.655   0.153   0.024
10234SOL    HW231602   5.665   0.016   0.112
10235SOL     OW31603   3.349   2.571   0.475
10235SOL    HW131604   3.330   2.663   0.440
10235SOL    HW231605   3.375   2.577   0.571
10236SOL     OW31606   2.030   1.044   1.772
10236SOL    HW131607   2.110   1.007   1.725
10236SOL    HW231608   1.972   1.091   1.706
10237SOL     OW31609   6.758   4.381   0.446
10237SOL    HW131610   6.763   4.441   0.366
10237SOL    HW231611   6.821   4.304   0.435
10238SOL     OW31612   3.402   4.133   2.667
10238SOL    HW131613   3.458   4.050   2.671
10238SOL    HW231614   3.462   4.213   2.669
10239SOL     OW31615   2.048   4.419   5.741
10239SOL    HW131616   2.078   4.406   5.836
10239SOL    HW231617   2.075   4.510   5.709
10240SOL     OW31618   1.687   4.642   2.533
10240SOL    HW131619   1.767   4.702   2.521
10240SOL    HW231620   1.639   4.634   2.446
10241SOL     OW31621   6.670   0.099   2.929
10241SOL    HW131622   6.632   0.163   2.996
10241SOL    HW231623   6.602   0.029   2.908
10242SOL     OW31624   0.075   1.486   1.572
10242SOL    HW131625   0.030   1.565   1.531
10242SOL    HW231626   0.102   1.422   1.500
10243SOL     OW31627   1.233   4.871   1.677
10243SOL    HW131628   1.294   4.941   1.712
10243SOL    HW231629   1.181   4.830   1.753
10244SOL     OW31630   1.524   4.094   0.867
10244SOL    HW131631   1.521   4.163   0.939
10244SOL    HW231632   1.571   4.131   0.787
10245SOL     OW31633   2.794   4.966   0.416
10245SOL    HW131634   2.750   5.029   0.353
10245SOL    HW231635   2.772   4.991   0.510
10246SOL     OW31636   3.136   3.971   3.236
10246SOL    HW131637   3.170   3.878   3.249
10246SOL    HW231638   3.065   3.991   3.304
10247SOL     OW31639   6.609   4.723   5.659
10247SOL    HW131640   6.521   4.677   5.648
10247SOL    HW231641   6.655   4.689   5.741
10248SOL     OW31642   1.836   0.166   2.585
10248SOL    HW131643   1.897   0.151   2.507
10248SOL    HW231644   1.744   0.137   2.561
10249SOL     OW31645   3.036   0.209   6.861
10249SOL    HW131646   3.043   0.304   6.832
10249SOL    HW231647   2.989   0.204   6.949
10250SOL     OW31648   6.411   3.083   1.499
10250SOL    HW131649   6.418   3.046   1.407
10250SOL    HW231650   6.417   3.183   1.496
10251SOL     OW31651   3.020   1.147   4.941
10251SOL    HW131652   3.063   1.178   5.026
10251SOL    HW231653   3.087   1.147   4.867
10252SOL     OW31654   4.157   4.872   0.014
10252SOL    HW131655   4.072   4.823   7.014
10252SOL    HW231656   4.198   4.834   0.097
10253SOL     OW31657   2.558   5.659   0.624
10253SOL    HW131658   2.565   5.661   0.525
10253SOL    HW231659   2.633   5.604   0.662
10254SOL     OW31660   4.903   0.849   4.421
10254SOL    HW131661   4.995   0.887   4.410
10254SOL    HW231662   4.843   0.919   4.460
10255SOL     OW31663   1.719   6.552   0.948
10255SOL    HW131664   1.687   6.624   0.886
10255SOL    HW231665   1.815   6.532   0.930
10256SOL     OW31666   6.466   1.045   1.767
10256SOL    HW131667   6.437   0.980   1.837
10256SOL    HW231668   6.388   1.101   1.738
10257SOL     OW31669   2.211   5.032   4.777
10257SOL    HW131670   2.198   5.050   4.679
10257SOL    HW231671   2.271   4.953   4.789
10258SOL     OW31672   3.036   1.244   4.048
10258SOL    HW131673   2.993   1.191   3.975
10258SOL    HW231674   3.049   1.338   4.017
10259SOL     OW31675   0.853   4.301   2.872
10259SOL    HW131676   0.928   4.325   2.934
10259SOL    HW231677   0.880   4.222   2.817
10260SOL     OW31678   0.549   1.152   3.495
10260SOL    HW131679   0.462   1.109   3.519
10260SOL    HW231680   0.574   1.129   3.401
10261SOL     OW31681   6.852   6.044   3.207
10261SOL    HW131682   6.824   5.969   3.147
10261SOL    HW231683   6.906   6.008   3.283
10262SOL     OW31684   1.567   6.577   5.172
10262SOL    HW131685   1.478   6.602   5.209
10262SOL    HW231686   1.575   6.613   5.078
10263SOL     OW31687   5.339   0.764   6.039
10263SOL    HW131688   5.246   0.784   6.006
10263SOL    HW231689   5.336   0.749   6.138
10264SOL     OW31690   5.813   1.652   6.165
10264SOL    HW131691   5.728   1.609   6.132
10264SOL    HW231692   5.866   1.684   6.086
10265SOL     OW31693   2.590   2.415   3.074
10265SOL    HW131694   2.534   2.435   2.994
10265SOL    HW231695   2.686   2.405   3.047
10266SOL     OW31696   3.458   2.904   4.128
10266SOL    HW131697   3.477   2.879   4.223
10266SOL    HW231698   3.538   2.951   4.089
10267SOL     OW31699   6.727   1.908   6.451
10267SOL    HW131700   6.685   1.821   6.424
10267SOL    HW231701   6.779   1.896   6.535
10268SOL     OW31702   5.731   5.257   2.258
10268SOL    HW131703   5.789   5.176   2.268
10268SOL    HW231704   5.784   5.330   2.214
10269SOL     OW31705   0.792   3.279   6.995
10269SOL    HW131706   0.813   3.193   6.950
10269SOL    HW231707   0.698   3.306   6.974
10270SOL     OW31708   2.871   4.802   3.081
10270SOL    HW131709   2.900   4.762   3.168
10270SOL    HW231710   2.772   4.811   3.080
10271SOL     OW31711   3.456   2.411   6.897
10271SOL    HW131712   3.519   2.442   6.969
10271SOL    HW231713   3.423   2.319   6.919
10272SOL     OW31714   0.740   0.811   4.992
10272SOL    HW131715   0.696   0.809   5.082
10272SOL    HW231716   0.671   0.816   4.921
10273SOL     OW31717   3.271   5.760   2.375
10273SOL    HW131718   3.330   5.780   2.453
10273SOL    HW231719   3.182   5.803   2.389
10274SOL     OW31720   6.695   5.433   4.281
10274SOL    HW131721   6.780   5.481   4.261
10274SOL    HW231722   6.716   5.353   4.339
10275SOL     OW31723   1.057   0.022   1.925
10275SOL    HW131724   1.025   6.982   1.997
10275SOL    HW231725   1.009   0.110   1.933
10276SOL     OW31726   6.249   4.978   5.611
10276SOL    HW131727   6.174   4.978   5.545
10276SOL    HW231728   6.256   5.068   5.654
10277SOL     OW31729   2.138   5.628   3.850
10277SOL    HW131730   2.170   5.650   3.943
10277SOL    HW231731   2.108   5.712   3.805
10278SOL     OW31732   0.067   1.111   4.484
10278SOL    HW131733   0.044   1.037   4.421
10278SOL    HW231734   0.167   1.117   4.492
10279SOL     OW31735   3.138   5.018   3.971
10279SOL    HW131736   3.072   5.094   3.972
10279SOL    HW231737   3.216   5.042   4.029
10280SOL     OW31738   0.401   3.650   0.801
10280SOL    HW131739   0.491   3.689   0.779
10280SOL    HW231740   0.411   3.582   0.873
10281SOL     OW31741   5.805   1.122   2.153
10281SOL    HW131742   5.824   1.148   2.058
10281SOL    HW231743   5.771   1.028   2.156
10282SOL     OW31744   5.715   4.579   4.066
10282SOL    HW131745   5.688   4.672   4.090
10282SOL    HW231746   5.781   4.582   3.991
10283SOL     OW31747   0.998   3.982   0.917
10283SOL    HW131748   1.093   3.998   0.893
10283SOL    HW231749   0.954   4.069   0.940
10284SOL     OW31750   5.082   2.783   5.237
10284SOL    HW131751   5.007   2.732   5.280
10284SOL    HW231752   5.136   2.828   5.308
10285SOL     OW31753   5.633   0.583   2.018
10285SOL    HW131754   5.567   0.536   1.958
10285SOL    HW231755   5.597   0.586   2.111
10286SOL     OW31756   2.864   1.950   3.548
10286SOL    HW131757   2.918   1.957   3.464
10286SOL    HW231758   2.839   1.854   3.563
10287SOL     OW31759   2.579   6.671   1.121
10287SOL    HW131760   2.521   6.738   1.075
10287SOL    HW231761   2.670   6.672   1.081
10288SOL     OW31762   4.806   5.790   3.263
10288SOL    HW131763   4.813   5.760   3.359
10288SOL    HW231764   4.765   5.717   3.209
10289SOL     OW31765   2.190   6.667   2.041
10289SOL    HW131766   2.112   6.729   2.049
10289SOL    HW231767   2.274   6.716   2.067
10290SOL     OW31768   2.866   3.556   2.303
10290SOL    HW131769   2.839   3.652   2.311
10290SOL    HW231770   2.928   3.532   2.378
10291SOL     OW31771   3.470   1.664   3.269
10291SOL    HW131772   3.395   1.728   3.286
10291SOL    HW231773   3.445   1.574   3.304
10292SOL     OW31774   1.242   0.306   5.145
10292SOL    HW131775   1.275   0.211   5.145
10292SOL    HW231776   1.243   0.341   5.239
10293SOL     OW31777   1.497   4.519   3.406
10293SOL    HW131778   1.532   4.432   3.373
10293SOL    HW231779   1.550   4.549   3.485
10294SOL     OW31780   5.597   3.433   2.594
10294SOL    HW131781   5.551   3.350   2.626
10294SOL    HW231782   5.643   3.415   2.507
10295SOL     OW31783   5.208   4.113   6.047
10295SOL    HW131784   5.175   4.193   5.998
10295SOL    HW231785   5.192   4.124   6.145
10296SOL     OW31786   4.686   2.865   0.300
10296SOL    HW131787   4.768   2.916   0.273
10296SOL    HW231788   4.646   2.905   0.382
10297SOL     OW31789   2.433   7.016   6.606
10297SOL    HW131790   2.477   0.079   6.638
10297SOL    HW231791   2.381   0.015   6.523
10298SOL     OW31792   3.595   4.854   1.582
10298SOL    HW131793   3.599   4.817   1.675
10298SOL    HW231794   3.684   4.891   1.556
10299SOL     OW31795   4.799   5.135   3.105
10299SOL    HW131796   4.765   5.132   3.011
10299SOL    HW231797   4.800   5.042   3.143
10300SOL     OW31798   0.913   3.785   2.955
10300SOL    HW131799   0.930   3.695   2.915
10300SOL    HW231800   1.000   3.831   2.971
10301SOL     OW31801   5.686   2.169   4.219
10301SOL    HW131802   5.706   2.126   4.307
10301SOL    HW231803   5.716   2.109   4.145
10302SOL     OW31804   1.552   6.681   3.873
10302SOL    HW131805   1.632   6.643   3.918
10302SOL    HW231806   1.504   6.609   3.823
10303SOL     OW31807   1.589   5.746   2.893
10303SOL    HW131808   1.595   5.818   2.824
10303SOL    HW231809   1.680   5.728   2.930
10304SOL     OW31810   5.013   0.287   1.886
10304SOL    HW131811   5.070   0.326   1.815
10304SOL    HW231812   4.919   0.276   1.852
10305SOL     OW31813   0.746   4.487   0.082
10305SOL    HW131814   0.792   4.432   0.012
10305SOL    HW231815   0.697   4.427   0.145
10306SOL     OW31816   4.453   6.369   6.264
10306SOL    HW131817   4.421   6.446   6.209
10306SOL    HW231818   4.404   6.368   6.352
10307SOL     OW31819   2.352   2.010   5.290
10307SOL    HW131820   2.333   2.096   5.242
10307SOL    HW231821   2.274   1.987   5.349
10308SOL     OW31822   2.532   4.485   3.989
10308SOL    HW131823   2.545   4.434   4.074
10308SOL    HW231824   2.435   4.506   3.978
10309SOL     OW31825   5.567   1.607   4.661
10309SOL    HW131826   5.585   1.613   4.759
10309SOL    HW231827   5.556   1.699   4.624
10310SOL     OW31828   3.500   3.323   1.614
10310SOL    HW131829   3.579   3.279   1.657
10310SOL    HW231830   3.418   3.268   1.630
10311SOL     OW31831   1.357   6.329   6.957
10311SOL    HW131832   1.391   6.287   0.020
10311SOL    HW231833   1.353   6.428   6.968
10312SOL     OW31834   2.379   6.391   1.579
10312SOL    HW131835   2.362   6.486   1.604
10312SOL    HW231836   2.307   6.333   1.616
10313SOL     OW31837   4.980   0.072   1.042
10313SOL    HW131838   4.902   0.073   1.103
10313SOL    HW231839   5.016   7.000   1.034
10314SOL     OW31840   6.400   6.948   2.388
10314SOL    HW131841   6.304   6.939   2.359
10314SOL    HW231842   6.425   0.024   2.389
10315SOL     OW31843   6.056   6.113   4.591
10315SOL    HW131844   6.133   6.108   4.527
10315SOL    HW231845   6.015   6.023   4.602
10316SOL     OW31846   6.248   2.667   4.863
10316SOL    HW131847   6.348   2.667   4.859
10316SOL    HW231848   6.211   2.662   4.770
10317SOL     OW31849   3.160   5.815   5.745
10317SOL    HW131850   3.194   5.897   5.698
10317SOL    HW231851   3.140   5.837   5.840
10318SOL     OW31852   5.940   5.360   6.655
10318SOL    HW131853   5.879   5.334   6.580
10318SOL    HW231854   5.964   5.457   6.645
10319SOL     OW31855   1.423   2.433   5.403
10319SOL    HW131856   1.516   2.413   5.434
10319SOL    HW231857   1.426   2.474   5.312
10320SOL     OW31858   0.962   0.474   2.870
10320SOL    HW131859   0.953   0.492   2.772
10320SOL    HW231860   0.901   0.534   2.921
10321SOL     OW31861   4.915   0.550   2.588
10321SOL    HW131862   4.908   0.614   2.511
10321SOL    HW231863   4.856   0.471   2.572
10322SOL     OW31864   6.608   5.652   6.773
10322SOL    HW131865   6.610   5.555   6.751
10322SOL    HW231866   6.539   5.669   6.843
10323SOL     OW31867   6.649   3.402   6.208
10323SOL    HW131868   6.606   3.486   6.242
10323SOL    HW231869   6.743   3.396   6.242
10324SOL     OW31870   3.272   3.133   2.864
10324SOL    HW131871   3.175   3.147   2.844
10324SOL    HW231872   3.281   3.099   2.958
10325SOL     OW31873   0.357   3.711   3.044
10325SOL    HW131874   0.401   3.772   3.109
10325SOL    HW231875   0.318   3.765   2.969
10326SOL     OW31876   3.692   3.515   0.366
10326SOL    HW131877   3.606   3.558   0.342
10326SOL    HW231878   3.674   3.429   0.415
10327SOL     OW31879   2.611   2.301   1.865
10327SOL    HW131880   2.699   2.349   1.872
10327SOL    HW231881   2.598   2.243   1.945
10328SOL     OW31882   6.315   2.499   1.382
10328SOL    HW131883   6.408   2.469   1.400
10328SOL    HW231884   6.314   2.599   1.371
10329SOL     OW31885   3.808   0.444   2.816
10329SOL    HW131886   3.783   0.541   2.808
10329SOL    HW231887   3.888   0.435   2.875
10330SOL     OW31888   3.981   5.869   2.032
10330SOL    HW131889   3.911   5.824   2.086
10330SOL    HW231890   4.000   5.960   2.070
10331SOL     OW31891   0.001   0.921   4.312
10331SOL    HW131892   6.953   0.888   4.377
10331SOL    HW231893   6.987   0.910   4.219
10332SOL     OW31894   6.179   1.245   1.041
10332SOL    HW131895   6.147   1.281   0.953
10332SOL    HW231896   6.248   1.175   1.025
10333SOL     OW31897   6.670   4.750   4.543
10333SOL    HW131898   6.666   4.666   4.490
10333SOL    HW231899   6.717   4.821   4.491
10334SOL     OW31900   2.781   6.319   4.096
10334SOL    HW131901   2.773   6.403   4.150
10334SOL    HW231902   2.865   6.323   4.042
10335SOL     OW31903   2.537   4.769   6.463
10335SOL    HW131904   2.565   4.754   6.558
10335SOL    HW231905   2.446   4.810   6.461
10336SOL     OW31906   5.734   0.279   3.009
10336SOL    HW131907   5.746   0.343   2.933
10336SOL    HW231908   5.722   0.331   3.094
10337SOL     OW31909   6.697   6.608   5.417
10337SOL    HW131910   6.627   6.677   5.438
10337SOL    HW231911   6.730   6.567   5.502
10338SOL     OW31912   2.307   6.480   1.270
10338SOL    HW131913   2.290   6.578   1.259
10338SOL    HW231914   2.323   6.460   1.366
10339SOL     OW31915   2.479   5.358   0.297
10339SOL    HW131916   2.437   5.432   0.245
10339SOL    HW231917   2.573   5.383   0.321
10340SOL     OW31918   0.788   5.728   0.651
10340SOL    HW131919   0.709   5.676   0.684
10340SOL    HW231920   0.785   5.734   0.551
10341SOL     OW31921   2.070   3.314   1.870
10341SOL    HW131922   2.117   3.396   1.903
10341SOL    HW231923   2.117   3.280   1.788
10342SOL     OW31924   1.121   6.401   5.098
10342SOL    HW131925   1.085   6.314   5.065
10342SOL    HW231926   1.221   6.397   5.099
10343SOL     OW31927   1.641   4.204   0.632
10343SOL    HW131928   1.644   4.136   0.558
10343SOL    HW231929   1.659   4.295   0.594
10344SOL     OW31930   4.150   3.666   1.581
10344SOL    HW131931   4.111   3.632   1.496
10344SOL    HW231932   4.249   3.666   1.575
10345SOL     OW31933   1.849   1.273   6.248
10345SOL    HW131934   1.923   1.278   6.316
10345SOL    HW231935   1.779   1.340   6.270
10346SOL     OW31936   6.145   0.635   1.151
10346SOL    HW131937   6.178   0.559   1.206
10346SOL    HW231938   6.122   0.603   1.059
10347SOL     OW31939   5.455   2.687   2.661
10347SOL    HW131940   5.474   2.597   2.699
10347SOL    HW231941   5.480   2.688   2.564
10348SOL     OW31942   6.399   1.380   0.634
10348SOL    HW131943   6.398   1.347   0.728
10348SOL    HW231944   6.448   1.467   0.629
10349SOL     OW31945   6.666   1.651   0.910
10349SOL    HW131946   6.731   1.597   0.963
10349SOL    HW231947   6.715   1.725   0.864
10350SOL     OW31948   2.115   5.898   5.452
10350SOL    HW131949   2.190   5.904   5.518
10350SOL    HW231950   2.055   5.822   5.477
10351SOL     OW31951   5.248   4.928   6.424
10351SOL    HW131952   5.280   4.946   6.517
10351SOL    HW231953   5.325   4.895   6.368
10352SOL     OW31954   5.298   2.264   6.869
10352SOL    HW131955   5.321   2.171   6.900
10352SOL    HW231956   5.326   2.330   6.938
10353SOL     OW31957   5.862   2.595   5.132
10353SOL    HW131958   5.901   2.518   5.083
10353SOL    HW231959   5.931   2.666   5.143
10354SOL     OW31960   6.823   2.066   1.662
10354SOL    HW131961   6.889   2.121   1.714
10354SOL    HW231962   6.871   1.996   1.611
10355SOL     OW31963   1.915   0.432   1.278
10355SOL    HW131964   1.902   0.504   1.346
10355SOL    HW231965   1.959   0.471   1.197
10356SOL     OW31966   0.015   4.127   5.637
10356SOL    HW131967   0.088   4.073   5.679
10356SOL    HW231968   6.964   4.143   5.705
10357SOL     OW31969   3.458   2.852   6.421
10357SOL    HW131970   3.421   2.942   6.398
10357SOL    HW231971   3.391   2.803   6.477
10358SOL     OW31972   6.603   3.474   4.038
10358SOL    HW131973   6.594   3.475   3.939
10358SOL    HW231974   6.594   3.380   4.071
10359SOL     OW31975   5.531   1.750   2.127
10359SOL    HW131976   5.557   1.780   2.035
10359SOL    HW231977   5.437   1.777   2.145
10360SOL     OW31978   4.577   5.744   1.853
10360SOL    HW131979   4.560   5.792   1.940
10360SOL    HW231980   4.622   5.806   1.789
10361SOL     OW31981   2.948   0.977   3.042
10361SOL    HW131982   3.003   0.960   3.124
10361SOL    HW231983   2.869   0.917   3.041
10362SOL     OW31984   0.233   5.533   2.716
10362SOL    HW131985   0.234   5.575   2.807
10362SOL    HW231986   0.195   5.597   2.650
10363SOL     OW31987   4.908   2.602   1.197
10363SOL    HW131988   4.894   2.613   1.099
10363SOL    HW231989   4.907   2.691   1.241
10364SOL     OW31990   3.705   4.069   1.552
10364SOL    HW131991   3.755   4.151   1.576
10364SOL    HW231992   3.643   4.044   1.626
10365SOL     OW31993   4.892   4.028   5.733
10365SOL    HW131994   4.838   4.079   5.800
10365SOL    HW231995   4.978   4.076   5.716
10366SOL     OW31996   3.799   6.675   4.207
10366SOL    HW131997   3.882   6.729   4.220
10366SOL    HW231998   3.721   6.723   4.248
10367SOL     OW31999   6.964   2.657   2.030
10367SOL    HW132000   6.866   2.661   2.050
10367SOL    HW232001   6.979   2.674   1.933
10368SOL     OW32002   2.499   1.250   2.785
10368SOL    HW132003   2.476   1.277   2.879
10368SOL    HW232004   2.463   1.316   2.721
10369SOL     OW32005   2.754   0.187   5.442
10369SOL    HW132006   2.695   0.167   5.363
10369SOL    HW232007   2.786   0.281   5.437
10370SOL     OW32008   6.258   1.044   5.314
10370SOL    HW132009   6.310   1.067   5.396
10370SOL    HW232010   6.284   1.106   5.240
10371SOL     OW32011   1.924   6.290   4.350
10371SOL    HW132012   1.986   6.221   4.312
10371SOL    HW232013   1.978   6.360   4.398
10372SOL     OW32014   2.241   1.702   6.751
10372SOL    HW132015   2.145   1.729   6.748
10372SOL    HW232016   2.262   1.644   6.673
10373SOL     OW32017   1.785   6.352   5.011
10373SOL    HW132018   1.756   6.411   5.086
10373SOL    HW232019   1.724   6.273   5.004
10374SOL     OW32020   2.872   0.701   3.869
10374SOL    HW132021   2.907   0.686   3.961
10374SOL    HW232022   2.944   0.740   3.812
10375SOL     OW32023   2.046   2.305   5.959
10375SOL    HW132024   2.128   2.315   5.902
10375SOL    HW232025   2.003   2.217   5.938
10376SOL     OW32026   0.901   5.730   3.795
10376SOL    HW132027   0.961   5.653   3.816
10376SOL    HW232028   0.858   5.763   3.879
10377SOL     OW32029   0.170   0.924   2.931
10377SOL    HW132030   0.255   0.955   2.975
10377SOL    HW232031   0.102   0.997   2.936
10378SOL     OW32032   5.912   5.752   5.935
10378SOL    HW132033   5.922   5.850   5.953
10378SOL    HW232034   5.827   5.719   5.976
10379SOL     OW32035   3.040   6.334   3.994
10379SOL    HW132036   3.080   6.320   3.904
10379SOL    HW232037   3.112   6.364   4.058
10380SOL     OW32038   0.737   2.797   4.967
10380SOL    HW132039   0.645   2.775   4.936
10380SOL    HW232040   0.803   2.771   4.896
10381SOL     OW32041   4.332   4.158   1.046
10381SOL    HW132042   4.260   4.110   1.095
10381SOL    HW232043   4.306   4.171   0.951
10382SOL     OW32044   1.800   5.324   1.604
10382SOL    HW132045   1.900   5.314   1.602
10382SOL    HW232046   1.773   5.399   1.543
10383SOL     OW32047   1.160   4.080   1.348
10383SOL    HW132048   1.184   4.173   1.321
10383SOL    HW232049   1.203   4.058   1.436
10384SOL     OW32050   6.669   0.313   0.882
10384SOL    HW132051   6.599   0.314   0.954
10384SOL    HW232052   6.743   0.376   0.906
10385SOL     OW32053   4.196   5.883   6.168
10385SOL    HW132054   4.121   5.947   6.151
10385SOL    HW232055   4.166   5.790   6.149
10386SOL     OW32056   6.624   1.677   5.529
10386SOL    HW132057   6.613   1.772   5.557
10386SOL    HW232058   6.715   1.664   5.491
10387SOL     OW32059   4.306   1.637   2.331
10387SOL    HW132060   4.207   1.633   2.316
10387SOL    HW232061   4.330   1.580   2.410
10388SOL     OW32062   1.820   5.708   1.842
10388SOL    HW132063   1.759   5.762   1.785
10388SOL    HW232064   1.896   5.765   1.873
10389SOL     OW32065   6.180   5.743   1.208
10389SOL    HW132066   6.201   5.838   1.232
10389SOL    HW232067   6.094   5.716   1.250
10390SOL     OW32068   1.808   3.039   1.165
10390SOL    HW132069   1.723   3.001   1.127
10390SOL    HW232070   1.845   3.107   1.102
10391SOL     OW32071   6.808   6.477   3.443
10391SOL    HW132072   6.863   6.410   3.494
10391SOL    HW232073   6.827   6.466   3.345
10392SOL     OW32074   6.307   4.694   5.626
10392SOL    HW132075   6.270   4.786   5.618
10392SOL    HW232076   6.294   4.645   5.540
10393SOL     OW32077   2.236   2.499   3.437
10393SOL    HW132078   2.324   2.468   3.399
10393SOL    HW232079   2.253   2.575   3.499
10394SOL     OW32080   2.215   5.721   5.076
10394SOL    HW132081   2.180   5.631   5.050
10394SOL    HW232082   2.245   5.718   5.172
10395SOL     OW32083   0.267   0.769   2.712
10395SOL    HW132084   0.232   0.844   2.768
10395SOL    HW232085   0.321   0.707   2.770
10396SOL     OW32086   3.683   1.139   3.299
10396SOL    HW132087   3.692   1.201   3.377
10396SOL    HW232088   3.652   1.191   3.219
10397SOL     OW32089   2.539   1.190   4.579
10397SOL    HW132090   2.538   1.102   4.625
10397SOL    HW232091   2.578   1.180   4.488
10398SOL     OW32092   5.108   2.688   0.497
10398SOL    HW132093   5.051   2.611   0.526
10398SOL    HW232094   5.132   2.743   0.577
10399SOL     OW32095   4.764   2.385   4.633
10399SOL    HW132096   4.731   2.302   4.677
10399SOL    HW232097   4.700   2.460   4.651
10400SOL     OW32098   4.197   5.518   0.094
10400SOL    HW132099   4.154   5.435   0.061
10400SOL    HW232100   4.297   5.506   0.098
10401SOL     OW32101   0.434   6.989   2.123
10401SOL    HW132102   0.358   0.015   2.079
10401SOL    HW232103   0.507   6.973   2.056
10402SOL     OW32104   6.839   1.651   5.239
10402SOL    HW132105   6.893   1.734   5.223
10402SOL    HW232106   6.876   1.600   5.316
10403SOL     OW32107   4.179   1.512   2.637
10403SOL    HW132108   4.224   1.443   2.693
10403SOL    HW232109   4.138   1.581   2.696
10404SOL     OW32110   6.347   6.182   4.139
10404SOL    HW132111   6.288   6.160   4.061
10404SOL    HW232112   6.324   6.124   4.217
10405SOL     OW32113   0.893   5.890   4.596
10405SOL    HW132114   0.822   5.825   4.567
10405SOL    HW232115   0.942   5.851   4.674
10406SOL     OW32116   2.224   2.916   5.371
10406SOL    HW132117   2.317   2.949   5.352
10406SOL    HW232118   2.160   2.961   5.309
10407SOL     OW32119   2.534   0.503   6.996
10407SOL    HW132120   2.515   0.406   7.008
10407SOL    HW232121   2.503   0.533   6.906
10408SOL     OW32122   4.136   6.900   1.638
10408SOL    HW132123   4.194   6.820   1.622
10408SOL    HW232124   4.142   6.961   1.559
10409SOL     OW32125   0.121   4.269   0.591
10409SOL    HW132126   0.102   4.290   0.686
10409SOL    HW232127   0.216   4.293   0.569
10410SOL     OW32128   5.913   3.079   1.761
10410SOL    HW132129   5.991   3.048   1.707
10410SOL    HW232130   5.876   3.001   1.812
10411SOL     OW32131   3.326   6.316   4.352
10411SOL    HW132132   3.305   6.223   4.382
10411SOL    HW232133   3.426   6.329   4.352
10412SOL     OW32134   6.903   1.098   6.537
10412SOL    HW132135   6.981   1.066   6.484
10412SOL    HW232136   6.818   1.077   6.488
10413SOL     OW32137   6.672   2.354   1.810
10413SOL    HW132138   6.578   2.386   1.826
10413SOL    HW232139   6.676   2.304   1.724
10414SOL     OW32140   3.653   5.388   5.951
10414SOL    HW132141   3.656   5.295   5.988
10414SOL    HW232142   3.559   5.422   5.954
10415SOL     OW32143   1.497   4.587   4.342
10415SOL    HW132144   1.459   4.574   4.251
10415SOL    HW232145   1.439   4.543   4.410
10416SOL     OW32146   5.878   6.476   5.746
10416SOL    HW132147   5.889   6.571   5.774
10416SOL    HW232148   5.783   6.460   5.720
10417SOL     OW32149   4.456   5.136   4.820
10417SOL    HW132150   4.365   5.159   4.784
10417SOL    HW232151   4.469   5.180   4.908
10418SOL     OW32152   0.035   3.834   6.136
10418SOL    HW132153   0.068   3.895   6.208
10418SOL    HW232154   6.960   3.812   6.151
10419SOL     OW32155   3.537   6.914   6.398
10419SOL    HW132156   3.454   6.901   6.342
10419SOL    HW232157   3.528   6.864   6.483
10420SOL     OW32158   0.099   4.305   4.505
10420SOL    HW132159   0.183   4.355   4.526
10420SOL    HW232160   0.068   4.257   4.587
10421SOL     OW32161   1.834   3.702   4.083
10421SOL    HW132162   1.825   3.618   4.030
10421SOL    HW232163   1.874   3.682   4.172
10422SOL     OW32164   6.788   3.160   5.905
10422SOL    HW132165   6.734   3.233   5.862
10422SOL    HW232166   6.727   3.095   5.950
10423SOL     OW32167   5.555   5.443   5.500
10423SOL    HW132168   5.577   5.410   5.591
10423SOL    HW232169   5.465   5.487   5.501
10424SOL     OW32170   3.858   2.999   0.645
10424SOL    HW132171   3.880   2.902   0.652
10424SOL    HW232172   3.909   3.050   0.715
10425SOL     OW32173   0.790   6.106   2.516
10425SOL    HW132174   0.724   6.179   2.495
10425SOL    HW232175   0.792   6.091   2.614
10426SOL     OW32176   5.536   4.733   6.731
10426SOL    HW132177   5.559   4.698   6.640
10426SOL    HW232178   5.453   4.689   6.764
10427SOL     OW32179   5.171   0.809   0.081
10427SOL    HW132180   5.111   0.848   0.011
10427SOL    HW232181   5.130   0.726   0.118
10428SOL     OW32182   3.170   1.237   3.778
10428SOL    HW132183   3.164   1.159   3.715
10428SOL    HW232184   3.196   1.204   3.868
10429SOL     OW32185   0.132   4.365   2.813
10429SOL    HW132186   0.082   4.317   2.740
10429SOL    HW232187   0.226   4.333   2.815
10430SOL     OW32188   3.871   6.753   4.855
10430SOL    HW132189   3.868   6.700   4.939
10430SOL    HW232190   3.824   6.704   4.782
10431SOL     OW32191   2.223   6.191   3.897
10431SOL    HW132192   2.302   6.139   3.927
10431SOL    HW232193   2.188   6.247   3.972
10432SOL     OW32194   6.560   0.722   4.678
10432SOL    HW132195   6.501   0.788   4.725
10432SOL    HW232196   6.653   0.758   4.672
10433SOL     OW32197   0.562   6.633   2.639
10433SOL    HW132198   0.627   6.559   2.657
10433SOL    HW232199   0.536   6.633   2.543
10434SOL     OW32200   3.188   6.313   3.175
10434SOL    HW132201   3.172   6.230   3.228
10434SOL    HW232202   3.272   6.302   3.121
10435SOL     OW32203   1.553   2.088   5.224
10435SOL    HW132204   1.531   2.029   5.146
10435SOL    HW232205   1.652   2.086   5.240
10436SOL     OW32206   6.113   4.591   5.240
10436SOL    HW132207   6.064   4.539   5.170
10436SOL    HW232208   6.048   4.639   5.299
10437SOL     OW32209   5.707   4.709   5.816
10437SOL    HW132210   5.781   4.745   5.872
10437SOL    HW232211   5.719   4.610   5.804
10438SOL     OW32212   0.557   5.668   6.053
10438SOL    HW132213   0.598   5.579   6.070
10438SOL    HW232214   0.595   5.705   5.968
10439SOL     OW32215   4.658   1.520   4.858
10439SOL    HW132216   4.720   1.533   4.935
10439SOL    HW232217   4.579   1.465   4.888
10440SOL     OW32218   0.656   6.831   0.502
10440SOL    HW132219   0.588   6.871   0.564
10440SOL    HW232220   0.615   6.754   0.454
10441SOL     OW32221   3.507   1.707   1.033
10441SOL    HW132222   3.492   1.734   0.937
10441SOL    HW232223   3.516   1.608   1.039
10442SOL     OW32224   4.284   6.622   5.133
10442SOL    HW132225   4.263   6.568   5.215
10442SOL    HW232226   4.311   6.714   5.160
10443SOL     OW32227   5.225   2.661   3.295
10443SOL    HW132228   5.135   2.623   3.276
10443SOL    HW232229   5.276   2.670   3.209
10444SOL     OW32230   4.122   5.452   3.234
10444SOL    HW132231   4.155   5.432   3.326
10444SOL    HW232232   4.075   5.541   3.234
10445SOL     OW32233   0.532   4.840   3.244
10445SOL    HW132234   0.513   4.818   3.148
10445SOL    HW232235   0.459   4.899   3.279
10446SOL     OW32236   1.843   2.809   6.427
10446SOL    HW132237   1.941   2.795   6.415
10446SOL    HW232238   1.793   2.730   6.391
10447SOL     OW32239   0.637   1.144   3.247
10447SOL    HW132240   0.672   1.228   3.203
10447SOL    HW232241   0.698   1.068   3.225
10448SOL     OW32242   4.473   0.424   2.452
10448SOL    HW132243   4.410   0.436   2.530
10448SOL    HW232244   4.567   0.440   2.482
10449SOL     OW32245   1.539   5.793   6.005
10449SOL    HW132246   1.498   5.709   6.039
10449SOL    HW232247   1.577   5.846   6.081
10450SOL     OW32248   0.516   1.170   6.848
10450SOL    HW132249   0.463   1.110   6.907
10450SOL    HW232250   0.563   1.239   6.903
10451SOL     OW32251   1.872   5.976   3.056
10451SOL    HW132252   1.920   5.985   3.143
10451SOL    HW232253   1.883   5.883   3.021
10452SOL     OW32254   5.941   3.378   2.954
10452SOL    HW132255   5.907   3.465   2.991
10452SOL    HW232256   5.944   3.310   3.028
10453SOL     OW32257   5.832   6.890   1.413
10453SOL    HW132258   5.834   6.841   1.500
10453SOL    HW232259   5.834   6.824   1.337
10454SOL     OW32260   4.928   2.982   0.250
10454SOL    HW132261   4.931   3.064   0.193
10454SOL    HW232262   4.956   2.903   0.195
10455SOL     OW32263   0.007   6.317   3.518
10455SOL    HW132264   0.019   6.240   3.580
10455SOL    HW232265   0.081   6.318   3.451
10456SOL     OW32266   1.380   5.576   0.707
10456SOL    HW132267   1.473   5.548   0.681
10456SOL    HW232268   1.370   5.674   0.692
10457SOL     OW32269   3.647   3.141   0.565
10457SOL    HW132270   3.719   3.072   0.553
10457SOL    HW232271   3.664   3.193   0.648
10458SOL     OW32272   6.389   0.168   6.044
10458SOL    HW132273   6.441   0.179   5.959
10458SOL    HW232274   6.351   0.256   6.072
10459SOL     OW32275   4.343   5.897   0.981
10459SOL    HW132276   4.243   5.893   0.976
10459SOL    HW232277   4.382   5.894   0.888
10460SOL     OW32278   1.172   4.521   1.508
10460SOL    HW132279   1.249   4.546   1.566
10460SOL    HW232280   1.100   4.590   1.516
10461SOL     OW32281   5.903   5.135   4.979
10461SOL    HW132282   5.884   5.065   4.911
10461SOL    HW232283   5.941   5.216   4.935
10462SOL     OW32284   5.239   2.337   3.207
10462SOL    HW132285   5.150   2.370   3.177
10462SOL    HW232286   5.227   2.276   3.285
10463SOL     OW32287   4.316   2.383   6.082
10463SOL    HW132288   4.255   2.428   6.017
10463SOL    HW232289   4.407   2.374   6.041
10464SOL     OW32290   6.689   6.929   1.799
10464SOL    HW132291   6.786   6.923   1.821
10464SOL    HW232292   6.666   6.861   1.730
10465SOL     OW32293   6.479   5.521   1.089
10465SOL    HW132294   6.519   5.611   1.107
10465SOL    HW232295   6.527   5.452   1.143
10466SOL     OW32296   4.453   4.912   5.404
10466SOL    HW132297   4.438   5.010   5.396
10466SOL    HW232298   4.395   4.875   5.477
10467SOL     OW32299   2.645   2.044   0.198
10467SOL    HW132300   2.631   1.945   0.201
10467SOL    HW232301   2.558   2.091   0.214
10468SOL     OW32302   3.625   5.388   3.034
10468SOL    HW132303   3.695   5.331   2.990
10468SOL    HW232304   3.599   5.347   3.122
10469SOL     OW32305   3.990   4.244   5.667
10469SOL    HW132306   4.070   4.197   5.704
10469SOL    HW232307   3.964   4.203   5.580
10470SOL     OW32308   1.983   2.568   3.938
10470SOL    HW132309   1.985   2.619   4.024
10470SOL    HW232310   2.070   2.518   3.928
10471SOL     OW32311   3.191   0.698   1.018
10471SOL    HW132312   3.100   0.669   0.989
10471SOL    HW232313   3.193   0.706   1.118
10472SOL     OW32314   3.495   5.871   0.598
10472SOL    HW132315   3.481   5.805   0.671
10472SOL    HW232316   3.578   5.849   0.547
10473SOL     OW32317   6.269   6.955   6.850
10473SOL    HW132318   6.323   6.887   6.899
10473SOL    HW232319   6.320   6.988   6.771
10474SOL     OW32320   4.228   1.148   4.416
10474SOL    HW132321   4.269   1.204   4.488
10474SOL    HW232322   4.133   1.177   4.403
10475SOL     OW32323   4.797   6.734   1.322
10475SOL    HW132324   4.752   6.697   1.403
10475SOL    HW232325   4.729   6.770   1.259
10476SOL     OW32326   0.240   6.900   6.838
10476SOL    HW132327   0.337   6.875   6.843
10476SOL    HW232328   0.231   6.999   6.827
10477SOL     OW32329   6.786   0.792   4.394
10477SOL    HW132330   6.730   0.737   4.332
10477SOL    HW232331   6.759   0.888   4.386
10478SOL     OW32332   6.280   0.799   0.566
10478SOL    HW132333   6.187   0.785   0.532
10478SOL    HW232334   6.296   0.896   0.581
10479SOL     OW32335   6.927   1.723   2.943
10479SOL    HW132336   6.935   1.766   2.853
10479SOL    HW232337   6.832   1.730   2.975
10480SOL     OW32338   0.718   0.892   1.477
10480SOL    HW132339   0.629   0.845   1.483
10480SOL    HW232340   0.708   0.987   1.506
10481SOL     OW32341   1.932   6.793   4.375
10481SOL    HW132342   1.875   6.763   4.451
10481SOL    HW232343   1.876   6.844   4.309
10482SOL     OW32344   6.222   4.914   4.234
10482SOL    HW132345   6.233   4.990   4.170
10482SOL    HW232346   6.130   4.917   4.273
10483SOL     OW32347   6.642   5.069   0.458
10483SOL    HW132348   6.704   4.996   0.427
10483SOL    HW232349   6.612   5.122   0.379
10484SOL     OW32350   6.209   1.675   1.745
10484SOL    HW132351   6.216   1.577   1.725
10484SOL    HW232352   6.127   1.692   1.799
10485SOL     OW32353   3.280   3.685   0.362
10485SOL    HW132354   3.313   3.679   0.268
10485SOL    HW232355   3.187   3.723   0.362
10486SOL     OW32356   0.360   1.029   0.156
10486SOL    HW132357   0.389   1.080   0.236
10486SOL    HW232358   0.440   0.987   0.112
10487SOL     OW32359   4.703   0.920   0.987
10487SOL    HW132360   4.756   0.998   0.953
10487SOL    HW232361   4.738   0.835   0.946
10488SOL     OW32362   2.800   0.998   5.947
10488SOL    HW132363   2.841   0.982   5.857
10488SOL    HW232364   2.872   1.001   6.017
10489SOL     OW32365   0.487   6.839   5.450
10489SOL    HW132366   0.507   6.905   5.523
10489SOL    HW232367   0.389   6.842   5.428
10490SOL     OW32368   5.840   1.764   1.295
10490SOL    HW132369   5.845   1.664   1.304
10490SOL    HW232370   5.751   1.796   1.329
10491SOL     OW32371   2.279   2.285   6.822
10491SOL    HW132372   2.277   2.279   6.922
10491SOL    HW232373   2.249   2.375   6.793
10492SOL     OW32374   5.954   5.015   6.841
10492SOL    HW132375   5.912   4.929   6.812
10492SOL    HW232376   5.904   5.091   6.800
10493SOL     OW32377   3.395   0.350   2.383
10493SOL    HW132378   3.476   0.301   2.414
10493SOL    HW232379   3.391   0.440   2.426
10494SOL     OW32380   5.144   4.168   5.715
10494SOL    HW132381   5.243   4.173   5.726
10494SOL    HW232382   5.099   4.214   5.791
10495SOL     OW32383   2.017   0.103   1.096
10495SOL    HW132384   1.923   0.075   1.113
10495SOL    HW232385   2.061   0.039   1.033
10496SOL     OW32386   0.249   3.695   6.045
10496SOL    HW132387   0.178   3.731   6.106
10496SOL    HW232388   0.213   3.616   5.996
10497SOL     OW32389   1.743   6.428   2.118
10497SOL    HW132390   1.676   6.358   2.142
10497SOL    HW232391   1.740   6.444   2.019
10498SOL     OW32392   4.516   5.300   0.750
10498SOL    HW132393   4.521   5.225   0.816
10498SOL    HW232394   4.433   5.354   0.767
10499SOL     OW32395   4.119   6.884   1.914
10499SOL    HW132396   4.079   6.966   1.954
10499SOL    HW232397   4.110   6.886   1.815
10500SOL     OW32398   6.231   1.310   6.305
10500SOL    HW132399   6.327   1.288   6.322
10500SOL    HW232400   6.173   1.265   6.372
10501SOL     OW32401   2.597   5.659   2.050
10501SOL    HW132402   2.655   5.638   1.971
10501SOL    HW232403   2.531   5.730   2.025
10502SOL     OW32404   2.582   1.315   1.770
10502SOL    HW132405   2.511   1.264   1.818
10502SOL    HW232406   2.671   1.272   1.786
10503SOL     OW32407   4.220   2.472   0.814
10503SOL    HW132408   4.207   2.558   0.765
10503SOL    HW232409   4.318   2.453   0.821
10504SOL     OW32410   0.863   1.903   5.718
10504SOL    HW132411   0.790   1.876   5.782
10504SOL    HW232412   0.864   1.840   5.641
10505SOL     OW32413   5.345   5.034   0.370
10505SOL    HW132414   5.371   5.108   0.308
10505SOL    HW232415   5.336   4.949   0.319
10506SOL     OW32416   6.827   4.933   0.819
10506SOL    HW132417   6.840   4.980   0.906
10506SOL    HW232418   6.841   4.835   0.833
10507SOL     OW32419   2.272   0.040   0.400
10507SOL    HW132420   2.201   6.991   0.387
10507SOL    HW232421   2.233   0.131   0.381
10508SOL     OW32422   6.418   6.054   4.878
10508SOL    HW132423   6.483   6.129   4.872
10508SOL    HW232424   6.359   6.068   4.958
10509SOL     OW32425   0.383   5.512   4.282
10509SOL    HW132426   0.465   5.568   4.290
10509SOL    HW232427   0.319   5.556   4.219
10510SOL     OW32428   4.347   5.507   6.675
10510SOL    HW132429   4.304   5.563   6.605
10510SOL    HW232430   4.329   5.547   6.765
10511SOL     OW32431   3.349   1.058   2.421
10511SOL    HW132432   3.411   1.083   2.347
10511SOL    HW232433   3.366   1.116   2.500
10512SOL     OW32434   3.803   0.264   6.622
10512SOL    HW132435   3.803   0.227   6.715
10512SOL    HW232436   3.837   0.194   6.559
10513SOL     OW32437   5.820   2.242   4.736
10513SOL    HW132438   5.860   2.307   4.671
10513SOL    HW232439   5.739   2.199   4.695
10514SOL     OW32440   0.366   3.231   1.365
10514SOL    HW132441   0.399   3.203   1.455
10514SOL    HW232442   0.349   3.329   1.365
10515SOL     OW32443   0.699   3.444   3.572
10515SOL    HW132444   0.762   3.521   3.570
10515SOL    HW232445   0.644   3.447   3.656
10516SOL     OW32446   4.143   1.302   0.501
10516SOL    HW132447   4.178   1.233   0.564
10516SOL    HW232448   4.185   1.290   0.411
10517SOL     OW32449   0.833   2.768   2.010
10517SOL    HW132450   0.790   2.756   1.921
10517SOL    HW232451   0.836   2.865   2.033
10518SOL     OW32452   0.815   6.104   0.183
10518SOL    HW132453   0.890   6.049   0.145
10518SOL    HW232454   0.770   6.154   0.109
10519SOL     OW32455   3.033   3.762   0.302
10519SOL    HW132456   3.025   3.756   0.203
10519SOL    HW232457   2.948   3.731   0.345
10520SOL     OW32458   0.388   2.565   6.114
10520SOL    HW132459   0.304   2.592   6.068
10520SOL    HW232460   0.462   2.557   6.047
10521SOL     OW32461   5.966   5.800   1.471
10521SOL    HW132462   5.959   5.900   1.473
10521SOL    HW232463   6.052   5.771   1.511
10522SOL     OW32464   0.818   0.971   5.431
10522SOL    HW132465   0.854   1.064   5.423
10522SOL    HW232466   0.721   0.975   5.456
10523SOL     OW32467   1.018   4.687   3.129
10523SOL    HW132468   1.035   4.784   3.146
10523SOL    HW232469   1.060   4.661   3.042
10524SOL     OW32470   1.578   7.006   4.597
10524SOL    HW132471   1.526   0.069   4.583
10524SOL    HW232472   1.584   6.987   4.695
10525SOL     OW32473   4.069   6.401   6.349
10525SOL    HW132474   4.134   6.409   6.424
10525SOL    HW232475   4.034   6.307   6.345
10526SOL     OW32476   1.942   6.951   3.946
10526SOL    HW132477   1.843   6.953   3.934
10526SOL    HW232478   1.976   6.859   3.927
10527SOL     OW32479   0.789   1.457   5.265
10527SOL    HW132480   0.705   1.405   5.249
10527SOL    HW232481   0.787   1.497   5.356
10528SOL     OW32482   1.810   3.077   5.886
10528SOL    HW132483   1.864   3.145   5.836
10528SOL    HW232484   1.724   3.061   5.838
10529SOL     OW32485   3.260   5.823   4.218
10529SOL    HW132486   3.260   5.751   4.148
10529SOL    HW232487   3.343   5.878   4.210
10530SOL     OW32488   1.770   0.326   6.702
10530SOL    HW132489   1.696   0.259   6.696
10530SOL    HW232490   1.796   0.354   6.610
10531SOL     OW32491   1.179   2.765   4.436
10531SOL    HW132492   1.142   2.694   4.376
10531SOL    HW232493   1.106   2.805   4.490
10532SOL     OW32494   1.089   6.377   6.053
10532SOL    HW132495   1.115   6.423   5.967
10532SOL    HW232496   0.999   6.335   6.042
10533SOL     OW32497   3.203   6.714   4.072
10533SOL    HW132498   3.290   6.760   4.093
10533SOL    HW232499   3.169   6.747   3.984
10534SOL     OW32500   6.278   6.272   1.391
10534SOL    HW132501   6.307   6.323   1.311
10534SOL    HW232502   6.211   6.325   1.442
10535SOL     OW32503   1.595   2.284   1.376
10535SOL    HW132504   1.508   2.278   1.327
10535SOL    HW232505   1.622   2.193   1.407
10536SOL     OW32506   4.328   0.494   3.824
10536SOL    HW132507   4.233   0.507   3.851
10536SOL    HW232508   4.371   0.583   3.807
10537SOL     OW32509   3.823   5.827   4.145
10537SOL    HW132510   3.890   5.779   4.202
10537SOL    HW232511   3.750   5.862   4.202
10538SOL     OW32512   5.612   3.161   1.228
10538SOL    HW132513   5.667   3.101   1.286
10538SOL    HW232514   5.661   3.177   1.142
10539SOL     OW32515   0.706   4.810   6.962
10539SOL    HW132516   0.635   4.880   6.962
10539SOL    HW232517   0.716   4.773   6.869
10540SOL     OW32518   1.506   1.736   4.972
10540SOL    HW132519   1.570   1.688   4.911
10540SOL    HW232520   1.518   1.835   4.961
10541SOL     OW32521   3.403   4.136   1.931
10541SOL    HW132522   3.392   4.036   1.928
10541SOL    HW232523   3.315   4.180   1.918
10542SOL     OW32524   6.957   0.301   5.463
10542SOL    HW132525   6.872   0.255   5.441
10542SOL    HW232526   6.961   0.389   5.415
10543SOL     OW32527   0.260   1.432   4.056
10543SOL    HW132528   0.242   1.354   4.115
10543SOL    HW232529   0.235   1.409   3.962
10544SOL     OW32530   2.567   6.798   1.772
10544SOL    HW132531   2.657   6.827   1.739
10544SOL    HW232532   2.544   6.851   1.854
10545SOL     OW32533   0.345   2.112   2.103
10545SOL    HW132534   0.298   2.024   2.114
10545SOL    HW232535   0.426   2.099   2.045
10546SOL     OW32536   2.017   1.180   0.571
10546SOL    HW132537   1.940   1.123   0.598
10546SOL    HW232538   1.983   1.267   0.536
10547SOL     OW32539   5.672   2.853   2.731
10547SOL    HW132540   5.624   2.910   2.798
10547SOL    HW232541   5.607   2.789   2.690
10548SOL     OW32542   5.175   4.673   3.794
10548SOL    HW132543   5.233   4.744   3.834
10548SOL    HW232544   5.213   4.643   3.707
10549SOL     OW32545   0.917   6.879   2.126
10549SOL    HW132546   0.961   6.845   2.209
10549SOL    HW232547   0.840   6.819   2.102
10550SOL     OW32548   4.563   6.288   3.395
10550SOL    HW132549   4.490   6.342   3.354
10550SOL    HW232550   4.649   6.337   3.388
10551SOL     OW32551   1.661   2.554   6.469
10551SOL    HW132552   1.661   2.456   6.486
10551SOL    HW232553   1.582   2.578   6.411
10552SOL     OW32554   3.319   0.383   5.886
10552SOL    HW132555   3.392   0.450   5.876
10552SOL    HW232556   3.267   0.403   5.969
10553SOL     OW32557   0.625   4.301   1.991
10553SOL    HW132558   0.579   4.368   2.049
10553SOL    HW232559   0.557   4.245   1.943
10554SOL     OW32560   5.753   4.708   0.173
10554SOL    HW132561   5.706   4.759   0.245
10554SOL    HW232562   5.804   4.633   0.214
10555SOL     OW32563   1.551   2.905   0.214
10555SOL    HW132564   1.535   2.817   0.259
10555SOL    HW232565   1.640   2.903   0.169
10556SOL     OW32566   2.066   1.639   5.670
10556SOL    HW132567   2.157   1.680   5.669
10556SOL    HW232568   2.001   1.700   5.625
10557SOL     OW32569   2.342   2.776   3.237
10557SOL    HW132570   2.249   2.803   3.214
10557SOL    HW232571   2.402   2.791   3.158
10558SOL     OW32572   4.130   0.841   3.473
10558SOL    HW132573   4.053   0.900   3.451
10558SOL    HW232574   4.192   0.889   3.535
10559SOL     OW32575   4.814   0.387   1.348
10559SOL    HW132576   4.887   0.444   1.386
10559SOL    HW232577   4.821   0.295   1.385
10560SOL     OW32578   4.086   5.990   3.048
10560SOL    HW132579   4.051   5.902   3.016
10560SOL    HW232580   4.142   6.032   2.976
10561SOL     OW32581   2.951   3.746   1.866
10561SOL    HW132582   2.909   3.811   1.803
10561SOL    HW232583   2.969   3.790   1.954
10562SOL     OW32584   4.698   4.877   0.278
10562SOL    HW132585   4.656   4.855   0.190
10562SOL    HW232586   4.666   4.812   0.347
10563SOL     OW32587   0.533   2.103   3.441
10563SOL    HW132588   0.499   2.044   3.368
10563SOL    HW232589   0.499   2.071   3.529
10564SOL     OW32590   5.818   5.641   2.403
10564SOL    HW132591   5.720   5.635   2.386
10564SOL    HW232592   5.859   5.550   2.396
10565SOL     OW32593   0.644   6.909   5.753
10565SOL    HW132594   0.605   6.817   5.762
10565SOL    HW232595   0.577   6.969   5.709
10566SOL     OW32596   3.224   2.132   6.385
10566SOL    HW132597   3.150   2.075   6.422
10566SOL    HW232598   3.221   2.131   6.285
10567SOL     OW32599   3.140   2.221   4.766
10567SOL    HW132600   3.228   2.174   4.757
10567SOL    HW232601   3.122   2.240   4.862
10568SOL     OW32602   6.075   3.170   1.388
10568SOL    HW132603   6.107   3.106   1.318
10568SOL    HW232604   5.979   3.151   1.410
10569SOL     OW32605   5.969   1.785   1.888
10569SOL    HW132606   5.978   1.733   1.973
10569SOL    HW232607   5.965   1.883   1.910
10570SOL     OW32608   0.800   5.501   3.605
10570SOL    HW132609   0.785   5.561   3.684
10570SOL    HW232610   0.897   5.504   3.578
10571SOL     OW32611   0.093   4.269   6.027
10571SOL    HW132612   0.129   4.282   5.935
10571SOL    HW232613   0.168   4.262   6.092
10572SOL     OW32614   6.585   4.304   3.700
10572SOL    HW132615   6.552   4.316   3.794
10572SOL    HW232616   6.670   4.251   3.702
10573SOL     OW32617   4.667   0.539   5.206
10573SOL    HW132618   4.635   0.609   5.270
10573SOL    HW232619   4.669   0.577   5.114
10574SOL     OW32620   1.845   1.427   4.494
10574SOL    HW132621   1.876   1.490   4.565
10574SOL    HW232622   1.804   1.346   4.537
10575SOL     OW32623   6.984   1.879   3.930
10575SOL    HW132624   0.007   1.805   3.981
10575SOL    HW232625   7.008   1.872   3.834
10576SOL     OW32626   6.916   5.923   4.700
10576SOL    HW132627   6.882   6.009   4.663
10576SOL    HW232628   6.983   5.883   4.638
10577SOL     OW32629   1.863   4.487   0.198
10577SOL    HW132630   1.869   4.586   0.204
10577SOL    HW232631   1.887   4.446   0.286
10578SOL     OW32632   4.641   1.275   3.033
10578SOL    HW132633   4.697   1.263   2.951
10578SOL    HW232634   4.581   1.354   3.022
10579SOL     OW32635   4.307   2.733   1.629
10579SOL    HW132636   4.241   2.783   1.683
10579SOL    HW232637   4.400   2.763   1.653
10580SOL     OW32638   6.927   0.321   6.679
10580SOL    HW132639   6.932   0.227   6.714
10580SOL    HW232640   6.838   0.334   6.635
10581SOL     OW32641   6.515   0.037   3.447
10581SOL    HW132642   6.423   0.045   3.485
10581SOL    HW232643   6.530   6.964   3.415
10582SOL     OW32644   5.173   4.680   5.840
10582SOL    HW132645   5.137   4.657   5.930
10582SOL    HW232646   5.253   4.623   5.820
10583SOL     OW32647   3.994   0.861   4.268
10583SOL    HW132648   3.961   0.824   4.354
10583SOL    HW232649   4.094   0.849   4.263
10584SOL     OW32650   6.484   0.324   1.090
10584SOL    HW132651   6.388   0.300   1.080
10584SOL    HW232652   6.498   0.375   1.175
10585SOL     OW32653   1.984   1.647   5.103
10585SOL    HW132654   1.988   1.704   5.021
10585SOL    HW232655   2.075   1.645   5.146
10586SOL     OW32656   6.547   5.359   4.557
10586SOL    HW132657   6.566   5.454   4.532
10586SOL    HW232658   6.602   5.335   4.637
10587SOL     OW32659   6.536   4.438   6.950
10587SOL    HW132660   6.576   4.346   6.953
10587SOL    HW232661   6.438   4.431   6.933
10588SOL     OW32662   1.244   3.248   4.239
10588SOL    HW132663   1.321   3.186   4.250
10588SOL    HW232664   1.254   3.301   4.155
10589SOL     OW32665   5.982   0.986   4.219
10589SOL    HW132666   6.076   1.016   4.205
10589SOL    HW232667   5.963   0.907   4.161
10590SOL     OW32668   1.063   0.210   1.643
10590SOL    HW132669   0.994   0.218   1.571
10590SOL    HW232670   1.103   0.118   1.641
10591SOL     OW32671   2.076   2.358   6.422
10591SOL    HW132672   1.989   2.385   6.463
10591SOL    HW232673   2.132   2.311   6.491
10592SOL     OW32674   5.299   3.324   2.638
10592SOL    HW132675   5.215   3.307   2.689
10592SOL    HW232676   5.300   3.417   2.604
10593SOL     OW32677   2.465   6.352   0.583
10593SOL    HW132678   2.526   6.306   0.519
10593SOL    HW232679   2.371   6.323   0.565
10594SOL     OW32680   5.233   0.600   2.108
10594SOL    HW132681   5.175   0.677   2.079
10594SOL    HW232682   5.181   0.515   2.102
10595SOL     OW32683   4.852   5.833   6.718
10595SOL    HW132684   4.820   5.898   6.648
10595SOL    HW232685   4.773   5.784   6.755
10596SOL     OW32686   4.402   6.847   0.346
10596SOL    HW132687   4.455   6.763   0.335
10596SOL    HW232688   4.392   6.867   0.443
10597SOL     OW32689   3.346   0.782   5.560
10597SOL    HW132690   3.405   0.861   5.571
10597SOL    HW232691   3.326   0.743   5.650
10598SOL     OW32692   3.121   2.841   7.009
10598SOL    HW132693   3.157   2.749   7.019
10598SOL    HW232694   3.164   2.886   6.931
10599SOL     OW32695   5.141   3.230   5.928
10599SOL    HW132696   5.226   3.270   5.962
10599SOL    HW232697   5.069   3.241   5.997
10600SOL     OW32698   2.469   2.987   0.662
10600SOL    HW132699   2.396   2.957   0.600
10600SOL    HW232700   2.472   3.087   0.663
10601SOL     OW32701   2.180   4.612   4.946
10601SOL    HW132702   2.171   4.653   4.855
10601SOL    HW232703   2.090   4.587   4.980
10602SOL     OW32704   3.186   1.371   2.008
10602SOL    HW132705   3.128   1.301   1.966
10602SOL    HW232706   3.268   1.385   1.952
10603SOL     OW32707   3.695   6.331   3.294
10603SOL    HW132708   3.634   6.409   3.287
10603SOL    HW232709   3.641   6.247   3.304
10604SOL     OW32710   6.263   5.225   5.776
10604SOL    HW132711   6.351   5.266   5.753
10604SOL    HW232712   6.189   5.284   5.745
10605SOL     OW32713   1.657   6.398   0.126
10605SOL    HW132714   1.585   6.468   0.123
10605SOL    HW232715   1.738   6.431   0.078
10606SOL     OW32716   0.036   0.342   2.517
10606SOL    HW132717   0.096   0.337   2.438
10606SOL    HW232718   7.020   0.435   2.526
10607SOL     OW32719   3.971   4.726   5.438
10607SOL    HW132720   3.879   4.745   5.405
10607SOL    HW232721   4.033   4.797   5.406
10608SOL     OW32722   5.581   2.403   5.890
10608SOL    HW132723   5.612   2.469   5.958
10608SOL    HW232724   5.545   2.322   5.937
10609SOL     OW32725   2.465   6.435   0.024
10609SOL    HW132726   2.491   6.387   6.962
10609SOL    HW232727   2.377   6.400   0.057
10610SOL     OW32728   0.501   2.442   5.092
10610SOL    HW132729   0.420   2.502   5.091
10610SOL    HW232730   0.582   2.496   5.113
10611SOL     OW32731   3.145   3.945   6.503
10611SOL    HW132732   3.137   3.984   6.411
10611SOL    HW232733   3.241   3.949   6.532
10612SOL     OW32734   3.751   1.018   4.536
10612SOL    HW132735   3.718   1.021   4.442
10612SOL    HW232736   3.705   1.089   4.590
10613SOL     OW32737   5.790   6.253   5.428
10613SOL    HW132738   5.794   6.162   5.388
10613SOL    HW232739   5.884   6.286   5.443
10614SOL     OW32740   5.818   1.940   4.697
10614SOL    HW132741   5.874   2.015   4.731
10614SOL    HW232742   5.871   1.855   4.698
10615SOL     OW32743   3.987   6.988   5.410
10615SOL    HW132744   3.916   6.929   5.448
10615SOL    HW232745   3.992   6.974   5.311
10616SOL     OW32746   3.020   6.634   0.973
10616SOL    HW132747   2.957   6.639   0.896
10616SOL    HW232748   3.063   6.544   0.975
10617SOL     OW32749   2.835   3.195   1.476
10617SOL    HW132750   2.905   3.242   1.530
10617SOL    HW232751   2.777   3.141   1.537
10618SOL     OW32752   0.785   3.508   6.147
10618SOL    HW132753   0.826   3.420   6.171
10618SOL    HW232754   0.721   3.496   6.071
10619SOL     OW32755   6.859   4.002   1.924
10619SOL    HW132756   6.883   3.924   1.982
10619SOL    HW232757   6.771   4.039   1.952
10620SOL     OW32758   1.212   5.481   4.715
10620SOL    HW132759   1.207   5.573   4.677
10620SOL    HW232760   1.165   5.479   4.803
10621SOL     OW32761   0.738   5.733   1.889
10621SOL    HW132762   0.836   5.714   1.883
10621SOL    HW232763   0.686   5.650   1.866
10622SOL     OW32764   5.487   1.636   1.339
10622SOL    HW132765   5.481   1.537   1.335
10622SOL    HW232766   5.395   1.675   1.339
10623SOL     OW32767   6.642   4.416   5.025
10623SOL    HW132768   6.610   4.485   5.090
10623SOL    HW232769   6.666   4.332   5.074
10624SOL     OW32770   0.777   2.976   4.744
10624SOL    HW132771   0.714   2.952   4.818
10624SOL    HW232772   0.735   3.047   4.687
10625SOL     OW32773   0.415   4.427   0.651
10625SOL    HW132774   0.416   4.355   0.720
10625SOL    HW232775   0.386   4.513   0.693
10626SOL     OW32776   2.722   3.270   0.689
10626SOL    HW132777   2.674   3.253   0.774
10626SOL    HW232778   2.810   3.222   0.690
10627SOL     OW32779   5.609   6.925   0.649
10627SOL    HW132780   5.585   6.872   0.731
10627SOL    HW232781   5.603   6.866   0.569
10628SOL     OW32782   5.622   6.236   0.151
10628SOL    HW132783   5.531   6.210   0.117
10628SOL    HW232784   5.667   6.296   0.085
10629SOL     OW32785   2.322   4.727   5.149
10629SOL    HW132786   2.279   4.691   5.066
10629SOL    HW232787   2.363   4.651   5.200
10630SOL     OW32788   6.435   1.527   3.555
10630SOL    HW132789   6.463   1.463   3.627
10630SOL    HW232790   6.372   1.594   3.593
10631SOL     OW32791   2.442   4.911   4.800
10631SOL    HW132792   2.505   4.988   4.794
10631SOL    HW232793   2.480   4.841   4.861
10632SOL     OW32794   6.040   1.717   3.742
10632SOL    HW132795   5.960   1.691   3.689
10632SOL    HW232796   6.019   1.714   3.840
10633SOL     OW32797   2.943   3.220   1.029
10633SOL    HW132798   2.939   3.155   1.105
10633SOL    HW232799   2.864   3.280   1.033
10634SOL     OW32800   3.219   5.548   0.788
10634SOL    HW132801   3.297   5.512   0.736
10634SOL    HW232802   3.182   5.476   0.846
10635SOL     OW32803   2.509   2.621   1.134
10635SOL    HW132804   2.493   2.527   1.164
10635SOL    HW232805   2.475   2.685   1.204
10636SOL     OW32806   1.293   2.002   1.339
10636SOL    HW132807   1.309   2.082   1.280
10636SOL    HW232808   1.222   2.023   1.406
10637SOL     OW32809   2.652   4.890   6.169
10637SOL    HW132810   2.640   4.881   6.070
10637SOL    HW232811   2.628   4.804   6.213
10638SOL     OW32812   6.638   5.724   2.863
10638SOL    HW132813   6.556   5.673   2.887
10638SOL    HW232814   6.628   5.762   2.771
10639SOL     OW32815   0.796   3.090   3.602
10639SOL    HW132816   0.776   3.148   3.681
10639SOL    HW232817   0.767   3.136   3.518
10640SOL     OW32818   3.817   0.354   5.266
10640SOL    HW132819   3.881   0.282   5.238
10640SOL    HW232820   3.861   0.443   5.258
10641SOL     OW32821   2.360   1.958   1.921
10641SOL    HW132822   2.273   1.969   1.872
10641SOL    HW232823   2.435   1.972   1.857
10642SOL     OW32824   6.733   3.362   1.706
10642SOL    HW132825   6.669   3.438   1.692
10642SOL    HW232826   6.692   3.295   1.767
10643SOL     OW32827   1.760   5.050   5.637
10643SOL    HW132828   1.705   5.083   5.561
10643SOL    HW232829   1.738   4.955   5.655
10644SOL     OW32830   5.274   2.810   3.522
10644SOL    HW132831   5.230   2.761   3.598
10644SOL    HW232832   5.242   2.774   3.435
10645SOL     OW32833   2.171   2.240   4.605
10645SOL    HW132834   2.247   2.288   4.560
10645SOL    HW232835   2.142   2.292   4.685
10646SOL     OW32836   6.635   0.644   6.342
10646SOL    HW132837   6.572   0.613   6.271
10646SOL    HW232838   6.587   0.709   6.403
10647SOL     OW32839   2.800   5.735   4.867
10647SOL    HW132840   2.868   5.760   4.799
10647SOL    HW232841   2.726   5.803   4.866
10648SOL     OW32842   5.338   4.549   6.053
10648SOL    HW132843   5.412   4.499   6.008
10648SOL    HW232844   5.368   4.580   6.143
10649SOL     OW32845   0.186   4.704   2.534
10649SOL    HW132846   0.192   4.678   2.630
10649SOL    HW232847   0.136   4.634   2.483
10650SOL     OW32848   0.789   6.647   3.602
10650SOL    HW132849   0.755   6.602   3.685
10650SOL    HW232850   0.712   6.663   3.540
10651SOL     OW32851   5.304   6.205   6.353
10651SOL    HW132852   5.401   6.182   6.365
10651SOL    HW232853   5.295   6.282   6.290
10652SOL     OW32854   3.576   6.884   5.741
10652SOL    HW132855   3.561   6.793   5.778
10652SOL    HW232856   3.597   6.948   5.815
10653SOL     OW32857   4.545   4.467   4.199
10653SOL    HW132858   4.498   4.550   4.228
10653SOL    HW232859   4.610   4.489   4.126
10654SOL     OW32860   5.157   0.865   0.522
10654SOL    HW132861   5.084   0.910   0.470
10654SOL    HW232862   5.201   0.931   0.582
10655SOL     OW32863   2.396   5.272   0.618
10655SOL    HW132864   2.374   5.364   0.650
10655SOL    HW232865   2.400   5.272   0.518
10656SOL     OW32866   6.703   2.519   2.095
10656SOL    HW132867   6.781   2.474   2.139
10656SOL    HW232868   6.626   2.455   2.090
10657SOL     OW32869   6.547   6.952   6.077
10657SOL    HW132870   6.566   6.927   5.982
10657SOL    HW232871   6.499   0.018   6.080
10658SOL     OW32872   5.778   4.584   5.450
10658SOL    HW132873   5.735   4.494   5.452
10658SOL    HW232874   5.711   4.652   5.420
10659SOL     OW32875   6.629   5.729   1.243
10659SOL    HW132876   6.727   5.742   1.225
10659SOL    HW232877   6.586   5.817   1.260
10660SOL     OW32878   5.462   4.115   6.942
10660SOL    HW132879   5.537   4.092   7.005
10660SOL    HW232880   5.436   4.033   6.891
10661SOL     OW32881   1.438   0.267   2.185
10661SOL    HW132882   1.522   0.249   2.132
10661SOL    HW232883   1.396   0.351   2.152
10662SOL     OW32884   5.337   0.300   3.441
10662SOL    HW132885   5.240   0.292   3.464
10662SOL    HW232886   5.379   0.368   3.500
10663SOL     OW32887   0.779   1.140   1.531
10663SOL    HW132888   0.800   1.230   1.494
10663SOL    HW232889   0.793   1.140   1.630
10664SOL     OW32890   0.447   4.756   5.395
10664SOL    HW132891   0.463   4.852   5.371
10664SOL    HW232892   0.465   4.743   5.492
10665SOL     OW32893   0.945   1.095   0.780
10665SOL    HW132894   0.987   1.047   0.856
10665SOL    HW232895   1.003   1.172   0.753
10666SOL     OW32896   3.072   4.281   1.340
10666SOL    HW132897   3.132   4.301   1.418
10666SOL    HW232898   3.057   4.365   1.288
10667SOL     OW32899   4.083   3.400   5.491
10667SOL    HW132900   4.125   3.491   5.495
10667SOL    HW232901   4.044   3.385   5.400
10668SOL     OW32902   1.555   1.019   4.900
10668SOL    HW132903   1.646   1.009   4.940
10668SOL    HW232904   1.556   0.982   4.806
10669SOL     OW32905   5.830   6.380   0.997
10669SOL    HW132906   5.807   6.367   0.901
10669SOL    HW232907   5.748   6.401   1.049
10670SOL     OW32908   5.278   3.461   5.149
10670SOL    HW132909   5.240   3.483   5.059
10670SOL    HW232910   5.344   3.386   5.140
10671SOL     OW32911   2.656   2.406   3.443
10671SOL    HW132912   2.614   2.484   3.396
10671SOL    HW232913   2.746   2.388   3.403
10672SOL     OW32914   5.994   2.668   0.162
10672SOL    HW132915   5.915   2.640   0.108
10672SOL    HW232916   6.024   2.592   0.220
10673SOL     OW32917   1.386   1.106   7.011
10673SOL    HW132918   1.424   1.014   7.010
10673SOL    HW232919   1.446   1.168   6.960
10674SOL     OW32920   3.445   3.617   1.779
10674SOL    HW132921   3.349   3.639   1.761
10674SOL    HW232922   3.453   3.520   1.803
10675SOL     OW32923   1.831   6.673   6.531
10675SOL    HW132924   1.764   6.745   6.549
10675SOL    HW232925   1.807   6.625   6.446
10676SOL     OW32926   6.504   6.517   6.144
10676SOL    HW132927   6.459   6.518   6.054
10676SOL    HW232928   6.556   6.602   6.155
10677SOL     OW32929   1.025   0.999   2.725
10677SOL    HW132930   0.976   0.930   2.779
10677SOL    HW232931   1.092   0.954   2.666
10678SOL     OW32932   3.319   5.721   3.551
10678SOL    HW132933   3.353   5.639   3.504
10678SOL    HW232934   3.364   5.730   3.640
10679SOL     OW32935   4.462   5.802   6.701
10679SOL    HW132936   4.454   5.808   6.602
10679SOL    HW232937   4.550   5.761   6.725
10680SOL     OW32938   2.842   1.647   3.595
10680SOL    HW132939   2.746   1.619   3.600
10680SOL    HW232940   2.880   1.620   3.507
10681SOL     OW32941   0.632   3.782   0.505
10681SOL    HW132942   0.600   3.735   0.423
10681SOL    HW232943   0.612   3.726   0.585
10682SOL     OW32944   2.095   1.347   4.215
10682SOL    HW132945   2.179   1.318   4.261
10682SOL    HW232946   2.033   1.387   4.283
10683SOL     OW32947   3.262   1.777   3.988
10683SOL    HW132948   3.361   1.767   3.977
10683SOL    HW232949   3.221   1.805   3.901
10684SOL     OW32950   5.328   4.242   1.061
10684SOL    HW132951   5.286   4.176   1.124
10684SOL    HW232952   5.425   4.252   1.083
10685SOL     OW32953   0.721   5.950   2.776
10685SOL    HW132954   0.646   6.003   2.817
10685SOL    HW232955   0.694   5.854   2.770
10686SOL     OW32956   1.225   4.841   6.635
10686SOL    HW132957   1.205   4.880   6.545
10686SOL    HW232958   1.320   4.860   6.659
10687SOL     OW32959   6.815   5.527   1.960
10687SOL    HW132960   6.864   5.442   1.941
10687SOL    HW232961   6.719   5.516   1.932
10688SOL     OW32962   6.096   4.396   2.734
10688SOL    HW132963   6.055   4.321   2.787
10688SOL    HW232964   6.174   4.360   2.682
10689SOL     OW32965   0.554   0.016   3.554
10689SOL    HW132966   0.554   6.975   3.475
10689SOL    HW232967   0.522   0.106   3.526
10690SOL     OW32968   0.417   6.497   3.197
10690SOL    HW132969   0.322   6.529   3.190
10690SOL    HW232970   0.423   6.428   3.269
10691SOL     OW32971   0.919   1.825   2.262
10691SOL    HW132972   0.886   1.861   2.175
10691SOL    HW232973   0.910   1.895   2.333
10692SOL     OW32974   3.337   4.872   2.732
10692SOL    HW132975   3.247   4.869   2.775
10692SOL    HW232976   3.326   4.897   2.636
10693SOL     OW32977   2.670   0.278   1.146
10693SOL    HW132978   2.704   0.187   1.172
10693SOL    HW232979   2.609   0.269   1.067
10694SOL     OW32980   5.228   6.483   1.106
10694SOL    HW132981   5.144   6.489   1.160
10694SOL    HW232982   5.295   6.549   1.140
10695SOL     OW32983   5.595   2.170   2.944
10695SOL    HW132984   5.605   2.136   3.037
10695SOL    HW232985   5.507   2.217   2.934
10696SOL     OW32986   6.290   4.051   3.706
10696SOL    HW132987   6.202   4.098   3.702
10696SOL    HW232988   6.357   4.112   3.750
10697SOL     OW32989   0.527   5.489   4.705
10697SOL    HW132990   0.450   5.426   4.696
10697SOL    HW232991   0.606   5.440   4.741
10698SOL     OW32992   3.497   5.515   4.570
10698SOL    HW132993   3.434   5.437   4.579
10698SOL    HW232994   3.582   5.494   4.618
10699SOL     OW32995   4.310   2.362   1.844
10699SOL    HW132996   4.270   2.378   1.754
10699SOL    HW232997   4.321   2.449   1.892
10700SOL     OW32998   0.605   0.142   0.543
10700SOL    HW132999   0.691   0.124   0.495
10700SOL    HW233000   0.547   0.061   0.540
10701SOL     OW33001   2.867   5.690   0.310
10701SOL    HW133002   2.911   5.754   0.247
10701SOL    HW233003   2.868   5.728   0.402
10702SOL     OW33004   6.049   2.067   2.282
10702SOL    HW133005   6.102   1.987   2.253
10702SOL    HW233006   6.103   2.150   2.266
10703SOL     OW33007   3.056   3.557   4.217
10703SOL    HW133008   2.988   3.550   4.289
10703SOL    HW233009   3.142   3.514   4.247
10704SOL     OW33010   5.995   5.300   1.387
10704SOL    HW133011   5.931   5.230   1.358
10704SOL    HW233012   5.954   5.391   1.374
10705SOL     OW33013   6.477   4.129   2.294
10705SOL    HW133014   6.418   4.180   2.358
10705SOL    HW233015   6.487   4.182   2.210
10706SOL     OW33016   4.575   6.500   2.363
10706SOL    HW133017   4.571   6.440   2.443
10706SOL    HW233018   4.511   6.576   2.376
10707SOL     OW33019   0.296   6.914   3.592
10707SOL    HW133020   0.227   6.974   3.551
10707SOL    HW233021   0.382   6.965   3.604
10708SOL     OW33022   4.435   0.675   2.706
10708SOL    HW133023   4.522   0.656   2.751
10708SOL    HW233024   4.362   0.678   2.775
10709SOL     OW33025   6.302   0.248   5.199
10709SOL    HW133026   6.248   0.263   5.116
10709SOL    HW233027   6.387   0.201   5.176
10710SOL     OW33028   0.528   6.576   4.259
10710SOL    HW133029   0.517   6.478   4.246
10710SOL    HW233030   0.438   6.619   4.270
10711SOL     OW33031   1.850   6.530   3.396
10711SOL    HW133032   1.831   6.562   3.488
10711SOL    HW233033   1.780   6.563   3.333
10712SOL     OW33034   2.844   1.255   1.765
10712SOL    HW133035   2.895   1.301   1.837
10712SOL    HW233036   2.897   1.177   1.731
10713SOL     OW33037   0.799   3.730   1.859
10713SOL    HW133038   0.851   3.647   1.878
10713SOL    HW233039   0.753   3.721   1.770
10714SOL     OW33040   6.233   3.517   6.202
10714SOL    HW133041   6.227   3.616   6.214
10714SOL    HW233042   6.223   3.471   6.291
10715SOL     OW33043   4.891   6.747   2.915
10715SOL    HW133044   4.988   6.773   2.918
10715SOL    HW233045   4.837   6.817   2.962
10716SOL     OW33046   6.515   2.680   4.554
10716SOL    HW133047   6.554   2.592   4.580
10716SOL    HW233048   6.552   2.752   4.614
10717SOL     OW33049   1.148   2.859   0.773
10717SOL    HW133050   1.067   2.847   0.715
10717SOL    HW233051   1.215   2.917   0.725
10718SOL     OW33052   0.187   3.481   6.459
10718SOL    HW133053   0.239   3.481   6.544
10718SOL    HW233054   0.091   3.457   6.478
10719SOL     OW33055   4.557   6.376   0.252
10719SOL    HW133056   4.549   6.395   0.154
10719SOL    HW233057   4.572   6.278   0.265
10720SOL     OW33058   6.691   2.875   5.622
10720SOL    HW133059   6.630   2.951   5.639
10720SOL    HW233060   6.771   2.906   5.570
10721SOL     OW33061   6.258   3.640   5.707
10721SOL    HW133062   6.180   3.582   5.684
10721SOL    HW233063   6.266   3.713   5.639
10722SOL     OW33064   6.764   3.097   0.604
10722SOL    HW133065   6.785   3.182   0.556
10722SOL    HW233066   6.723   3.032   0.541
10723SOL     OW33067   6.473   3.462   0.005
10723SOL    HW133068   6.492   3.412   6.942
10723SOL    HW233069   6.415   3.406   0.065
10724SOL     OW33070   4.172   0.608   6.617
10724SOL    HW133071   4.197   0.705   6.606
10724SOL    HW233072   4.073   0.599   6.615
10725SOL     OW33073   0.131   5.401   3.816
10725SOL    HW133074   0.190   5.373   3.892
10725SOL    HW233075   0.118   5.500   3.819
10726SOL     OW33076   5.834   6.189   5.763
10726SOL    HW133077   5.856   6.286   5.770
10726SOL    HW233078   5.900   6.143   5.703
10727SOL     OW33079   1.280   4.797   3.451
10727SOL    HW133080   1.380   4.802   3.444
10727SOL    HW233081   1.254   4.788   3.547
10728SOL     OW33082   6.153   6.392   1.650
10728SOL    HW133083   6.086   6.421   1.581
10728SOL    HW233084   6.111   6.393   1.740
10729SOL     OW33085   6.333   0.594   3.053
10729SOL    HW133086   6.256   0.630   3.001
10729SOL    HW233087   6.319   0.497   3.072
10730SOL     OW33088   2.848   0.284   1.472
10730SOL    HW133089   2.795   0.341   1.410
10730SOL    HW233090   2.899   0.343   1.536
10731SOL     OW33091   2.080   6.060   6.336
10731SOL    HW133092   2.122   5.970   6.335
10731SOL    HW233093   2.037   6.076   6.425
10732SOL     OW33094   5.775   6.392   2.587
10732SOL    HW133095   5.696   6.440   2.624
10732SOL    HW233096   5.787   6.416   2.490
10733SOL     OW33097   5.805   2.042   6.897
10733SOL    HW133098   5.825   1.980   6.822
10733SOL    HW233099   5.832   2.000   6.984
10734SOL     OW33100   1.016   0.487   6.804
10734SOL    HW133101   0.959   0.413   6.769
10734SOL    HW233102   0.959   0.556   6.849
10735SOL     OW33103   1.903   4.773   2.469
10735SOL    HW133104   1.889   4.839   2.395
10735SOL    HW233105   1.952   4.818   2.544
10736SOL     OW33106   0.797   1.142   3.608
10736SOL    HW133107   0.863   1.072   3.583
10736SOL    HW233108   0.711   1.126   3.559
10737SOL     OW33109   1.286   1.826   7.011
10737SOL    HW133110   1.286   1.788   6.919
10737SOL    HW233111   1.374   1.870   0.008
10738SOL     OW33112   2.535   0.585   2.089
10738SOL    HW133113   2.615   0.598   2.030
10738SOL    HW233114   2.453   0.572   2.033
10739SOL     OW33115   0.674   1.221   2.215
10739SOL    HW133116   0.773   1.206   2.214
10739SOL    HW233117   0.654   1.311   2.177
10740SOL     OW33118   1.466   4.416   6.255
10740SOL    HW133119   1.446   4.340   6.317
10740SOL    HW233120   1.495   4.379   6.166
10741SOL     OW33121   1.038   1.139   3.315
10741SOL    HW133122   1.088   1.160   3.399
10741SOL    HW233123   0.975   1.063   3.332
10742SOL     OW33124   5.711   0.321   1.567
10742SOL    HW133125   5.683   0.303   1.472
10742SOL    HW233126   5.741   0.235   1.609
10743SOL     OW33127   2.572   2.490   3.715
10743SOL    HW133128   2.535   2.582   3.705
10743SOL    HW233129   2.612   2.460   3.628
10744SOL     OW33130   3.564   1.750   2.701
10744SOL    HW133131   3.637   1.730   2.636
10744SOL    HW233132   3.545   1.848   2.701
10745SOL     OW33133   0.785   4.843   0.501
10745SOL    HW133134   0.820   4.850   0.594
10745SOL    HW233135   0.851   4.794   0.444
10746SOL     OW33136   1.643   4.172   1.762
10746SOL    HW133137   1.597   4.204   1.679
10746SOL    HW233138   1.630   4.073   1.772
10747SOL     OW33139   5.054   1.694   3.356
10747SOL    HW133140   4.964   1.692   3.399
10747SOL    HW233141   5.101   1.779   3.381
10748SOL     OW33142   5.525   6.964   0.923
10748SOL    HW133143   5.482   6.874   0.913
10748SOL    HW233144   5.541   7.003   0.832
10749SOL     OW33145   0.406   4.810   2.461
10749SOL    HW133146   0.463   4.833   2.540
10749SOL    HW233147   0.315   4.782   2.493
10750SOL     OW33148   4.362   5.948   4.561
10750SOL    HW133149   4.275   5.919   4.601
10750SOL    HW233150   4.419   5.868   4.544
10751SOL     OW33151   0.862   3.957   5.292
10751SOL    HW133152   0.827   3.880   5.239
10751SOL    HW233153   0.937   4.000   5.241
10752SOL     OW33154   6.628   3.678   6.344
10752SOL    HW133155   6.639   3.604   6.411
10752SOL    HW233156   6.575   3.753   6.385
10753SOL     OW33157   5.927   0.479   3.703
10753SOL    HW133158   5.836   0.452   3.672
10753SOL    HW233159   5.961   0.554   3.647
10754SOL     OW33160   2.279   1.977   3.532
10754SOL    HW133161   2.267   1.970   3.631
10754SOL    HW233162   2.303   2.071   3.508
10755SOL     OW33163   0.741   1.739   0.901
10755SOL    HW133164   0.750   1.782   0.812
10755SOL    HW233165   0.686   1.656   0.893
10756SOL     OW33166   6.171   3.993   6.977
10756SOL    HW133167   6.094   4.056   6.962
10756SOL    HW233168   6.170   3.962   0.052
10757SOL     OW33169   6.631   3.421   0.711
10757SOL    HW133170   6.700   3.378   0.769
10757SOL    HW233171   6.672   3.496   0.659
10758SOL     OW33172   1.721   5.885   4.993
10758SOL    HW133173   1.672   5.808   4.952
10758SOL    HW233174   1.819   5.874   4.978
10759SOL     OW33175   1.825   3.230   6.982
10759SOL    HW133176   1.773   3.177   6.915
10759SOL    HW233177   1.763   3.264   0.032
10760SOL     OW33178   6.963   0.388   0.683
10760SOL    HW133179   6.986   0.314   0.746
10760SOL    HW233180   6.960   0.353   0.589
10761SOL     OW33181   1.027   1.928   6.348
10761SOL    HW133182   1.075   1.943   6.261
10761SOL    HW233183   0.952   1.993   6.356
10762SOL     OW33184   4.404   1.504   5.200
10762SOL    HW133185   4.354   1.441   5.260
10762SOL    HW233186   4.365   1.596   5.208
10763SOL     OW33187   4.524   6.006   0.492
10763SOL    HW133188   4.485   6.091   0.530
10763SOL    HW233189   4.511   5.932   0.558
10764SOL     OW33190   5.738   1.372   5.777
10764SOL    HW133191   5.694   1.310   5.712
10764SOL    HW233192   5.684   1.377   5.861
10765SOL     OW33193   5.505   2.847   1.265
10765SOL    HW133194   5.596   2.884   1.246
10765SOL    HW233195   5.500   2.752   1.236
10766SOL     OW33196   2.908   3.259   6.889
10766SOL    HW133197   2.915   3.289   6.984
10766SOL    HW233198   2.817   3.282   6.853
10767SOL     OW33199   1.189   0.615   0.713
10767SOL    HW133200   1.234   0.530   0.686
10767SOL    HW233201   1.250   0.692   0.699
10768SOL     OW33202   5.609   5.100   0.623
10768SOL    HW133203   5.704   5.068   0.619
10768SOL    HW233204   5.592   5.143   0.712
10769SOL     OW33205   2.056   4.928   4.171
10769SOL    HW133206   2.148   4.955   4.140
10769SOL    HW233207   2.064   4.857   4.240
10770SOL     OW33208   5.614   6.828   4.593
10770SOL    HW133209   5.654   6.740   4.567
10770SOL    HW233210   5.619   6.840   4.692
10771SOL     OW33211   4.709   0.133   5.006
10771SOL    HW133212   4.779   0.073   4.965
10771SOL    HW233213   4.744   0.173   5.090
10772SOL     OW33214   6.365   6.738   4.073
10772SOL    HW133215   6.339   6.738   3.977
10772SOL    HW233216   6.333   6.654   4.117
10773SOL     OW33217   6.387   5.162   6.641
10773SOL    HW133218   6.419   5.070   6.619
10773SOL    HW233219   6.304   5.182   6.590
10774SOL     OW33220   1.725   2.250   0.022
10774SOL    HW133221   1.751   2.200   0.105
10774SOL    HW233222   1.804   2.299   7.007
10775SOL     OW33223   0.490   3.978   0.842
10775SOL    HW133224   0.484   3.947   0.937
10775SOL    HW233225   0.494   3.898   0.782
10776SOL     OW33226   1.235   6.209   0.980
10776SOL    HW133227   1.243   6.296   0.932
10776SOL    HW233228   1.138   6.182   0.983
10777SOL     OW33229   4.050   6.918   4.186
10777SOL    HW133230   4.027   7.015   4.193
10777SOL    HW233231   4.029   6.873   4.273
10778SOL     OW33232   5.326   6.301   5.005
10778SOL    HW133233   5.415   6.262   5.031
10778SOL    HW233234   5.320   6.395   5.039
10779SOL     OW33235   6.237   4.606   3.480
10779SOL    HW133236   6.189   4.634   3.397
10779SOL    HW233237   6.336   4.604   3.463
10780SOL     OW33238   1.149   6.655   2.574
10780SOL    HW133239   1.232   6.711   2.569
10780SOL    HW233240   1.174   6.558   2.567
10781SOL     OW33241   4.098   1.521   3.352
10781SOL    HW133242   4.081   1.426   3.378
10781SOL    HW233243   4.029   1.581   3.394
10782SOL     OW33244   6.572   2.357   3.687
10782SOL    HW133245   6.646   2.295   3.664
10782SOL    HW233246   6.534   2.333   3.776
10783SOL     OW33247   1.181   3.242   3.394
10783SOL    HW133248   1.083   3.229   3.403
10783SOL    HW233249   1.223   3.241   3.485
10784SOL     OW33250   2.546   0.305   2.041
10784SOL    HW133251   2.528   0.389   2.092
10784SOL    HW233252   2.631   0.314   1.990
10785SOL     OW33253   0.688   5.131   1.486
10785SOL    HW133254   0.593   5.108   1.468
10785SOL    HW233255   0.744   5.048   1.478
10786SOL     OW33256   5.095   3.128   1.900
10786SOL    HW133257   5.072   3.123   1.997
10786SOL    HW233258   5.048   3.054   1.851
10787SOL     OW33259   3.540   2.097   4.588
10787SOL    HW133260   3.629   2.056   4.605
10787SOL    HW233261   3.488   2.100   4.674
10788SOL     OW33262   2.031   4.825   0.506
10788SOL    HW133263   1.956   4.891   0.498
10788SOL    HW233264   2.072   4.810   0.416
10789SOL     OW33265   5.927   1.852   0.830
10789SOL    HW133266   5.978   1.817   0.909
10789SOL    HW233267   5.832   1.822   0.837
10790SOL     OW33268   0.985   0.929   3.902
10790SOL    HW133269   0.895   0.916   3.941
10790SOL    HW233270   1.008   0.851   3.844
10791SOL     OW33271   0.580   1.245   0.709
10791SOL    HW133272   0.611   1.205   0.796
10791SOL    HW233273   0.481   1.254   0.710
10792SOL     OW33274   3.240   3.276   1.950
10792SOL    HW133275   3.179   3.349   1.921
10792SOL    HW233276   3.198   3.187   1.931
10793SOL     OW33277   5.272   2.715   4.298
10793SOL    HW133278   5.172   2.723   4.297
10793SOL    HW233279   5.297   2.619   4.310
10794SOL     OW33280   3.240   4.101   2.898
10794SOL    HW133281   3.261   4.157   2.818
10794SOL    HW233282   3.299   4.129   2.974
10795SOL     OW33283   6.350   3.873   4.126
10795SOL    HW133284   6.418   3.934   4.085
10795SOL    HW233285   6.347   3.787   4.074
10796SOL     OW33286   4.777   6.283   6.848
10796SOL    HW133287   4.831   6.261   6.767
10796SOL    HW233288   4.685   6.246   6.839
10797SOL     OW33289   4.529   2.453   0.724
10797SOL    HW133290   4.551   2.478   0.818
10797SOL    HW233291   4.605   2.479   0.664
10798SOL     OW33292   2.253   0.317   0.528
10798SOL    HW133293   2.198   0.263   0.592
10798SOL    HW233294   2.213   0.408   0.517
10799SOL     OW33295   3.500   1.383   2.126
10799SOL    HW133296   3.513   1.466   2.180
10799SOL    HW233297   3.483   1.409   2.030
10800SOL     OW33298   1.290   0.346   0.029
10800SOL    HW133299   1.386   0.371   0.035
10800SOL    HW233300   1.277   0.255   0.068
10801SOL     OW33301   0.782   0.018   5.079
10801SOL    HW133302   0.797   7.006   4.985
10801SOL    HW233303   0.708   6.987   5.121
10802SOL     OW33304   2.183   3.240   4.755
10802SOL    HW133305   2.191   3.332   4.717
10802SOL    HW233306   2.160   3.246   4.852
10803SOL     OW33307   4.566   4.305   5.246
10803SOL    HW133308   4.614   4.226   5.209
10803SOL    HW233309   4.519   4.354   5.172
10804SOL     OW33310   6.937   3.754   1.443
10804SOL    HW133311   0.015   3.756   1.430
10804SOL    HW233312   6.915   3.790   1.534
10805SOL     OW33313   3.088   6.819   6.862
10805SOL    HW133314   3.142   6.736   6.862
10805SOL    HW233315   3.134   6.889   6.918
10806SOL     OW33316   5.434   4.429   6.541
10806SOL    HW133317   5.337   4.452   6.553
10806SOL    HW233318   5.447   4.332   6.561
10807SOL     OW33319   2.828   6.896   3.483
10807SOL    HW133320   2.866   6.960   3.417
10807SOL    HW233321   2.729   6.891   3.471
10808SOL     OW33322   6.703   3.533   6.816
10808SOL    HW133323   6.775   3.596   6.847
10808SOL    HW233324   6.659   3.491   6.895
10809SOL     OW33325   2.505   6.653   3.779
10809SOL    HW133326   2.459   6.636   3.692
10809SOL    HW233327   2.464   6.732   3.824
10810SOL     OW33328   1.399   0.407   4.950
10810SOL    HW133329   1.472   0.355   4.906
10810SOL    HW233330   1.363   0.356   5.028
10811SOL     OW33331   4.745   4.672   5.577
10811SOL    HW133332   4.677   4.613   5.621
10811SOL    HW233333   4.813   4.701   5.644
10812SOL     OW33334   0.555   3.238   2.360
10812SOL    HW133335   0.460   3.256   2.333
10812SOL    HW233336   0.582   3.147   2.331
10813SOL     OW33337   1.774   6.005   6.841
10813SOL    HW133338   1.772   6.066   6.761
10813SOL    HW233339   1.762   6.060   6.924
10814SOL     OW33340   1.830   6.962   6.785
10814SOL    HW133341   1.868   0.011   6.725
10814SOL    HW233342   1.730   6.963   6.779
10815SOL     OW33343   5.006   4.819   3.102
10815SOL    HW133344   5.070   4.884   3.060
10815SOL    HW233345   4.960   4.767   3.031
10816SOL     OW33346   1.374   1.862   2.389
10816SOL    HW133347   1.334   1.898   2.473
10816SOL    HW233348   1.302   1.849   2.321
10817SOL     OW33349   5.378   6.873   2.491
10817SOL    HW133350   5.341   6.858   2.582
10817SOL    HW233351   5.417   6.965   2.485
10818SOL     OW33352   4.468   3.855   5.398
10818SOL    HW133353   4.441   3.951   5.390
10818SOL    HW233354   4.567   3.848   5.385
10819SOL     OW33355   6.697   4.643   0.058
10819SOL    HW133356   6.646   4.567   0.018
10819SOL    HW233357   6.776   4.664   0.000
10820SOL     OW33358   5.776   5.804   4.426
10820SOL    HW133359   5.860   5.853   4.402
10820SOL    HW233360   5.749   5.745   4.350
10821SOL     OW33361   5.409   6.425   1.742
10821SOL    HW133362   5.318   6.388   1.724
10821SOL    HW233363   5.413   6.461   1.836
10822SOL     OW33364   0.723   2.698   3.153
10822SOL    HW133365   0.632   2.657   3.152
10822SOL    HW233366   0.768   2.683   3.065
10823SOL     OW33367   1.400   5.047   1.786
10823SOL    HW133368   1.495   5.047   1.753
10823SOL    HW233369   1.397   5.086   1.878
10824SOL     OW33370   4.912   0.083   3.947
10824SOL    HW133371   4.940   7.017   3.988
10824SOL    HW233372   4.988   0.123   3.897
10825SOL     OW33373   2.748   0.665   6.966
10825SOL    HW133374   2.671   0.602   6.978
10825SOL    HW233375   2.816   0.647   0.017
10826SOL     OW33376   0.544   4.139   3.918
10826SOL    HW133377   0.644   4.147   3.917
10826SOL    HW233378   0.516   4.074   3.988
10827SOL     OW33379   5.653   3.953   4.815
10827SOL    HW133380   5.725   4.008   4.774
10827SOL    HW233381   5.570   3.960   4.760
10828SOL     OW33382   0.999   5.513   2.291
10828SOL    HW133383   0.981   5.427   2.243
10828SOL    HW233384   1.071   5.563   2.242
10829SOL     OW33385   3.714   2.414   0.566
10829SOL    HW133386   3.794   2.410   0.626
10829SOL    HW233387   3.688   2.509   0.551
10830SOL     OW33388   5.387   2.104   3.472
10830SOL    HW133389   5.365   2.175   3.539
10830SOL    HW233390   5.481   2.116   3.440
10831SOL     OW33391   3.881   5.774   1.702
10831SOL    HW133392   3.803   5.733   1.750
10831SOL    HW233393   3.960   5.714   1.711
10832SOL     OW33394   0.549   2.076   0.861
10832SOL    HW133395   0.491   2.021   0.801
10832SOL    HW233396   0.599   2.016   0.924
10833SOL     OW33397   1.492   0.885   3.765
10833SOL    HW133398   1.476   0.799   3.813
10833SOL    HW233399   1.482   0.961   3.829
10834SOL     OW33400   1.448   2.092   6.069
10834SOL    HW133401   1.415   2.185   6.050
10834SOL    HW233402   1.414   2.030   5.998
10835SOL     OW33403   6.224   1.648   1.227
10835SOL    HW133404   6.179   1.571   1.273
10835SOL    HW233405   6.241   1.721   1.293
10836SOL     OW33406   6.472   1.443   4.787
10836SOL    HW133407   6.411   1.501   4.841
10836SOL    HW233408   6.438   1.439   4.693
10837SOL     OW33409   0.452   5.115   0.262
10837SOL    HW133410   0.478   5.060   0.182
10837SOL    HW233411   0.535   5.147   0.308
10838SOL     OW33412   5.622   6.254   5.025
10838SOL    HW133413   5.674   6.236   4.942
10838SOL    HW233414   5.664   6.207   5.102
10839SOL     OW33415   3.255   3.162   0.023
10839SOL    HW133416   3.230   3.110   0.105
10839SOL    HW233417   3.271   3.100   6.968
10840SOL     OW33418   4.188   5.756   1.388
10840SOL    HW133419   4.138   5.675   1.358
10840SOL    HW233420   4.156   5.836   1.337
10841SOL     OW33421   3.634   6.599   6.925
10841SOL    HW133422   3.578   6.680   6.905
10841SOL    HW233423   3.613   6.527   6.859
10842SOL     OW33424   5.631   3.295   1.504
10842SOL    HW133425   5.647   3.346   1.419
10842SOL    HW233426   5.614   3.360   1.578
10843SOL     OW33427   0.636   2.133   2.013
10843SOL    HW133428   0.688   2.183   1.944
10843SOL    HW233429   0.613   2.195   2.088
10844SOL     OW33430   0.600   0.018   4.049
10844SOL    HW133431   0.562   0.038   4.138
10844SOL    HW233432   0.583   0.094   3.986
10845SOL     OW33433   3.011   0.614   0.448
10845SOL    HW133434   3.091   0.652   0.402
10845SOL    HW233435   2.968   0.684   0.504
10846SOL     OW33436   4.892   3.286   0.852
10846SOL    HW133437   4.854   3.364   0.902
10846SOL    HW233438   4.950   3.232   0.913
10847SOL     OW33439   3.280   2.537   6.720
10847SOL    HW133440   3.297   2.500   6.811
10847SOL    HW233441   3.326   2.479   6.652
10848SOL     OW33442   3.363   2.393   6.514
10848SOL    HW133443   3.288   2.337   6.480
10848SOL    HW233444   3.406   2.442   6.437
10849SOL     OW33445   2.861   4.755   3.437
10849SOL    HW133446   2.951   4.797   3.443
10849SOL    HW233447   2.835   4.719   3.527
10850SOL     OW33448   4.837   6.324   0.157
10850SOL    HW133449   4.833   6.312   0.058
10850SOL    HW233450   4.745   6.313   0.196
10851SOL     OW33451   2.828   3.006   6.376
10851SOL    HW133452   2.779   3.082   6.333
10851SOL    HW233453   2.763   2.942   6.416
10852SOL     OW33454   0.151   6.495   6.027
10852SOL    HW133455   0.225   6.435   5.996
10852SOL    HW233456   0.075   6.491   5.962
10853SOL     OW33457   3.384   1.512   5.800
10853SOL    HW133458   3.345   1.520   5.708
10853SOL    HW233459   3.378   1.600   5.847
10854SOL     OW33460   6.003   6.387   5.507
10854SOL    HW133461   6.099   6.399   5.532
10854SOL    HW233462   5.945   6.426   5.579
10855SOL     OW33463   2.986   6.393   2.125
10855SOL    HW133464   2.944   6.339   2.052
10855SOL    HW233465   3.049   6.460   2.085
10856SOL     OW33466   5.973   1.441   2.725
10856SOL    HW133467   5.946   1.456   2.820
10856SOL    HW233468   6.072   1.441   2.717
10857SOL     OW33469   5.442   3.315   3.796
10857SOL    HW133470   5.537   3.326   3.769
10857SOL    HW233471   5.433   3.326   3.895
10858SOL     OW33472   1.063   2.783   6.404
10858SOL    HW133473   1.111   2.712   6.454
10858SOL    HW233474   1.100   2.873   6.429
10859SOL     OW33475   2.049   4.035   4.174
10859SOL    HW133476   1.968   4.073   4.129
10859SOL    HW233477   2.099   3.978   4.109
10860SOL     OW33478   6.531   1.524   5.928
10860SOL    HW133479   6.630   1.537   5.923
10860SOL    HW233480   6.491   1.598   5.981
10861SOL     OW33481   3.705   2.910   2.688
10861SOL    HW133482   3.688   2.815   2.716
10861SOL    HW233483   3.767   2.953   2.753
10862SOL     OW33484   2.858   1.596   6.867
10862SOL    HW133485   2.899   1.684   6.894
10862SOL    HW233486   2.928   1.537   6.828
10863SOL     OW33487   4.144   0.277   2.475
10863SOL    HW133488   4.141   0.258   2.377
10863SOL    HW233489   4.070   0.341   2.499
10864SOL     OW33490   2.606   5.055   1.049
10864SOL    HW133491   2.574   5.074   0.956
10864SOL    HW233492   2.706   5.057   1.051
10865SOL     OW33493   5.599   1.887   3.856
10865SOL    HW133494   5.503   1.910   3.841
10865SOL    HW233495   5.606   1.809   3.917
10866SOL     OW33496   5.404   5.089   1.007
10866SOL    HW133497   5.414   4.991   0.994
10866SOL    HW233498   5.469   5.138   0.948
10867SOL     OW33499   3.027   4.204   0.508
10867SOL    HW133500   3.001   4.143   0.583
10867SOL    HW233501   2.998   4.297   0.531
10868SOL     OW33502   1.975   1.926   3.429
10868SOL    HW133503   2.061   1.878   3.415
10868SOL    HW233504   1.980   2.017   3.387
10869NA      NA33505   0.367   2.344   6.171
10870NA      NA33506   4.472   4.604   5.157
10871NA      NA33507   2.322   4.356   2.295
10872NA      NA33508   4.804   4.122   3.742
10873NA      NA33509   4.250   2.394   5.316
10874NA      NA33510   3.361   4.412   1.599
10875NA      NA33511   0.807   4.731   0.139
10876NA      NA33512   3.815   3.705   2.132
10877NA      NA33513   5.144   4.873   0.994
10878NA      NA33514   3.626   0.276   5.364
10879NA      NA33515   6.211   5.544   1.076
10880NA      NA33516   1.975   0.580   5.310
10881NA      NA33517   4.395   4.805   1.791
10882NA      NA33518   3.935   2.788   1.210
   7.02088   7.02088   7.02088
