Generated by trjconv : CNT in water t= 420.00000
33518
    1C        C    1   2.853   2.775   4.749
    1C        C    2   2.909   2.725   4.869
    1C        C    3   2.849   2.774   4.985
    1C        C    4   2.852   2.776   4.263
    1C        C    5   2.906   2.729   4.385
    1C        C    6   2.854   2.778   4.507
    1C        C    7   3.016   2.639   4.628
    1C        C    8   2.903   2.724   4.628
    1C        C    9   3.080   2.604   4.748
    1C        C   10   3.015   2.631   4.870
    1C        C   11   3.182   2.487   4.978
    1C        C   12   3.064   2.562   4.982
    1C        C   13   2.851   2.773   3.773
    1C        C   14   2.904   2.724   3.895
    1C        C   15   2.856   2.775   4.017
    1C        C   16   3.021   2.647   4.142
    1C        C   17   2.903   2.726   4.141
    1C        C   18   3.084   2.613   4.264
    1C        C   19   3.025   2.653   4.386
    1C        C   20   3.214   2.556   4.509
    1C        C   21   3.082   2.607   4.507
    1C        C   22   3.283   2.536   4.630
    1C        C   23   3.213   2.554   4.752
    1C        C   24   3.416   2.484   4.869
    1C        C   25   3.274   2.503   4.870
    1C        C   26   3.494   2.477   4.986
    1C        C   27   2.850   2.767   3.285
    1C        C   28   2.906   2.724   3.407
    1C        C   29   2.853   2.771   3.530
    1C        C   30   3.019   2.639   3.652
    1C        C   31   2.907   2.726   3.652
    1C        C   32   3.080   2.603   3.774
    1C        C   33   3.019   2.642   3.896
    1C        C   34   3.210   2.555   4.019
    1C        C   35   3.078   2.607   4.019
    1C        C   36   3.280   2.537   4.140
    1C        C   37   3.214   2.558   4.263
    1C        C   38   3.419   2.507   4.384
    1C        C   39   3.280   2.535   4.386
    1C        C   40   3.490   2.499   4.506
    1C        C   41   3.421   2.504   4.629
    1C        C   42   3.634   2.488   4.748
    1C        C   43   3.492   2.484   4.749
    1C        C   44   3.706   2.490   4.870
    1C        C   45   3.633   2.485   4.989
    1C        C   46   2.841   2.753   2.797
    1C        C   47   2.895   2.711   2.921
    1C        C   48   2.843   2.761   3.042
    1C        C   49   3.016   2.635   3.165
    1C        C   50   2.900   2.715   3.163
    1C        C   51   3.081   2.604   3.287
    1C        C   52   3.022   2.644   3.409
    1C        C   53   3.210   2.544   3.529
    1C        C   54   3.081   2.602   3.531
    1C        C   55   3.281   2.534   3.651
    1C        C   56   3.212   2.554   3.773
    1C        C   57   3.417   2.515   3.898
    1C        C   58   3.276   2.533   3.897
    1C        C   59   3.489   2.509   4.019
    1C        C   60   3.419   2.510   4.142
    1C        C   61   3.632   2.499   4.261
    1C        C   62   3.491   2.498   4.263
    1C        C   63   3.704   2.508   4.382
    1C        C   64   3.631   2.503   4.503
    1C        C   65   3.837   2.545   4.625
    1C        C   66   3.701   2.508   4.626
    1C        C   67   3.908   2.563   4.746
    1C        C   68   3.842   2.529   4.866
    1C        C   69   4.054   2.589   4.979
    1C        C   70   3.923   2.539   4.979
    1C        C   71   2.824   2.736   2.307
    1C        C   72   2.885   2.697   2.429
    1C        C   73   2.834   2.743   2.552
    1C        C   74   3.009   2.626   2.675
    1C        C   75   2.893   2.707   2.675
    1C        C   76   3.073   2.593   2.797
    1C        C   77   3.014   2.635   2.919
    1C        C   78   3.205   2.547   3.042
    1C        C   79   3.075   2.600   3.041
    1C        C   80   3.276   2.527   3.162
    1C        C   81   3.210   2.545   3.285
    1C        C   82   3.418   2.504   3.405
    1C        C   83   3.278   2.522   3.407
    1C        C   84   3.487   2.503   3.528
    1C        C   85   3.420   2.508   3.652
    1C        C   86   3.629   2.508   3.771
    1C        C   87   3.488   2.509   3.776
    1C        C   88   3.700   2.512   3.893
    1C        C   89   3.630   2.501   4.016
    1C        C   90   3.837   2.547   4.140
    1C        C   91   3.700   2.514   4.138
    1C        C   92   3.904   2.576   4.261
    1C        C   93   3.840   2.545   4.383
    1C        C   94   4.032   2.637   4.501
    1C        C   95   3.907   2.572   4.505
    1C        C   96   4.090   2.679   4.623
    1C        C   97   4.031   2.634   4.743
    1C        C   98   4.199   2.764   4.867
    1C        C   99   4.099   2.661   4.864
    1C        C  100   4.220   2.845   4.979
    1C        C  101   2.831   2.736   2.071
    1C        C  102   2.995   2.595   2.195
    1C        C  103   2.879   2.679   2.189
    1C        C  104   3.065   2.572   2.316
    1C        C  105   3.003   2.619   2.434
    1C        C  106   3.204   2.538   2.555
    1C        C  107   3.074   2.595   2.554
    1C        C  108   3.275   2.527   2.676
    1C        C  109   3.206   2.545   2.798
    1C        C  110   3.414   2.503   2.918
    1C        C  111   3.274   2.524   2.920
    1C        C  112   3.487   2.498   3.038
    1C        C  113   3.416   2.508   3.160
    1C        C  114   3.628   2.505   3.282
    1C        C  115   3.487   2.498   3.282
    1C        C  116   3.697   2.516   3.405
    1C        C  117   3.629   2.506   3.528
    1C        C  118   3.838   2.547   3.647
    1C        C  119   3.701   2.513   3.649
    1C        C  120   3.901   2.571   3.771
    1C        C  121   3.836   2.549   3.894
    1C        C  122   4.026   2.641   4.012
    1C        C  123   3.903   2.572   4.017
    1C        C  124   4.085   2.680   4.134
    1C        C  125   4.027   2.646   4.258
    1C        C  126   4.204   2.763   4.379
    1C        C  127   4.091   2.679   4.380
    1C        C  128   4.252   2.817   4.501
    1C        C  129   4.198   2.770   4.622
    1C        C  130   4.328   2.937   4.741
    1C        C  131   4.247   2.820   4.745
    1C        C  132   4.356   3.006   4.860
    1C        C  133   4.286   2.967   4.975
    1C        C  134   3.176   2.473   2.084
    1C        C  135   3.042   2.516   2.085
    1C        C  136   3.262   2.483   2.193
    1C        C  137   3.198   2.523   2.313
    1C        C  138   3.409   2.489   2.431
    1C        C  139   3.269   2.507   2.434
    1C        C  140   3.484   2.489   2.551
    1C        C  141   3.413   2.500   2.673
    1C        C  142   3.625   2.499   2.794
    1C        C  143   3.484   2.499   2.795
    1C        C  144   3.697   2.511   2.915
    1C        C  145   3.628   2.502   3.038
    1C        C  146   3.835   2.547   3.156
    1C        C  147   3.698   2.512   3.160
    1C        C  148   3.901   2.572   3.278
    1C        C  149   3.834   2.551   3.401
    1C        C  150   4.030   2.631   3.524
    1C        C  151   3.902   2.571   3.524
    1C        C  152   4.088   2.671   3.647
    1C        C  153   4.025   2.639   3.769
    1C        C  154   4.199   2.764   3.891
    1C        C  155   4.087   2.677   3.890
    1C        C  156   4.255   2.808   4.013
    1C        C  157   4.202   2.759   4.135
    1C        C  158   4.337   2.926   4.258
    1C        C  159   4.254   2.811   4.256
    1C        C  160   4.376   2.990   4.378
    1C        C  161   4.336   2.931   4.499
    1C        C  162   4.444   3.117   4.618
    1C        C  163   4.372   2.995   4.620
    1C        C  164   4.469   3.188   4.737
    1C        C  165   4.428   3.128   4.858
    1C        C  166   4.512   3.323   4.977
    1C        C  167   4.480   3.188   4.973
    1C        C  168   3.477   2.438   2.075
    1C        C  169   3.402   2.459   2.191
    1C        C  170   3.621   2.471   2.311
    1C        C  171   3.478   2.466   2.310
    1C        C  172   3.698   2.486   2.428
    1C        C  173   3.625   2.487   2.549
    1C        C  174   3.832   2.538   2.670
    1C        C  175   3.695   2.505   2.671
    1C        C  176   3.902   2.562   2.791
    1C        C  177   3.835   2.541   2.913
    1C        C  178   4.033   2.622   3.033
    1C        C  179   3.905   2.564   3.034
    1C        C  180   4.091   2.663   3.155
    1C        C  181   4.029   2.631   3.278
    1C        C  182   4.204   2.749   3.402
    1C        C  183   4.091   2.663   3.401
    1C        C  184   4.252   2.804   3.523
    1C        C  185   4.201   2.756   3.645
    1C        C  186   4.344   2.914   3.769
    1C        C  187   4.252   2.806   3.767
    1C        C  188   4.381   2.977   3.890
    1C        C  189   4.342   2.919   4.012
    1C        C  190   4.446   3.104   4.130
    1C        C  191   4.377   2.981   4.134
    1C        C  192   4.474   3.172   4.250
    1C        C  193   4.444   3.114   4.375
    1C        C  194   4.508   3.319   4.495
    1C        C  195   4.471   3.183   4.496
    1C        C  196   4.522   3.391   4.616
    1C        C  197   4.516   3.323   4.739
    1C        C  198   4.555   3.538   4.856
    1C        C  199   4.536   3.396   4.859
    1C        C  200   4.586   3.626   4.964
    1C        C  201   3.616   2.427   2.077
    1C        C  202   3.830   2.513   2.186
    1C        C  203   3.695   2.466   2.190
    1C        C  204   3.904   2.540   2.304
    1C        C  205   3.836   2.517   2.426
    1C        C  206   4.025   2.618   2.547
    1C        C  207   3.899   2.553   2.547
    1C        C  208   4.085   2.661   2.668
    1C        C  209   4.026   2.629   2.792
    1C        C  210   4.207   2.747   2.909
    1C        C  211   4.092   2.665   2.912
    1C        C  212   4.259   2.793   3.033
    1C        C  213   4.203   2.749   3.155
    1C        C  214   4.340   2.909   3.277
    1C        C  215   4.252   2.799   3.278
    1C        C  216   4.384   2.966   3.399
    1C        C  217   4.342   2.912   3.523
    1C        C  218   4.445   3.097   3.642
    1C        C  219   4.383   2.969   3.646
    1C        C  220   4.468   3.167   3.762
    1C        C  221   4.445   3.103   3.886
    1C        C  222   4.502   3.308   4.008
    1C        C  223   4.473   3.170   4.008
    1C        C  224   4.514   3.379   4.129
    1C        C  225   4.505   3.310   4.252
    1C        C  226   4.519   3.527   4.369
    1C        C  227   4.518   3.385   4.371
    1C        C  228   4.513   3.601   4.489
    1C        C  229   4.525   3.532   4.612
    1C        C  230   4.497   3.742   4.731
    1C        C  231   4.536   3.606   4.732
    1C        C  232   4.492   3.822   4.848
    1C        C  233   4.547   3.760   4.961
    1C        C  234   4.022   2.617   2.067
    1C        C  235   3.906   2.540   2.071
    1C        C  236   4.088   2.653   2.185
    1C        C  237   4.026   2.612   2.305
    1C        C  238   4.205   2.730   2.423
    1C        C  239   4.092   2.644   2.426
    1C        C  240   4.257   2.785   2.543
    1C        C  241   4.200   2.743   2.665
    1C        C  242   4.353   2.895   2.787
    1C        C  243   4.256   2.792   2.785
    1C        C  244   4.390   2.957   2.909
    1C        C  245   4.348   2.902   3.032
    1C        C  246   4.441   3.094   3.153
    1C        C  247   4.380   2.966   3.154
    1C        C  248   4.462   3.162   3.275
    1C        C  249   4.439   3.096   3.398
    1C        C  250   4.498   3.301   3.516
    1C        C  251   4.467   3.163   3.519
    1C        C  252   4.510   3.369   3.639
    1C        C  253   4.501   3.304   3.765
    1C        C  254   4.525   3.518   3.879
    1C        C  255   4.515   3.377   3.885
    1C        C  256   4.522   3.590   4.001
    1C        C  257   4.521   3.521   4.124
    1C        C  258   4.494   3.733   4.243
    1C        C  259   4.518   3.593   4.245
    1C        C  260   4.474   3.805   4.363
    1C        C  261   4.489   3.740   4.487
    1C        C  262   4.431   3.944   4.606
    1C        C  263   4.477   3.811   4.609
    1C        C  264   4.403   4.015   4.725
    1C        C  265   4.437   3.952   4.847
    1C        C  266   4.321   4.133   4.961
    1C        C  267   4.396   4.016   4.964
    1C        C  268   4.265   2.777   2.062
    1C        C  269   4.201   2.737   2.181
    1C        C  270   4.352   2.887   2.300
    1C        C  271   4.261   2.778   2.302
    1C        C  272   4.388   2.953   2.420
    1C        C  273   4.347   2.894   2.541
    1C        C  274   4.451   3.079   2.663
    1C        C  275   4.389   2.952   2.663
    1C        C  276   4.470   3.151   2.784
    1C        C  277   4.448   3.086   2.907
    1C        C  278   4.505   3.291   3.026
    1C        C  279   4.470   3.154   3.029
    1C        C  280   4.512   3.363   3.148
    1C        C  281   4.496   3.299   3.272
    1C        C  282   4.512   3.512   3.394
    1C        C  283   4.505   3.371   3.394
    1C        C  284   4.514   3.582   3.516
    1C        C  285   4.517   3.510   3.638
    1C        C  286   4.494   3.727   3.755
    1C        C  287   4.516   3.587   3.757
    1C        C  288   4.481   3.795   3.878
    1C        C  289   4.500   3.729   4.002
    1C        C  290   4.427   3.934   4.119
    1C        C  291   4.478   3.802   4.121
    1C        C  292   4.398   4.000   4.240
    1C        C  293   4.426   3.938   4.363
    1C        C  294   4.331   4.130   4.479
    1C        C  295   4.401   4.008   4.483
    1C        C  296   4.291   4.192   4.599
    1C        C  297   4.331   4.137   4.723
    1C        C  298   4.202   4.315   4.843
    1C        C  299   4.284   4.199   4.843
    1C        C  300   4.172   4.405   4.950
    1C        C  301   4.354   2.884   2.063
    1C        C  302   4.473   3.069   2.179
    1C        C  303   4.403   2.943   2.180
    1C        C  304   4.484   3.145   2.298
    1C        C  305   4.452   3.079   2.419
    1C        C  306   4.512   3.282   2.540
    1C        C  307   4.477   3.145   2.541
    1C        C  308   4.523   3.355   2.661
    1C        C  309   4.506   3.287   2.784
    1C        C  310   4.523   3.502   2.904
    1C        C  311   4.517   3.361   2.904
    1C        C  312   4.518   3.575   3.025
    1C        C  313   4.514   3.505   3.148
    1C        C  314   4.489   3.717   3.267
    1C        C  315   4.509   3.577   3.269
    1C        C  316   4.477   3.789   3.388
    1C        C  317   4.491   3.722   3.512
    1C        C  318   4.431   3.928   3.630
    1C        C  319   4.475   3.794   3.632
    1C        C  320   4.401   3.991   3.753
    1C        C  321   4.427   3.925   3.876
    1C        C  322   4.327   4.118   3.991
    1C        C  323   4.394   3.993   3.995
    1C        C  324   4.285   4.178   4.111
    1C        C  325   4.326   4.122   4.235
    1C        C  326   4.193   4.289   4.356
    1C        C  327   4.287   4.184   4.356
    1C        C  328   4.145   4.344   4.477
    1C        C  329   4.202   4.301   4.599
    1C        C  330   4.030   4.436   4.715
    1C        C  331   4.144   4.352   4.717
    1C        C  332   3.975   4.496   4.830
    1C        C  333   4.059   4.486   4.942
    1C        C  334   4.560   3.272   2.063
    1C        C  335   4.538   3.134   2.069
    1C        C  336   4.540   3.352   2.176
    1C        C  337   4.515   3.284   2.296
    1C        C  338   4.526   3.495   2.418
    1C        C  339   4.519   3.354   2.419
    1C        C  340   4.520   3.568   2.538
    1C        C  341   4.522   3.496   2.660
    1C        C  342   4.496   3.709   2.777
    1C        C  343   4.518   3.569   2.780
    1C        C  344   4.483   3.782   2.897
    1C        C  345   4.496   3.714   3.020
    1C        C  346   4.425   3.914   3.141
    1C        C  347   4.472   3.781   3.143
    1C        C  348   4.395   3.983   3.261
    1C        C  349   4.424   3.920   3.384
    1C        C  350   4.315   4.102   3.505
    1C        C  351   4.393   3.984   3.506
    1C        C  352   4.277   4.162   3.627
    1C        C  353   4.321   4.107   3.750
    1C        C  354   4.186   4.276   3.869
    1C        C  355   4.285   4.175   3.868
    1C        C  356   4.130   4.322   3.990
    1C        C  357   4.185   4.277   4.113
    1C        C  358   4.016   4.407   4.232
    1C        C  359   4.135   4.331   4.234
    1C        C  360   3.960   4.452   4.354
    1C        C  361   4.028   4.423   4.475
    1C        C  362   3.833   4.516   4.595
    1C        C  363   3.964   4.465   4.594
    1C        C  364   3.766   4.550   4.714
    1C        C  365   3.843   4.545   4.833
    1C        C  366   3.635   4.593   4.951
    1C        C  367   3.773   4.579   4.950
    1C        C  368   4.506   3.564   2.057
    1C        C  369   4.524   3.493   2.176
    1C        C  370   4.502   3.707   2.291
    1C        C  371   4.516   3.567   2.296
    1C        C  372   4.487   3.779   2.412
    1C        C  373   4.502   3.709   2.533
    1C        C  374   4.425   3.908   2.653
    1C        C  375   4.481   3.778   2.654
    1C        C  376   4.392   3.973   2.774
    1C        C  377   4.430   3.913   2.896
    1C        C  378   4.323   4.097   3.014
    1C        C  379   4.398   3.977   3.018
    1C        C  380   4.275   4.155   3.134
    1C        C  381   4.317   4.101   3.257
    1C        C  382   4.179   4.259   3.382
    1C        C  383   4.276   4.156   3.380
    1C        C  384   4.125   4.307   3.503
    1C        C  385   4.182   4.266   3.626
    1C        C  386   4.013   4.396   3.744
    1C        C  387   4.133   4.321   3.746
    1C        C  388   3.950   4.431   3.865
    1C        C  389   4.012   4.399   3.988
    1C        C  390   3.822   4.492   4.111
    1C        C  391   3.952   4.437   4.110
    1C        C  392   3.756   4.518   4.234
    1C        C  393   3.829   4.505   4.354
    1C        C  394   3.622   4.556   4.476
    1C        C  395   3.761   4.532   4.474
    1C        C  396   3.551   4.566   4.598
    1C        C  397   3.625   4.566   4.718
    1C        C  398   3.414   4.550   4.840
    1C        C  399   3.552   4.576   4.838
    1C        C  400   3.348   4.516   4.959
    1C        C  401   4.500   3.702   2.056
    1C        C  402   4.456   3.918   2.170
    1C        C  403   4.488   3.780   2.172
    1C        C  404   4.414   3.982   2.289
    1C        C  405   4.442   3.913   2.410
    1C        C  406   4.328   4.094   2.530
    1C        C  407   4.406   3.976   2.531
    1C        C  408   4.281   4.153   2.649
    1C        C  409   4.320   4.095   2.772
    1C        C  410   4.177   4.251   2.891
    1C        C  411   4.280   4.155   2.893
    1C        C  412   4.127   4.304   3.012
    1C        C  413   4.176   4.256   3.136
    1C        C  414   4.009   4.384   3.259
    1C        C  415   4.126   4.305   3.259
    1C        C  416   3.943   4.416   3.380
    1C        C  417   4.006   4.384   3.502
    1C        C  418   3.815   4.478   3.623
    1C        C  419   3.946   4.424   3.623
    1C        C  420   3.748   4.502   3.745
    1C        C  421   3.818   4.483   3.866
    1C        C  422   3.615   4.536   3.989
    1C        C  423   3.753   4.507   3.989
    1C        C  424   3.546   4.542   4.112
    1C        C  425   3.616   4.539   4.234
    1C        C  426   3.406   4.546   4.358
    1C        C  427   3.547   4.552   4.356
    1C        C  428   3.336   4.544   4.481
    1C        C  429   3.410   4.557   4.601
    1C        C  430   3.198   4.515   4.726
    1C        C  431   3.337   4.544   4.721
    1C        C  432   3.130   4.496   4.849
    1C        C  433   3.210   4.500   4.964
    1C        C  434   4.391   4.127   2.056
    1C        C  435   4.447   3.998   2.056
    1C        C  436   4.308   4.168   2.165
    1C        C  437   4.338   4.102   2.287
    1C        C  438   4.184   4.251   2.408
    1C        C  439   4.284   4.151   2.408
    1C        C  440   4.129   4.304   2.527
    1C        C  441   4.184   4.256   2.648
    1C        C  442   4.010   4.382   2.771
    1C        C  443   4.124   4.298   2.769
    1C        C  444   3.947   4.415   2.892
    1C        C  445   4.009   4.382   3.015
    1C        C  446   3.816   4.469   3.134
    1C        C  447   3.948   4.420   3.136
    1C        C  448   3.749   4.491   3.256
    1C        C  449   3.815   4.476   3.380
    1C        C  450   3.611   4.535   3.500
    1C        C  451   3.750   4.506   3.501
    1C        C  452   3.542   4.542   3.623
    1C        C  453   3.610   4.535   3.746
    1C        C  454   3.399   4.538   3.866
    1C        C  455   3.540   4.540   3.869
    1C        C  456   3.334   4.530   3.991
    1C        C  457   3.405   4.535   4.113
    1C        C  458   3.198   4.499   4.236
    1C        C  459   3.336   4.529   4.236
    1C        C  460   3.133   4.483   4.361
    1C        C  461   3.198   4.513   4.482
    1C        C  462   2.999   4.440   4.607
    1C        C  463   3.129   4.496   4.604
    1C        C  464   2.933   4.407   4.727
    1C        C  465   2.994   4.450   4.848
    1C        C  466   2.806   4.342   4.961
    1C        C  467   2.912   4.434   4.964
    1C        C  468   4.127   4.290   2.048
    1C        C  469   4.192   4.252   2.166
    1C        C  470   4.012   4.375   2.283
    1C        C  471   4.132   4.298   2.286
    1C        C  472   3.945   4.406   2.403
    1C        C  473   4.008   4.377   2.527
    1C        C  474   3.816   4.465   2.647
    1C        C  475   3.948   4.416   2.648
    1C        C  476   3.747   4.487   2.769
    1C        C  477   3.816   4.470   2.891
    1C        C  478   3.608   4.516   3.013
    1C        C  479   3.747   4.492   3.012
    1C        C  480   3.538   4.523   3.135
    1C        C  481   3.610   4.520   3.256
    1C        C  482   3.399   4.529   3.376
    1C        C  483   3.541   4.537   3.378
    1C        C  484   3.330   4.524   3.499
    1C        C  485   3.401   4.540   3.621
    1C        C  486   3.193   4.499   3.746
    1C        C  487   3.330   4.533   3.743
    1C        C  488   3.129   4.477   3.870
    1C        C  489   3.195   4.501   3.993
    1C        C  490   3.002   4.418   4.118
    1C        C  491   3.128   4.482   4.115
    1C        C  492   2.944   4.387   4.243
    1C        C  493   3.004   4.425   4.365
    1C        C  494   2.830   4.306   4.484
    1C        C  495   2.938   4.397   4.487
    1C        C  496   2.776   4.262   4.607
    1C        C  497   2.825   4.315   4.729
    1C        C  498   2.666   4.170   4.846
    1C        C  499   2.760   4.275   4.847
    1C        C  500   2.594   4.123   4.958
    1C        C  501   4.007   4.360   2.046
    1C        C  502   3.819   4.471   2.160
    1C        C  503   3.945   4.408   2.163
    1C        C  504   3.750   4.485   2.282
    1C        C  505   3.816   4.462   2.404
    1C        C  506   3.608   4.514   2.523
    1C        C  507   3.746   4.484   2.525
    1C        C  508   3.538   4.524   2.645
    1C        C  509   3.608   4.512   2.766
    1C        C  510   3.398   4.526   2.889
    1C        C  511   3.539   4.518   2.889
    1C        C  512   3.325   4.523   3.010
    1C        C  513   3.396   4.528   3.131
    1C        C  514   3.191   4.488   3.257
    1C        C  515   3.328   4.526   3.255
    1C        C  516   3.125   4.464   3.380
    1C        C  517   3.192   4.493   3.500
    1C        C  518   2.998   4.416   3.628
    1C        C  519   3.126   4.477   3.624
    1C        C  520   2.941   4.379   3.753
    1C        C  521   3.004   4.412   3.875
    1C        C  522   2.834   4.285   3.999
    1C        C  523   2.944   4.374   3.997
    1C        C  524   2.786   4.238   4.124
    1C        C  525   2.832   4.301   4.242
    1C        C  526   2.700   4.135   4.368
    1C        C  527   2.782   4.250   4.364
    1C        C  528   2.660   4.079   4.491
    1C        C  529   2.689   4.151   4.609
    1C        C  530   2.590   3.961   4.735
    1C        C  531   2.646   4.092   4.730
    1C        C  532   2.539   3.906   4.856
    1C        C  533   2.526   4.001   4.963
    1C        C  534   3.620   4.560   2.042
    1C        C  535   3.753   4.517   2.045
    1C        C  536   3.540   4.535   2.158
    1C        C  537   3.611   4.516   2.280
    1C        C  538   3.397   4.522   2.405
    1C        C  539   3.538   4.525   2.401
    1C        C  540   3.325   4.512   2.526
    1C        C  541   3.397   4.519   2.647
    1C        C  542   3.186   4.490   2.767
    1C        C  543   3.324   4.519   2.769
    1C        C  544   3.117   4.476   2.890
    1C        C  545   3.187   4.491   3.011
    1C        C  546   2.997   4.406   3.135
    1C        C  547   3.124   4.467   3.135
    1C        C  548   2.939   4.367   3.258
    1C        C  549   2.998   4.403   3.382
    1C        C  550   2.831   4.283   3.509
    1C        C  551   2.940   4.374   3.507
    1C        C  552   2.779   4.238   3.632
    1C        C  553   2.834   4.287   3.752
    1C        C  554   2.701   4.125   3.877
    1C        C  555   2.785   4.238   3.875
    1C        C  556   2.665   4.065   4.000
    1C        C  557   2.699   4.127   4.123
    1C        C  558   2.603   3.942   4.249
    1C        C  559   2.666   4.069   4.248
    1C        C  560   2.580   3.879   4.373
    1C        C  561   2.607   3.948   4.493
    1C        C  562   2.536   3.751   4.621
    1C        C  563   2.574   3.887   4.616
    1C        C  564   2.517   3.682   4.742
    1C        C  565   2.519   3.764   4.859
    1C        C  566   2.528   3.550   4.979
    1C        C  567   2.524   3.689   4.977
    1C        C  568   3.331   4.476   2.044
    1C        C  569   3.399   4.517   2.160
    1C        C  570   3.189   4.477   2.284
    1C        C  571   3.327   4.510   2.282
    1C        C  572   3.119   4.455   2.404
    1C        C  573   3.186   4.484   2.525
    1C        C  574   2.990   4.404   2.650
    1C        C  575   3.117   4.465   2.647
    1C        C  576   2.927   4.370   2.772
    1C        C  577   2.992   4.410   2.892
    1C        C  578   2.825   4.279   3.017
    1C        C  579   2.934   4.369   3.014
    1C        C  580   2.777   4.229   3.140
    1C        C  581   2.830   4.277   3.262
    1C        C  582   2.698   4.119   3.386
    1C        C  583   2.781   4.233   3.387
    1C        C  584   2.663   4.061   3.510
    1C        C  585   2.693   4.125   3.632
    1C        C  586   2.603   3.936   3.760
    1C        C  587   2.658   4.066   3.756
    1C        C  588   2.577   3.871   3.883
    1C        C  589   2.606   3.937   4.004
    1C        C  590   2.539   3.739   4.129
    1C        C  591   2.574   3.876   4.128
    1C        C  592   2.532   3.673   4.254
    1C        C  593   2.542   3.743   4.377
    1C        C  594   2.522   3.536   4.501
    1C        C  595   2.531   3.677   4.501
    1C        C  596   2.526   3.465   4.623
    1C        C  597   2.520   3.540   4.743
    1C        C  598   2.538   3.328   4.866
    1C        C  599   2.535   3.470   4.864
    1C        C  600   2.535   3.251   4.982
    1C        C  601   3.199   4.436   2.050
    1C        C  602   2.983   4.400   2.164
    1C        C  603   3.119   4.444   2.165
    1C        C  604   2.922   4.365   2.287
    1C        C  605   2.990   4.396   2.407
    1C        C  606   2.821   4.273   2.532
    1C        C  607   2.927   4.366   2.529
    1C        C  608   2.768   4.227   2.655
    1C        C  609   2.818   4.281   2.776
    1C        C  610   2.685   4.115   2.898
    1C        C  611   2.768   4.230   2.897
    1C        C  612   2.650   4.057   3.022
    1C        C  613   2.688   4.119   3.143
    1C        C  614   2.594   3.931   3.268
    1C        C  615   2.657   4.057   3.266
    1C        C  616   2.573   3.867   3.392
    1C        C  617   2.603   3.933   3.513
    1C        C  618   2.540   3.734   3.640
    1C        C  619   2.580   3.869   3.637
    1C        C  620   2.527   3.667   3.763
    1C        C  621   2.539   3.735   3.886
    1C        C  622   2.516   3.526   4.012
    1C        C  623   2.527   3.666   4.009
    1C        C  624   2.521   3.457   4.136
    1C        C  625   2.521   3.532   4.255
    1C        C  626   2.539   3.324   4.381
    1C        C  627   2.521   3.464   4.379
    1C        C  628   2.564   3.256   4.503
    1C        C  629   2.549   3.326   4.625
    1C        C  630   2.605   3.121   4.745
    1C        C  631   2.560   3.256   4.747
    1C        C  632   2.626   3.054   4.869
    1C        C  633   2.563   3.113   4.982
    1C        C  634   2.785   4.308   2.055
    1C        C  635   2.894   4.395   2.052
    1C        C  636   2.749   4.236   2.170
    1C        C  637   2.810   4.278   2.290
    1C        C  638   2.675   4.115   2.414
    1C        C  639   2.762   4.226   2.412
    1C        C  640   2.640   4.052   2.536
    1C        C  641   2.682   4.115   2.655
    1C        C  642   2.588   3.925   2.778
    1C        C  643   2.649   4.052   2.777
    1C        C  644   2.570   3.859   2.902
    1C        C  645   2.595   3.927   3.023
    1C        C  646   2.528   3.728   3.150
    1C        C  647   2.569   3.863   3.147
    1C        C  648   2.520   3.658   3.272
    1C        C  649   2.544   3.728   3.392
    1C        C  650   2.524   3.523   3.521
    1C        C  651   2.532   3.664   3.517
    1C        C  652   2.527   3.454   3.644
    1C        C  653   2.521   3.526   3.766
    1C        C  654   2.542   3.317   3.892
    1C        C  655   2.517   3.456   3.889
    1C        C  656   2.562   3.249   4.014
    1C        C  657   2.541   3.317   4.136
    1C        C  658   2.606   3.120   4.261
    1C        C  659   2.553   3.252   4.261
    1C        C  660   2.639   3.058   4.383
    1C        C  661   2.613   3.124   4.506
    1C        C  662   2.712   2.932   4.628
    1C        C  663   2.638   3.053   4.625
    1C        C  664   2.754   2.877   4.751
    1C        C  665   2.702   2.933   4.871
    1C        C  666   2.753   2.875   4.988
    1C        C  667   2.680   4.033   2.055
    1C        C  668   2.682   4.111   2.172
    1C        C  669   2.594   3.917   2.292
    1C        C  670   2.642   4.051   2.293
    1C        C  671   2.571   3.849   2.413
    1C        C  672   2.587   3.921   2.534
    1C        C  673   2.524   3.720   2.661
    1C        C  674   2.560   3.857   2.657
    1C        C  675   2.516   3.652   2.784
    1C        C  676   2.537   3.722   2.905
    1C        C  677   2.516   3.514   3.032
    1C        C  678   2.521   3.655   3.029
    1C        C  679   2.518   3.445   3.155
    1C        C  680   2.512   3.517   3.277
    1C        C  681   2.540   3.309   3.402
    1C        C  682   2.520   3.449   3.400
    1C        C  683   2.560   3.244   3.526
    1C        C  684   2.545   3.314   3.647
    1C        C  685   2.607   3.114   3.770
    1C        C  686   2.557   3.246   3.771
    1C        C  687   2.638   3.052   3.893
    1C        C  688   2.612   3.117   4.016
    1C        C  689   2.717   2.937   4.138
    1C        C  690   2.637   3.054   4.140
    1C        C  691   2.756   2.880   4.261
    1C        C  692   2.714   2.939   4.383
    1C        C  693   2.758   2.882   4.504
    1C        C  694   2.632   3.902   2.059
    1C        C  695   2.538   3.705   2.177
    1C        C  696   2.585   3.839   2.175
    1C        C  697   2.519   3.638   2.300
    1C        C  698   2.533   3.713   2.418
    1C        C  699   2.495   3.507   2.546
    1C        C  700   2.508   3.648   2.541
    1C        C  701   2.508   3.436   2.667
    1C        C  702   2.510   3.511   2.787
    1C        C  703   2.535   3.302   2.911
    1C        C  704   2.518   3.442   2.911
    1C        C  705   2.553   3.235   3.034
    1C        C  706   2.542   3.305   3.156
    1C        C  707   2.609   3.109   3.279
    1C        C  708   2.557   3.240   3.280
    1C        C  709   2.636   3.045   3.402
    1C        C  710   2.608   3.111   3.524
    1C        C  711   2.705   2.927   3.650
    1C        C  712   2.635   3.049   3.648
    1C        C  713   2.753   2.875   3.773
    1C        C  714   2.714   2.933   3.895
    1C        C  715   2.760   2.878   4.017
    1C        C  716   2.455   3.500   2.063
    1C        C  717   2.498   3.633   2.064
    1C        C  718   2.464   3.425   2.185
    1C        C  719   2.492   3.498   2.304
    1C        C  720   2.524   3.292   2.426
    1C        C  721   2.494   3.430   2.427
    1C        C  722   2.544   3.224   2.548
    1C        C  723   2.540   3.299   2.667
    1C        C  724   2.593   3.095   2.791
    1C        C  725   2.552   3.230   2.790
    1C        C  726   2.624   3.033   2.914
    1C        C  727   2.594   3.100   3.035
    1C        C  728   2.706   2.921   3.160
    1C        C  729   2.629   3.040   3.158
    1C        C  730   2.755   2.871   3.283
    1C        C  731   2.709   2.924   3.406
    1C        C  732   2.755   2.873   3.529
    1C        C  733   2.488   3.200   2.076
    1C        C  734   2.490   3.285   2.188
    1C        C  735   2.590   3.087   2.305
    1C        C  736   2.536   3.219   2.306
    1C        C  737   2.615   3.021   2.428
    1C        C  738   2.586   3.089   2.548
    1C        C  739   2.700   2.910   2.671
    1C        C  740   2.622   3.028   2.670
    1C        C  741   2.742   2.854   2.794
    1C        C  742   2.697   2.912   2.914
    1C        C  743   2.746   2.864   3.038
    1C        C  744   2.541   3.072   2.075
    1C        C  745   2.684   2.898   2.186
    1C        C  746   2.614   3.020   2.183
    1C        C  747   2.727   2.840   2.308
    1C        C  748   2.688   2.900   2.429
    1C        C  749   2.738   2.847   2.550
    1C        C  750   2.741   2.842   2.071
    1C        C  751   3.675   2.361   1.958
    1C        O  752   3.701   2.238   1.961
    1C        O  753   3.664   2.411   1.828
    1C        C  754   4.631   3.060   1.980
    1C        O  755   4.612   3.071   1.856
    1C        O  756   4.720   2.961   2.023
    1C        C  757   4.463   4.223   1.970
    1C        O  758   4.535   4.313   2.020
    1C        O  759   4.427   4.243   1.836
    1C        C  760   3.589   4.683   1.965
    1C        O  761   3.633   4.796   1.996
    1C        O  762   3.555   4.677   1.829
    1C        C  763   2.882   4.506   1.955
    1C        O  764   2.895   4.484   1.831
    1C        O  765   2.767   4.585   1.959
    1C        C  766   2.333   3.488   1.980
    1C        O  767   2.333   3.472   1.855
    1C        O  768   2.205   3.513   2.031
    1C        C  769   4.684   3.590   5.070
    1C        O  770   4.643   3.549   5.182
    1C        O  771   4.797   3.671   5.082
    1C        C  772   4.287   4.443   5.036
    1C        O  773   4.291   4.436   5.162
    1C        O  774   4.365   4.547   4.985
    1C        C  775   4.152   2.519   5.066
    1C        O  776   4.238   2.436   5.026
    1C        O  777   4.130   2.516   5.204
    1C        C  778   2.886   4.549   5.054
    1C        O  779   2.823   4.655   5.027
    1C        O  780   2.928   4.547   5.188
    1C        C  781   2.462   3.038   5.061
    1C        O  782   2.344   3.023   5.021
    1C        O  783   2.500   2.977   5.180
    1C        C  784   2.420   3.986   5.065
    1C        O  785   2.333   4.076   5.078
    1C        O  786   2.426   3.912   5.184
    1C        C  787   2.951   2.442   1.995
    1C        O  788   2.965   2.453   1.870
    1C        O  789   2.864   2.342   2.036
    1C        C  790   3.166   2.357   5.048
    1C        O  791   3.208   2.253   4.990
    1C        O  792   3.172   2.353   5.188
    1C        H  793   4.280   3.028   5.062
    1C        H  794   4.196   2.806   5.076
    1C        H  795   4.549   3.126   5.027
    1C        H  796   4.498   3.373   5.070
    1C        H  797   4.568   3.816   5.049
    1C        H  798   4.396   3.962   5.057
    1C        H  799   4.313   4.185   5.055
    1C        H  800   4.025   4.529   5.035
    1C        H  801   3.822   4.573   5.044
    1C        H  802   3.601   4.649   5.036
    1C        H  803   3.389   4.562   5.046
    1C        H  804   3.162   4.531   5.054
    1C        H  805   3.898   2.476   5.062
    1C        H  806   3.677   2.500   5.085
    1C        H  807   3.017   2.574   5.077
    1C        H  808   3.451   2.434   5.074
    1C        H  809   2.870   2.726   5.078
    1C        H  810   2.693   2.876   5.077
    1C        H  811   2.514   3.294   5.078
    1C        H  812   2.501   3.512   5.075
    1C        H  813   2.555   3.739   5.066
    1C        H  814   2.577   4.193   5.036
    1C        H  815   2.762   4.324   5.057
    1C        H  816   2.730   2.895   1.979
    1C        H  817   2.889   2.726   1.982
    1C        H  818   3.215   2.438   1.990
    1C        H  819   3.427   2.434   1.980
    1C        H  820   3.893   2.470   1.992
    1C        H  821   4.076   2.608   1.975
    1C        H  822   4.278   2.700   1.990
    1C        H  823   4.357   2.942   1.973
    1C        H  824   4.593   3.313   1.970
    1C        H  825   4.435   3.518   1.991
    1C        H  826   4.471   3.746   1.962
    1C        H  827   3.809   4.516   1.954
    1C        H  828   3.949   4.356   1.956
    1C        H  829   4.170   4.259   1.955
    1C        H  830   4.487   3.961   1.964
    1C        H  831   2.673   3.835   1.986
    1C        H  832   2.745   4.056   1.973
    1C        H  833   2.715   4.307   1.974
    1C        H  834   3.387   4.426   1.969
    1C        H  835   3.157   4.400   1.958
    1C        H  836   2.512   3.004   1.998
    1C        H  837   2.428   3.227   1.991
    1C        H  838   2.441   3.696   1.999
    2V3OU   H29  839   2.799   3.549   5.027
    2V3OU   C27  840   2.782   3.508   5.130
    2V3OU   H27  841   2.726   3.568   5.206
    2V3OU   H28  842   2.729   3.410   5.118
    2V3OU   O11  843   2.911   3.481   5.185
    2V3OU   C15  844   2.922   3.400   5.296
    2V3OU   C13  845   3.052   3.377   5.345
    2V3OU   C14  846   3.078   3.273   5.434
    2V3OU   C16  847   2.975   3.189   5.477
    2V3OU    H6  848   2.995   3.100   5.538
    2V3OU   C12  849   3.218   3.231   5.458
    2V3OU    O2  850   3.240   3.144   5.545
    2V3OU   C10  851   3.330   3.306   5.398
    2V3OU    C8  852   3.461   3.268   5.425
    2V3OU   O10  853   3.488   3.144   5.474
    2V3OU   H26  854   3.412   3.116   5.528
    2V3OU    C6  855   3.570   3.352   5.384
    2V3OU    C5  856   3.543   3.466   5.309
    2V3OU    C4  857   3.706   3.294   5.372
    2V3OU    H4  858   3.726   3.230   5.464
    2V3OU    H5  859   3.709   3.229   5.280
    2V3OU    C2  860   3.819   3.397   5.367
    2V3OU    O6  861   3.812   3.481   5.482
    2V3OU   H21  862   3.761   3.557   5.450
    2V3OU    C3  863   3.784   3.499   5.259
    2V3OU    H2  864   3.863   3.578   5.251
    2V3OU    H3  865   3.788   3.437   5.166
    2V3OU   C25  866   3.955   3.327   5.352
    2V3OU    O7  867   4.006   3.296   5.245
    2V3OU   C26  868   4.037   3.294   5.476
    2V3OU   H22  869   4.065   3.392   5.523
    2V3OU   H23  870   4.125   3.232   5.448
    2V3OU    O8  871   3.968   3.214   5.570
    2V3OU   H24  872   3.924   3.275   5.631
    2V3OU    C1  873   3.648   3.566   5.272
    2V3OU    H1  874   3.627   3.617   5.173
    2V3OU    O3  875   3.665   3.657   5.381
    2V3OU   C19  876   3.625   3.793   5.363
    2V3OU    H9  877   3.526   3.808   5.309
    2V3OU    O4  878   3.719   3.851   5.275
    2V3OU   C20  879   3.847   3.878   5.333
    2V3OU   H10  880   3.904   3.782   5.350
    2V3OU   C24  881   3.618   3.859   5.501
    2V3OU   H16  882   3.553   3.794   5.564
    2V3OU   H17  883   3.568   3.957   5.479
    2V3OU   C23  884   3.758   3.877   5.561
    2V3OU   H15  885   3.798   3.772   5.577
    2V3OU    N1  886   3.737   3.956   5.681
    2V3OU   H19  887   3.815   3.932   5.739
    2V3OU   H20  888   3.653   3.941   5.732
    2V3OU   C21  889   3.856   3.953   5.466
    2V3OU   H11  890   3.960   3.932   5.506
    2V3OU    O5  891   3.834   4.094   5.468
    2V3OU   H18  892   3.782   4.106   5.549
    2V3OU   C22  893   3.917   3.953   5.222
    2V3OU   H12  894   3.868   4.053   5.210
    2V3OU   H13  895   3.915   3.895   5.126
    2V3OU   H14  896   4.025   3.964   5.250
    2V3OU   C11  897   3.163   3.470   5.315
    2V3OU    O1  898   3.142   3.591   5.290
    2V3OU    C9  899   3.304   3.430   5.334
    2V3OU    C7  900   3.408   3.508   5.285
    2V3OU    O9  901   3.385   3.626   5.219
    2V3OU   H25  902   3.288   3.632   5.219
    2V3OU   C17  903   2.820   3.321   5.353
    2V3OU    H7  904   2.716   3.353   5.350
    2V3OU   C18  905   2.843   3.216   5.441
    2V3OU    H8  906   2.762   3.156   5.484
    3SOL     OW  907   3.696   3.724   4.582
    3SOL    HW1  908   3.658   3.807   4.543
    3SOL    HW2  909   3.792   3.739   4.606
    4SOL     OW  910   6.386   0.148   0.376
    4SOL    HW1  911   6.353   0.059   0.408
    4SOL    HW2  912   6.342   0.170   0.288
    5SOL     OW  913   4.304   0.964   1.236
    5SOL    HW1  914   4.259   1.038   1.186
    5SOL    HW2  915   4.384   0.933   1.185
    6SOL     OW  916   5.383   7.001   2.290
    6SOL    HW1  917   5.383   0.072   2.292
    6SOL    HW2  918   5.422   6.966   2.374
    7SOL     OW  919   2.184   4.436   3.875
    7SOL    HW1  920   2.135   4.433   3.788
    7SOL    HW2  921   2.179   4.529   3.913
    8SOL     OW  922   2.043   3.135   5.614
    8SOL    HW1  923   2.057   3.113   5.517
    8SOL    HW2  924   1.981   3.067   5.654
    9SOL     OW  925   6.128   1.433   6.485
    9SOL    HW1  926   6.035   1.399   6.471
    9SOL    HW2  927   6.165   1.396   6.570
   10SOL     OW  928   4.683   4.656   3.332
   10SOL    HW1  929   4.677   4.739   3.387
   10SOL    HW2  930   4.630   4.583   3.376
   11SOL     OW  931   2.121   0.990   0.638
   11SOL    HW1  932   2.082   0.958   0.724
   11SOL    HW2  933   2.175   0.917   0.596
   12SOL     OW  934   3.020   5.147   3.411
   12SOL    HW1  935   3.085   5.083   3.450
   12SOL    HW2  936   3.063   5.197   3.336
   13SOL     OW  937   4.627   5.905   1.967
   13SOL    HW1  938   4.719   5.923   2.001
   13SOL    HW2  939   4.626   5.818   1.917
   14SOL     OW  940   4.630   5.111   4.758
   14SOL    HW1  941   4.584   5.056   4.688
   14SOL    HW2  942   4.729   5.096   4.751
   15SOL     OW  943   0.214   5.696   5.884
   15SOL    HW1  944   0.177   5.648   5.963
   15SOL    HW2  945   0.145   5.703   5.813
   16SOL     OW  946   0.363   3.613   5.262
   16SOL    HW1  947   0.420   3.530   5.263
   16SOL    HW2  948   0.396   3.677   5.331
   17SOL     OW  949   6.197   1.294   5.286
   17SOL    HW1  950   6.136   1.341   5.350
   17SOL    HW2  951   6.259   1.234   5.337
   18SOL     OW  952   3.349   0.628   5.613
   18SOL    HW1  953   3.446   0.648   5.626
   18SOL    HW2  954   3.312   0.689   5.542
   19SOL     OW  955   1.161   1.435   2.958
   19SOL    HW1  956   1.156   1.512   3.022
   19SOL    HW2  957   1.209   1.464   2.875
   20SOL     OW  958   5.680   1.730   5.102
   20SOL    HW1  959   5.739   1.800   5.142
   20SOL    HW2  960   5.729   1.682   5.030
   21SOL     OW  961   2.821   5.566   2.271
   21SOL    HW1  962   2.786   5.584   2.179
   21SOL    HW2  963   2.763   5.497   2.315
   22SOL     OW  964   2.286   6.525   5.349
   22SOL    HW1  965   2.193   6.562   5.344
   22SOL    HW2  966   2.289   6.451   5.415
   23SOL     OW  967   5.365   3.995   1.999
   23SOL    HW1  968   5.294   3.993   2.069
   23SOL    HW2  969   5.406   4.086   1.995
   24SOL     OW  970   4.363   0.769   1.595
   24SOL    HW1  971   4.291   0.703   1.617
   24SOL    HW2  972   4.422   0.731   1.523
   25SOL     OW  973   2.533   0.410   4.198
   25SOL    HW1  974   2.511   0.498   4.241
   25SOL    HW2  975   2.563   0.427   4.104
   26SOL     OW  976   0.800   3.028   6.989
   26SOL    HW1  977   0.895   3.026   7.019
   26SOL    HW2  978   0.796   3.044   6.890
   27SOL     OW  979   6.491   1.469   1.099
   27SOL    HW1  980   6.555   1.493   1.026
   27SOL    HW2  981   6.462   1.552   1.146
   28SOL     OW  982   2.580   0.562   4.615
   28SOL    HW1  983   2.658   0.568   4.552
   28SOL    HW2  984   2.524   0.483   4.590
   29SOL     OW  985   7.014   0.438   0.310
   29SOL    HW1  986   6.969   0.468   0.394
   29SOL    HW2  987   0.077   0.407   0.331
   30SOL     OW  988   4.030   0.576   5.139
   30SOL    HW1  989   4.089   0.553   5.217
   30SOL    HW2  990   4.087   0.595   5.059
   31SOL     OW  991   0.928   3.059   5.173
   31SOL    HW1  992   0.893   3.082   5.264
   31SOL    HW2  993   1.023   3.089   5.165
   32SOL     OW  994   1.780   0.221   1.354
   32SOL    HW1  995   1.703   0.273   1.392
   32SOL    HW2  996   1.861   0.280   1.349
   33SOL     OW  997   0.488   4.960   6.153
   33SOL    HW1  998   0.456   5.045   6.111
   33SOL    HW2  999   0.583   4.943   6.127
   34SOL     OW 1000   2.154   5.119   5.405
   34SOL    HW1 1001   2.096   5.198   5.427
   34SOL    HW2 1002   2.107   5.035   5.431
   35SOL     OW 1003   3.708   2.646   0.257
   35SOL    HW1 1004   3.658   2.637   0.170
   35SOL    HW2 1005   3.653   2.699   0.321
   36SOL     OW 1006   4.774   0.702   4.330
   36SOL    HW1 1007   4.782   0.658   4.419
   36SOL    HW2 1008   4.843   0.774   4.322
   37SOL     OW 1009   2.212   0.830   3.656
   37SOL    HW1 1010   2.172   0.745   3.690
   37SOL    HW2 1011   2.307   0.814   3.628
   38SOL     OW 1012   0.991   4.607   2.444
   38SOL    HW1 1013   1.052   4.616   2.366
   38SOL    HW2 1014   0.957   4.697   2.471
   39SOL     OW 1015   6.609   5.305   6.382
   39SOL    HW1 1016   6.541   5.271   6.318
   39SOL    HW2 1017   6.666   5.374   6.338
   40SOL     OW 1018   3.761   0.648   6.319
   40SOL    HW1 1019   3.697   0.571   6.313
   40SOL    HW2 1020   3.711   0.731   6.341
   41SOL     OW 1021   6.503   4.033   1.885
   41SOL    HW1 1022   6.433   4.015   1.815
   41SOL    HW2 1023   6.593   4.029   1.843
   42SOL     OW 1024   2.361   5.871   5.733
   42SOL    HW1 1025   2.346   5.889   5.636
   42SOL    HW2 1026   2.459   5.864   5.751
   43SOL     OW 1027   5.042   6.595   4.580
   43SOL    HW1 1028   4.984   6.539   4.640
   43SOL    HW2 1029   5.136   6.561   4.584
   44SOL     OW 1030   6.007   2.038   5.764
   44SOL    HW1 1031   6.089   2.071   5.716
   44SOL    HW2 1032   5.937   2.013   5.698
   45SOL     OW 1033   3.783   5.078   0.099
   45SOL    HW1 1034   3.839   5.000   0.072
   45SOL    HW2 1035   3.841   5.150   0.137
   46SOL     OW 1036   0.585   3.079   4.761
   46SOL    HW1 1037   0.657   3.075   4.692
   46SOL    HW2 1038   0.542   2.989   4.770
   47SOL     OW 1039   5.849   2.714   1.677
   47SOL    HW1 1040   5.831   2.685   1.582
   47SOL    HW2 1041   5.844   2.634   1.737
   48SOL     OW 1042   6.742   3.731   0.143
   48SOL    HW1 1043   6.740   3.791   0.063
   48SOL    HW2 1044   6.793   3.775   0.217
   49SOL     OW 1045   4.123   2.860   6.919
   49SOL    HW1 1046   4.093   2.955   6.912
   49SOL    HW2 1047   4.051   2.800   6.886
   50SOL     OW 1048   6.424   3.516   6.445
   50SOL    HW1 1049   6.405   3.507   6.543
   50SOL    HW2 1050   6.342   3.492   6.392
   51SOL     OW 1051   2.458   5.709   3.207
   51SOL    HW1 1052   2.426   5.786   3.152
   51SOL    HW2 1053   2.552   5.686   3.180
   52SOL     OW 1054   5.698   2.415   1.671
   52SOL    HW1 1055   5.749   2.433   1.755
   52SOL    HW2 1056   5.604   2.391   1.694
   53SOL     OW 1057   3.814   0.832   2.862
   53SOL    HW1 1058   3.820   0.915   2.806
   53SOL    HW2 1059   3.736   0.777   2.832
   54SOL     OW 1060   5.388   6.820   0.160
   54SOL    HW1 1061   5.384   6.721   0.172
   54SOL    HW2 1062   5.365   6.844   0.066
   55SOL     OW 1063   1.654   3.451   6.249
   55SOL    HW1 1064   1.578   3.396   6.212
   55SOL    HW2 1065   1.643   3.546   6.219
   56SOL     OW 1066   1.449   2.369   6.639
   56SOL    HW1 1067   1.447   2.271   6.619
   56SOL    HW2 1068   1.530   2.389   6.695
   57SOL     OW 1069   4.530   0.625   0.064
   57SOL    HW1 1070   4.487   0.655   7.008
   57SOL    HW2 1071   4.548   0.703   0.122
   58SOL     OW 1072   0.790   0.764   6.304
   58SOL    HW1 1073   0.734   0.683   6.320
   58SOL    HW2 1074   0.870   0.762   6.365
   59SOL     OW 1075   5.171   3.290   6.171
   59SOL    HW1 1076   5.209   3.354   6.238
   59SOL    HW2 1077   5.073   3.278   6.188
   60SOL     OW 1078   5.440   0.451   2.837
   60SOL    HW1 1079   5.495   0.421   2.760
   60SOL    HW2 1080   5.351   0.484   2.804
   61SOL     OW 1081   7.017   0.004   4.924
   61SOL    HW1 1082   0.048   6.953   4.927
   61SOL    HW2 1083   6.961   0.006   5.007
   62SOL     OW 1084   6.938   1.970   2.208
   62SOL    HW1 1085   6.916   1.883   2.162
   62SOL    HW2 1086   7.012   2.016   2.158
   63SOL     OW 1087   4.082   6.356   4.783
   63SOL    HW1 1088   3.984   6.339   4.795
   63SOL    HW2 1089   4.126   6.272   4.752
   64SOL     OW 1090   1.065   4.834   0.067
   64SOL    HW1 1091   1.145   4.782   0.036
   64SOL    HW2 1092   0.987   4.812   0.008
   65SOL     OW 1093   0.558   0.363   5.536
   65SOL    HW1 1094   0.533   0.449   5.492
   65SOL    HW2 1095   0.536   0.287   5.475
   66SOL     OW 1096   4.180   0.818   2.419
   66SOL    HW1 1097   4.157   0.723   2.441
   66SOL    HW2 1098   4.225   0.821   2.329
   67SOL     OW 1099   0.445   2.501   0.948
   67SOL    HW1 1100   0.380   2.451   0.890
   67SOL    HW2 1101   0.451   2.457   1.037
   68SOL     OW 1102   6.677   2.607   5.864
   68SOL    HW1 1103   6.652   2.630   5.770
   68SOL    HW2 1104   6.606   2.550   5.905
   69SOL     OW 1105   0.961   5.062   6.274
   69SOL    HW1 1106   0.900   5.010   6.333
   69SOL    HW2 1107   0.965   5.157   6.306
   70SOL     OW 1108   5.270   3.002   4.627
   70SOL    HW1 1109   5.269   3.102   4.623
   70SOL    HW2 1110   5.190   2.970   4.679
   71SOL     OW 1111   4.109   1.647   4.352
   71SOL    HW1 1112   4.040   1.710   4.317
   71SOL    HW2 1113   4.090   1.625   4.448
   72SOL     OW 1114   7.016   1.124   3.638
   72SOL    HW1 1115   0.071   1.176   3.644
   72SOL    HW2 1116   6.949   1.173   3.582
   73SOL     OW 1117   2.318   0.758   0.950
   73SOL    HW1 1118   2.387   0.750   0.877
   73SOL    HW2 1119   2.364   0.764   1.038
   74SOL     OW 1120   1.689   2.075   0.293
   74SOL    HW1 1121   1.684   2.175   0.283
   74SOL    HW2 1122   1.782   2.049   0.317
   75SOL     OW 1123   4.062   2.162   0.606
   75SOL    HW1 1124   4.063   2.255   0.569
   75SOL    HW2 1125   4.112   2.160   0.693
   76SOL     OW 1126   3.199   4.593   5.341
   76SOL    HW1 1127   3.139   4.516   5.322
   76SOL    HW2 1128   3.161   4.676   5.298
   77SOL     OW 1129   1.839   4.265   4.121
   77SOL    HW1 1130   1.895   4.250   4.039
   77SOL    HW2 1131   1.749   4.224   4.108
   78SOL     OW 1132   4.496   1.547   1.076
   78SOL    HW1 1133   4.545   1.634   1.086
   78SOL    HW2 1134   4.553   1.482   1.027
   79SOL     OW 1135   2.079   5.265   2.308
   79SOL    HW1 1136   2.093   5.233   2.401
   79SOL    HW2 1137   2.092   5.189   2.244
   80SOL     OW 1138   4.726   1.688   4.965
   80SOL    HW1 1139   4.751   1.694   5.062
   80SOL    HW2 1140   4.754   1.772   4.918
   81SOL     OW 1141   3.008   5.819   1.511
   81SOL    HW1 1142   3.023   5.877   1.591
   81SOL    HW2 1143   2.959   5.870   1.441
   82SOL     OW 1144   1.283   6.257   1.352
   82SOL    HW1 1145   1.273   6.357   1.346
   82SOL    HW2 1146   1.269   6.217   1.262
   83SOL     OW 1147   5.114   1.450   4.703
   83SOL    HW1 1148   5.104   1.371   4.763
   83SOL    HW2 1149   5.210   1.476   4.698
   84SOL     OW 1150   5.900   2.605   2.983
   84SOL    HW1 1151   5.899   2.528   2.919
   84SOL    HW2 1152   5.965   2.587   3.057
   85SOL     OW 1153   2.337   0.549   4.029
   85SOL    HW1 1154   2.342   0.464   4.081
   85SOL    HW2 1155   2.284   0.617   4.080
   86SOL     OW 1156   5.500   0.744   6.550
   86SOL    HW1 1157   5.436   0.675   6.516
   86SOL    HW2 1158   5.582   0.698   6.587
   87SOL     OW 1159   3.088   4.066   6.505
   87SOL    HW1 1160   3.147   4.009   6.448
   87SOL    HW2 1161   3.085   4.029   6.598
   88SOL     OW 1162   3.251   3.633   0.013
   88SOL    HW1 1163   3.177   3.567   7.025
   88SOL    HW2 1164   3.253   3.655   0.111
   89SOL     OW 1165   2.900   3.671   2.825
   89SOL    HW1 1166   2.834   3.597   2.839
   89SOL    HW2 1167   2.908   3.725   2.908
   90SOL     OW 1168   4.651   4.214   2.687
   90SOL    HW1 1169   4.699   4.127   2.678
   90SOL    HW2 1170   4.661   4.267   2.603
   91SOL     OW 1171   5.350   5.189   6.397
   91SOL    HW1 1172   5.422   5.249   6.431
   91SOL    HW2 1173   5.310   5.229   6.314
   92SOL     OW 1174   5.544   4.283   6.738
   92SOL    HW1 1175   5.539   4.236   6.826
   92SOL    HW2 1176   5.623   4.344   6.736
   93SOL     OW 1177   2.890   3.176   1.978
   93SOL    HW1 1178   2.960   3.206   1.914
   93SOL    HW2 1179   2.928   3.108   2.040
   94SOL     OW 1180   3.217   1.226   6.058
   94SOL    HW1 1181   3.184   1.138   6.024
   94SOL    HW2 1182   3.302   1.213   6.108
   95SOL     OW 1183   0.074   0.605   4.083
   95SOL    HW1 1184   0.050   0.662   4.162
   95SOL    HW2 1185   0.058   0.509   4.106
   96SOL     OW 1186   4.390   5.037   0.464
   96SOL    HW1 1187   4.395   5.124   0.514
   96SOL    HW2 1188   4.338   4.971   0.517
   97SOL     OW 1189   1.982   5.348   5.466
   97SOL    HW1 1190   1.951   5.288   5.540
   97SOL    HW2 1191   1.911   5.415   5.446
   98SOL     OW 1192   1.052   2.785   3.125
   98SOL    HW1 1193   1.034   2.883   3.118
   98SOL    HW2 1194   0.967   2.735   3.108
   99SOL     OW 1195   4.115   3.419   4.448
   99SOL    HW1 1196   4.104   3.336   4.503
   99SOL    HW2 1197   4.212   3.434   4.430
  100SOL     OW 1198   6.966   0.157   3.672
  100SOL    HW1 1199   0.004   0.208   3.619
  100SOL    HW2 1200   6.883   0.211   3.682
  101SOL     OW 1201   6.977   3.414   2.788
  101SOL    HW1 1202   6.884   3.384   2.765
  101SOL    HW2 1203   7.017   3.461   2.709
  102SOL     OW 1204   2.635   6.789   1.007
  102SOL    HW1 1205   2.589   6.701   0.998
  102SOL    HW2 1206   2.712   6.793   0.944
  103SOL     OW 1207   2.054   0.744   1.875
  103SOL    HW1 1208   2.121   0.754   1.802
  103SOL    HW2 1209   2.060   0.652   1.913
  104SOL     OW 1210   1.115   4.894   1.530
  104SOL    HW1 1211   1.075   4.985   1.518
  104SOL    HW2 1212   1.047   4.834   1.573
  105SOL     OW 1213   4.986   1.561   6.139
  105SOL    HW1 1214   4.932   1.594   6.217
  105SOL    HW2 1215   5.064   1.623   6.124
  106SOL     OW 1216   5.996   5.064   2.122
  106SOL    HW1 1217   5.952   4.985   2.080
  106SOL    HW2 1218   6.071   5.095   2.063
  107SOL     OW 1219   6.178   0.491   0.961
  107SOL    HW1 1220   6.145   0.415   1.016
  107SOL    HW2 1221   6.117   0.570   0.972
  108SOL     OW 1222   1.825   0.906   6.179
  108SOL    HW1 1223   1.855   0.978   6.241
  108SOL    HW2 1224   1.823   0.819   6.228
  109SOL     OW 1225   2.387   1.068   3.649
  109SOL    HW1 1226   2.420   0.976   3.673
  109SOL    HW2 1227   2.334   1.063   3.565
  110SOL     OW 1228   2.874   4.400   5.711
  110SOL    HW1 1229   2.795   4.341   5.698
  110SOL    HW2 1230   2.954   4.359   5.666
  111SOL     OW 1231   6.602   1.700   2.001
  111SOL    HW1 1232   6.505   1.723   1.986
  111SOL    HW2 1233   6.637   1.755   2.076
  112SOL     OW 1234   4.991   0.151   6.892
  112SOL    HW1 1235   5.029   0.100   6.815
  112SOL    HW2 1236   4.985   0.248   6.869
  113SOL     OW 1237   6.685   6.135   1.884
  113SOL    HW1 1238   6.649   6.208   1.942
  113SOL    HW2 1239   6.677   6.160   1.788
  114SOL     OW 1240   0.897   3.957   3.492
  114SOL    HW1 1241   0.844   4.038   3.515
  114SOL    HW2 1242   0.850   3.905   3.421
  115SOL     OW 1243   5.987   1.069   3.271
  115SOL    HW1 1244   5.977   1.043   3.175
  115SOL    HW2 1245   5.979   1.168   3.279
  116SOL     OW 1246   1.298   4.934   0.683
  116SOL    HW1 1247   1.325   4.920   0.778
  116SOL    HW2 1248   1.289   4.846   0.637
  117SOL     OW 1249   2.359   1.365   0.155
  117SOL    HW1 1250   2.446   1.405   0.186
  117SOL    HW2 1251   2.374   1.270   0.129
  118SOL     OW 1252   1.680   1.026   4.462
  118SOL    HW1 1253   1.585   0.997   4.466
  118SOL    HW2 1254   1.715   1.041   4.554
  119SOL     OW 1255   0.081   5.961   6.191
  119SOL    HW1 1256   0.042   6.043   6.232
  119SOL    HW2 1257   0.013   5.917   6.132
  120SOL     OW 1258   4.707   2.339   4.452
  120SOL    HW1 1259   4.640   2.398   4.408
  120SOL    HW2 1260   4.681   2.324   4.547
  121SOL     OW 1261   1.267   3.941   6.307
  121SOL    HW1 1262   1.255   4.012   6.376
  121SOL    HW2 1263   1.365   3.927   6.290
  122SOL     OW 1264   0.724   4.170   0.007
  122SOL    HW1 1265   0.705   4.100   6.968
  122SOL    HW2 1266   0.816   4.157   0.043
  123SOL     OW 1267   1.395   1.201   1.597
  123SOL    HW1 1268   1.340   1.195   1.680
  123SOL    HW2 1269   1.335   1.208   1.517
  124SOL     OW 1270   2.181   2.511   0.847
  124SOL    HW1 1271   2.242   2.446   0.893
  124SOL    HW2 1272   2.218   2.533   0.757
  125SOL     OW 1273   3.674   3.289   0.329
  125SOL    HW1 1274   3.698   3.373   0.378
  125SOL    HW2 1275   3.591   3.250   0.370
  126SOL     OW 1276   3.468   3.110   4.170
  126SOL    HW1 1277   3.395   3.171   4.201
  126SOL    HW2 1278   3.555   3.138   4.212
  127SOL     OW 1279   0.292   6.445   5.905
  127SOL    HW1 1280   0.349   6.408   5.832
  127SOL    HW2 1281   0.286   6.380   5.980
  128SOL     OW 1282   4.939   3.766   0.934
  128SOL    HW1 1283   4.985   3.682   0.904
  128SOL    HW2 1284   4.854   3.741   0.981
  129SOL     OW 1285   2.230   5.956   1.228
  129SOL    HW1 1286   2.321   5.918   1.210
  129SOL    HW2 1287   2.195   5.920   1.314
  130SOL     OW 1288   5.484   2.307   4.614
  130SOL    HW1 1289   5.493   2.208   4.612
  130SOL    HW2 1290   5.449   2.335   4.704
  131SOL     OW 1291   6.868   2.688   3.458
  131SOL    HW1 1292   6.857   2.592   3.484
  131SOL    HW2 1293   6.863   2.697   3.359
  132SOL     OW 1294   3.506   4.025   1.831
  132SOL    HW1 1295   3.475   3.993   1.741
  132SOL    HW2 1296   3.570   4.101   1.819
  133SOL     OW 1297   5.504   6.722   5.756
  133SOL    HW1 1298   5.551   6.642   5.720
  133SOL    HW2 1299   5.418   6.736   5.707
  134SOL     OW 1300   5.686   0.625   1.825
  134SOL    HW1 1301   5.676   0.568   1.907
  134SOL    HW2 1302   5.755   0.695   1.841
  135SOL     OW 1303   4.901   3.727   4.558
  135SOL    HW1 1304   4.845   3.683   4.488
  135SOL    HW2 1305   4.873   3.823   4.568
  136SOL     OW 1306   3.589   0.096   5.616
  136SOL    HW1 1307   3.557   0.177   5.567
  136SOL    HW2 1308   3.568   0.014   5.563
  137SOL     OW 1309   2.925   2.305   5.252
  137SOL    HW1 1310   2.922   2.231   5.319
  137SOL    HW2 1311   3.020   2.327   5.231
  138SOL     OW 1312   0.799   6.061   5.679
  138SOL    HW1 1313   0.848   5.988   5.726
  138SOL    HW2 1314   0.701   6.052   5.697
  139SOL     OW 1315   2.285   6.180   6.929
  139SOL    HW1 1316   2.317   6.273   6.913
  139SOL    HW2 1317   2.192   6.181   6.966
  140SOL     OW 1318   2.403   0.457   2.642
  140SOL    HW1 1319   2.330   0.480   2.577
  140SOL    HW2 1320   2.479   0.521   2.629
  141SOL     OW 1321   0.066   4.527   0.376
  141SOL    HW1 1322   0.135   4.520   0.448
  141SOL    HW2 1323   0.111   4.518   0.287
  142SOL     OW 1324   1.709   4.159   2.437
  142SOL    HW1 1325   1.805   4.174   2.416
  142SOL    HW2 1326   1.673   4.086   2.379
  143SOL     OW 1327   4.542   6.842   1.770
  143SOL    HW1 1328   4.550   6.749   1.805
  143SOL    HW2 1329   4.633   6.882   1.757
  144SOL     OW 1330   3.504   4.912   3.546
  144SOL    HW1 1331   3.548   4.826   3.519
  144SOL    HW2 1332   3.571   4.972   3.589
  145SOL     OW 1333   6.942   4.431   3.051
  145SOL    HW1 1334   6.991   4.460   2.969
  145SOL    HW2 1335   6.952   4.501   3.123
  146SOL     OW 1336   5.766   1.505   6.271
  146SOL    HW1 1337   5.837   1.542   6.211
  146SOL    HW2 1338   5.732   1.578   6.330
  147SOL     OW 1339   4.888   1.236   5.549
  147SOL    HW1 1340   4.862   1.221   5.644
  147SOL    HW2 1341   4.980   1.276   5.545
  148SOL     OW 1342   1.160   5.288   0.872
  148SOL    HW1 1343   1.249   5.316   0.907
  148SOL    HW2 1344   1.091   5.356   0.898
  149SOL     OW 1345   1.996   2.502   5.893
  149SOL    HW1 1346   2.003   2.530   5.989
  149SOL    HW2 1347   2.024   2.578   5.835
  150SOL     OW 1348   4.383   1.886   4.521
  150SOL    HW1 1349   4.446   1.812   4.501
  150SOL    HW2 1350   4.370   1.893   4.620
  151SOL     OW 1351   4.387   2.423   0.583
  151SOL    HW1 1352   4.467   2.365   0.589
  151SOL    HW2 1353   4.404   2.499   0.520
  152SOL     OW 1354   0.804   1.114   0.017
  152SOL    HW1 1355   0.763   1.179   6.982
  152SOL    HW2 1356   0.740   1.095   0.091
  153SOL     OW 1357   2.857   1.159   4.079
  153SOL    HW1 1358   2.943   1.207   4.092
  153SOL    HW2 1359   2.832   1.112   4.164
  154SOL     OW 1360   5.950   1.788   1.495
  154SOL    HW1 1361   5.986   1.698   1.470
  154SOL    HW2 1362   5.863   1.803   1.447
  155SOL     OW 1363   1.624   6.902   1.848
  155SOL    HW1 1364   1.718   6.899   1.882
  155SOL    HW2 1365   1.607   6.989   1.803
  156SOL     OW 1366   5.542   2.273   0.398
  156SOL    HW1 1367   5.459   2.254   0.450
  156SOL    HW2 1368   5.577   2.188   0.357
  157SOL     OW 1369   4.520   5.056   0.203
  157SOL    HW1 1370   4.475   5.021   0.285
  157SOL    HW2 1371   4.451   5.084   0.137
  158SOL     OW 1372   0.460   3.071   2.969
  158SOL    HW1 1373   0.383   3.110   2.918
  158SOL    HW2 1374   0.429   3.039   3.058
  159SOL     OW 1375   5.521   5.707   0.598
  159SOL    HW1 1376   5.574   5.744   0.522
  159SOL    HW2 1377   5.501   5.611   0.581
  160SOL     OW 1378   6.409   0.023   1.119
  160SOL    HW1 1379   6.499   0.065   1.133
  160SOL    HW2 1380   6.416   6.983   1.048
  161SOL     OW 1381   0.363   6.721   0.409
  161SOL    HW1 1382   0.337   6.664   0.487
  161SOL    HW2 1383   0.355   6.817   0.434
  162SOL     OW 1384   4.077   6.872   0.525
  162SOL    HW1 1385   4.083   6.870   0.425
  162SOL    HW2 1386   4.017   6.947   0.554
  163SOL     OW 1387   0.118   3.613   3.614
  163SOL    HW1 1388   0.045   3.561   3.659
  163SOL    HW2 1389   0.156   3.679   3.679
  164SOL     OW 1390   1.726   1.974   3.513
  164SOL    HW1 1391   1.726   1.874   3.516
  164SOL    HW2 1392   1.654   2.009   3.572
  165SOL     OW 1393   0.837   5.643   3.462
  165SOL    HW1 1394   0.741   5.620   3.477
  165SOL    HW2 1395   0.852   5.664   3.366
  166SOL     OW 1396   6.780   3.515   2.997
  166SOL    HW1 1397   6.730   3.584   3.050
  166SOL    HW2 1398   6.872   3.547   2.979
  167SOL     OW 1399   4.905   2.067   6.777
  167SOL    HW1 1400   4.899   2.124   6.858
  167SOL    HW2 1401   4.902   2.124   6.695
  168SOL     OW 1402   4.963   3.497   2.121
  168SOL    HW1 1403   4.974   3.398   2.115
  168SOL    HW2 1404   5.025   3.534   2.191
  169SOL     OW 1405   6.456   2.525   1.142
  169SOL    HW1 1406   6.431   2.429   1.132
  169SOL    HW2 1407   6.541   2.531   1.195
  170SOL     OW 1408   0.565   4.984   2.869
  170SOL    HW1 1409   0.502   4.938   2.932
  170SOL    HW2 1410   0.572   4.931   2.785
  171SOL     OW 1411   2.990   3.581   0.378
  171SOL    HW1 1412   2.918   3.630   0.427
  171SOL    HW2 1413   3.073   3.578   0.435
  172SOL     OW 1414   6.415   1.778   0.847
  172SOL    HW1 1415   6.383   1.684   0.838
  172SOL    HW2 1416   6.350   1.831   0.901
  173SOL     OW 1417   6.429   2.007   5.659
  173SOL    HW1 1418   6.497   1.940   5.630
  173SOL    HW2 1419   6.445   2.031   5.755
  174SOL     OW 1420   6.046   5.454   5.618
  174SOL    HW1 1421   5.973   5.389   5.639
  174SOL    HW2 1422   6.049   5.470   5.520
  175SOL     OW 1423   0.713   0.147   0.861
  175SOL    HW1 1424   0.776   0.076   0.894
  175SOL    HW2 1425   0.672   0.194   0.939
  176SOL     OW 1426   5.500   4.666   2.564
  176SOL    HW1 1427   5.490   4.607   2.644
  176SOL    HW2 1428   5.597   4.669   2.538
  177SOL     OW 1429   6.007   2.133   4.175
  177SOL    HW1 1430   6.099   2.131   4.212
  177SOL    HW2 1431   5.962   2.046   4.193
  178SOL     OW 1432   1.755   6.486   5.367
  178SOL    HW1 1433   1.805   6.435   5.297
  178SOL    HW2 1434   1.682   6.539   5.325
  179SOL     OW 1435   3.816   5.075   1.067
  179SOL    HW1 1436   3.897   5.062   1.124
  179SOL    HW2 1437   3.794   4.989   1.020
  180SOL     OW 1438   4.317   1.652   0.898
  180SOL    HW1 1439   4.368   1.591   0.959
  180SOL    HW2 1440   4.356   1.744   0.902
  181SOL     OW 1441   3.352   2.365   5.479
  181SOL    HW1 1442   3.439   2.375   5.527
  181SOL    HW2 1443   3.364   2.300   5.403
  182SOL     OW 1444   4.808   2.054   6.347
  182SOL    HW1 1445   4.844   2.090   6.261
  182SOL    HW2 1446   4.728   1.997   6.330
  183SOL     OW 1447   3.237   1.516   3.601
  183SOL    HW1 1448   3.202   1.423   3.616
  183SOL    HW2 1449   3.171   1.567   3.545
  184SOL     OW 1450   6.433   6.257   3.056
  184SOL    HW1 1451   6.426   6.344   3.008
  184SOL    HW2 1452   6.530   6.237   3.075
  185SOL     OW 1453   0.342   1.068   4.331
  185SOL    HW1 1454   0.369   1.107   4.243
  185SOL    HW2 1455   0.422   1.028   4.376
  186SOL     OW 1456   4.575   5.800   3.481
  186SOL    HW1 1457   4.517   5.880   3.475
  186SOL    HW2 1458   4.536   5.726   3.426
  187SOL     OW 1459   4.257   6.061   1.978
  187SOL    HW1 1460   4.299   6.030   1.892
  187SOL    HW2 1461   4.220   6.153   1.966
  188SOL     OW 1462   2.125   2.854   3.029
  188SOL    HW1 1463   2.147   2.937   3.081
  188SOL    HW2 1464   2.111   2.878   2.933
  189SOL     OW 1465   6.250   4.983   6.302
  189SOL    HW1 1466   6.223   4.970   6.398
  189SOL    HW2 1467   6.213   5.069   6.269
  190SOL     OW 1468   5.913   0.257   0.450
  190SOL    HW1 1469   5.924   0.248   0.549
  190SOL    HW2 1470   5.818   0.241   0.425
  191SOL     OW 1471   6.223   0.847   5.773
  191SOL    HW1 1472   6.282   0.920   5.739
  191SOL    HW2 1473   6.166   0.882   5.847
  192SOL     OW 1474   0.789   5.115   0.722
  192SOL    HW1 1475   0.861   5.059   0.682
  192SOL    HW2 1476   0.800   5.118   0.821
  193SOL     OW 1477   2.723   5.349   6.131
  193SOL    HW1 1478   2.716   5.265   6.184
  193SOL    HW2 1479   2.811   5.353   6.085
  194SOL     OW 1480   3.858   0.047   2.075
  194SOL    HW1 1481   3.846   0.086   1.984
  194SOL    HW2 1482   3.791   0.088   2.138
  195SOL     OW 1483   3.013   1.105   1.627
  195SOL    HW1 1484   3.003   1.098   1.726
  195SOL    HW2 1485   3.096   1.157   1.605
  196SOL     OW 1486   2.002   0.960   6.990
  196SOL    HW1 1487   2.030   1.050   6.957
  196SOL    HW2 1488   1.910   0.939   6.958
  197SOL     OW 1489   2.124   5.724   0.406
  197SOL    HW1 1490   2.180   5.724   0.323
  197SOL    HW2 1491   2.039   5.773   0.389
  198SOL     OW 1492   4.389   6.332   0.069
  198SOL    HW1 1493   4.392   6.367   7.004
  198SOL    HW2 1494   4.294   6.320   0.097
  199SOL     OW 1495   6.179   6.558   2.990
  199SOL    HW1 1496   6.157   6.460   2.992
  199SOL    HW2 1497   6.115   6.607   3.049
  200SOL     OW 1498   0.512   3.979   2.902
  200SOL    HW1 1499   0.510   3.987   3.001
  200SOL    HW2 1500   0.491   3.885   2.876
  201SOL     OW 1501   2.955   0.937   0.216
  201SOL    HW1 1502   2.908   0.852   0.238
  201SOL    HW2 1503   2.947   0.956   0.118
  202SOL     OW 1504   3.593   7.021   3.568
  202SOL    HW1 1505   3.635   6.946   3.517
  202SOL    HW2 1506   3.665   0.052   3.604
  203SOL     OW 1507   5.364   3.570   6.066
  203SOL    HW1 1508   5.269   3.602   6.074
  203SOL    HW2 1509   5.424   3.632   6.118
  204SOL     OW 1510   2.494   6.842   0.542
  204SOL    HW1 1511   2.424   6.784   0.500
  204SOL    HW2 1512   2.581   6.794   0.542
  205SOL     OW 1513   6.051   1.786   1.115
  205SOL    HW1 1514   6.058   1.705   1.173
  205SOL    HW2 1515   5.958   1.795   1.080
  206SOL     OW 1516   0.255   4.784   2.072
  206SOL    HW1 1517   0.324   4.780   2.000
  206SOL    HW2 1518   0.241   4.880   2.099
  207SOL     OW 1519   4.710   0.861   5.761
  207SOL    HW1 1520   4.705   0.957   5.733
  207SOL    HW2 1521   4.634   0.840   5.824
  208SOL     OW 1522   5.043   5.916   6.371
  208SOL    HW1 1523   5.069   5.914   6.274
  208SOL    HW2 1524   5.073   6.002   6.412
  209SOL     OW 1525   6.368   5.428   5.934
  209SOL    HW1 1526   6.372   5.337   5.891
  209SOL    HW2 1527   6.329   5.494   5.870
  210SOL     OW 1528   4.181   2.213   1.371
  210SOL    HW1 1529   4.132   2.149   1.312
  210SOL    HW2 1530   4.221   2.286   1.315
  211SOL     OW 1531   0.802   1.305   0.668
  211SOL    HW1 1532   0.765   1.306   0.761
  211SOL    HW2 1533   0.818   1.400   0.639
  212SOL     OW 1534   0.892   5.046   3.712
  212SOL    HW1 1535   0.887   5.025   3.809
  212SOL    HW2 1536   0.931   5.137   3.699
  213SOL     OW 1537   5.304   2.406   6.592
  213SOL    HW1 1538   5.364   2.329   6.572
  213SOL    HW2 1539   5.218   2.396   6.543
  214SOL     OW 1540   0.743   6.659   2.072
  214SOL    HW1 1541   0.702   6.668   2.163
  214SOL    HW2 1542   0.780   6.567   2.061
  215SOL     OW 1543   3.374   3.278   2.525
  215SOL    HW1 1544   3.463   3.282   2.480
  215SOL    HW2 1545   3.302   3.265   2.457
  216SOL     OW 1546   0.860   0.402   5.498
  216SOL    HW1 1547   0.862   0.459   5.415
  216SOL    HW2 1548   0.768   0.368   5.513
  217SOL     OW 1549   1.091   3.216   3.825
  217SOL    HW1 1550   1.074   3.223   3.923
  217SOL    HW2 1551   1.161   3.147   3.808
  218SOL     OW 1552   1.174   3.183   5.075
  218SOL    HW1 1553   1.253   3.181   5.012
  218SOL    HW2 1554   1.120   3.265   5.057
  219SOL     OW 1555   4.294   4.640   0.446
  219SOL    HW1 1556   4.220   4.636   0.514
  219SOL    HW2 1557   4.379   4.667   0.491
  220SOL     OW 1558   2.552   5.242   0.115
  220SOL    HW1 1559   2.546   5.342   0.122
  220SOL    HW2 1560   2.563   5.216   0.019
  221SOL     OW 1561   5.090   2.325   3.810
  221SOL    HW1 1562   5.083   2.269   3.893
  221SOL    HW2 1563   5.054   2.274   3.732
  222SOL     OW 1564   0.289   5.953   5.869
  222SOL    HW1 1565   0.202   6.002   5.863
  222SOL    HW2 1566   0.272   5.857   5.890
  223SOL     OW 1567   6.972   3.764   1.879
  223SOL    HW1 1568   0.027   3.794   1.922
  223SOL    HW2 1569   6.955   3.818   1.797
  224SOL     OW 1570   2.672   2.149   2.052
  224SOL    HW1 1571   2.735   2.225   2.036
  224SOL    HW2 1572   2.665   2.094   1.969
  225SOL     OW 1573   5.835   0.716   6.917
  225SOL    HW1 1574   5.842   0.814   6.935
  225SOL    HW2 1575   5.927   0.677   6.911
  226SOL     OW 1576   0.605   6.057   0.448
  226SOL    HW1 1577   0.599   6.155   0.467
  226SOL    HW2 1578   0.693   6.022   0.481
  227SOL     OW 1579   1.470   3.475   4.094
  227SOL    HW1 1580   1.545   3.414   4.068
  227SOL    HW2 1581   1.385   3.442   4.053
  228SOL     OW 1582   4.683   6.622   3.824
  228SOL    HW1 1583   4.755   6.610   3.894
  228SOL    HW2 1584   4.675   6.538   3.770
  229SOL     OW 1585   6.071   6.120   2.101
  229SOL    HW1 1586   6.087   6.126   2.200
  229SOL    HW2 1587   6.148   6.160   2.052
  230SOL     OW 1588   2.349   4.305   5.184
  230SOL    HW1 1589   2.393   4.361   5.113
  230SOL    HW2 1590   2.328   4.214   5.147
  231SOL     OW 1591   0.415   3.196   6.219
  231SOL    HW1 1592   0.510   3.197   6.251
  231SOL    HW2 1593   0.394   3.282   6.173
  232SOL     OW 1594   1.197   3.650   6.849
  232SOL    HW1 1595   1.292   3.640   6.879
  232SOL    HW2 1596   1.193   3.653   6.750
  233SOL     OW 1597   2.098   1.757   5.380
  233SOL    HW1 1598   2.185   1.776   5.336
  233SOL    HW2 1599   2.073   1.835   5.438
  234SOL     OW 1600   2.656   5.141   6.893
  234SOL    HW1 1601   2.746   5.166   6.858
  234SOL    HW2 1602   2.627   5.054   6.852
  235SOL     OW 1603   3.309   3.314   4.251
  235SOL    HW1 1604   3.349   3.381   4.313
  235SOL    HW2 1605   3.209   3.313   4.264
  236SOL     OW 1606   6.679   2.566   5.384
  236SOL    HW1 1607   6.747   2.507   5.426
  236SOL    HW2 1608   6.637   2.625   5.453
  237SOL     OW 1609   0.560   0.238   1.465
  237SOL    HW1 1610   0.530   0.301   1.393
  237SOL    HW2 1611   0.525   0.270   1.553
  238SOL     OW 1612   5.570   3.104   2.577
  238SOL    HW1 1613   5.602   3.057   2.496
  238SOL    HW2 1614   5.605   3.058   2.659
  239SOL     OW 1615   6.802   5.867   6.875
  239SOL    HW1 1616   6.892   5.880   6.834
  239SOL    HW2 1617   6.804   5.788   6.936
  240SOL     OW 1618   0.398   4.239   6.053
  240SOL    HW1 1619   0.384   4.244   6.152
  240SOL    HW2 1620   0.442   4.323   6.021
  241SOL     OW 1621   0.368   0.553   2.973
  241SOL    HW1 1622   0.428   0.622   2.933
  241SOL    HW2 1623   0.275   0.565   2.937
  242SOL     OW 1624   1.791   3.805   4.472
  242SOL    HW1 1625   1.831   3.891   4.439
  242SOL    HW2 1626   1.697   3.822   4.500
  243SOL     OW 1627   5.765   6.508   5.141
  243SOL    HW1 1628   5.801   6.502   5.048
  243SOL    HW2 1629   5.704   6.431   5.158
  244SOL     OW 1630   5.547   2.023   4.969
  244SOL    HW1 1631   5.540   1.982   4.878
  244SOL    HW2 1632   5.642   2.015   5.001
  245SOL     OW 1633   6.228   2.797   4.193
  245SOL    HW1 1634   6.177   2.739   4.130
  245SOL    HW2 1635   6.163   2.846   4.253
  246SOL     OW 1636   4.880   3.967   3.267
  246SOL    HW1 1637   4.955   3.965   3.201
  246SOL    HW2 1638   4.820   4.045   3.247
  247SOL     OW 1639   2.068   1.628   3.341
  247SOL    HW1 1640   2.089   1.560   3.411
  247SOL    HW2 1641   2.112   1.715   3.365
  248SOL     OW 1642   5.822   1.556   3.679
  248SOL    HW1 1643   5.727   1.536   3.653
  248SOL    HW2 1644   5.877   1.473   3.673
  249SOL     OW 1645   3.593   6.916   4.350
  249SOL    HW1 1646   3.575   6.955   4.259
  249SOL    HW2 1647   3.642   6.984   4.405
  250SOL     OW 1648   5.158   3.443   5.910
  250SOL    HW1 1649   5.174   3.396   5.997
  250SOL    HW2 1650   5.230   3.417   5.845
  251SOL     OW 1651   4.192   2.582   6.736
  251SOL    HW1 1652   4.238   2.620   6.816
  251SOL    HW2 1653   4.100   2.550   6.761
  252SOL     OW 1654   0.014   0.357   5.958
  252SOL    HW1 1655   6.962   0.376   5.904
  252SOL    HW2 1656   0.012   0.262   5.989
  253SOL     OW 1657   2.995   3.229   0.096
  253SOL    HW1 1658   2.991   3.157   0.165
  253SOL    HW2 1659   3.063   3.297   0.123
  254SOL     OW 1660   5.858   2.657   5.120
  254SOL    HW1 1661   5.893   2.631   5.030
  254SOL    HW2 1662   5.783   2.596   5.144
  255SOL     OW 1663   2.866   2.047   3.076
  255SOL    HW1 1664   2.917   2.126   3.042
  255SOL    HW2 1665   2.771   2.053   3.045
  256SOL     OW 1666   5.304   5.079   0.060
  256SOL    HW1 1667   5.270   5.146   7.025
  256SOL    HW2 1668   5.240   5.071   0.137
  257SOL     OW 1669   2.945   5.750   6.092
  257SOL    HW1 1670   2.990   5.838   6.075
  257SOL    HW2 1671   2.952   5.728   6.189
  258SOL     OW 1672   5.570   4.208   4.473
  258SOL    HW1 1673   5.605   4.160   4.393
  258SOL    HW2 1674   5.471   4.196   4.479
  259SOL     OW 1675   1.400   1.995   2.640
  259SOL    HW1 1676   1.489   1.990   2.687
  259SOL    HW2 1677   1.415   2.004   2.542
  260SOL     OW 1678   5.884   0.454   5.824
  260SOL    HW1 1679   5.983   0.440   5.829
  260SOL    HW2 1680   5.851   0.432   5.733
  261SOL     OW 1681   0.923   4.254   2.489
  261SOL    HW1 1682   0.979   4.293   2.563
  261SOL    HW2 1683   0.892   4.328   2.429
  262SOL     OW 1684   0.801   4.311   1.961
  262SOL    HW1 1685   0.782   4.387   2.023
  262SOL    HW2 1686   0.770   4.226   2.002
  263SOL     OW 1687   0.726   1.848   4.277
  263SOL    HW1 1688   0.682   1.770   4.232
  263SOL    HW2 1689   0.774   1.817   4.358
  264SOL     OW 1690   2.211   4.450   6.415
  264SOL    HW1 1691   2.260   4.481   6.497
  264SOL    HW2 1692   2.233   4.511   6.339
  265SOL     OW 1693   5.465   4.525   4.631
  265SOL    HW1 1694   5.405   4.453   4.597
  265SOL    HW2 1695   5.516   4.565   4.555
  266SOL     OW 1696   3.959   1.775   0.724
  266SOL    HW1 1697   3.891   1.748   0.793
  266SOL    HW2 1698   4.034   1.708   0.724
  267SOL     OW 1699   1.283   1.972   6.163
  267SOL    HW1 1700   1.313   2.017   6.080
  267SOL    HW2 1701   1.224   2.034   6.216
  268SOL     OW 1702   4.061   4.901   4.649
  268SOL    HW1 1703   4.110   4.882   4.564
  268SOL    HW2 1704   3.962   4.897   4.632
  269SOL     OW 1705   0.807   2.146   5.739
  269SOL    HW1 1706   0.753   2.214   5.789
  269SOL    HW2 1707   0.828   2.181   5.648
  270SOL     OW 1708   5.291   1.134   3.032
  270SOL    HW1 1709   5.193   1.152   3.031
  270SOL    HW2 1710   5.340   1.210   2.988
  271SOL     OW 1711   1.328   0.543   6.586
  271SOL    HW1 1712   1.275   0.536   6.671
  271SOL    HW2 1713   1.266   0.561   6.510
  272SOL     OW 1714   3.143   6.192   3.380
  272SOL    HW1 1715   3.191   6.279   3.369
  272SOL    HW2 1716   3.208   6.120   3.403
  273SOL     OW 1717   2.577   6.459   5.002
  273SOL    HW1 1718   2.655   6.458   4.940
  273SOL    HW2 1719   2.568   6.370   5.047
  274SOL     OW 1720   6.266   2.561   2.371
  274SOL    HW1 1721   6.299   2.480   2.419
  274SOL    HW2 1722   6.213   2.533   2.291
  275SOL     OW 1723   6.733   5.918   5.054
  275SOL    HW1 1724   6.797   5.938   4.980
  275SOL    HW2 1725   6.678   5.838   5.031
  276SOL     OW 1726   6.398   6.301   3.577
  276SOL    HW1 1727   6.474   6.290   3.641
  276SOL    HW2 1728   6.333   6.367   3.613
  277SOL     OW 1729   3.930   1.713   5.538
  277SOL    HW1 1730   3.944   1.616   5.519
  277SOL    HW2 1731   3.957   1.733   5.632
  278SOL     OW 1732   5.570   3.604   2.831
  278SOL    HW1 1733   5.518   3.662   2.769
  278SOL    HW2 1734   5.525   3.515   2.840
  279SOL     OW 1735   0.054   2.777   3.631
  279SOL    HW1 1736   7.004   2.751   3.577
  279SOL    HW2 1737   0.089   2.698   3.681
  280SOL     OW 1738   3.670   0.438   4.292
  280SOL    HW1 1739   3.663   0.377   4.372
  280SOL    HW2 1740   3.766   0.447   4.266
  281SOL     OW 1741   4.843   6.227   3.868
  281SOL    HW1 1742   4.769   6.173   3.908
  281SOL    HW2 1743   4.925   6.169   3.859
  282SOL     OW 1744   4.410   1.835   0.185
  282SOL    HW1 1745   4.310   1.839   0.188
  282SOL    HW2 1746   4.441   1.851   0.091
  283SOL     OW 1747   6.281   1.572   4.981
  283SOL    HW1 1748   6.190   1.534   4.962
  283SOL    HW2 1749   6.329   1.587   4.895
  284SOL     OW 1750   5.731   5.246   4.239
  284SOL    HW1 1751   5.655   5.260   4.303
  284SOL    HW2 1752   5.785   5.168   4.269
  285SOL     OW 1753   4.153   0.419   6.601
  285SOL    HW1 1754   4.094   0.476   6.543
  285SOL    HW2 1755   4.247   0.424   6.567
  286SOL     OW 1756   3.461   5.028   5.250
  286SOL    HW1 1757   3.395   5.034   5.175
  286SOL    HW2 1758   3.420   5.064   5.334
  287SOL     OW 1759   2.592   6.381   5.750
  287SOL    HW1 1760   2.552   6.372   5.841
  287SOL    HW2 1761   2.534   6.439   5.694
  288SOL     OW 1762   3.348   0.827   0.682
  288SOL    HW1 1763   3.254   0.794   0.689
  288SOL    HW2 1764   3.349   0.927   0.682
  289SOL     OW 1765   0.419   6.194   4.132
  289SOL    HW1 1766   0.487   6.267   4.136
  289SOL    HW2 1767   0.399   6.163   4.225
  290SOL     OW 1768   3.329   0.874   4.400
  290SOL    HW1 1769   3.368   0.966   4.405
  290SOL    HW2 1770   3.399   0.811   4.365
  291SOL     OW 1771   4.252   0.649   5.010
  291SOL    HW1 1772   4.290   0.637   4.918
  291SOL    HW2 1773   4.311   0.602   5.076
  292SOL     OW 1774   3.819   0.463   3.848
  292SOL    HW1 1775   3.780   0.554   3.833
  292SOL    HW2 1776   3.830   0.417   3.760
  293SOL     OW 1777   5.784   6.974   2.763
  293SOL    HW1 1778   5.732   6.889   2.774
  293SOL    HW2 1779   5.757   0.010   2.834
  294SOL     OW 1780   6.086   0.921   5.998
  294SOL    HW1 1781   6.071   1.017   6.023
  294SOL    HW2 1782   6.023   0.864   6.049
  295SOL     OW 1783   0.930   1.792   5.063
  295SOL    HW1 1784   0.873   1.873   5.080
  295SOL    HW2 1785   1.015   1.799   5.115
  296SOL     OW 1786   7.000   1.842   1.493
  296SOL    HW1 1787   0.059   1.859   1.535
  296SOL    HW2 1788   6.961   1.757   1.531
  297SOL     OW 1789   5.937   4.138   3.796
  297SOL    HW1 1790   5.926   4.098   3.706
  297SOL    HW2 1791   5.951   4.237   3.788
  298SOL     OW 1792   3.649   1.161   0.033
  298SOL    HW1 1793   3.594   1.243   0.047
  298SOL    HW2 1794   3.712   1.176   6.986
  299SOL     OW 1795   2.323   1.595   6.333
  299SOL    HW1 1796   2.282   1.618   6.422
  299SOL    HW2 1797   2.414   1.557   6.348
  300SOL     OW 1798   3.972   0.787   3.072
  300SOL    HW1 1799   3.912   0.826   3.003
  300SOL    HW2 1800   3.963   0.687   3.071
  301SOL     OW 1801   6.288   5.751   1.268
  301SOL    HW1 1802   6.207   5.729   1.322
  301SOL    HW2 1803   6.287   5.699   1.182
  302SOL     OW 1804   6.040   6.087   1.098
  302SOL    HW1 1805   6.129   6.114   1.134
  302SOL    HW2 1806   6.033   5.987   1.097
  303SOL     OW 1807   5.828   5.456   2.300
  303SOL    HW1 1808   5.796   5.494   2.213
  303SOL    HW2 1809   5.899   5.388   2.282
  304SOL     OW 1810   1.193   6.942   5.249
  304SOL    HW1 1811   1.272   6.887   5.275
  304SOL    HW2 1812   1.198   0.002   5.294
  305SOL     OW 1813   1.367   2.634   2.175
  305SOL    HW1 1814   1.449   2.685   2.197
  305SOL    HW2 1815   1.335   2.585   2.257
  306SOL     OW 1816   6.384   0.696   2.839
  306SOL    HW1 1817   6.417   0.631   2.771
  306SOL    HW2 1818   6.333   0.647   2.910
  307SOL     OW 1819   3.444   3.389   2.830
  307SOL    HW1 1820   3.385   3.319   2.871
  307SOL    HW2 1821   3.390   3.471   2.810
  308SOL     OW 1822   5.671   1.420   4.284
  308SOL    HW1 1823   5.593   1.453   4.336
  308SOL    HW2 1824   5.754   1.468   4.314
  309SOL     OW 1825   1.105   6.419   6.293
  309SOL    HW1 1826   1.200   6.441   6.318
  309SOL    HW2 1827   1.071   6.488   6.229
  310SOL     OW 1828   5.322   5.853   5.179
  310SOL    HW1 1829   5.231   5.867   5.139
  310SOL    HW2 1830   5.359   5.941   5.208
  311SOL     OW 1831   1.697   5.721   2.865
  311SOL    HW1 1832   1.724   5.666   2.944
  311SOL    HW2 1833   1.679   5.662   2.787
  312SOL     OW 1834   4.865   2.020   3.029
  312SOL    HW1 1835   4.779   2.059   2.996
  312SOL    HW2 1836   4.927   2.093   3.056
  313SOL     OW 1837   3.640   3.168   3.764
  313SOL    HW1 1838   3.691   3.249   3.793
  313SOL    HW2 1839   3.594   3.187   3.677
  314SOL     OW 1840   2.405   6.583   5.710
  314SOL    HW1 1841   2.436   6.592   5.805
  314SOL    HW2 1842   2.305   6.583   5.707
  315SOL     OW 1843   6.824   1.344   3.544
  315SOL    HW1 1844   6.733   1.332   3.583
  315SOL    HW2 1845   6.824   1.313   3.449
  316SOL     OW 1846   3.720   1.632   5.140
  316SOL    HW1 1847   3.775   1.565   5.089
  316SOL    HW2 1848   3.623   1.609   5.130
  317SOL     OW 1849   1.187   1.060   1.255
  317SOL    HW1 1850   1.240   1.124   1.199
  317SOL    HW2 1851   1.098   1.101   1.276
  318SOL     OW 1852   0.223   0.488   5.384
  318SOL    HW1 1853   0.313   0.524   5.410
  318SOL    HW2 1854   0.157   0.563   5.379
  319SOL     OW 1855   1.248   2.295   2.090
  319SOL    HW1 1856   1.226   2.353   2.169
  319SOL    HW2 1857   1.265   2.352   2.010
  320SOL     OW 1858   6.082   2.769   6.933
  320SOL    HW1 1859   6.006   2.727   6.982
  320SOL    HW2 1860   6.102   2.715   6.851
  321SOL     OW 1861   4.227   3.072   1.128
  321SOL    HW1 1862   4.165   3.046   1.054
  321SOL    HW2 1863   4.321   3.054   1.101
  322SOL     OW 1864   4.063   3.439   6.254
  322SOL    HW1 1865   4.104   3.385   6.328
  322SOL    HW2 1866   3.968   3.410   6.242
  323SOL     OW 1867   0.476   3.236   3.413
  323SOL    HW1 1868   0.483   3.191   3.502
  323SOL    HW2 1869   0.453   3.332   3.426
  324SOL     OW 1870   1.164   6.838   3.357
  324SOL    HW1 1871   1.104   6.770   3.313
  324SOL    HW2 1872   1.203   6.798   3.440
  325SOL     OW 1873   0.697   3.767   2.739
  325SOL    HW1 1874   0.601   3.765   2.767
  325SOL    HW2 1875   0.754   3.796   2.817
  326SOL     OW 1876   1.648   6.338   6.495
  326SOL    HW1 1877   1.674   6.243   6.512
  326SOL    HW2 1878   1.692   6.369   6.411
  327SOL     OW 1879   4.369   5.392   3.766
  327SOL    HW1 1880   4.423   5.437   3.837
  327SOL    HW2 1881   4.273   5.417   3.776
  328SOL     OW 1882   2.351   4.564   2.281
  328SOL    HW1 1883   2.327   4.512   2.363
  328SOL    HW2 1884   2.415   4.511   2.226
  329SOL     OW 1885   3.179   4.033   1.631
  329SOL    HW1 1886   3.262   3.977   1.631
  329SOL    HW2 1887   3.135   4.026   1.720
  330SOL     OW 1888   3.745   4.915   0.321
  330SOL    HW1 1889   3.771   5.004   0.282
  330SOL    HW2 1890   3.724   4.852   0.247
  331SOL     OW 1891   5.034   5.817   6.936
  331SOL    HW1 1892   5.016   5.867   7.021
  331SOL    HW2 1893   4.963   5.748   6.923
  332SOL     OW 1894   5.238   2.005   2.882
  332SOL    HW1 1895   5.204   2.097   2.863
  332SOL    HW2 1896   5.162   1.944   2.904
  333SOL     OW 1897   3.628   0.793   5.954
  333SOL    HW1 1898   3.661   0.887   5.945
  333SOL    HW2 1899   3.542   0.792   6.005
  334SOL     OW 1900   3.756   4.070   3.956
  334SOL    HW1 1901   3.672   4.082   4.010
  334SOL    HW2 1902   3.835   4.070   4.017
  335SOL     OW 1903   3.602   0.137   6.544
  335SOL    HW1 1904   3.701   0.130   6.529
  335SOL    HW2 1905   3.555   0.067   6.491
  336SOL     OW 1906   3.027   1.840   3.113
  336SOL    HW1 1907   2.977   1.924   3.090
  336SOL    HW2 1908   2.988   1.800   3.196
  337SOL     OW 1909   1.915   1.687   6.031
  337SOL    HW1 1910   1.977   1.612   6.054
  337SOL    HW2 1911   1.836   1.651   5.981
  338SOL     OW 1912   4.688   2.240   1.816
  338SOL    HW1 1913   4.673   2.178   1.894
  338SOL    HW2 1914   4.654   2.331   1.839
  339SOL     OW 1915   4.125   4.992   4.903
  339SOL    HW1 1916   4.095   4.979   4.809
  339SOL    HW2 1917   4.052   4.963   4.965
  340SOL     OW 1918   4.784   2.225   4.085
  340SOL    HW1 1919   4.838   2.309   4.084
  340SOL    HW2 1920   4.704   2.238   4.144
  341SOL     OW 1921   5.928   6.464   3.338
  341SOL    HW1 1922   5.965   6.530   3.273
  341SOL    HW2 1923   5.830   6.478   3.349
  342SOL     OW 1924   4.798   2.262   1.569
  342SOL    HW1 1925   4.742   2.263   1.652
  342SOL    HW2 1926   4.872   2.196   1.580
  343SOL     OW 1927   0.932   5.226   3.309
  343SOL    HW1 1928   0.987   5.265   3.383
  343SOL    HW2 1929   0.990   5.207   3.230
  344SOL     OW 1930   1.994   1.059   1.140
  344SOL    HW1 1931   1.911   1.111   1.117
  344SOL    HW2 1932   1.974   0.999   1.217
  345SOL     OW 1933   6.406   2.854   4.469
  345SOL    HW1 1934   6.315   2.878   4.437
  345SOL    HW2 1935   6.447   2.785   4.409
  346SOL     OW 1936   1.494   0.202   2.736
  346SOL    HW1 1937   1.523   0.224   2.643
  346SOL    HW2 1938   1.419   0.263   2.763
  347SOL     OW 1939   2.707   5.214   0.451
  347SOL    HW1 1940   2.711   5.294   0.391
  347SOL    HW2 1941   2.789   5.210   0.508
  348SOL     OW 1942   5.203   5.481   2.245
  348SOL    HW1 1943   5.132   5.550   2.252
  348SOL    HW2 1944   5.289   5.524   2.217
  349SOL     OW 1945   0.106   4.106   0.979
  349SOL    HW1 1946   0.119   4.012   0.948
  349SOL    HW2 1947   0.104   4.109   1.079
  350SOL     OW 1948   3.458   2.736   0.123
  350SOL    HW1 1949   3.486   2.807   0.059
  350SOL    HW2 1950   3.464   2.771   0.217
  351SOL     OW 1951   3.376   4.365   0.690
  351SOL    HW1 1952   3.306   4.429   0.719
  351SOL    HW2 1953   3.341   4.271   0.698
  352SOL     OW 1954   4.190   6.485   3.545
  352SOL    HW1 1955   4.171   6.485   3.447
  352SOL    HW2 1956   4.255   6.412   3.566
  353SOL     OW 1957   2.820   6.747   6.375
  353SOL    HW1 1958   2.744   6.712   6.430
  353SOL    HW2 1959   2.795   6.837   6.338
  354SOL     OW 1960   6.047   2.447   0.774
  354SOL    HW1 1961   6.006   2.391   0.702
  354SOL    HW2 1962   6.114   2.392   0.825
  355SOL     OW 1963   1.849   2.396   2.457
  355SOL    HW1 1964   1.805   2.363   2.374
  355SOL    HW2 1965   1.854   2.496   2.455
  356SOL     OW 1966   1.545   0.277   5.972
  356SOL    HW1 1967   1.624   0.227   5.938
  356SOL    HW2 1968   1.511   0.233   6.055
  357SOL     OW 1969   5.877   6.844   4.948
  357SOL    HW1 1970   5.901   6.940   4.939
  357SOL    HW2 1971   5.808   6.820   4.879
  358SOL     OW 1972   4.899   5.959   0.644
  358SOL    HW1 1973   4.951   6.014   0.710
  358SOL    HW2 1974   4.847   5.889   0.693
  359SOL     OW 1975   3.396   2.057   1.667
  359SOL    HW1 1976   3.436   2.007   1.744
  359SOL    HW2 1977   3.427   2.152   1.669
  360SOL     OW 1978   1.395   4.982   4.099
  360SOL    HW1 1979   1.476   5.022   4.140
  360SOL    HW2 1980   1.415   4.889   4.067
  361SOL     OW 1981   6.748   5.914   3.397
  361SOL    HW1 1982   6.785   5.822   3.384
  361SOL    HW2 1983   6.683   5.912   3.474
  362SOL     OW 1984   3.837   4.282   0.949
  362SOL    HW1 1985   3.882   4.269   0.861
  362SOL    HW2 1986   3.739   4.262   0.939
  363SOL     OW 1987   6.548   5.099   2.358
  363SOL    HW1 1988   6.499   5.032   2.303
  363SOL    HW2 1989   6.624   5.055   2.405
  364SOL     OW 1990   0.821   5.363   6.744
  364SOL    HW1 1991   0.909   5.350   6.789
  364SOL    HW2 1992   0.793   5.277   6.700
  365SOL     OW 1993   3.816   1.431   2.198
  365SOL    HW1 1994   3.730   1.482   2.195
  365SOL    HW2 1995   3.805   1.344   2.149
  366SOL     OW 1996   5.849   2.972   0.298
  366SOL    HW1 1997   5.849   2.991   0.396
  366SOL    HW2 1998   5.886   2.881   0.282
  367SOL     OW 1999   4.261   1.820   5.622
  367SOL    HW1 2000   4.238   1.763   5.543
  367SOL    HW2 2001   4.200   1.799   5.698
  368SOL     OW 2002   6.468   2.019   6.251
  368SOL    HW1 2003   6.549   1.990   6.202
  368SOL    HW2 2004   6.453   2.117   6.237
  369SOL     OW 2005   5.551   3.816   3.092
  369SOL    HW1 2006   5.552   3.765   3.007
  369SOL    HW2 2007   5.475   3.785   3.149
  370SOL     OW 2008   1.921   2.261   4.080
  370SOL    HW1 2009   1.897   2.194   4.010
  370SOL    HW2 2010   1.978   2.218   4.150
  371SOL     OW 2011   2.249   3.948   6.633
  371SOL    HW1 2012   2.184   3.873   6.622
  371SOL    HW2 2013   2.219   4.027   6.581
  372SOL     OW 2014   2.768   6.863   6.002
  372SOL    HW1 2015   2.800   6.922   5.929
  372SOL    HW2 2016   2.799   6.769   5.986
  373SOL     OW 2017   5.919   6.575   4.618
  373SOL    HW1 2018   5.857   6.650   4.598
  373SOL    HW2 2019   6.013   6.603   4.599
  374SOL     OW 2020   2.862   1.565   2.668
  374SOL    HW1 2021   2.861   1.665   2.677
  374SOL    HW2 2022   2.838   1.540   2.575
  375SOL     OW 2023   0.692   4.882   4.750
  375SOL    HW1 2024   0.603   4.881   4.796
  375SOL    HW2 2025   0.761   4.919   4.812
  376SOL     OW 2026   2.847   1.013   4.447
  376SOL    HW1 2027   2.833   1.088   4.511
  376SOL    HW2 2028   2.767   1.005   4.387
  377SOL     OW 2029   1.551   2.206   6.910
  377SOL    HW1 2030   1.459   2.165   6.908
  377SOL    HW2 2031   1.543   2.304   6.926
  378SOL     OW 2032   2.985   1.416   0.571
  378SOL    HW1 2033   3.019   1.510   0.565
  378SOL    HW2 2034   2.895   1.410   0.527
  379SOL     OW 2035   5.732   2.504   6.075
  379SOL    HW1 2036   5.673   2.493   5.995
  379SOL    HW2 2037   5.698   2.581   6.131
  380SOL     OW 2038   3.200   1.338   1.502
  380SOL    HW1 2039   3.196   1.437   1.512
  380SOL    HW2 2040   3.205   1.314   1.405
  381SOL     OW 2041   1.387   4.534   3.511
  381SOL    HW1 2042   1.419   4.615   3.561
  381SOL    HW2 2043   1.361   4.560   3.419
  382SOL     OW 2044   6.209   0.900   0.230
  382SOL    HW1 2045   6.214   0.801   0.242
  382SOL    HW2 2046   6.282   0.944   0.282
  383SOL     OW 2047   3.707   3.010   0.889
  383SOL    HW1 2048   3.784   2.980   0.945
  383SOL    HW2 2049   3.626   3.018   0.946
  384SOL     OW 2050   6.646   3.448   4.310
  384SOL    HW1 2051   6.735   3.465   4.268
  384SOL    HW2 2052   6.644   3.488   4.402
  385SOL     OW 2053   4.219   4.903   6.310
  385SOL    HW1 2054   4.131   4.946   6.287
  385SOL    HW2 2055   4.220   4.878   6.407
  386SOL     OW 2056   4.521   0.235   4.714
  386SOL    HW1 2057   4.578   0.252   4.634
  386SOL    HW2 2058   4.455   0.309   4.725
  387SOL     OW 2059   2.442   5.190   3.220
  387SOL    HW1 2060   2.413   5.184   3.316
  387SOL    HW2 2061   2.448   5.098   3.182
  388SOL     OW 2062   2.060   2.455   6.301
  388SOL    HW1 2063   2.102   2.399   6.230
  388SOL    HW2 2064   2.122   2.462   6.379
  389SOL     OW 2065   3.457   4.017   3.004
  389SOL    HW1 2066   3.466   4.108   2.964
  389SOL    HW2 2067   3.391   3.964   2.951
  390SOL     OW 2068   2.673   1.292   3.934
  390SOL    HW1 2069   2.711   1.377   3.899
  390SOL    HW2 2070   2.744   1.243   3.985
  391SOL     OW 2071   1.418   2.684   0.422
  391SOL    HW1 2072   1.372   2.640   0.499
  391SOL    HW2 2073   1.461   2.614   0.364
  392SOL     OW 2074   2.350   5.047   1.557
  392SOL    HW1 2075   2.296   4.982   1.504
  392SOL    HW2 2076   2.427   5.000   1.600
  393SOL     OW 2077   5.737   4.767   5.681
  393SOL    HW1 2078   5.781   4.679   5.696
  393SOL    HW2 2079   5.638   4.755   5.675
  394SOL     OW 2080   0.108   6.766   6.902
  394SOL    HW1 2081   0.009   6.772   6.888
  394SOL    HW2 2082   0.135   6.671   6.915
  395SOL     OW 2083   4.923   3.275   2.299
  395SOL    HW1 2084   4.903   3.227   2.214
  395SOL    HW2 2085   4.877   3.364   2.299
  396SOL     OW 2086   3.706   3.694   3.227
  396SOL    HW1 2087   3.658   3.779   3.206
  396SOL    HW2 2088   3.800   3.715   3.253
  397SOL     OW 2089   4.529   2.416   5.440
  397SOL    HW1 2090   4.566   2.506   5.463
  397SOL    HW2 2091   4.546   2.352   5.515
  398SOL     OW 2092   1.051   5.876   2.329
  398SOL    HW1 2093   1.097   5.963   2.348
  398SOL    HW2 2094   1.047   5.822   2.413
  399SOL     OW 2095   4.669   5.656   1.853
  399SOL    HW1 2096   4.757   5.657   1.901
  399SOL    HW2 2097   4.673   5.591   1.777
  400SOL     OW 2098   0.163   6.962   5.354
  400SOL    HW1 2099   0.096   0.001   5.381
  400SOL    HW2 2100   0.232   7.004   5.295
  401SOL     OW 2101   4.860   1.280   6.411
  401SOL    HW1 2102   4.775   1.333   6.414
  401SOL    HW2 2103   4.870   1.239   6.320
  402SOL     OW 2104   6.291   6.316   2.518
  402SOL    HW1 2105   6.292   6.297   2.616
  402SOL    HW2 2106   6.251   6.239   2.469
  403SOL     OW 2107   4.653   2.482   6.058
  403SOL    HW1 2108   4.736   2.456   6.009
  403SOL    HW2 2109   4.651   2.436   6.146
  404SOL     OW 2110   1.407   6.734   3.514
  404SOL    HW1 2111   1.477   6.734   3.443
  404SOL    HW2 2112   1.391   6.827   3.546
  405SOL     OW 2113   1.741   2.323   1.048
  405SOL    HW1 2114   1.660   2.341   0.993
  405SOL    HW2 2115   1.717   2.260   1.122
  406SOL     OW 2116   1.044   2.794   4.077
  406SOL    HW1 2117   1.109   2.758   4.144
  406SOL    HW2 2118   1.025   2.725   4.007
  407SOL     OW 2119   2.631   7.016   4.926
  407SOL    HW1 2120   2.579   0.057   4.877
  407SOL    HW2 2121   2.659   0.021   5.015
  408SOL     OW 2122   1.468   0.337   3.206
  408SOL    HW1 2123   1.563   0.368   3.196
  408SOL    HW2 2124   1.408   0.396   3.153
  409SOL     OW 2125   5.921   3.301   2.791
  409SOL    HW1 2126   5.910   3.203   2.803
  409SOL    HW2 2127   6.015   3.328   2.816
  410SOL     OW 2128   2.487   0.369   0.670
  410SOL    HW1 2129   2.487   0.271   0.688
  410SOL    HW2 2130   2.516   0.386   0.576
  411SOL     OW 2131   5.684   5.624   6.871
  411SOL    HW1 2132   5.658   5.709   6.916
  411SOL    HW2 2133   5.761   5.582   6.921
  412SOL     OW 2134   3.872   6.419   2.990
  412SOL    HW1 2135   3.775   6.442   2.985
  412SOL    HW2 2136   3.926   6.500   2.969
  413SOL     OW 2137   3.654   5.224   0.645
  413SOL    HW1 2138   3.571   5.168   0.638
  413SOL    HW2 2139   3.718   5.180   0.707
  414SOL     OW 2140   4.412   5.197   2.382
  414SOL    HW1 2141   4.397   5.291   2.412
  414SOL    HW2 2142   4.429   5.138   2.461
  415SOL     OW 2143   1.342   5.899   0.501
  415SOL    HW1 2144   1.360   5.848   0.417
  415SOL    HW2 2145   1.370   5.994   0.489
  416SOL     OW 2146   4.427   5.534   4.851
  416SOL    HW1 2147   4.516   5.492   4.835
  416SOL    HW2 2148   4.394   5.575   4.766
  417SOL     OW 2149   3.275   6.689   1.330
  417SOL    HW1 2150   3.298   6.654   1.239
  417SOL    HW2 2151   3.249   6.785   1.323
  418SOL     OW 2152   4.749   6.160   0.313
  418SOL    HW1 2153   4.724   6.183   0.407
  418SOL    HW2 2154   4.805   6.076   0.313
  419SOL     OW 2155   0.828   0.697   1.215
  419SOL    HW1 2156   0.766   0.661   1.284
  419SOL    HW2 2157   0.915   0.722   1.259
  420SOL     OW 2158   6.078   3.738   1.282
  420SOL    HW1 2159   6.170   3.700   1.294
  420SOL    HW2 2160   6.049   3.781   1.367
  421SOL     OW 2161   1.193   4.893   6.302
  421SOL    HW1 2162   1.212   4.844   6.387
  421SOL    HW2 2163   1.104   4.938   6.309
  422SOL     OW 2164   5.983   5.305   0.868
  422SOL    HW1 2165   5.969   5.208   0.883
  422SOL    HW2 2166   6.060   5.336   0.924
  423SOL     OW 2167   6.487   3.299   0.619
  423SOL    HW1 2168   6.579   3.336   0.604
  423SOL    HW2 2169   6.420   3.374   0.613
  424SOL     OW 2170   3.186   3.376   0.215
  424SOL    HW1 2171   3.193   3.435   0.295
  424SOL    HW2 2172   3.233   3.290   0.232
  425SOL     OW 2173   5.244   1.344   1.546
  425SOL    HW1 2174   5.321   1.309   1.600
  425SOL    HW2 2175   5.174   1.381   1.608
  426SOL     OW 2176   5.612   2.224   5.162
  426SOL    HW1 2177   5.566   2.172   5.091
  426SOL    HW2 2178   5.583   2.191   5.252
  427SOL     OW 2179   5.156   4.681   2.258
  427SOL    HW1 2180   5.207   4.636   2.331
  427SOL    HW2 2181   5.109   4.613   2.202
  428SOL     OW 2182   4.262   0.182   5.187
  428SOL    HW1 2183   4.202   0.212   5.261
  428SOL    HW2 2184   4.223   0.210   5.099
  429SOL     OW 2185   2.624   5.219   0.874
  429SOL    HW1 2186   2.648   5.204   0.970
  429SOL    HW2 2187   2.676   5.297   0.839
  430SOL     OW 2188   1.518   6.511   4.214
  430SOL    HW1 2189   1.480   6.424   4.245
  430SOL    HW2 2190   1.485   6.585   4.272
  431SOL     OW 2191   3.194   1.247   6.906
  431SOL    HW1 2192   3.267   1.208   6.962
  431SOL    HW2 2193   3.109   1.251   6.959
  432SOL     OW 2194   6.894   2.338   0.443
  432SOL    HW1 2195   6.822   2.303   0.502
  432SOL    HW2 2196   6.854   2.379   0.361
  433SOL     OW 2197   2.420   0.074   4.573
  433SOL    HW1 2198   2.356   0.042   4.643
  433SOL    HW2 2199   2.477   7.027   4.542
  434SOL     OW 2200   5.260   5.044   1.400
  434SOL    HW1 2201   5.273   4.958   1.352
  434SOL    HW2 2202   5.349   5.085   1.421
  435SOL     OW 2203   3.643   2.970   5.239
  435SOL    HW1 2204   3.627   2.982   5.337
  435SOL    HW2 2205   3.727   2.918   5.226
  436SOL     OW 2206   1.755   6.869   0.649
  436SOL    HW1 2207   1.813   6.821   0.583
  436SOL    HW2 2208   1.756   6.821   0.736
  437SOL     OW 2209   0.334   0.257   6.437
  437SOL    HW1 2210   0.293   0.168   6.461
  437SOL    HW2 2211   0.421   0.242   6.390
  438SOL     OW 2212   2.019   2.602   1.908
  438SOL    HW1 2213   2.119   2.591   1.907
  438SOL    HW2 2214   1.996   2.692   1.871
  439SOL     OW 2215   5.998   4.434   3.814
  439SOL    HW1 2216   6.086   4.416   3.858
  439SOL    HW2 2217   6.012   4.490   3.733
  440SOL     OW 2218   1.209   1.952   4.619
  440SOL    HW1 2219   1.220   1.889   4.696
  440SOL    HW2 2220   1.277   2.025   4.626
  441SOL     OW 2221   0.534   1.842   3.080
  441SOL    HW1 2222   0.448   1.841   3.029
  441SOL    HW2 2223   0.606   1.801   3.025
  442SOL     OW 2224   1.637   4.434   0.188
  442SOL    HW1 2225   1.641   4.516   0.130
  442SOL    HW2 2226   1.689   4.450   0.272
  443SOL     OW 2227   1.174   4.425   4.991
  443SOL    HW1 2228   1.122   4.340   4.999
  443SOL    HW2 2229   1.269   4.408   5.018
  444SOL     OW 2230   4.750   2.912   5.734
  444SOL    HW1 2231   4.831   2.952   5.779
  444SOL    HW2 2232   4.696   2.862   5.802
  445SOL     OW 2233   1.740   5.301   3.032
  445SOL    HW1 2234   1.811   5.340   3.091
  445SOL    HW2 2235   1.653   5.346   3.052
  446SOL     OW 2236   4.061   5.048   3.376
  446SOL    HW1 2237   4.041   5.124   3.313
  446SOL    HW2 2238   4.100   4.972   3.325
  447SOL     OW 2239   0.525   4.186   6.646
  447SOL    HW1 2240   0.441   4.147   6.685
  447SOL    HW2 2241   0.504   4.228   6.557
  448SOL     OW 2242   3.626   0.156   4.952
  448SOL    HW1 2243   3.558   0.190   4.887
  448SOL    HW2 2244   3.609   0.059   4.969
  449SOL     OW 2245   4.822   1.068   5.327
  449SOL    HW1 2246   4.756   1.024   5.388
  449SOL    HW2 2247   4.884   1.126   5.380
  450SOL     OW 2248   0.823   5.798   2.924
  450SOL    HW1 2249   0.868   5.837   3.005
  450SOL    HW2 2250   0.867   5.833   2.842
  451SOL     OW 2251   0.828   2.204   2.160
  451SOL    HW1 2252   0.870   2.177   2.246
  451SOL    HW2 2253   0.828   2.127   2.097
  452SOL     OW 2254   6.532   6.192   0.133
  452SOL    HW1 2255   6.475   6.266   0.169
  452SOL    HW2 2256   6.473   6.116   0.103
  453SOL     OW 2257   3.128   0.020   5.994
  453SOL    HW1 2258   3.031   0.038   6.008
  453SOL    HW2 2259   3.177   0.107   5.985
  454SOL     OW 2260   6.859   5.627   5.630
  454SOL    HW1 2261   6.833   5.547   5.576
  454SOL    HW2 2262   6.957   5.645   5.617
  455SOL     OW 2263   6.646   0.470   4.177
  455SOL    HW1 2264   6.722   0.405   4.179
  455SOL    HW2 2265   6.673   0.554   4.224
  456SOL     OW 2266   4.481   5.940   4.953
  456SOL    HW1 2267   4.467   5.863   5.015
  456SOL    HW2 2268   4.573   5.935   4.914
  457SOL     OW 2269   2.108   3.599   3.611
  457SOL    HW1 2270   2.039   3.526   3.616
  457SOL    HW2 2271   2.123   3.623   3.515
  458SOL     OW 2272   5.000   5.479   5.118
  458SOL    HW1 2273   5.019   5.421   5.196
  458SOL    HW2 2274   4.903   5.501   5.115
  459SOL     OW 2275   1.633   0.114   4.002
  459SOL    HW1 2276   1.602   0.035   4.054
  459SOL    HW2 2277   1.700   0.084   3.934
  460SOL     OW 2278   0.434   1.109   2.353
  460SOL    HW1 2279   0.363   1.094   2.422
  460SOL    HW2 2280   0.418   1.048   2.276
  461SOL     OW 2281   5.509   6.862   4.551
  461SOL    HW1 2282   5.496   6.779   4.497
  461SOL    HW2 2283   5.539   6.837   4.643
  462SOL     OW 2284   4.275   2.071   5.828
  462SOL    HW1 2285   4.321   2.055   5.740
  462SOL    HW2 2286   4.214   1.995   5.848
  463SOL     OW 2287   5.974   6.261   2.996
  463SOL    HW1 2288   5.961   6.359   2.986
  463SOL    HW2 2289   5.988   6.220   2.906
  464SOL     OW 2290   3.108   1.963   6.506
  464SOL    HW1 2291   3.206   1.980   6.518
  464SOL    HW2 2292   3.075   2.014   6.427
  465SOL     OW 2293   1.438   2.040   4.251
  465SOL    HW1 2294   1.506   2.087   4.308
  465SOL    HW2 2295   1.484   1.997   4.173
  466SOL     OW 2296   0.257   5.803   3.338
  466SOL    HW1 2297   0.164   5.802   3.373
  466SOL    HW2 2298   0.279   5.714   3.299
  467SOL     OW 2299   0.852   0.349   6.218
  467SOL    HW1 2300   0.895   0.355   6.308
  467SOL    HW2 2301   0.921   0.326   6.149
  468SOL     OW 2302   3.399   5.937   0.461
  468SOL    HW1 2303   3.373   6.018   0.407
  468SOL    HW2 2304   3.349   5.858   0.427
  469SOL     OW 2305   2.907   4.662   0.564
  469SOL    HW1 2306   2.926   4.742   0.507
  469SOL    HW2 2307   2.809   4.657   0.584
  470SOL     OW 2308   3.124   0.924   2.392
  470SOL    HW1 2309   3.112   0.868   2.310
  470SOL    HW2 2310   3.194   0.883   2.451
  471SOL     OW 2311   1.635   2.143   4.437
  471SOL    HW1 2312   1.589   2.156   4.525
  471SOL    HW2 2313   1.660   2.232   4.399
  472SOL     OW 2314   4.839   3.761   6.867
  472SOL    HW1 2315   4.862   3.791   6.959
  472SOL    HW2 2316   4.775   3.684   6.872
  473SOL     OW 2317   0.090   2.735   1.698
  473SOL    HW1 2318   0.147   2.809   1.734
  473SOL    HW2 2319   0.108   2.724   1.600
  474SOL     OW 2320   4.490   4.968   3.783
  474SOL    HW1 2321   4.521   4.949   3.689
  474SOL    HW2 2322   4.563   4.943   3.847
  475SOL     OW 2323   6.143   0.834   6.989
  475SOL    HW1 2324   6.181   0.852   0.050
  475SOL    HW2 2325   6.145   0.736   6.971
  476SOL     OW 2326   0.447   3.899   2.343
  476SOL    HW1 2327   0.540   3.913   2.376
  476SOL    HW2 2328   0.435   3.947   2.256
  477SOL     OW 2329   2.250   4.770   5.149
  477SOL    HW1 2330   2.339   4.756   5.192
  477SOL    HW2 2331   2.201   4.843   5.196
  478SOL     OW 2332   3.195   6.424   2.336
  478SOL    HW1 2333   3.186   6.383   2.427
  478SOL    HW2 2334   3.121   6.391   2.277
  479SOL     OW 2335   4.491   2.430   0.017
  479SOL    HW1 2336   4.444   2.513   0.046
  479SOL    HW2 2337   4.428   2.374   6.992
  480SOL     OW 2338   2.259   0.433   0.021
  480SOL    HW1 2339   2.179   0.451   0.079
  480SOL    HW2 2340   2.236   0.362   6.984
  481SOL     OW 2341   1.468   6.922   0.580
  481SOL    HW1 2342   1.552   6.885   0.621
  481SOL    HW2 2343   1.399   6.851   0.574
  482SOL     OW 2344   4.439   4.601   2.494
  482SOL    HW1 2345   4.453   4.671   2.424
  482SOL    HW2 2346   4.345   4.605   2.526
  483SOL     OW 2347   6.216   2.130   1.293
  483SOL    HW1 2348   6.209   2.213   1.347
  483SOL    HW2 2349   6.131   2.078   1.299
  484SOL     OW 2350   1.084   2.983   4.900
  484SOL    HW1 2351   1.112   3.035   4.981
  484SOL    HW2 2352   1.149   2.999   4.826
  485SOL     OW 2353   4.169   5.806   1.937
  485SOL    HW1 2354   4.204   5.896   1.963
  485SOL    HW2 2355   4.243   5.751   1.899
  486SOL     OW 2356   0.361   2.053   0.883
  486SOL    HW1 2357   0.387   1.992   0.807
  486SOL    HW2 2358   0.364   2.003   0.969
  487SOL     OW 2359   0.729   2.010   0.074
  487SOL    HW1 2360   0.802   2.037   0.010
  487SOL    HW2 2361   0.672   1.940   0.031
  488SOL     OW 2362   0.448   1.257   1.544
  488SOL    HW1 2363   0.351   1.276   1.531
  488SOL    HW2 2364   0.475   1.180   1.487
  489SOL     OW 2365   3.974   5.762   6.786
  489SOL    HW1 2366   3.988   5.855   6.821
  489SOL    HW2 2367   3.943   5.767   6.691
  490SOL     OW 2368   6.583   6.160   3.917
  490SOL    HW1 2369   6.527   6.081   3.892
  490SOL    HW2 2370   6.663   6.164   3.857
  491SOL     OW 2371   0.218   2.817   2.789
  491SOL    HW1 2372   0.314   2.837   2.770
  491SOL    HW2 2373   0.211   2.730   2.839
  492SOL     OW 2374   3.043   0.057   5.116
  492SOL    HW1 2375   2.971   7.018   5.108
  492SOL    HW2 2376   3.049   0.088   5.211
  493SOL     OW 2377   5.678   6.019   5.960
  493SOL    HW1 2378   5.646   5.938   6.008
  493SOL    HW2 2379   5.604   6.086   5.954
  494SOL     OW 2380   0.367   6.815   6.933
  494SOL    HW1 2381   0.269   6.798   6.930
  494SOL    HW2 2382   0.387   6.901   6.886
  495SOL     OW 2383   5.269   5.856   3.141
  495SOL    HW1 2384   5.178   5.823   3.164
  495SOL    HW2 2385   5.338   5.791   3.173
  496SOL     OW 2386   5.184   3.546   3.054
  496SOL    HW1 2387   5.167   3.616   2.985
  496SOL    HW2 2388   5.135   3.462   3.031
  497SOL     OW 2389   3.011   1.763   5.898
  497SOL    HW1 2390   3.087   1.715   5.943
  497SOL    HW2 2391   2.999   1.853   5.939
  498SOL     OW 2392   1.542   3.989   1.798
  498SOL    HW1 2393   1.578   3.904   1.759
  498SOL    HW2 2394   1.606   4.064   1.780
  499SOL     OW 2395   3.115   0.607   4.208
  499SOL    HW1 2396   3.059   0.686   4.233
  499SOL    HW2 2397   3.187   0.635   4.145
  500SOL     OW 2398   1.070   4.027   2.856
  500SOL    HW1 2399   1.098   4.077   2.774
  500SOL    HW2 2400   1.149   4.012   2.915
  501SOL     OW 2401   3.436   0.537   0.172
  501SOL    HW1 2402   3.474   0.604   0.236
  501SOL    HW2 2403   3.347   0.569   0.140
  502SOL     OW 2404   6.321   4.621   6.449
  502SOL    HW1 2405   6.391   4.554   6.425
  502SOL    HW2 2406   6.365   4.705   6.481
  503SOL     OW 2407   5.513   5.440   6.167
  503SOL    HW1 2408   5.557   5.452   6.078
  503SOL    HW2 2409   5.522   5.525   6.221
  504SOL     OW 2410   2.670   5.944   3.233
  504SOL    HW1 2411   2.631   5.912   3.320
  504SOL    HW2 2412   2.748   5.886   3.208
  505SOL     OW 2413   3.772   0.299   6.096
  505SOL    HW1 2414   3.777   0.397   6.076
  505SOL    HW2 2415   3.739   0.250   6.014
  506SOL     OW 2416   2.000   5.449   4.496
  506SOL    HW1 2417   2.076   5.503   4.532
  506SOL    HW2 2418   1.914   5.482   4.534
  507SOL     OW 2419   3.894   0.721   4.397
  507SOL    HW1 2420   3.839   0.805   4.400
  507SOL    HW2 2421   3.860   0.657   4.465
  508SOL     OW 2422   6.428   3.977   3.098
  508SOL    HW1 2423   6.367   3.997   3.175
  508SOL    HW2 2424   6.408   3.886   3.063
  509SOL     OW 2425   2.925   1.129   1.390
  509SOL    HW1 2426   2.923   1.229   1.378
  509SOL    HW2 2427   2.966   1.107   1.478
  510SOL     OW 2428   6.465   5.056   5.962
  510SOL    HW1 2429   6.549   5.089   5.920
  510SOL    HW2 2430   6.389   5.115   5.935
  511SOL     OW 2431   0.443   6.466   6.824
  511SOL    HW1 2432   0.354   6.510   6.838
  511SOL    HW2 2433   0.448   6.384   6.880
  512SOL     OW 2434   0.047   3.479   0.181
  512SOL    HW1 2435   0.117   3.493   0.251
  512SOL    HW2 2436   0.055   3.387   0.144
  513SOL     OW 2437   5.872   6.520   2.907
  513SOL    HW1 2438   5.806   6.581   2.950
  513SOL    HW2 2439   5.856   6.518   2.808
  514SOL     OW 2440   6.745   2.505   3.914
  514SOL    HW1 2441   6.736   2.514   3.815
  514SOL    HW2 2442   6.668   2.551   3.959
  515SOL     OW 2443   1.976   0.391   6.418
  515SOL    HW1 2444   2.073   0.410   6.431
  515SOL    HW2 2445   1.964   0.323   6.346
  516SOL     OW 2446   2.901   4.653   1.641
  516SOL    HW1 2447   2.892   4.589   1.717
  516SOL    HW2 2448   2.976   4.717   1.660
  517SOL     OW 2449   5.089   6.161   2.343
  517SOL    HW1 2450   5.042   6.074   2.328
  517SOL    HW2 2451   5.072   6.193   2.436
  518SOL     OW 2452   3.024   2.128   1.963
  518SOL    HW1 2453   2.953   2.195   1.986
  518SOL    HW2 2454   3.080   2.164   1.888
  519SOL     OW 2455   6.926   0.864   4.489
  519SOL    HW1 2456   6.881   0.931   4.429
  519SOL    HW2 2457   6.869   0.849   4.570
  520SOL     OW 2458   5.942   4.630   6.753
  520SOL    HW1 2459   5.979   4.615   6.661
  520SOL    HW2 2460   5.882   4.711   6.751
  521SOL     OW 2461   6.148   2.628   6.690
  521SOL    HW1 2462   6.112   2.536   6.704
  521SOL    HW2 2463   6.095   2.674   6.619
  522SOL     OW 2464   3.962   2.780   5.249
  522SOL    HW1 2465   3.992   2.690   5.218
  522SOL    HW2 2466   4.005   2.800   5.338
  523SOL     OW 2467   0.326   4.679   3.262
  523SOL    HW1 2468   0.421   4.652   3.273
  523SOL    HW2 2469   0.305   4.756   3.322
  524SOL     OW 2470   2.239   1.007   6.484
  524SOL    HW1 2471   2.218   1.101   6.510
  524SOL    HW2 2472   2.164   0.947   6.512
  525SOL     OW 2473   2.620   3.504   6.242
  525SOL    HW1 2474   2.586   3.540   6.155
  525SOL    HW2 2475   2.657   3.412   6.228
  526SOL     OW 2476   2.592   0.165   5.165
  526SOL    HW1 2477   2.677   0.202   5.128
  526SOL    HW2 2478   2.541   0.239   5.209
  527SOL     OW 2479   5.820   3.142   6.257
  527SOL    HW1 2480   5.766   3.203   6.198
  527SOL    HW2 2481   5.878   3.084   6.201
  528SOL     OW 2482   1.065   1.755   3.994
  528SOL    HW1 2483   0.987   1.806   3.957
  528SOL    HW2 2484   1.144   1.766   3.934
  529SOL     OW 2485   0.705   5.882   4.699
  529SOL    HW1 2486   0.685   5.802   4.643
  529SOL    HW2 2487   0.749   5.852   4.784
  530SOL     OW 2488   2.721   2.921   5.346
  530SOL    HW1 2489   2.690   2.906   5.440
  530SOL    HW2 2490   2.642   2.932   5.286
  531SOL     OW 2491   0.126   0.756   1.545
  531SOL    HW1 2492   0.219   0.786   1.566
  531SOL    HW2 2493   0.092   0.804   1.464
  532SOL     OW 2494   0.567   3.024   6.484
  532SOL    HW1 2495   0.573   2.935   6.529
  532SOL    HW2 2496   0.506   3.017   6.405
  533SOL     OW 2497   4.695   5.718   4.294
  533SOL    HW1 2498   4.733   5.729   4.386
  533SOL    HW2 2499   4.764   5.744   4.226
  534SOL     OW 2500   5.357   5.256   3.691
  534SOL    HW1 2501   5.258   5.242   3.695
  534SOL    HW2 2502   5.378   5.353   3.702
  535SOL     OW 2503   1.064   4.229   4.470
  535SOL    HW1 2504   1.010   4.312   4.484
  535SOL    HW2 2505   1.105   4.202   4.557
  536SOL     OW 2506   0.058   4.999   2.357
  536SOL    HW1 2507   0.074   5.097   2.370
  536SOL    HW2 2508   0.021   4.984   2.265
  537SOL     OW 2509   2.094   6.470   3.843
  537SOL    HW1 2510   2.014   6.447   3.787
  537SOL    HW2 2511   2.063   6.512   3.928
  538SOL     OW 2512   1.994   5.895   3.764
  538SOL    HW1 2513   1.988   5.946   3.851
  538SOL    HW2 2514   1.910   5.909   3.711
  539SOL     OW 2515   0.476   6.026   0.185
  539SOL    HW1 2516   0.538   5.977   0.124
  539SOL    HW2 2517   0.517   6.032   0.276
  540SOL     OW 2518   0.303   1.637   1.571
  540SOL    HW1 2519   0.271   1.569   1.506
  540SOL    HW2 2520   0.287   1.605   1.664
  541SOL     OW 2521   2.612   6.404   4.103
  541SOL    HW1 2522   2.644   6.316   4.068
  541SOL    HW2 2523   2.569   6.455   4.029
  542SOL     OW 2524   6.945   6.924   0.399
  542SOL    HW1 2525   6.920   7.020   0.399
  542SOL    HW2 2526   0.002   6.912   0.351
  543SOL     OW 2527   0.235   4.899   5.399
  543SOL    HW1 2528   0.215   4.923   5.304
  543SOL    HW2 2529   0.171   4.945   5.460
  544SOL     OW 2530   1.879   4.391   1.082
  544SOL    HW1 2531   1.972   4.426   1.073
  544SOL    HW2 2532   1.869   4.344   1.169
  545SOL     OW 2533   3.710   1.608   3.365
  545SOL    HW1 2534   3.751   1.521   3.391
  545SOL    HW2 2535   3.699   1.665   3.447
  546SOL     OW 2536   1.534   3.343   1.446
  546SOL    HW1 2537   1.607   3.310   1.386
  546SOL    HW2 2538   1.575   3.393   1.523
  547SOL     OW 2539   2.400   1.133   6.701
  547SOL    HW1 2540   2.310   1.176   6.694
  547SOL    HW2 2541   2.389   1.038   6.731
  548SOL     OW 2542   3.796   3.332   2.885
  548SOL    HW1 2543   3.856   3.411   2.896
  548SOL    HW2 2544   3.730   3.349   2.812
  549SOL     OW 2545   4.371   3.894   1.680
  549SOL    HW1 2546   4.303   3.875   1.752
  549SOL    HW2 2547   4.358   3.830   1.605
  550SOL     OW 2548   0.047   3.358   3.241
  550SOL    HW1 2549   6.989   3.338   3.285
  550SOL    HW2 2550   0.115   3.378   3.311
  551SOL     OW 2551   0.248   1.435   0.743
  551SOL    HW1 2552   0.256   1.390   0.832
  551SOL    HW2 2553   0.331   1.488   0.725
  552SOL     OW 2554   4.055   5.507   0.734
  552SOL    HW1 2555   4.058   5.509   0.833
  552SOL    HW2 2556   3.971   5.551   0.702
  553SOL     OW 2557   1.857   6.569   2.864
  553SOL    HW1 2558   1.765   6.546   2.895
  553SOL    HW2 2559   1.891   6.495   2.805
  554SOL     OW 2560   5.269   0.301   6.617
  554SOL    HW1 2561   5.185   0.324   6.666
  554SOL    HW2 2562   5.250   0.232   6.548
  555SOL     OW 2563   2.278   5.491   4.169
  555SOL    HW1 2564   2.317   5.431   4.239
  555SOL    HW2 2565   2.230   5.436   4.100
  556SOL     OW 2566   6.214   2.105   4.544
  556SOL    HW1 2567   6.130   2.066   4.580
  556SOL    HW2 2568   6.206   2.205   4.539
  557SOL     OW 2569   6.928   5.632   6.623
  557SOL    HW1 2570   6.937   5.729   6.643
  557SOL    HW2 2571   6.884   5.619   6.535
  558SOL     OW 2572   4.138   3.728   4.990
  558SOL    HW1 2573   4.213   3.740   4.926
  558SOL    HW2 2574   4.089   3.644   4.970
  559SOL     OW 2575   6.136   6.297   6.914
  559SOL    HW1 2576   6.149   6.368   6.844
  559SOL    HW2 2577   6.157   6.207   6.874
  560SOL     OW 2578   3.923   6.293   1.026
  560SOL    HW1 2579   3.959   6.313   1.118
  560SOL    HW2 2580   3.839   6.347   1.011
  561SOL     OW 2581   6.085   0.014   6.336
  561SOL    HW1 2582   6.102   7.016   6.431
  561SOL    HW2 2583   5.993   7.014   6.309
  562SOL     OW 2584   4.684   0.619   6.555
  562SOL    HW1 2585   4.743   0.636   6.634
  562SOL    HW2 2586   4.718   0.670   6.476
  563SOL     OW 2587   2.743   0.056   3.454
  563SOL    HW1 2588   2.837   0.054   3.419
  563SOL    HW2 2589   2.731   7.012   3.521
  564SOL     OW 2590   2.176   2.348   6.080
  564SOL    HW1 2591   2.150   2.284   6.007
  564SOL    HW2 2592   2.248   2.409   6.047
  565SOL     OW 2593   4.363   3.033   5.526
  565SOL    HW1 2594   4.396   2.955   5.472
  565SOL    HW2 2595   4.438   3.070   5.581
  566SOL     OW 2596   4.423   4.655   3.745
  566SOL    HW1 2597   4.388   4.703   3.664
  566SOL    HW2 2598   4.426   4.718   3.822
  567SOL     OW 2599   2.936   3.300   3.816
  567SOL    HW1 2600   2.903   3.297   3.722
  567SOL    HW2 2601   3.027   3.342   3.818
  568SOL     OW 2602   3.541   2.750   1.397
  568SOL    HW1 2603   3.462   2.693   1.420
  568SOL    HW2 2604   3.619   2.691   1.374
  569SOL     OW 2605   1.580   3.169   0.571
  569SOL    HW1 2606   1.544   3.246   0.518
  569SOL    HW2 2607   1.564   3.084   0.522
  570SOL     OW 2608   1.318   6.512   6.767
  570SOL    HW1 2609   1.416   6.521   6.751
  570SOL    HW2 2610   1.289   6.419   6.743
  571SOL     OW 2611   3.112   6.316   2.583
  571SOL    HW1 2612   3.105   6.218   2.565
  571SOL    HW2 2613   3.131   6.331   2.680
  572SOL     OW 2614   2.566   4.510   5.837
  572SOL    HW1 2615   2.559   4.542   5.742
  572SOL    HW2 2616   2.657   4.533   5.872
  573SOL     OW 2617   3.463   1.595   5.107
  573SOL    HW1 2618   3.385   1.557   5.057
  573SOL    HW2 2619   3.431   1.630   5.195
  574SOL     OW 2620   2.044   2.516   4.318
  574SOL    HW1 2621   2.117   2.566   4.365
  574SOL    HW2 2622   2.067   2.419   4.315
  575SOL     OW 2623   6.346   4.245   6.990
  575SOL    HW1 2624   6.382   4.175   6.927
  575SOL    HW2 2625   6.390   4.235   0.049
  576SOL     OW 2626   1.281   2.016   1.865
  576SOL    HW1 2627   1.322   1.948   1.926
  576SOL    HW2 2628   1.230   1.970   1.792
  577SOL     OW 2629   2.537   1.395   3.201
  577SOL    HW1 2630   2.458   1.420   3.145
  577SOL    HW2 2631   2.554   1.297   3.192
  578SOL     OW 2632   6.949   3.481   3.739
  578SOL    HW1 2633   6.870   3.542   3.726
  578SOL    HW2 2634   6.919   3.395   3.778
  579SOL     OW 2635   3.662   2.080   1.357
  579SOL    HW1 2636   3.582   2.023   1.373
  579SOL    HW2 2637   3.681   2.135   1.438
  580SOL     OW 2638   0.771   4.953   6.093
  580SOL    HW1 2639   0.854   4.991   6.133
  580SOL    HW2 2640   0.771   4.853   6.104
  581SOL     OW 2641   4.004   3.230   3.131
  581SOL    HW1 2642   4.036   3.142   3.095
  581SOL    HW2 2643   3.921   3.258   3.083
  582SOL     OW 2644   5.874   4.234   2.346
  582SOL    HW1 2645   5.774   4.230   2.332
  582SOL    HW2 2646   5.894   4.257   2.441
  583SOL     OW 2647   2.617   4.829   6.984
  583SOL    HW1 2648   2.593   4.745   0.003
  583SOL    HW2 2649   2.578   4.827   6.892
  584SOL     OW 2650   0.232   4.778   5.963
  584SOL    HW1 2651   0.163   4.738   5.903
  584SOL    HW2 2652   0.244   4.721   6.044
  585SOL     OW 2653   6.295   2.703   5.857
  585SOL    HW1 2654   6.262   2.667   5.770
  585SOL    HW2 2655   6.311   2.801   5.848
  586SOL     OW 2656   3.270   6.411   0.119
  586SOL    HW1 2657   3.193   6.474   0.135
  586SOL    HW2 2658   3.272   6.385   0.023
  587SOL     OW 2659   2.212   1.955   4.954
  587SOL    HW1 2660   2.163   1.967   4.868
  587SOL    HW2 2661   2.310   1.943   4.935
  588SOL     OW 2662   3.620   6.822   1.348
  588SOL    HW1 2663   3.543   6.884   1.359
  588SOL    HW2 2664   3.688   6.863   1.287
  589SOL     OW 2665   4.025   5.208   1.626
  589SOL    HW1 2666   3.939   5.231   1.580
  589SOL    HW2 2667   4.076   5.292   1.646
  590SOL     OW 2668   0.101   2.573   2.399
  590SOL    HW1 2669   0.050   2.660   2.403
  590SOL    HW2 2670   0.182   2.585   2.342
  591SOL     OW 2671   3.916   0.033   3.646
  591SOL    HW1 2672   3.963   7.016   3.572
  591SOL    HW2 2673   3.970   0.026   3.730
  592SOL     OW 2674   4.778   1.233   0.187
  592SOL    HW1 2675   4.725   1.156   0.224
  592SOL    HW2 2676   4.774   1.309   0.251
  593SOL     OW 2677   4.469   2.375   3.827
  593SOL    HW1 2678   4.377   2.378   3.789
  593SOL    HW2 2679   4.500   2.280   3.831
  594SOL     OW 2680   4.503   2.977   6.439
  594SOL    HW1 2681   4.574   2.919   6.480
  594SOL    HW2 2682   4.434   2.999   6.507
  595SOL     OW 2683   4.379   6.975   4.452
  595SOL    HW1 2684   4.446   7.028   4.400
  595SOL    HW2 2685   4.408   6.971   4.548
  596SOL     OW 2686   1.183   4.008   2.058
  596SOL    HW1 2687   1.123   4.080   2.021
  596SOL    HW2 2688   1.127   3.939   2.104
  597SOL     OW 2689   4.147   6.538   6.667
  597SOL    HW1 2690   4.207   6.607   6.627
  597SOL    HW2 2691   4.052   6.568   6.658
  598SOL     OW 2692   3.848   4.259   0.320
  598SOL    HW1 2693   3.914   4.223   0.253
  598SOL    HW2 2694   3.885   4.342   0.361
  599SOL     OW 2695   0.406   0.471   2.436
  599SOL    HW1 2696   0.346   0.551   2.431
  599SOL    HW2 2697   0.422   0.435   2.345
  600SOL     OW 2698   0.841   6.810   0.720
  600SOL    HW1 2699   0.773   6.755   0.672
  600SOL    HW2 2700   0.798   6.858   0.796
  601SOL     OW 2701   3.031   5.812   3.610
  601SOL    HW1 2702   3.018   5.721   3.571
  601SOL    HW2 2703   2.943   5.856   3.622
  602SOL     OW 2704   1.067   0.447   0.411
  602SOL    HW1 2705   1.127   0.403   0.477
  602SOL    HW2 2706   1.095   0.421   0.318
  603SOL     OW 2707   4.094   1.869   3.688
  603SOL    HW1 2708   4.066   1.803   3.758
  603SOL    HW2 2709   4.013   1.917   3.653
  604SOL     OW 2710   1.124   2.771   6.979
  604SOL    HW1 2711   1.175   2.724   6.907
  604SOL    HW2 2712   1.163   2.747   0.038
  605SOL     OW 2713   6.963   6.119   3.307
  605SOL    HW1 2714   6.888   6.076   3.258
  605SOL    HW2 2715   7.020   6.170   3.243
  606SOL     OW 2716   4.340   1.074   4.923
  606SOL    HW1 2717   4.300   1.086   5.014
  606SOL    HW2 2718   4.339   1.161   4.874
  607SOL     OW 2719   5.601   1.240   4.064
  607SOL    HW1 2720   5.633   1.299   4.138
  607SOL    HW2 2721   5.517   1.278   4.025
  608SOL     OW 2722   3.225   0.166   0.736
  608SOL    HW1 2723   3.301   0.230   0.753
  608SOL    HW2 2724   3.231   0.133   0.642
  609SOL     OW 2725   3.372   2.905   4.648
  609SOL    HW1 2726   3.471   2.898   4.658
  609SOL    HW2 2727   3.343   2.857   4.565
  610SOL     OW 2728   5.446   2.252   3.414
  610SOL    HW1 2729   5.371   2.261   3.348
  610SOL    HW2 2730   5.414   2.203   3.495
  611SOL     OW 2731   0.467   0.633   6.694
  611SOL    HW1 2732   0.556   0.679   6.699
  611SOL    HW2 2733   0.396   0.695   6.728
  612SOL     OW 2734   3.780   5.459   6.090
  612SOL    HW1 2735   3.760   5.552   6.060
  612SOL    HW2 2736   3.876   5.438   6.071
  613SOL     OW 2737   4.180   1.359   5.603
  613SOL    HW1 2738   4.217   1.269   5.626
  613SOL    HW2 2739   4.239   1.403   5.535
  614SOL     OW 2740   5.905   5.284   0.593
  614SOL    HW1 2741   5.934   5.317   0.683
  614SOL    HW2 2742   5.979   5.232   0.551
  615SOL     OW 2743   0.639   0.399   6.671
  615SOL    HW1 2744   0.632   0.331   6.597
  615SOL    HW2 2745   0.558   0.458   6.669
  616SOL     OW 2746   5.648   1.950   4.236
  616SOL    HW1 2747   5.586   1.873   4.220
  616SOL    HW2 2748   5.728   1.942   4.177
  617SOL     OW 2749   0.510   4.739   5.891
  617SOL    HW1 2750   0.449   4.755   5.969
  617SOL    HW2 2751   0.527   4.825   5.843
  618SOL     OW 2752   6.194   3.329   1.655
  618SOL    HW1 2753   6.130   3.379   1.713
  618SOL    HW2 2754   6.241   3.393   1.594
  619SOL     OW 2755   3.251   0.301   6.758
  619SOL    HW1 2756   3.332   0.359   6.753
  619SOL    HW2 2757   3.225   0.286   6.854
  620SOL     OW 2758   5.472   3.800   2.254
  620SOL    HW1 2759   5.409   3.797   2.176
  620SOL    HW2 2760   5.561   3.833   2.225
  621SOL     OW 2761   2.907   6.612   5.949
  621SOL    HW1 2762   2.909   6.596   5.851
  621SOL    HW2 2763   2.883   6.528   5.997
  622SOL     OW 2764   0.946   2.790   5.363
  622SOL    HW1 2765   0.966   2.868   5.303
  622SOL    HW2 2766   0.850   2.793   5.389
  623SOL     OW 2767   6.213   6.497   4.723
  623SOL    HW1 2768   6.214   6.594   4.699
  623SOL    HW2 2769   6.289   6.450   4.676
  624SOL     OW 2770   6.551   1.142   6.354
  624SOL    HW1 2771   6.573   1.154   6.451
  624SOL    HW2 2772   6.459   1.177   6.336
  625SOL     OW 2773   2.409   0.769   0.337
  625SOL    HW1 2774   2.474   0.840   0.310
  625SOL    HW2 2775   2.318   0.793   0.303
  626SOL     OW 2776   1.615   5.760   3.804
  626SOL    HW1 2777   1.636   5.707   3.722
  626SOL    HW2 2778   1.516   5.774   3.811
  627SOL     OW 2779   6.392   6.350   0.311
  627SOL    HW1 2780   6.407   6.437   0.263
  627SOL    HW2 2781   6.394   6.366   0.410
  628SOL     OW 2782   5.299   3.880   5.497
  628SOL    HW1 2783   5.378   3.933   5.466
  628SOL    HW2 2784   5.238   3.940   5.549
  629SOL     OW 2785   0.468   0.657   0.162
  629SOL    HW1 2786   0.540   0.589   0.178
  629SOL    HW2 2787   0.385   0.630   0.211
  630SOL     OW 2788   6.599   0.826   1.089
  630SOL    HW1 2789   6.542   0.775   1.024
  630SOL    HW2 2790   6.558   0.822   1.180
  631SOL     OW 2791   2.576   2.540   4.841
  631SOL    HW1 2792   2.531   2.619   4.882
  631SOL    HW2 2793   2.521   2.458   4.857
  632SOL     OW 2794   5.139   3.241   0.774
  632SOL    HW1 2795   5.095   3.324   0.740
  632SOL    HW2 2796   5.069   3.177   0.806
  633SOL     OW 2797   2.220   5.219   1.184
  633SOL    HW1 2798   2.206   5.126   1.150
  633SOL    HW2 2799   2.314   5.248   1.164
  634SOL     OW 2800   3.379   3.647   3.631
  634SOL    HW1 2801   3.398   3.653   3.533
  634SOL    HW2 2802   3.282   3.667   3.647
  635SOL     OW 2803   4.914   0.848   6.960
  635SOL    HW1 2804   4.896   0.941   6.993
  635SOL    HW2 2805   4.938   0.789   0.008
  636SOL     OW 2806   3.426   0.030   5.842
  636SOL    HW1 2807   3.476   0.068   5.765
  636SOL    HW2 2808   3.478   6.983   5.881
  637SOL     OW 2809   6.264   1.749   2.556
  637SOL    HW1 2810   6.307   1.663   2.584
  637SOL    HW2 2811   6.185   1.729   2.498
  638SOL     OW 2812   6.010   3.561   4.123
  638SOL    HW1 2813   6.099   3.589   4.087
  638SOL    HW2 2814   6.007   3.461   4.130
  639SOL     OW 2815   5.696   5.132   2.997
  639SOL    HW1 2816   5.746   5.136   3.084
  639SOL    HW2 2817   5.598   5.122   3.015
  640SOL     OW 2818   0.007   3.221   2.996
  640SOL    HW1 2819   7.008   3.284   2.924
  640SOL    HW2 2820   0.022   3.272   3.081
  641SOL     OW 2821   1.682   4.679   5.504
  641SOL    HW1 2822   1.671   4.580   5.498
  641SOL    HW2 2823   1.640   4.712   5.588
  642SOL     OW 2824   1.314   3.698   4.551
  642SOL    HW1 2825   1.304   3.696   4.452
  642SOL    HW2 2826   1.249   3.634   4.592
  643SOL     OW 2827   6.076   6.567   6.985
  643SOL    HW1 2828   5.990   6.538   6.944
  643SOL    HW2 2829   6.138   6.488   6.991
  644SOL     OW 2830   0.762   0.541   4.629
  644SOL    HW1 2831   0.849   0.576   4.593
  644SOL    HW2 2832   0.730   0.466   4.571
  645SOL     OW 2833   3.777   4.925   3.151
  645SOL    HW1 2834   3.684   4.929   3.113
  645SOL    HW2 2835   3.778   4.968   3.241
  646SOL     OW 2836   3.848   0.621   5.336
  646SOL    HW1 2837   3.754   0.621   5.301
  646SOL    HW2 2838   3.911   0.607   5.259
  647SOL     OW 2839   5.038   2.047   4.405
  647SOL    HW1 2840   4.982   2.060   4.322
  647SOL    HW2 2841   5.135   2.049   4.381
  648SOL     OW 2842   5.828   2.092   3.385
  648SOL    HW1 2843   5.877   2.022   3.334
  648SOL    HW2 2844   5.737   2.104   3.346
  649SOL     OW 2845   2.435   4.839   0.425
  649SOL    HW1 2846   2.495   4.762   0.449
  649SOL    HW2 2847   2.474   4.888   0.347
  650SOL     OW 2848   6.702   5.805   0.670
  650SOL    HW1 2849   6.619   5.859   0.689
  650SOL    HW2 2850   6.677   5.709   0.660
  651SOL     OW 2851   1.571   0.431   5.516
  651SOL    HW1 2852   1.502   0.430   5.588
  651SOL    HW2 2853   1.653   0.476   5.549
  652SOL     OW 2854   4.009   0.685   1.840
  652SOL    HW1 2855   3.993   0.762   1.903
  652SOL    HW2 2856   3.963   0.603   1.875
  653SOL     OW 2857   6.613   6.492   0.683
  653SOL    HW1 2858   6.700   6.522   0.720
  653SOL    HW2 2859   6.579   6.559   0.617
  654SOL     OW 2860   6.802   6.186   5.290
  654SOL    HW1 2861   6.740   6.265   5.291
  654SOL    HW2 2862   6.752   6.104   5.319
  655SOL     OW 2863   7.024   5.182   2.024
  655SOL    HW1 2864   0.083   5.192   2.069
  655SOL    HW2 2865   6.958   5.245   2.066
  656SOL     OW 2866   3.653   6.030   0.836
  656SOL    HW1 2867   3.577   6.083   0.874
  656SOL    HW2 2868   3.617   5.949   0.789
  657SOL     OW 2869   3.312   3.211   2.011
  657SOL    HW1 2870   3.386   3.204   2.079
  657SOL    HW2 2871   3.231   3.251   2.055
  658SOL     OW 2872   2.163   3.925   4.520
  658SOL    HW1 2873   2.174   3.889   4.613
  658SOL    HW2 2874   2.080   3.981   4.516
  659SOL     OW 2875   3.692   6.330   5.492
  659SOL    HW1 2876   3.732   6.278   5.567
  659SOL    HW2 2877   3.596   6.305   5.481
  660SOL     OW 2878   4.929   4.751   2.640
  660SOL    HW1 2879   4.952   4.663   2.599
  660SOL    HW2 2880   4.832   4.771   2.624
  661SOL     OW 2881   5.072   4.249   4.064
  661SOL    HW1 2882   5.081   4.193   4.146
  661SOL    HW2 2883   5.113   4.339   4.079
  662SOL     OW 2884   4.578   2.194   6.576
  662SOL    HW1 2885   4.677   2.196   6.590
  662SOL    HW2 2886   4.550   2.274   6.522
  663SOL     OW 2887   0.156   4.609   0.110
  663SOL    HW1 2888   0.135   4.575   0.019
  663SOL    HW2 2889   0.129   4.705   0.117
  664SOL     OW 2890   1.719   5.668   6.293
  664SOL    HW1 2891   1.723   5.714   6.204
  664SOL    HW2 2892   1.791   5.599   6.298
  665SOL     OW 2893   3.774   5.408   1.794
  665SOL    HW1 2894   3.820   5.323   1.820
  665SOL    HW2 2895   3.746   5.402   1.699
  666SOL     OW 2896   3.668   2.199   0.501
  666SOL    HW1 2897   3.626   2.282   0.537
  666SOL    HW2 2898   3.699   2.141   0.576
  667SOL     OW 2899   0.418   2.927   4.037
  667SOL    HW1 2900   0.344   2.981   3.996
  667SOL    HW2 2901   0.401   2.916   4.135
  668SOL     OW 2902   4.632   6.708   0.291
  668SOL    HW1 2903   4.542   6.733   0.255
  668SOL    HW2 2904   4.632   6.611   0.316
  669SOL     OW 2905   1.300   6.799   3.131
  669SOL    HW1 2906   1.285   6.700   3.124
  669SOL    HW2 2907   1.248   6.835   3.209
  670SOL     OW 2908   3.225   3.507   2.599
  670SOL    HW1 2909   3.288   3.430   2.589
  670SOL    HW2 2910   3.148   3.496   2.536
  671SOL     OW 2911   1.751   5.847   6.075
  671SOL    HW1 2912   1.770   5.931   6.125
  671SOL    HW2 2913   1.658   5.850   6.038
  672SOL     OW 2914   0.683   3.059   4.184
  672SOL    HW1 2915   0.687   2.969   4.140
  672SOL    HW2 2916   0.588   3.080   4.207
  673SOL     OW 2917   4.414   0.365   0.015
  673SOL    HW1 2918   4.456   0.452   0.042
  673SOL    HW2 2919   4.472   0.290   0.044
  674SOL     OW 2920   0.666   2.854   3.924
  674SOL    HW1 2921   0.669   2.765   3.879
  674SOL    HW2 2922   0.570   2.880   3.940
  675SOL     OW 2923   0.515   2.482   4.513
  675SOL    HW1 2924   0.568   2.435   4.442
  675SOL    HW2 2925   0.548   2.452   4.603
  676SOL     OW 2926   3.006   4.870   4.560
  676SOL    HW1 2927   2.918   4.892   4.519
  676SOL    HW2 2928   2.992   4.833   4.652
  677SOL     OW 2929   6.207   0.251   6.925
  677SOL    HW1 2930   6.202   0.208   6.835
  677SOL    HW2 2931   6.273   0.326   6.923
  678SOL     OW 2932   2.121   1.298   5.332
  678SOL    HW1 2933   2.097   1.209   5.294
  678SOL    HW2 2934   2.209   1.328   5.295
  679SOL     OW 2935   3.596   1.265   3.384
  679SOL    HW1 2936   3.685   1.287   3.344
  679SOL    HW2 2937   3.569   1.339   3.446
  680SOL     OW 2938   5.918   4.175   6.072
  680SOL    HW1 2939   5.999   4.162   6.015
  680SOL    HW2 2940   5.893   4.089   6.115
  681SOL     OW 2941   6.783   6.081   1.002
  681SOL    HW1 2942   6.739   6.155   0.951
  681SOL    HW2 2943   6.879   6.074   0.975
  682SOL     OW 2944   2.074   6.813   0.133
  682SOL    HW1 2945   2.156   6.840   0.082
  682SOL    HW2 2946   2.068   6.713   0.134
  683SOL     OW 2947   3.837   1.250   5.994
  683SOL    HW1 2948   3.893   1.309   5.935
  683SOL    HW2 2949   3.896   1.199   6.057
  684SOL     OW 2950   0.262   7.015   6.478
  684SOL    HW1 2951   0.197   6.945   6.506
  684SOL    HW2 2952   0.275   7.013   6.379
  685SOL     OW 2953   5.171   0.311   6.320
  685SOL    HW1 2954   5.190   0.381   6.252
  685SOL    HW2 2955   5.083   0.329   6.364
  686SOL     OW 2956   5.510   2.921   3.415
  686SOL    HW1 2957   5.471   2.979   3.344
  686SOL    HW2 2958   5.556   2.843   3.372
  687SOL     OW 2959   6.986   3.362   6.650
  687SOL    HW1 2960   6.888   3.342   6.641
  687SOL    HW2 2961   7.018   3.408   6.567
  688SOL     OW 2962   1.996   3.719   6.997
  688SOL    HW1 2963   2.095   3.728   6.989
  688SOL    HW2 2964   1.970   3.729   0.064
  689SOL     OW 2965   1.031   4.206   6.210
  689SOL    HW1 2966   1.087   4.221   6.128
  689SOL    HW2 2967   1.078   4.243   6.290
  690SOL     OW 2968   0.972   2.256   3.769
  690SOL    HW1 2969   0.993   2.347   3.733
  690SOL    HW2 2970   1.058   2.207   3.787
  691SOL     OW 2971   1.679   2.435   6.174
  691SOL    HW1 2972   1.600   2.497   6.172
  691SOL    HW2 2973   1.762   2.484   6.148
  692SOL     OW 2974   2.458   0.187   3.405
  692SOL    HW1 2975   2.551   0.156   3.426
  692SOL    HW2 2976   2.441   0.274   3.450
  693SOL     OW 2977   6.645   1.801   2.419
  693SOL    HW1 2978   6.718   1.735   2.435
  693SOL    HW2 2979   6.641   1.865   2.496
  694SOL     OW 2980   3.551   5.653   1.448
  694SOL    HW1 2981   3.481   5.725   1.447
  694SOL    HW2 2982   3.584   5.637   1.355
  695SOL     OW 2983   5.314   5.300   4.980
  695SOL    HW1 2984   5.381   5.260   5.042
  695SOL    HW2 2985   5.304   5.397   5.000
  696SOL     OW 2986   3.184   5.555   2.602
  696SOL    HW1 2987   3.272   5.536   2.558
  696SOL    HW2 2988   3.166   5.485   2.671
  697SOL     OW 2989   0.857   3.115   5.428
  697SOL    HW1 2990   0.858   3.063   5.514
  697SOL    HW2 2991   0.766   3.154   5.413
  698SOL     OW 2992   4.880   0.097   4.028
  698SOL    HW1 2993   4.908   0.088   3.932
  698SOL    HW2 2994   4.789   0.057   4.040
  699SOL     OW 2995   1.648   4.587   1.154
  699SOL    HW1 2996   1.708   4.508   1.169
  699SOL    HW2 2997   1.638   4.638   1.239
  700SOL     OW 2998   2.734   2.351   3.666
  700SOL    HW1 2999   2.638   2.335   3.688
  700SOL    HW2 3000   2.778   2.402   3.739
  701SOL     OW 3001   1.737   4.502   0.430
  701SOL    HW1 3002   1.820   4.459   0.464
  701SOL    HW2 3003   1.690   4.547   0.505
  702SOL     OW 3004   5.614   6.278   5.156
  702SOL    HW1 3005   5.535   6.223   5.130
  702SOL    HW2 3006   5.636   6.261   5.252
  703SOL     OW 3007   4.558   3.453   6.727
  703SOL    HW1 3008   4.499   3.457   6.808
  703SOL    HW2 3009   4.625   3.527   6.731
  704SOL     OW 3010   0.811   1.235   6.119
  704SOL    HW1 3011   0.876   1.173   6.075
  704SOL    HW2 3012   0.862   1.310   6.163
  705SOL     OW 3013   4.971   0.508   3.705
  705SOL    HW1 3014   5.015   0.420   3.684
  705SOL    HW2 3015   5.040   0.578   3.716
  706SOL     OW 3016   3.712   1.836   3.892
  706SOL    HW1 3017   3.726   1.882   3.979
  706SOL    HW2 3018   3.752   1.890   3.818
  707SOL     OW 3019   4.636   0.397   1.671
  707SOL    HW1 3020   4.675   0.485   1.699
  707SOL    HW2 3021   4.651   0.384   1.573
  708SOL     OW 3022   4.854   0.411   0.841
  708SOL    HW1 3023   4.852   0.323   0.793
  708SOL    HW2 3024   4.826   0.483   0.778
  709SOL     OW 3025   1.376   4.895   1.548
  709SOL    HW1 3026   1.276   4.894   1.548
  709SOL    HW2 3027   1.408   4.988   1.566
  710SOL     OW 3028   3.345   4.131   2.255
  710SOL    HW1 3029   3.287   4.212   2.269
  710SOL    HW2 3030   3.322   4.062   2.322
  711SOL     OW 3031   6.747   2.715   5.151
  711SOL    HW1 3032   6.703   2.659   5.081
  711SOL    HW2 3033   6.715   2.686   5.242
  712SOL     OW 3034   1.105   3.769   0.862
  712SOL    HW1 3035   1.050   3.850   0.840
  712SOL    HW2 3036   1.145   3.780   0.953
  713SOL     OW 3037   3.756   3.757   1.927
  713SOL    HW1 3038   3.827   3.688   1.929
  713SOL    HW2 3039   3.668   3.714   1.905
  714SOL     OW 3040   5.475   4.413   5.404
  714SOL    HW1 3041   5.443   4.319   5.419
  714SOL    HW2 3042   5.517   4.448   5.487
  715SOL     OW 3043   4.538   5.774   6.756
  715SOL    HW1 3044   4.629   5.746   6.726
  715SOL    HW2 3045   4.478   5.784   6.677
  716SOL     OW 3046   0.307   5.322   1.445
  716SOL    HW1 3047   0.342   5.296   1.355
  716SOL    HW2 3048   0.361   5.398   1.481
  717SOL     OW 3049   6.042   4.754   0.121
  717SOL    HW1 3050   5.996   4.841   0.103
  717SOL    HW2 3051   6.077   4.716   0.035
  718SOL     OW 3052   3.988   2.300   6.243
  718SOL    HW1 3053   3.927   2.372   6.211
  718SOL    HW2 3054   4.070   2.297   6.184
  719SOL     OW 3055   6.679   2.873   1.672
  719SOL    HW1 3056   6.667   2.920   1.759
  719SOL    HW2 3057   6.772   2.885   1.638
  720SOL     OW 3058   2.464   1.864   4.877
  720SOL    HW1 3059   2.521   1.785   4.902
  720SOL    HW2 3060   2.522   1.939   4.846
  721SOL     OW 3061   1.118   0.747   5.112
  721SOL    HW1 3062   1.145   0.652   5.122
  721SOL    HW2 3063   1.046   0.754   5.043
  722SOL     OW 3064   4.399   6.433   4.816
  722SOL    HW1 3065   4.462   6.482   4.877
  722SOL    HW2 3066   4.397   6.479   4.727
  723SOL     OW 3067   2.288   2.377   2.236
  723SOL    HW1 3068   2.294   2.424   2.148
  723SOL    HW2 3069   2.320   2.283   2.226
  724SOL     OW 3070   0.703   1.710   5.453
  724SOL    HW1 3071   0.693   1.665   5.364
  724SOL    HW2 3072   0.619   1.760   5.474
  725SOL     OW 3073   2.821   5.107   2.029
  725SOL    HW1 3074   2.776   5.018   2.036
  725SOL    HW2 3075   2.920   5.095   2.036
  726SOL     OW 3076   3.151   4.624   6.405
  726SOL    HW1 3077   3.063   4.654   6.368
  726SOL    HW2 3078   3.201   4.575   6.334
  727SOL     OW 3079   3.785   5.937   4.417
  727SOL    HW1 3080   3.685   5.931   4.419
  727SOL    HW2 3081   3.812   6.028   4.385
  728SOL     OW 3082   7.009   3.860   5.159
  728SOL    HW1 3083   0.074   3.891   5.171
  728SOL    HW2 3084   7.007   3.784   5.094
  729SOL     OW 3085   1.793   0.636   0.440
  729SOL    HW1 3086   1.722   0.587   0.490
  729SOL    HW2 3087   1.753   0.681   0.360
  730SOL     OW 3088   5.842   0.724   3.287
  730SOL    HW1 3089   5.845   0.624   3.293
  730SOL    HW2 3090   5.880   0.764   3.370
  731SOL     OW 3091   5.659   3.036   5.105
  731SOL    HW1 3092   5.716   3.002   5.031
  731SOL    HW2 3093   5.583   2.972   5.121
  732SOL     OW 3094   0.202   2.933   1.843
  732SOL    HW1 3095   0.262   3.011   1.828
  732SOL    HW2 3096   0.113   2.965   1.877
  733SOL     OW 3097   4.961   3.846   4.175
  733SOL    HW1 3098   4.968   3.946   4.176
  733SOL    HW2 3099   4.986   3.812   4.084
  734SOL     OW 3100   0.426   4.762   1.846
  734SOL    HW1 3101   0.438   4.688   1.780
  734SOL    HW2 3102   0.384   4.841   1.801
  735SOL     OW 3103   2.036   3.369   0.597
  735SOL    HW1 3104   2.074   3.278   0.578
  735SOL    HW2 3105   2.057   3.394   0.692
  736SOL     OW 3106   6.178   6.679   2.586
  736SOL    HW1 3107   6.228   6.611   2.533
  736SOL    HW2 3108   6.092   6.701   2.539
  737SOL     OW 3109   4.596   3.701   1.568
  737SOL    HW1 3110   4.640   3.751   1.643
  737SOL    HW2 3111   4.579   3.607   1.596
  738SOL     OW 3112   0.964   4.721   3.983
  738SOL    HW1 3113   0.996   4.642   3.931
  738SOL    HW2 3114   1.040   4.763   4.031
  739SOL     OW 3115   4.571   6.766   5.767
  739SOL    HW1 3116   4.583   6.866   5.767
  739SOL    HW2 3117   4.653   6.722   5.731
  740SOL     OW 3118   5.626   0.128   0.968
  740SOL    HW1 3119   5.601   0.205   0.910
  740SOL    HW2 3120   5.605   0.149   1.064
  741SOL     OW 3121   1.378   6.494   3.116
  741SOL    HW1 3122   1.445   6.464   3.184
  741SOL    HW2 3123   1.425   6.543   3.042
  742SOL     OW 3124   2.292   6.622   3.096
  742SOL    HW1 3125   2.308   6.712   3.055
  742SOL    HW2 3126   2.288   6.553   3.024
  743SOL     OW 3127   1.631   3.991   4.259
  743SOL    HW1 3128   1.591   3.941   4.336
  743SOL    HW2 3129   1.579   3.971   4.176
  744SOL     OW 3130   0.285   6.159   6.429
  744SOL    HW1 3131   0.345   6.213   6.371
  744SOL    HW2 3132   0.302   6.062   6.413
  745SOL     OW 3133   0.961   5.328   4.447
  745SOL    HW1 3134   1.051   5.335   4.404
  745SOL    HW2 3135   0.972   5.306   4.544
  746SOL     OW 3136   0.248   6.483   5.254
  746SOL    HW1 3137   0.341   6.507   5.227
  746SOL    HW2 3138   0.216   6.547   5.325
  747SOL     OW 3139   4.248   5.049   4.098
  747SOL    HW1 3140   4.203   5.077   4.014
  747SOL    HW2 3141   4.292   5.127   4.141
  748SOL     OW 3142   4.461   5.133   1.898
  748SOL    HW1 3143   4.371   5.092   1.890
  748SOL    HW2 3144   4.503   5.140   1.807
  749SOL     OW 3145   0.334   2.772   5.022
  749SOL    HW1 3146   0.329   2.681   4.980
  749SOL    HW2 3147   0.406   2.774   5.090
  750SOL     OW 3148   2.845   3.370   0.456
  750SOL    HW1 3149   2.880   3.450   0.406
  750SOL    HW2 3150   2.908   3.348   0.530
  751SOL     OW 3151   4.285   2.298   6.915
  751SOL    HW1 3152   4.209   2.319   6.853
  751SOL    HW2 3153   4.291   2.200   6.929
  752SOL     OW 3154   4.372   2.633   1.682
  752SOL    HW1 3155   4.378   2.732   1.692
  752SOL    HW2 3156   4.330   2.611   1.594
  753SOL     OW 3157   1.993   3.009   4.783
  753SOL    HW1 3158   1.995   3.108   4.799
  753SOL    HW2 3159   1.998   2.992   4.684
  754SOL     OW 3160   5.417   3.809   6.465
  754SOL    HW1 3161   5.512   3.780   6.465
  754SOL    HW2 3162   5.366   3.756   6.533
  755SOL     OW 3163   1.139   5.342   0.203
  755SOL    HW1 3164   1.125   5.274   0.275
  755SOL    HW2 3165   1.141   5.433   0.244
  756SOL     OW 3166   5.215   0.738   2.006
  756SOL    HW1 3167   5.282   0.764   1.937
  756SOL    HW2 3168   5.151   0.671   1.967
  757SOL     OW 3169   0.792   6.326   3.452
  757SOL    HW1 3170   0.891   6.328   3.444
  757SOL    HW2 3171   0.763   6.378   3.532
  758SOL     OW 3172   3.319   1.618   1.595
  758SOL    HW1 3173   3.225   1.652   1.591
  758SOL    HW2 3174   3.343   1.597   1.690
  759SOL     OW 3175   0.132   0.909   0.275
  759SOL    HW1 3176   0.114   1.007   0.281
  759SOL    HW2 3177   0.077   0.870   0.201
  760SOL     OW 3178   5.152   1.347   6.210
  760SOL    HW1 3179   5.100   1.433   6.207
  760SOL    HW2 3180   5.171   1.323   6.305
  761SOL     OW 3181   6.095   3.883   0.028
  761SOL    HW1 3182   6.010   3.847   7.021
  761SOL    HW2 3183   6.092   3.983   0.026
  762SOL     OW 3184   1.795   5.841   3.369
  762SOL    HW1 3185   1.791   5.888   3.457
  762SOL    HW2 3186   1.887   5.850   3.331
  763SOL     OW 3187   4.007   5.477   6.847
  763SOL    HW1 3188   3.962   5.562   6.822
  763SOL    HW2 3189   4.080   5.456   6.782
  764SOL     OW 3190   3.279   1.052   3.521
  764SOL    HW1 3191   3.298   1.004   3.436
  764SOL    HW2 3192   3.366   1.082   3.562
  765SOL     OW 3193   0.920   6.364   1.282
  765SOL    HW1 3194   0.987   6.329   1.217
  765SOL    HW2 3195   0.860   6.430   1.237
  766SOL     OW 3196   6.890   1.002   7.007
  766SOL    HW1 3197   6.879   1.033   6.913
  766SOL    HW2 3198   6.844   1.066   0.039
  767SOL     OW 3199   0.944   6.385   1.969
  767SOL    HW1 3200   1.036   6.422   1.983
  767SOL    HW2 3201   0.941   6.336   1.882
  768SOL     OW 3202   2.110   0.704   2.713
  768SOL    HW1 3203   2.145   0.640   2.782
  768SOL    HW2 3204   2.013   0.686   2.698
  769SOL     OW 3205   3.259   7.018   4.417
  769SOL    HW1 3206   3.193   0.034   4.476
  769SOL    HW2 3207   3.325   0.056   4.383
  770SOL     OW 3208   2.684   5.316   3.246
  770SOL    HW1 3209   2.592   5.279   3.232
  770SOL    HW2 3210   2.738   5.251   3.300
  771SOL     OW 3211   2.040   5.586   2.617
  771SOL    HW1 3212   2.138   5.603   2.625
  771SOL    HW2 3213   2.011   5.597   2.522
  772SOL     OW 3214   6.893   4.817   0.687
  772SOL    HW1 3215   6.899   4.744   0.756
  772SOL    HW2 3216   6.953   4.892   0.714
  773SOL     OW 3217   0.129   3.175   3.494
  773SOL    HW1 3218   0.147   3.079   3.514
  773SOL    HW2 3219   0.034   3.186   3.468
  774SOL     OW 3220   1.748   1.891   1.867
  774SOL    HW1 3221   1.787   1.826   1.932
  774SOL    HW2 3222   1.649   1.899   1.883
  775SOL     OW 3223   1.219   2.152   3.776
  775SOL    HW1 3224   1.252   2.152   3.871
  775SOL    HW2 3225   1.196   2.058   3.749
  776SOL     OW 3226   0.276   0.052   6.190
  776SOL    HW1 3227   0.291   0.146   6.158
  776SOL    HW2 3228   0.334   7.019   6.138
  777SOL     OW 3229   3.343   0.459   0.843
  777SOL    HW1 3230   3.398   0.401   0.783
  777SOL    HW2 3231   3.251   0.470   0.804
  778SOL     OW 3232   4.123   0.715   3.955
  778SOL    HW1 3233   4.209   0.666   3.973
  778SOL    HW2 3234   4.124   0.752   3.862
  779SOL     OW 3235   0.226   1.899   1.957
  779SOL    HW1 3236   0.313   1.932   1.921
  779SOL    HW2 3237   0.178   1.975   2.002
  780SOL     OW 3238   5.811   2.645   4.582
  780SOL    HW1 3239   5.720   2.622   4.618
  780SOL    HW2 3240   5.801   2.686   4.492
  781SOL     OW 3241   6.053   1.174   6.019
  781SOL    HW1 3242   6.134   1.232   6.012
  781SOL    HW2 3243   5.990   1.195   5.945
  782SOL     OW 3244   1.247   3.598   0.411
  782SOL    HW1 3245   1.219   3.619   0.505
  782SOL    HW2 3246   1.292   3.678   0.371
  783SOL     OW 3247   3.467   4.668   0.363
  783SOL    HW1 3248   3.496   4.682   0.269
  783SOL    HW2 3249   3.445   4.571   0.377
  784SOL     OW 3250   4.413   0.790   5.191
  784SOL    HW1 3251   4.475   0.761   5.119
  784SOL    HW2 3252   4.325   0.816   5.151
  785SOL     OW 3253   6.036   1.937   2.748
  785SOL    HW1 3254   6.134   1.919   2.738
  785SOL    HW2 3255   6.021   2.007   2.818
  786SOL     OW 3256   0.391   0.384   0.078
  786SOL    HW1 3257   0.433   0.351   7.023
  786SOL    HW2 3258   0.346   0.472   0.060
  787SOL     OW 3259   2.715   1.265   5.986
  787SOL    HW1 3260   2.785   1.252   6.057
  787SOL    HW2 3261   2.691   1.362   5.982
  788SOL     OW 3262   1.707   2.867   4.725
  788SOL    HW1 3263   1.625   2.813   4.739
  788SOL    HW2 3264   1.684   2.964   4.726
  789SOL     OW 3265   6.260   4.239   2.162
  789SOL    HW1 3266   6.265   4.151   2.209
  789SOL    HW2 3267   6.345   4.289   2.173
  790SOL     OW 3268   2.246   1.472   3.884
  790SOL    HW1 3269   2.284   1.395   3.936
  790SOL    HW2 3270   2.320   1.531   3.854
  791SOL     OW 3271   4.187   0.169   3.831
  791SOL    HW1 3272   4.148   0.089   3.876
  791SOL    HW2 3273   4.283   0.177   3.856
  792SOL     OW 3274   6.265   0.097   1.473
  792SOL    HW1 3275   6.235   0.080   1.379
  792SOL    HW2 3276   6.210   0.043   1.536
  793SOL     OW 3277   4.423   6.400   1.960
  793SOL    HW1 3278   4.465   6.323   1.912
  793SOL    HW2 3279   4.482   6.427   2.037
  794SOL     OW 3280   2.413   5.009   5.396
  794SOL    HW1 3281   2.437   4.971   5.485
  794SOL    HW2 3282   2.326   5.059   5.403
  795SOL     OW 3283   2.915   5.098   5.644
  795SOL    HW1 3284   2.828   5.049   5.650
  795SOL    HW2 3285   2.989   5.032   5.628
  796SOL     OW 3286   0.276   2.373   6.430
  796SOL    HW1 3287   0.374   2.356   6.445
  796SOL    HW2 3288   0.224   2.325   6.500
  797SOL     OW 3289   4.992   2.167   2.265
  797SOL    HW1 3290   4.970   2.234   2.194
  797SOL    HW2 3291   4.911   2.110   2.282
  798SOL     OW 3292   4.717   0.662   1.132
  798SOL    HW1 3293   4.771   0.697   1.208
  798SOL    HW2 3294   4.707   0.563   1.141
  799SOL     OW 3295   6.834   1.879   3.495
  799SOL    HW1 3296   6.913   1.843   3.447
  799SOL    HW2 3297   6.752   1.868   3.439
  800SOL     OW 3298   5.423   0.646   2.482
  800SOL    HW1 3299   5.427   0.727   2.424
  800SOL    HW2 3300   5.356   0.660   2.555
  801SOL     OW 3301   1.346   2.791   3.216
  801SOL    HW1 3302   1.249   2.813   3.208
  801SOL    HW2 3303   1.399   2.848   3.153
  802SOL     OW 3304   5.011   1.419   0.550
  802SOL    HW1 3305   4.948   1.427   0.473
  802SOL    HW2 3306   5.104   1.439   0.519
  803SOL     OW 3307   5.851   6.076   4.577
  803SOL    HW1 3308   5.928   6.135   4.601
  803SOL    HW2 3309   5.883   6.004   4.515
  804SOL     OW 3310   6.546   6.534   0.154
  804SOL    HW1 3311   6.618   6.497   0.212
  804SOL    HW2 3312   6.574   6.530   0.058
  805SOL     OW 3313   4.596   3.126   5.694
  805SOL    HW1 3314   4.662   3.051   5.697
  805SOL    HW2 3315   4.533   3.118   5.771
  806SOL     OW 3316   3.729   1.900   5.227
  806SOL    HW1 3317   3.815   1.930   5.269
  806SOL    HW2 3318   3.738   1.805   5.196
  807SOL     OW 3319   1.246   1.019   3.592
  807SOL    HW1 3320   1.212   0.990   3.503
  807SOL    HW2 3321   1.341   0.988   3.602
  808SOL     OW 3322   4.881   3.250   6.323
  808SOL    HW1 3323   4.926   3.228   6.410
  808SOL    HW2 3324   4.802   3.309   6.340
  809SOL     OW 3325   1.457   4.950   0.995
  809SOL    HW1 3326   1.491   4.931   1.087
  809SOL    HW2 3327   1.531   4.985   0.938
  810SOL     OW 3328   4.433   3.151   0.787
  810SOL    HW1 3329   4.377   3.075   0.752
  810SOL    HW2 3330   4.513   3.162   0.728
  811SOL     OW 3331   4.615   5.878   3.737
  811SOL    HW1 3332   4.585   5.846   3.647
  811SOL    HW2 3333   4.555   5.952   3.768
  812SOL     OW 3334   6.498   0.853   1.334
  812SOL    HW1 3335   6.399   0.847   1.349
  812SOL    HW2 3336   6.533   0.939   1.372
  813SOL     OW 3337   4.362   6.209   3.144
  813SOL    HW1 3338   4.349   6.276   3.072
  813SOL    HW2 3339   4.278   6.156   3.155
  814SOL     OW 3340   5.342   6.860   2.745
  814SOL    HW1 3341   5.427   6.810   2.758
  814SOL    HW2 3342   5.287   6.855   2.829
  815SOL     OW 3343   6.072   2.524   2.185
  815SOL    HW1 3344   6.072   2.607   2.129
  815SOL    HW2 3345   6.074   2.444   2.125
  816SOL     OW 3346   6.948   6.536   0.025
  816SOL    HW1 3347   6.919   6.623   7.015
  816SOL    HW2 3348   0.017   6.524   0.010
  817SOL     OW 3349   2.019   4.420   2.482
  817SOL    HW1 3350   2.004   4.478   2.402
  817SOL    HW2 3351   1.962   4.452   2.558
  818SOL     OW 3352   6.221   3.231   0.436
  818SOL    HW1 3353   6.211   3.154   0.498
  818SOL    HW2 3354   6.264   3.308   0.485
  819SOL     OW 3355   6.245   3.341   4.643
  819SOL    HW1 3356   6.165   3.400   4.635
  819SOL    HW2 3357   6.307   3.359   4.566
  820SOL     OW 3358   1.255   2.867   5.382
  820SOL    HW1 3359   1.194   2.788   5.393
  820SOL    HW2 3360   1.344   2.845   5.421
  821SOL     OW 3361   2.545   4.855   0.777
  821SOL    HW1 3362   2.500   4.942   0.757
  821SOL    HW2 3363   2.608   4.867   0.854
  822SOL     OW 3364   1.076   5.017   4.429
  822SOL    HW1 3365   1.063   4.921   4.453
  822SOL    HW2 3366   1.099   5.070   4.511
  823SOL     OW 3367   4.880   4.217   6.589
  823SOL    HW1 3368   4.973   4.247   6.610
  823SOL    HW2 3369   4.817   4.255   6.656
  824SOL     OW 3370   4.829   1.296   4.964
  824SOL    HW1 3371   4.914   1.347   4.971
  824SOL    HW2 3372   4.760   1.338   5.023
  825SOL     OW 3373   2.001   3.016   2.115
  825SOL    HW1 3374   2.031   3.105   2.079
  825SOL    HW2 3375   2.043   3.001   2.205
  826SOL     OW 3376   6.101   4.129   0.800
  826SOL    HW1 3377   6.040   4.052   0.815
  826SOL    HW2 3378   6.188   4.112   0.846
  827SOL     OW 3379   3.413   5.516   6.030
  827SOL    HW1 3380   3.416   5.604   6.077
  827SOL    HW2 3381   3.318   5.490   6.014
  828SOL     OW 3382   5.867   0.722   4.909
  828SOL    HW1 3383   5.863   0.716   5.009
  828SOL    HW2 3384   5.949   0.772   4.882
  829SOL     OW 3385   3.037   3.365   4.201
  829SOL    HW1 3386   3.024   3.450   4.149
  829SOL    HW2 3387   3.017   3.287   4.142
  830SOL     OW 3388   5.162   4.644   5.822
  830SOL    HW1 3389   5.125   4.665   5.731
  830SOL    HW2 3390   5.128   4.555   5.852
  831SOL     OW 3391   6.988   6.617   4.320
  831SOL    HW1 3392   6.896   6.583   4.339
  831SOL    HW2 3393   0.005   6.638   4.405
  832SOL     OW 3394   2.159   1.437   0.327
  832SOL    HW1 3395   2.229   1.396   0.269
  832SOL    HW2 3396   2.188   1.529   0.354
  833SOL     OW 3397   6.677   5.894   6.215
  833SOL    HW1 3398   6.678   5.993   6.204
  833SOL    HW2 3399   6.757   5.854   6.171
  834SOL     OW 3400   3.764   3.782   2.799
  834SOL    HW1 3401   3.802   3.740   2.717
  834SOL    HW2 3402   3.824   3.856   2.830
  835SOL     OW 3403   4.046   6.898   3.853
  835SOL    HW1 3404   4.079   6.832   3.785
  835SOL    HW2 3405   3.982   6.854   3.915
  836SOL     OW 3406   3.513   6.299   6.785
  836SOL    HW1 3407   3.497   6.335   6.693
  836SOL    HW2 3408   3.606   6.264   6.792
  837SOL     OW 3409   5.228   0.813   0.245
  837SOL    HW1 3410   5.190   0.905   0.234
  837SOL    HW2 3411   5.263   0.781   0.157
  838SOL     OW 3412   0.626   0.156   5.026
  838SOL    HW1 3413   0.550   0.111   4.978
  838SOL    HW2 3414   0.710   0.144   4.974
  839SOL     OW 3415   2.683   1.680   3.145
  839SOL    HW1 3416   2.640   1.734   3.218
  839SOL    HW2 3417   2.673   1.583   3.166
  840SOL     OW 3418   0.401   1.163   6.129
  840SOL    HW1 3419   0.327   1.131   6.189
  840SOL    HW2 3420   0.380   1.255   6.098
  841SOL     OW 3421   6.122   4.172   0.097
  841SOL    HW1 3422   6.032   4.212   0.080
  841SOL    HW2 3423   6.188   4.210   0.032
  842SOL     OW 3424   4.270   5.407   3.482
  842SOL    HW1 3425   4.289   5.374   3.575
  842SOL    HW2 3426   4.229   5.498   3.487
  843SOL     OW 3427   5.914   2.483   0.209
  843SOL    HW1 3428   5.842   2.415   0.198
  843SOL    HW2 3429   6.001   2.438   0.227
  844SOL     OW 3430   4.744   6.200   0.598
  844SOL    HW1 3431   4.789   6.111   0.607
  844SOL    HW2 3432   4.656   6.198   0.647
  845SOL     OW 3433   6.284   2.852   5.227
  845SOL    HW1 3434   6.309   2.755   5.226
  845SOL    HW2 3435   6.188   2.861   5.255
  846SOL     OW 3436   6.139   1.620   6.877
  846SOL    HW1 3437   6.052   1.596   6.920
  846SOL    HW2 3438   6.125   1.695   6.813
  847SOL     OW 3439   6.061   3.365   0.939
  847SOL    HW1 3440   6.019   3.286   0.984
  847SOL    HW2 3441   6.159   3.348   0.926
  848SOL     OW 3442   6.034   0.631   6.447
  848SOL    HW1 3443   6.115   0.671   6.405
  848SOL    HW2 3444   5.976   0.704   6.484
  849SOL     OW 3445   0.114   5.551   5.070
  849SOL    HW1 3446   0.106   5.647   5.099
  849SOL    HW2 3447   0.194   5.541   5.010
  850SOL     OW 3448   4.544   0.129   3.574
  850SOL    HW1 3449   4.581   0.119   3.481
  850SOL    HW2 3450   4.576   0.216   3.613
  851SOL     OW 3451   0.595   1.292   0.062
  851SOL    HW1 3452   0.533   1.225   0.104
  851SOL    HW2 3453   0.637   1.347   0.134
  852SOL     OW 3454   2.213   2.418   6.800
  852SOL    HW1 3455   2.287   2.390   6.739
  852SOL    HW2 3456   2.127   2.377   6.770
  853SOL     OW 3457   0.775   3.371   2.932
  853SOL    HW1 3458   0.852   3.394   2.992
  853SOL    HW2 3459   0.765   3.442   2.862
  854SOL     OW 3460   5.325   6.658   2.525
  854SOL    HW1 3461   5.423   6.648   2.504
  854SOL    HW2 3462   5.314   6.711   2.609
  855SOL     OW 3463   5.901   0.347   1.726
  855SOL    HW1 3464   5.853   0.322   1.810
  855SOL    HW2 3465   5.843   0.324   1.647
  856SOL     OW 3466   1.649   0.642   5.222
  856SOL    HW1 3467   1.646   0.726   5.168
  856SOL    HW2 3468   1.700   0.658   5.306
  857SOL     OW 3469   5.804   4.657   1.059
  857SOL    HW1 3470   5.801   4.573   1.113
  857SOL    HW2 3471   5.711   4.685   1.035
  858SOL     OW 3472   2.755   4.849   1.915
  858SOL    HW1 3473   2.772   4.861   1.818
  858SOL    HW2 3474   2.770   4.754   1.941
  859SOL     OW 3475   5.552   5.086   6.712
  859SOL    HW1 3476   5.510   5.154   6.652
  859SOL    HW2 3477   5.592   5.131   6.791
  860SOL     OW 3478   3.787   3.936   6.839
  860SOL    HW1 3479   3.739   3.879   6.906
  860SOL    HW2 3480   3.792   3.889   6.752
  861SOL     OW 3481   2.876   6.882   5.065
  861SOL    HW1 3482   2.920   6.906   4.979
  861SOL    HW2 3483   2.780   6.860   5.048
  862SOL     OW 3484   6.022   4.566   5.161
  862SOL    HW1 3485   5.970   4.508   5.099
  862SOL    HW2 3486   6.003   4.540   5.255
  863SOL     OW 3487   0.940   0.361   0.886
  863SOL    HW1 3488   0.863   0.314   0.843
  863SOL    HW2 3489   0.909   0.408   0.968
  864SOL     OW 3490   5.004   4.399   3.426
  864SOL    HW1 3491   4.984   4.301   3.432
  864SOL    HW2 3492   5.094   4.417   3.464
  865SOL     OW 3493   1.173   7.013   4.105
  865SOL    HW1 3494   1.113   0.063   4.095
  865SOL    HW2 3495   1.246   0.004   4.170
  866SOL     OW 3496   2.766   1.537   2.379
  866SOL    HW1 3497   2.824   1.456   2.381
  866SOL    HW2 3498   2.802   1.602   2.311
  867SOL     OW 3499   3.249   2.804   0.376
  867SOL    HW1 3500   3.229   2.818   0.279
  867SOL    HW2 3501   3.167   2.772   0.424
  868SOL     OW 3502   5.999   0.298   2.170
  868SOL    HW1 3503   6.052   0.224   2.212
  868SOL    HW2 3504   5.924   0.259   2.116
  869SOL     OW 3505   6.504   5.659   2.614
  869SOL    HW1 3506   6.553   5.596   2.675
  869SOL    HW2 3507   6.515   5.752   2.647
  870SOL     OW 3508   6.712   3.098   1.882
  870SOL    HW1 3509   6.744   3.131   1.793
  870SOL    HW2 3510   6.688   3.177   1.940
  871SOL     OW 3511   6.832   2.713   2.212
  871SOL    HW1 3512   6.895   2.778   2.254
  871SOL    HW2 3513   6.778   2.669   2.284
  872SOL     OW 3514   6.709   2.712   4.627
  872SOL    HW1 3515   6.621   2.677   4.594
  872SOL    HW2 3516   6.718   2.808   4.602
  873SOL     OW 3517   3.820   7.017   3.195
  873SOL    HW1 3518   3.839   0.086   3.192
  873SOL    HW2 3519   3.721   7.003   3.202
  874SOL     OW 3520   1.913   4.712   5.236
  874SOL    HW1 3521   1.833   4.654   5.251
  874SOL    HW2 3522   1.981   4.662   5.181
  875SOL     OW 3523   5.231   4.767   0.782
  875SOL    HW1 3524   5.176   4.839   0.740
  875SOL    HW2 3525   5.297   4.807   0.846
  876SOL     OW 3526   6.488   3.501   2.626
  876SOL    HW1 3527   6.403   3.458   2.596
  876SOL    HW2 3528   6.470   3.556   2.708
  877SOL     OW 3529   4.906   4.991   0.334
  877SOL    HW1 3530   4.856   4.975   0.249
  877SOL    HW2 3531   4.845   4.979   0.412
  878SOL     OW 3532   3.515   4.968   6.702
  878SOL    HW1 3533   3.505   4.870   6.691
  878SOL    HW2 3534   3.609   4.990   6.726
  879SOL     OW 3535   4.682   1.920   2.726
  879SOL    HW1 3536   4.610   1.986   2.707
  879SOL    HW2 3537   4.663   1.875   2.814
  880SOL     OW 3538   3.935   4.388   6.938
  880SOL    HW1 3539   4.034   4.401   6.933
  880SOL    HW2 3540   3.906   4.324   6.867
  881SOL     OW 3541   4.403   4.613   4.527
  881SOL    HW1 3542   4.406   4.598   4.626
  881SOL    HW2 3543   4.468   4.552   4.482
  882SOL     OW 3544   1.380   0.508   4.566
  882SOL    HW1 3545   1.288   0.470   4.581
  882SOL    HW2 3546   1.390   0.591   4.621
  883SOL     OW 3547   3.795   4.898   5.875
  883SOL    HW1 3548   3.808   4.922   5.972
  883SOL    HW2 3549   3.739   4.815   5.869
  884SOL     OW 3550   6.593   3.528   1.780
  884SOL    HW1 3551   6.576   3.431   1.766
  884SOL    HW2 3552   6.542   3.559   1.861
  885SOL     OW 3553   5.371   6.351   0.391
  885SOL    HW1 3554   5.366   6.425   0.459
  885SOL    HW2 3555   5.327   6.269   0.427
  886SOL     OW 3556   3.980   0.913   6.764
  886SOL    HW1 3557   4.051   0.849   6.791
  886SOL    HW2 3558   3.891   0.868   6.767
  887SOL     OW 3559   4.195   0.149   6.543
  887SOL    HW1 3560   4.178   0.243   6.573
  887SOL    HW2 3561   4.152   0.135   6.454
  888SOL     OW 3562   0.420   6.493   3.647
  888SOL    HW1 3563   0.325   6.461   3.648
  888SOL    HW2 3564   0.432   6.564   3.716
  889SOL     OW 3565   0.342   6.042   5.197
  889SOL    HW1 3566   0.336   5.943   5.186
  889SOL    HW2 3567   0.260   6.075   5.245
  890SOL     OW 3568   2.651   4.694   2.177
  890SOL    HW1 3569   2.573   4.746   2.142
  890SOL    HW2 3570   2.692   4.642   2.102
  891SOL     OW 3571   5.589   3.236   1.231
  891SOL    HW1 3572   5.496   3.200   1.222
  891SOL    HW2 3573   5.653   3.161   1.244
  892SOL     OW 3574   2.812   4.084   0.577
  892SOL    HW1 3575   2.830   4.053   0.484
  892SOL    HW2 3576   2.721   4.054   0.605
  893SOL     OW 3577   1.598   0.325   0.114
  893SOL    HW1 3578   1.609   0.397   0.045
  893SOL    HW2 3579   1.683   0.315   0.166
  894SOL     OW 3580   1.077   5.254   4.045
  894SOL    HW1 3581   1.129   5.282   4.126
  894SOL    HW2 3582   1.140   5.229   3.972
  895SOL     OW 3583   1.962   6.926   4.716
  895SOL    HW1 3584   1.930   6.835   4.690
  895SOL    HW2 3585   1.930   6.947   4.809
  896SOL     OW 3586   6.177   6.088   3.890
  896SOL    HW1 3587   6.129   6.110   3.975
  896SOL    HW2 3588   6.110   6.082   3.816
  897SOL     OW 3589   5.174   2.438   6.907
  897SOL    HW1 3590   5.212   2.348   6.929
  897SOL    HW2 3591   5.244   2.508   6.919
  898SOL     OW 3592   4.707   6.379   3.647
  898SOL    HW1 3593   4.716   6.344   3.554
  898SOL    HW2 3594   4.741   6.310   3.712
  899SOL     OW 3595   0.443   4.876   6.512
  899SOL    HW1 3596   0.490   4.936   6.448
  899SOL    HW2 3597   0.501   4.862   6.593
  900SOL     OW 3598   0.396   6.195   2.993
  900SOL    HW1 3599   0.416   6.131   3.067
  900SOL    HW2 3600   0.297   6.207   2.984
  901SOL     OW 3601   6.867   1.151   4.468
  901SOL    HW1 3602   6.941   1.192   4.415
  901SOL    HW2 3603   6.855   1.201   4.554
  902SOL     OW 3604   6.862   0.350   6.230
  902SOL    HW1 3605   6.778   0.362   6.177
  902SOL    HW2 3606   6.922   0.284   6.185
  903SOL     OW 3607   0.147   4.106   0.679
  903SOL    HW1 3608   0.173   4.010   0.675
  903SOL    HW2 3609   0.095   4.123   0.763
  904SOL     OW 3610   1.572   1.068   3.569
  904SOL    HW1 3611   1.658   1.107   3.535
  904SOL    HW2 3612   1.577   0.968   3.563
  905SOL     OW 3613   5.110   2.314   6.030
  905SOL    HW1 3614   5.152   2.264   5.954
  905SOL    HW2 3615   5.167   2.393   6.054
  906SOL     OW 3616   0.194   4.366   6.414
  906SOL    HW1 3617   0.192   4.465   6.424
  906SOL    HW2 3618   0.141   4.339   6.334
  907SOL     OW 3619   6.164   2.364   2.699
  907SOL    HW1 3620   6.185   2.387   2.794
  907SOL    HW2 3621   6.096   2.291   2.696
  908SOL     OW 3622   1.809   6.856   4.132
  908SOL    HW1 3623   1.899   6.880   4.095
  908SOL    HW2 3624   1.819   6.787   4.204
  909SOL     OW 3625   2.522   0.759   0.760
  909SOL    HW1 3626   2.565   0.701   0.691
  909SOL    HW2 3627   2.504   0.849   0.721
  910SOL     OW 3628   1.443   0.756   6.959
  910SOL    HW1 3629   1.454   0.818   6.882
  910SOL    HW2 3630   1.347   0.757   6.989
  911SOL     OW 3631   0.743   4.793   1.789
  911SOL    HW1 3632   0.690   4.725   1.737
  911SOL    HW2 3633   0.751   4.763   1.884
  912SOL     OW 3634   0.329   1.904   5.864
  912SOL    HW1 3635   0.364   1.993   5.837
  912SOL    HW2 3636   0.402   1.836   5.861
  913SOL     OW 3637   2.516   0.780   3.051
  913SOL    HW1 3638   2.450   0.807   3.121
  913SOL    HW2 3639   2.576   0.858   3.030
  914SOL     OW 3640   2.702   6.162   4.047
  914SOL    HW1 3641   2.666   6.159   3.953
  914SOL    HW2 3642   2.801   6.151   4.045
  915SOL     OW 3643   0.720   3.197   0.273
  915SOL    HW1 3644   0.765   3.223   0.359
  915SOL    HW2 3645   0.759   3.250   0.198
  916SOL     OW 3646   2.393   2.230   2.707
  916SOL    HW1 3647   2.388   2.318   2.659
  916SOL    HW2 3648   2.478   2.183   2.684
  917SOL     OW 3649   3.756   0.938   1.088
  917SOL    HW1 3650   3.692   0.984   1.150
  917SOL    HW2 3651   3.706   0.903   1.009
  918SOL     OW 3652   2.568   5.892   6.133
  918SOL    HW1 3653   2.587   5.797   6.107
  918SOL    HW2 3654   2.654   5.943   6.139
  919SOL     OW 3655   1.775   5.458   1.611
  919SOL    HW1 3656   1.761   5.382   1.675
  919SOL    HW2 3657   1.867   5.452   1.572
  920SOL     OW 3658   2.562   0.663   2.817
  920SOL    HW1 3659   2.550   0.711   2.904
  920SOL    HW2 3660   2.613   0.579   2.832
  921SOL     OW 3661   5.690   4.822   4.583
  921SOL    HW1 3662   5.640   4.899   4.623
  921SOL    HW2 3663   5.676   4.740   4.639
  922SOL     OW 3664   2.684   3.485   6.884
  922SOL    HW1 3665   2.679   3.579   6.917
  922SOL    HW2 3666   2.687   3.422   6.962
  923SOL     OW 3667   2.737   6.019   7.025
  923SOL    HW1 3668   2.701   6.109   7.001
  923SOL    HW2 3669   2.732   5.959   6.945
  924SOL     OW 3670   5.880   3.627   3.197
  924SOL    HW1 3671   5.827   3.579   3.267
  924SOL    HW2 3672   5.863   3.584   3.108
  925SOL     OW 3673   0.075   2.078   5.467
  925SOL    HW1 3674   0.171   2.078   5.496
  925SOL    HW2 3675   0.018   2.119   5.538
  926SOL     OW 3676   5.120   6.423   0.651
  926SOL    HW1 3677   5.113   6.331   0.612
  926SOL    HW2 3678   5.092   6.490   0.583
  927SOL     OW 3679   4.583   4.432   4.410
  927SOL    HW1 3680   4.581   4.348   4.465
  927SOL    HW2 3681   4.606   4.410   4.316
  928SOL     OW 3682   1.757   0.110   0.680
  928SOL    HW1 3683   1.840   0.139   0.632
  928SOL    HW2 3684   1.765   0.014   0.707
  929SOL     OW 3685   0.440   2.785   2.439
  929SOL    HW1 3686   0.525   2.742   2.468
  929SOL    HW2 3687   0.413   2.855   2.505
  930SOL     OW 3688   5.322   4.872   4.626
  930SOL    HW1 3689   5.310   4.790   4.681
  930SOL    HW2 3690   5.305   4.850   4.529
  931SOL     OW 3691   0.803   2.448   2.906
  931SOL    HW1 3692   0.729   2.397   2.862
  931SOL    HW2 3693   0.882   2.387   2.918
  932SOL     OW 3694   4.328   5.777   1.210
  932SOL    HW1 3695   4.253   5.720   1.244
  932SOL    HW2 3696   4.291   5.856   1.162
  933SOL     OW 3697   1.482   5.182   2.388
  933SOL    HW1 3698   1.514   5.262   2.339
  933SOL    HW2 3699   1.396   5.203   2.434
  934SOL     OW 3700   3.422   0.816   5.313
  934SOL    HW1 3701   3.325   0.801   5.297
  934SOL    HW2 3702   3.446   0.909   5.285
  935SOL     OW 3703   4.316   3.256   5.887
  935SOL    HW1 3704   4.365   3.327   5.939
  935SOL    HW2 3705   4.278   3.296   5.804
  936SOL     OW 3706   0.478   0.397   1.242
  936SOL    HW1 3707   0.452   0.478   1.190
  936SOL    HW2 3708   0.402   0.367   1.299
  937SOL     OW 3709   4.301   1.897   4.259
  937SOL    HW1 3710   4.317   1.901   4.358
  937SOL    HW2 3711   4.205   1.914   4.240
  938SOL     OW 3712   0.044   3.434   6.030
  938SOL    HW1 3713   6.988   3.469   6.069
  938SOL    HW2 3714   0.022   3.364   5.962
  939SOL     OW 3715   5.179   1.159   6.024
  939SOL    HW1 3716   5.245   1.103   6.074
  939SOL    HW2 3717   5.151   1.236   6.081
  940SOL     OW 3718   6.960   0.778   3.187
  940SOL    HW1 3719   6.931   0.683   3.197
  940SOL    HW2 3720   6.928   0.831   3.265
  941SOL     OW 3721   5.560   1.196   3.775
  941SOL    HW1 3722   5.600   1.220   3.863
  941SOL    HW2 3723   5.497   1.268   3.746
  942SOL     OW 3724   5.507   6.652   5.435
  942SOL    HW1 3725   5.570   6.662   5.358
  942SOL    HW2 3726   5.454   6.737   5.445
  943SOL     OW 3727   6.218   3.086   2.485
  943SOL    HW1 3728   6.248   2.998   2.522
  943SOL    HW2 3729   6.276   3.111   2.407
  944SOL     OW 3730   5.844   3.270   4.765
  944SOL    HW1 3731   5.751   3.291   4.734
  944SOL    HW2 3732   5.871   3.181   4.731
  945SOL     OW 3733   4.908   4.500   4.266
  945SOL    HW1 3734   4.833   4.465   4.211
  945SOL    HW2 3735   4.988   4.514   4.208
  946SOL     OW 3736   5.868   2.997   5.927
  946SOL    HW1 3737   5.893   3.038   5.839
  946SOL    HW2 3738   5.771   3.013   5.944
  947SOL     OW 3739   3.192   2.819   6.775
  947SOL    HW1 3740   3.198   2.722   6.799
  947SOL    HW2 3741   3.100   2.853   6.796
  948SOL     OW 3742   3.458   1.298   0.824
  948SOL    HW1 3743   3.401   1.379   0.843
  948SOL    HW2 3744   3.490   1.259   0.911
  949SOL     OW 3745   6.196   5.545   6.805
  949SOL    HW1 3746   6.295   5.531   6.800
  949SOL    HW2 3747   6.155   5.478   6.866
  950SOL     OW 3748   4.047   5.151   1.261
  950SOL    HW1 3749   4.055   5.072   1.201
  950SOL    HW2 3750   4.072   5.125   1.355
  951SOL     OW 3751   0.773   0.749   1.559
  951SOL    HW1 3752   0.704   0.736   1.629
  951SOL    HW2 3753   0.788   0.662   1.511
  952SOL     OW 3754   5.198   0.855   3.030
  952SOL    HW1 3755   5.236   0.922   3.093
  952SOL    HW2 3756   5.215   0.884   2.936
  953SOL     OW 3757   4.665   5.976   5.581
  953SOL    HW1 3758   4.688   5.879   5.573
  953SOL    HW2 3759   4.742   6.031   5.549
  954SOL     OW 3760   6.452   6.938   1.355
  954SOL    HW1 3761   6.418   6.976   1.269
  954SOL    HW2 3762   6.492   6.848   1.339
  955SOL     OW 3763   0.448   5.474   3.267
  955SOL    HW1 3764   0.499   5.482   3.352
  955SOL    HW2 3765   0.367   5.417   3.283
  956SOL     OW 3766   1.297   1.248   1.064
  956SOL    HW1 3767   1.378   1.224   1.010
  956SOL    HW2 3768   1.280   1.346   1.056
  957SOL     OW 3769   1.254   4.748   5.659
  957SOL    HW1 3770   1.287   4.794   5.576
  957SOL    HW2 3771   1.319   4.676   5.685
  958SOL     OW 3772   5.469   1.907   1.124
  958SOL    HW1 3773   5.506   1.993   1.161
  958SOL    HW2 3774   5.465   1.912   1.025
  959SOL     OW 3775   3.115   4.864   2.831
  959SOL    HW1 3776   3.018   4.839   2.826
  959SOL    HW2 3777   3.156   4.857   2.740
  960SOL     OW 3778   2.001   6.220   4.613
  960SOL    HW1 3779   2.007   6.160   4.533
  960SOL    HW2 3780   1.938   6.180   4.679
  961SOL     OW 3781   3.993   6.852   2.147
  961SOL    HW1 3782   4.077   6.841   2.095
  961SOL    HW2 3783   3.949   6.939   2.121
  962SOL     OW 3784   1.568   0.670   3.136
  962SOL    HW1 3785   1.651   0.727   3.131
  962SOL    HW2 3786   1.593   0.577   3.161
  963SOL     OW 3787   5.891   0.700   1.542
  963SOL    HW1 3788   5.910   0.631   1.611
  963SOL    HW2 3789   5.953   0.688   1.464
  964SOL     OW 3790   5.460   3.529   1.237
  964SOL    HW1 3791   5.509   3.468   1.175
  964SOL    HW2 3792   5.520   3.604   1.264
  965SOL     OW 3793   6.984   1.766   0.401
  965SOL    HW1 3794   6.889   1.795   0.395
  965SOL    HW2 3795   6.988   1.673   0.436
  966SOL     OW 3796   6.393   1.555   2.703
  966SOL    HW1 3797   6.477   1.503   2.685
  966SOL    HW2 3798   6.381   1.565   2.802
  967SOL     OW 3799   1.367   5.712   0.320
  967SOL    HW1 3800   1.399   5.755   0.236
  967SOL    HW2 3801   1.431   5.640   0.347
  968SOL     OW 3802   4.670   2.693   2.453
  968SOL    HW1 3803   4.699   2.759   2.384
  968SOL    HW2 3804   4.725   2.704   2.536
  969SOL     OW 3805   4.202   6.691   6.259
  969SOL    HW1 3806   4.245   6.606   6.229
  969SOL    HW2 3807   4.121   6.710   6.204
  970SOL     OW 3808   4.499   1.714   5.398
  970SOL    HW1 3809   4.469   1.673   5.312
  970SOL    HW2 3810   4.477   1.653   5.474
  971SOL     OW 3811   7.004   1.572   2.371
  971SOL    HW1 3812   0.009   1.611   2.456
  971SOL    HW2 3813   0.028   1.491   2.347
  972SOL     OW 3814   6.633   5.056   0.721
  972SOL    HW1 3815   6.636   5.151   0.749
  972SOL    HW2 3816   6.538   5.027   0.712
  973SOL     OW 3817   6.631   4.568   6.387
  973SOL    HW1 3818   6.600   4.563   6.292
  973SOL    HW2 3819   6.689   4.489   6.407
  974SOL     OW 3820   3.305   0.448   3.007
  974SOL    HW1 3821   3.392   0.497   2.996
  974SOL    HW2 3822   3.269   0.464   3.098
  975SOL     OW 3823   2.925   6.036   5.766
  975SOL    HW1 3824   2.997   6.034   5.835
  975SOL    HW2 3825   2.905   6.131   5.740
  976SOL     OW 3826   6.677   2.876   2.726
  976SOL    HW1 3827   6.694   2.930   2.644
  976SOL    HW2 3828   6.732   2.792   2.723
  977SOL     OW 3829   1.512   1.240   3.743
  977SOL    HW1 3830   1.531   1.178   3.667
  977SOL    HW2 3831   1.580   1.225   3.816
  978SOL     OW 3832   5.940   4.124   4.591
  978SOL    HW1 3833   5.938   4.044   4.530
  978SOL    HW2 3834   5.975   4.203   4.540
  979SOL     OW 3835   6.088   1.394   3.068
  979SOL    HW1 3836   6.062   1.389   3.165
  979SOL    HW2 3837   6.006   1.389   3.011
  980SOL     OW 3838   5.431   2.301   3.786
  980SOL    HW1 3839   5.441   2.397   3.760
  980SOL    HW2 3840   5.368   2.256   3.724
  981SOL     OW 3841   1.070   1.668   4.592
  981SOL    HW1 3842   1.121   1.657   4.677
  981SOL    HW2 3843   1.079   1.586   4.536
  982SOL     OW 3844   0.887   2.648   1.700
  982SOL    HW1 3845   0.797   2.669   1.736
  982SOL    HW2 3846   0.886   2.557   1.658
  983SOL     OW 3847   6.254   1.821   3.248
  983SOL    HW1 3848   6.169   1.798   3.199
  983SOL    HW2 3849   6.285   1.911   3.220
  984SOL     OW 3850   4.654   0.982   5.506
  984SOL    HW1 3851   4.629   1.054   5.571
  984SOL    HW2 3852   4.577   0.919   5.494
  985SOL     OW 3853   3.781   5.613   0.670
  985SOL    HW1 3854   3.813   5.703   0.641
  985SOL    HW2 3855   3.698   5.589   0.619
  986SOL     OW 3856   5.548   5.308   6.549
  986SOL    HW1 3857   5.535   5.404   6.573
  986SOL    HW2 3858   5.641   5.296   6.513
  987SOL     OW 3859   2.706   6.756   1.505
  987SOL    HW1 3860   2.651   6.729   1.584
  987SOL    HW2 3861   2.666   6.837   1.463
  988SOL     OW 3862   3.906   2.804   0.817
  988SOL    HW1 3863   3.880   2.840   0.728
  988SOL    HW2 3864   3.972   2.730   0.805
  989SOL     OW 3865   0.372   0.285   6.036
  989SOL    HW1 3866   0.386   0.247   5.945
  989SOL    HW2 3867   0.400   0.381   6.037
  990SOL     OW 3868   5.032   0.211   4.247
  990SOL    HW1 3869   4.969   0.181   4.176
  990SOL    HW2 3870   5.114   0.153   4.245
  991SOL     OW 3871   1.484   2.106   4.657
  991SOL    HW1 3872   1.457   2.198   4.684
  991SOL    HW2 3873   1.540   2.065   4.729
  992SOL     OW 3874   0.292   3.015   6.607
  992SOL    HW1 3875   0.244   3.022   6.520
  992SOL    HW2 3876   0.377   3.066   6.602
  993SOL     OW 3877   3.081   5.282   2.679
  993SOL    HW1 3878   3.027   5.321   2.754
  993SOL    HW2 3879   3.032   5.296   2.593
  994SOL     OW 3880   3.632   4.095   2.407
  994SOL    HW1 3881   3.730   4.078   2.409
  994SOL    HW2 3882   3.600   4.098   2.312
  995SOL     OW 3883   2.050   3.077   6.199
  995SOL    HW1 3884   2.053   3.166   6.153
  995SOL    HW2 3885   2.107   3.080   6.281
  996SOL     OW 3886   1.921   3.384   3.555
  996SOL    HW1 3887   1.881   3.315   3.615
  996SOL    HW2 3888   1.861   3.399   3.477
  997SOL     OW 3889   0.616   0.951   1.160
  997SOL    HW1 3890   0.702   0.937   1.110
  997SOL    HW2 3891   0.539   0.945   1.097
  998SOL     OW 3892   3.933   6.758   2.520
  998SOL    HW1 3893   3.844   6.722   2.493
  998SOL    HW2 3894   3.994   6.681   2.543
  999SOL     OW 3895   5.473   5.640   1.203
  999SOL    HW1 3896   5.413   5.717   1.182
  999SOL    HW2 3897   5.425   5.577   1.265
 1000SOL     OW 3898   2.164   1.856   2.825
 1000SOL    HW1 3899   2.139   1.947   2.791
 1000SOL    HW2 3900   2.227   1.812   2.761
 1001SOL     OW 3901   4.416   6.500   6.843
 1001SOL    HW1 3902   4.451   6.439   6.772
 1001SOL    HW2 3903   4.453   6.592   6.828
 1002SOL     OW 3904   5.792   1.669   6.623
 1002SOL    HW1 3905   5.820   1.751   6.673
 1002SOL    HW2 3906   5.808   1.588   6.680
 1003SOL     OW 3907   2.285   6.472   2.853
 1003SOL    HW1 3908   2.280   6.474   2.754
 1003SOL    HW2 3909   2.316   6.381   2.883
 1004SOL     OW 3910   6.864   0.042   6.914
 1004SOL    HW1 3911   6.951   0.035   6.962
 1004SOL    HW2 3912   6.813   0.122   6.948
 1005SOL     OW 3913   0.033   0.151   2.514
 1005SOL    HW1 3914   6.965   0.128   2.510
 1005SOL    HW2 3915   0.069   0.158   2.421
 1006SOL     OW 3916   2.350   5.387   1.717
 1006SOL    HW1 3917   2.341   5.343   1.627
 1006SOL    HW2 3918   2.384   5.321   1.783
 1007SOL     OW 3919   6.462   0.810   3.767
 1007SOL    HW1 3920   6.525   0.866   3.713
 1007SOL    HW2 3921   6.370   0.850   3.763
 1008SOL     OW 3922   0.773   2.623   3.849
 1008SOL    HW1 3923   0.784   2.678   3.765
 1008SOL    HW2 3924   0.862   2.592   3.881
 1009SOL     OW 3925   6.640   5.639   3.784
 1009SOL    HW1 3926   6.567   5.661   3.849
 1009SOL    HW2 3927   6.707   5.580   3.828
 1010SOL     OW 3928   4.042   2.029   0.022
 1010SOL    HW1 3929   3.942   2.036   0.022
 1010SOL    HW2 3930   4.069   1.933   0.028
 1011SOL     OW 3931   3.080   5.647   4.307
 1011SOL    HW1 3932   3.135   5.566   4.287
 1011SOL    HW2 3933   2.983   5.627   4.293
 1012SOL     OW 3934   6.662   5.323   0.789
 1012SOL    HW1 3935   6.605   5.405   0.787
 1012SOL    HW2 3936   6.743   5.340   0.846
 1013SOL     OW 3937   0.537   1.139   6.662
 1013SOL    HW1 3938   0.506   1.141   6.566
 1013SOL    HW2 3939   0.635   1.158   6.665
 1014SOL     OW 3940   4.991   5.407   6.164
 1014SOL    HW1 3941   4.980   5.311   6.140
 1014SOL    HW2 3942   5.065   5.417   6.230
 1015SOL     OW 3943   4.175   6.760   4.846
 1015SOL    HW1 3944   4.216   6.676   4.812
 1015SOL    HW2 3945   4.107   6.793   4.781
 1016SOL     OW 3946   2.864   3.008   1.256
 1016SOL    HW1 3947   2.881   2.910   1.249
 1016SOL    HW2 3948   2.772   3.029   1.222
 1017SOL     OW 3949   5.135   2.464   1.006
 1017SOL    HW1 3950   5.159   2.367   0.998
 1017SOL    HW2 3951   5.218   2.519   0.997
 1018SOL     OW 3952   1.729   3.103   4.230
 1018SOL    HW1 3953   1.822   3.097   4.266
 1018SOL    HW2 3954   1.715   3.030   4.164
 1019SOL     OW 3955   0.381   1.146   0.132
 1019SOL    HW1 3956   0.296   1.175   0.175
 1019SOL    HW2 3957   0.371   1.053   0.099
 1020SOL     OW 3958   1.522   0.221   0.580
 1020SOL    HW1 3959   1.451   0.152   0.596
 1020SOL    HW2 3960   1.612   0.178   0.586
 1021SOL     OW 3961   6.269   1.439   2.251
 1021SOL    HW1 3962   6.250   1.417   2.156
 1021SOL    HW2 3963   6.353   1.494   2.257
 1022SOL     OW 3964   4.341   4.235   6.138
 1022SOL    HW1 3965   4.426   4.288   6.138
 1022SOL    HW2 3966   4.283   4.265   6.214
 1023SOL     OW 3967   5.742   6.927   1.932
 1023SOL    HW1 3968   5.804   6.879   1.996
 1023SOL    HW2 3969   5.648   6.918   1.965
 1024SOL     OW 3970   6.579   2.304   4.094
 1024SOL    HW1 3971   6.548   2.337   4.005
 1024SOL    HW2 3972   6.679   2.299   4.096
 1025SOL     OW 3973   3.776   4.530   0.101
 1025SOL    HW1 3974   3.844   4.570   0.163
 1025SOL    HW2 3975   3.823   4.479   0.029
 1026SOL     OW 3976   1.584   1.257   0.767
 1026SOL    HW1 3977   1.645   1.272   0.845
 1026SOL    HW2 3978   1.611   1.174   0.719
 1027SOL     OW 3979   3.176   5.702   1.329
 1027SOL    HW1 3980   3.143   5.730   1.239
 1027SOL    HW2 3981   3.111   5.733   1.399
 1028SOL     OW 3982   2.301   6.043   0.243
 1028SOL    HW1 3983   2.384   6.037   0.297
 1028SOL    HW2 3984   2.323   6.030   0.146
 1029SOL     OW 3985   2.047   0.482   0.214
 1029SOL    HW1 3986   1.974   0.511   0.153
 1029SOL    HW2 3987   2.016   0.489   0.309
 1030SOL     OW 3988   3.635   3.016   4.417
 1030SOL    HW1 3989   3.631   2.940   4.482
 1030SOL    HW2 3990   3.564   3.004   4.347
 1031SOL     OW 3991   3.449   5.415   1.914
 1031SOL    HW1 3992   3.431   5.455   1.824
 1031SOL    HW2 3993   3.547   5.413   1.931
 1032SOL     OW 3994   2.099   1.437   5.570
 1032SOL    HW1 3995   2.125   1.361   5.511
 1032SOL    HW2 3996   2.173   1.505   5.572
 1033SOL     OW 3997   2.022   5.871   1.452
 1033SOL    HW1 3998   2.058   5.910   1.536
 1033SOL    HW2 3999   1.989   5.945   1.392
 1034SOL     OW 4000   1.908   6.248   4.178
 1034SOL    HW1 4001   1.889   6.195   4.096
 1034SOL    HW2 4002   1.855   6.333   4.177
 1035SOL     OW 4003   2.733   1.819   3.948
 1035SOL    HW1 4004   2.795   1.794   3.873
 1035SOL    HW2 4005   2.704   1.914   3.937
 1036SOL     OW 4006   3.932   1.112   0.953
 1036SOL    HW1 4007   3.873   1.053   1.007
 1036SOL    HW2 4008   4.028   1.095   0.978
 1037SOL     OW 4009   0.783   0.825   0.583
 1037SOL    HW1 4010   0.791   0.741   0.529
 1037SOL    HW2 4011   0.700   0.873   0.557
 1038SOL     OW 4012   0.705   1.393   5.688
 1038SOL    HW1 4013   0.762   1.474   5.703
 1038SOL    HW2 4014   0.758   1.322   5.643
 1039SOL     OW 4015   4.325   1.793   4.818
 1039SOL    HW1 4016   4.241   1.774   4.868
 1039SOL    HW2 4017   4.388   1.716   4.829
 1040SOL     OW 4018   5.755   3.481   3.375
 1040SOL    HW1 4019   5.678   3.462   3.436
 1040SOL    HW2 4020   5.751   3.420   3.296
 1041SOL     OW 4021   6.470   0.349   4.018
 1041SOL    HW1 4022   6.529   0.401   4.079
 1041SOL    HW2 4023   6.430   0.410   3.950
 1042SOL     OW 4024   4.714   4.945   1.970
 1042SOL    HW1 4025   4.711   4.939   2.070
 1042SOL    HW2 4026   4.635   4.998   1.938
 1043SOL     OW 4027   3.742   1.268   6.372
 1043SOL    HW1 4028   3.684   1.205   6.422
 1043SOL    HW2 4029   3.687   1.317   6.304
 1044SOL     OW 4030   3.372   2.331   1.230
 1044SOL    HW1 4031   3.406   2.345   1.323
 1044SOL    HW2 4032   3.360   2.420   1.186
 1045SOL     OW 4033   2.916   0.764   1.675
 1045SOL    HW1 4034   2.890   0.785   1.769
 1045SOL    HW2 4035   2.855   0.813   1.612
 1046SOL     OW 4036   2.484   6.670   6.923
 1046SOL    HW1 4037   2.426   6.590   6.909
 1046SOL    HW2 4038   2.430   6.744   6.962
 1047SOL     OW 4039   1.438   5.291   2.688
 1047SOL    HW1 4040   1.531   5.308   2.655
 1047SOL    HW2 4041   1.374   5.304   2.613
 1048SOL     OW 4042   5.293   5.408   5.378
 1048SOL    HW1 4043   5.203   5.395   5.337
 1048SOL    HW2 4044   5.316   5.327   5.432
 1049SOL     OW 4045   0.255   3.874   5.186
 1049SOL    HW1 4046   0.297   3.788   5.214
 1049SOL    HW2 4047   0.305   3.912   5.108
 1050SOL     OW 4048   3.737   6.673   0.524
 1050SOL    HW1 4049   3.781   6.649   0.437
 1050SOL    HW2 4050   3.671   6.746   0.508
 1051SOL     OW 4051   3.948   4.869   0.035
 1051SOL    HW1 4052   3.946   4.837   6.970
 1051SOL    HW2 4053   3.939   4.792   0.097
 1052SOL     OW 4054   3.831   0.547   4.665
 1052SOL    HW1 4055   3.753   0.494   4.699
 1052SOL    HW2 4056   3.811   0.645   4.674
 1053SOL     OW 4057   5.233   5.895   3.518
 1053SOL    HW1 4058   5.163   5.832   3.552
 1053SOL    HW2 4059   5.324   5.859   3.541
 1054SOL     OW 4060   2.656   4.922   5.659
 1054SOL    HW1 4061   2.560   4.894   5.656
 1054SOL    HW2 4062   2.712   4.846   5.691
 1055SOL     OW 4063   5.566   5.344   4.614
 1055SOL    HW1 4064   5.467   5.346   4.629
 1055SOL    HW2 4065   5.605   5.432   4.640
 1056SOL     OW 4066   1.602   6.652   5.220
 1056SOL    HW1 4067   1.554   6.739   5.218
 1056SOL    HW2 4068   1.547   6.582   5.175
 1057SOL     OW 4069   3.223   3.653   3.096
 1057SOL    HW1 4070   3.222   3.605   3.184
 1057SOL    HW2 4071   3.217   3.587   3.022
 1058SOL     OW 4072   4.305   1.638   2.001
 1058SOL    HW1 4073   4.348   1.579   1.933
 1058SOL    HW2 4074   4.209   1.614   2.012
 1059SOL     OW 4075   3.665   0.540   1.867
 1059SOL    HW1 4076   3.702   0.554   1.960
 1059SOL    HW2 4077   3.621   0.624   1.835
 1060SOL     OW 4078   0.481   3.758   5.954
 1060SOL    HW1 4079   0.421   3.753   6.034
 1060SOL    HW2 4080   0.499   3.854   5.932
 1061SOL     OW 4081   3.583   4.532   1.406
 1061SOL    HW1 4082   3.564   4.436   1.385
 1061SOL    HW2 4083   3.497   4.584   1.403
 1062SOL     OW 4084   6.941   5.574   5.322
 1062SOL    HW1 4085   6.941   5.659   5.269
 1062SOL    HW2 4086   0.006   5.546   5.339
 1063SOL     OW 4087   1.050   3.416   1.317
 1063SOL    HW1 4088   1.133   3.363   1.302
 1063SOL    HW2 4089   1.024   3.462   1.232
 1064SOL     OW 4090   1.682   3.247   2.446
 1064SOL    HW1 4091   1.661   3.344   2.459
 1064SOL    HW2 4092   1.666   3.222   2.350
 1065SOL     OW 4093   5.510   0.164   3.954
 1065SOL    HW1 4094   5.549   0.248   3.994
 1065SOL    HW2 4095   5.546   0.085   4.002
 1066SOL     OW 4096   5.103   0.229   4.549
 1066SOL    HW1 4097   5.062   0.138   4.560
 1066SOL    HW2 4098   5.111   0.250   4.451
 1067SOL     OW 4099   1.518   2.519   1.183
 1067SOL    HW1 4100   1.584   2.459   1.228
 1067SOL    HW2 4101   1.532   2.614   1.214
 1068SOL     OW 4102   0.474   4.079   2.110
 1068SOL    HW1 4103   0.423   4.029   2.040
 1068SOL    HW2 4104   0.414   4.143   2.157
 1069SOL     OW 4105   4.447   4.157   0.843
 1069SOL    HW1 4106   4.508   4.100   0.788
 1069SOL    HW2 4107   4.497   4.234   0.881
 1070SOL     OW 4108   2.185   0.897   0.148
 1070SOL    HW1 4109   2.108   0.922   0.089
 1070SOL    HW2 4110   2.191   0.962   0.224
 1071SOL     OW 4111   4.111   0.136   2.900
 1071SOL    HW1 4112   4.088   0.166   2.993
 1071SOL    HW2 4113   4.030   0.143   2.842
 1072SOL     OW 4114   2.859   6.446   2.471
 1072SOL    HW1 4115   2.940   6.402   2.511
 1072SOL    HW2 4116   2.848   6.414   2.377
 1073SOL     OW 4117   3.370   4.991   2.319
 1073SOL    HW1 4118   3.320   5.077   2.321
 1073SOL    HW2 4119   3.453   5.001   2.264
 1074SOL     OW 4120   1.521   5.602   1.923
 1074SOL    HW1 4121   1.606   5.654   1.917
 1074SOL    HW2 4122   1.543   5.506   1.943
 1075SOL     OW 4123   5.125   4.836   3.323
 1075SOL    HW1 4124   5.102   4.759   3.264
 1075SOL    HW2 4125   5.100   4.814   3.418
 1076SOL     OW 4126   1.032   4.527   4.717
 1076SOL    HW1 4127   1.097   4.514   4.792
 1076SOL    HW2 4128   0.939   4.514   4.750
 1077SOL     OW 4129   5.763   6.794   0.565
 1077SOL    HW1 4130   5.782   6.712   0.618
 1077SOL    HW2 4131   5.773   6.875   0.622
 1078SOL     OW 4132   1.503   1.412   2.287
 1078SOL    HW1 4133   1.483   1.342   2.356
 1078SOL    HW2 4134   1.470   1.381   2.198
 1079SOL     OW 4135   2.750   5.826   3.630
 1079SOL    HW1 4136   2.768   5.734   3.667
 1079SOL    HW2 4137   2.681   5.819   3.559
 1080SOL     OW 4138   2.825   5.588   3.750
 1080SOL    HW1 4139   2.822   5.549   3.842
 1080SOL    HW2 4140   2.821   5.515   3.682
 1081SOL     OW 4141   1.322   1.419   5.814
 1081SOL    HW1 4142   1.231   1.378   5.810
 1081SOL    HW2 4143   1.333   1.482   5.737
 1082SOL     OW 4144   1.466   0.123   5.546
 1082SOL    HW1 4145   1.401   0.142   5.619
 1082SOL    HW2 4146   1.530   0.052   5.576
 1083SOL     OW 4147   3.298   3.501   2.189
 1083SOL    HW1 4148   3.250   3.588   2.183
 1083SOL    HW2 4149   3.390   3.516   2.227
 1084SOL     OW 4150   6.194   5.343   1.047
 1084SOL    HW1 4151   6.142   5.305   1.123
 1084SOL    HW2 4152   6.281   5.295   1.037
 1085SOL     OW 4153   2.363   4.865   4.275
 1085SOL    HW1 4154   2.347   4.771   4.243
 1085SOL    HW2 4155   2.404   4.918   4.201
 1086SOL     OW 4156   5.658   5.675   3.534
 1086SOL    HW1 4157   5.726   5.745   3.558
 1086SOL    HW2 4158   5.696   5.614   3.465
 1087SOL     OW 4159   5.157   3.012   5.070
 1087SOL    HW1 4160   5.239   2.969   5.030
 1087SOL    HW2 4161   5.184   3.097   5.115
 1088SOL     OW 4162   4.779   4.223   3.206
 1088SOL    HW1 4163   4.876   4.239   3.190
 1088SOL    HW2 4164   4.726   4.264   3.131
 1089SOL     OW 4165   0.099   0.462   4.849
 1089SOL    HW1 4166   0.131   0.472   4.943
 1089SOL    HW2 4167   0.033   0.534   4.828
 1090SOL     OW 4168   2.382   1.369   5.272
 1090SOL    HW1 4169   2.347   1.359   5.179
 1090SOL    HW2 4170   2.440   1.450   5.278
 1091SOL     OW 4171   1.523   1.876   4.044
 1091SOL    HW1 4172   1.520   1.898   3.947
 1091SOL    HW2 4173   1.607   1.827   4.065
 1092SOL     OW 4174   2.251   4.157   1.162
 1092SOL    HW1 4175   2.184   4.084   1.148
 1092SOL    HW2 4176   2.338   4.131   1.120
 1093SOL     OW 4177   1.613   2.461   2.111
 1093SOL    HW1 4178   1.538   2.500   2.163
 1093SOL    HW2 4179   1.688   2.527   2.105
 1094SOL     OW 4180   0.351   6.753   1.666
 1094SOL    HW1 4181   0.294   6.704   1.600
 1094SOL    HW2 4182   0.357   6.849   1.640
 1095SOL     OW 4183   5.956   2.760   6.527
 1095SOL    HW1 4184   5.930   2.841   6.580
 1095SOL    HW2 4185   5.875   2.703   6.510
 1096SOL     OW 4186   3.539   5.147   1.177
 1096SOL    HW1 4187   3.592   5.200   1.110
 1096SOL    HW2 4188   3.564   5.051   1.171
 1097SOL     OW 4189   1.849   5.238   5.042
 1097SOL    HW1 4190   1.927   5.299   5.056
 1097SOL    HW2 4191   1.860   5.156   5.098
 1098SOL     OW 4192   5.271   2.225   0.962
 1098SOL    HW1 4193   5.219   2.144   0.989
 1098SOL    HW2 4194   5.317   2.263   1.043
 1099SOL     OW 4195   4.033   2.238   4.257
 1099SOL    HW1 4196   4.075   2.244   4.167
 1099SOL    HW2 4197   4.094   2.280   4.325
 1100SOL     OW 4198   0.895   1.468   6.246
 1100SOL    HW1 4199   0.974   1.529   6.246
 1100SOL    HW2 4200   0.829   1.500   6.315
 1101SOL     OW 4201   5.314   3.123   1.175
 1101SOL    HW1 4202   5.311   3.183   1.095
 1101SOL    HW2 4203   5.242   3.148   1.239
 1102SOL     OW 4204   0.554   4.611   3.750
 1102SOL    HW1 4205   0.619   4.648   3.816
 1102SOL    HW2 4206   0.462   4.644   3.772
 1103SOL     OW 4207   1.608   1.594   1.969
 1103SOL    HW1 4208   1.673   1.661   2.006
 1103SOL    HW2 4209   1.616   1.508   2.020
 1104SOL     OW 4210   2.417   4.665   6.315
 1104SOL    HW1 4211   2.451   4.571   6.322
 1104SOL    HW2 4212   2.387   4.695   6.406
 1105SOL     OW 4213   4.940   4.076   0.074
 1105SOL    HW1 4214   4.930   4.173   0.054
 1105SOL    HW2 4215   4.993   4.065   0.158
 1106SOL     OW 4216   6.773   2.466   6.136
 1106SOL    HW1 4217   6.680   2.442   6.110
 1106SOL    HW2 4218   6.810   2.397   6.198
 1107SOL     OW 4219   0.814   7.017   6.984
 1107SOL    HW1 4220   0.870   0.069   6.978
 1107SOL    HW2 4221   0.817   6.968   6.896
 1108SOL     OW 4222   2.470   0.994   6.000
 1108SOL    HW1 4223   2.420   0.981   6.086
 1108SOL    HW2 4224   2.562   0.955   6.009
 1109SOL     OW 4225   4.178   6.097   4.408
 1109SOL    HW1 4226   4.182   6.000   4.383
 1109SOL    HW2 4227   4.106   6.110   4.477
 1110SOL     OW 4228   2.568   2.696   1.508
 1110SOL    HW1 4229   2.542   2.792   1.516
 1110SOL    HW2 4230   2.596   2.661   1.597
 1111SOL     OW 4231   5.578   6.967   7.027
 1111SOL    HW1 4232   5.586   6.951   0.096
 1111SOL    HW2 4233   5.574   6.879   6.979
 1112SOL     OW 4234   6.361   0.519   2.465
 1112SOL    HW1 4235   6.396   0.494   2.556
 1112SOL    HW2 4236   6.330   0.436   2.418
 1113SOL     OW 4237   6.698   3.322   2.676
 1113SOL    HW1 4238   6.718   3.299   2.580
 1113SOL    HW2 4239   6.634   3.399   2.678
 1114SOL     OW 4240   5.139   0.638   6.373
 1114SOL    HW1 4241   5.160   0.618   6.278
 1114SOL    HW2 4242   5.049   0.601   6.396
 1115SOL     OW 4243   4.048   2.635   0.352
 1115SOL    HW1 4244   4.056   2.615   0.254
 1115SOL    HW2 4245   4.048   2.734   0.365
 1116SOL     OW 4246   5.024   5.784   3.690
 1116SOL    HW1 4247   5.109   5.757   3.735
 1116SOL    HW2 4248   4.963   5.704   3.685
 1117SOL     OW 4249   2.329   2.617   1.725
 1117SOL    HW1 4250   2.324   2.716   1.711
 1117SOL    HW2 4251   2.422   2.591   1.751
 1118SOL     OW 4252   2.054   5.273   2.594
 1118SOL    HW1 4253   2.022   5.365   2.573
 1118SOL    HW2 4254   2.153   5.274   2.608
 1119SOL     OW 4255   4.282   4.157   1.637
 1119SOL    HW1 4256   4.326   4.201   1.714
 1119SOL    HW2 4257   4.281   4.058   1.651
 1120SOL     OW 4258   5.480   0.046   6.679
 1120SOL    HW1 4259   5.412   0.078   6.744
 1120SOL    HW2 4260   5.483   6.976   6.680
 1121SOL     OW 4261   5.205   2.348   1.901
 1121SOL    HW1 4262   5.193   2.425   1.839
 1121SOL    HW2 4263   5.142   2.274   1.875
 1122SOL     OW 4264   5.863   2.976   6.674
 1122SOL    HW1 4265   5.854   2.952   6.770
 1122SOL    HW2 4266   5.790   3.041   6.649
 1123SOL     OW 4267   4.746   1.209   1.765
 1123SOL    HW1 4268   4.776   1.204   1.861
 1123SOL    HW2 4269   4.654   1.250   1.761
 1124SOL     OW 4270   6.847   3.564   5.429
 1124SOL    HW1 4271   6.891   3.530   5.347
 1124SOL    HW2 4272   6.913   3.566   5.504
 1125SOL     OW 4273   2.990   2.875   5.391
 1125SOL    HW1 4274   2.958   2.782   5.373
 1125SOL    HW2 4275   2.921   2.941   5.362
 1126SOL     OW 4276   4.323   0.170   0.370
 1126SOL    HW1 4277   4.362   0.258   0.344
 1126SOL    HW2 4278   4.392   0.114   0.416
 1127SOL     OW 4279   2.813   4.819   0.206
 1127SOL    HW1 4280   2.752   4.898   0.210
 1127SOL    HW2 4281   2.862   4.818   0.118
 1128SOL     OW 4282   4.214   2.294   3.721
 1128SOL    HW1 4283   4.189   2.299   3.624
 1128SOL    HW2 4284   4.257   2.205   3.739
 1129SOL     OW 4285   4.592   0.618   0.483
 1129SOL    HW1 4286   4.612   0.686   0.412
 1129SOL    HW2 4287   4.509   0.644   0.532
 1130SOL     OW 4288   1.854   4.049   0.868
 1130SOL    HW1 4289   1.888   3.984   0.935
 1130SOL    HW2 4290   1.784   4.006   0.811
 1131SOL     OW 4291   6.990   5.898   5.520
 1131SOL    HW1 4292   6.922   5.909   5.447
 1131SOL    HW2 4293   0.041   5.952   5.498
 1132SOL     OW 4294   5.004   6.850   5.749
 1132SOL    HW1 4295   4.963   6.880   5.835
 1132SOL    HW2 4296   5.064   6.921   5.713
 1133SOL     OW 4297   0.642   2.533   1.430
 1133SOL    HW1 4298   0.705   2.455   1.434
 1133SOL    HW2 4299   0.657   2.584   1.345
 1134SOL     OW 4300   5.555   2.458   6.939
 1134SOL    HW1 4301   5.604   2.426   7.020
 1134SOL    HW2 4302   5.507   2.543   6.960
 1135SOL     OW 4303   3.010   2.150   3.317
 1135SOL    HW1 4304   2.953   2.231   3.331
 1135SOL    HW2 4305   2.974   2.098   3.239
 1136SOL     OW 4306   2.549   5.389   3.566
 1136SOL    HW1 4307   2.508   5.480   3.564
 1136SOL    HW2 4308   2.525   5.343   3.652
 1137SOL     OW 4309   1.124   1.895   6.481
 1137SOL    HW1 4310   1.043   1.842   6.508
 1137SOL    HW2 4311   1.202   1.868   6.538
 1138SOL     OW 4312   2.364   3.454   5.909
 1138SOL    HW1 4313   2.374   3.553   5.918
 1138SOL    HW2 4314   2.446   3.416   5.866
 1139SOL     OW 4315   0.987   6.321   2.837
 1139SOL    HW1 4316   0.917   6.371   2.786
 1139SOL    HW2 4317   1.073   6.372   2.836
 1140SOL     OW 4318   3.422   1.858   3.326
 1140SOL    HW1 4319   3.446   1.950   3.356
 1140SOL    HW2 4320   3.389   1.861   3.231
 1141SOL     OW 4321   5.653   5.540   5.935
 1141SOL    HW1 4322   5.689   5.453   5.901
 1141SOL    HW2 4323   5.711   5.615   5.904
 1142SOL     OW 4324   5.093   0.503   4.205
 1142SOL    HW1 4325   5.071   0.407   4.192
 1142SOL    HW2 4326   5.034   0.559   4.145
 1143SOL     OW 4327   4.319   2.311   2.620
 1143SOL    HW1 4328   4.277   2.305   2.529
 1143SOL    HW2 4329   4.253   2.282   2.689
 1144SOL     OW 4330   0.229   4.248   4.067
 1144SOL    HW1 4331   0.194   4.264   3.975
 1144SOL    HW2 4332   0.229   4.334   4.118
 1145SOL     OW 4333   6.572   5.433   4.039
 1145SOL    HW1 4334   6.553   5.343   4.080
 1145SOL    HW2 4335   6.563   5.503   4.109
 1146SOL     OW 4336   6.216   2.272   0.941
 1146SOL    HW1 4337   6.280   2.261   1.018
 1146SOL    HW2 4338   6.127   2.235   0.967
 1147SOL     OW 4339   0.938   3.520   2.079
 1147SOL    HW1 4340   0.940   3.529   2.179
 1147SOL    HW2 4341   0.859   3.467   2.052
 1148SOL     OW 4342   3.522   6.191   6.144
 1148SOL    HW1 4343   3.598   6.254   6.159
 1148SOL    HW2 4344   3.551   6.098   6.162
 1149SOL     OW 4345   6.252   3.500   2.844
 1149SOL    HW1 4346   6.302   3.550   2.915
 1149SOL    HW2 4347   6.221   3.565   2.774
 1150SOL     OW 4348   2.262   4.904   1.098
 1150SOL    HW1 4349   2.274   4.810   1.068
 1150SOL    HW2 4350   2.276   4.910   1.197
 1151SOL     OW 4351   5.723   5.553   6.624
 1151SOL    HW1 4352   5.728   5.612   6.543
 1151SOL    HW2 4353   5.680   5.604   6.699
 1152SOL     OW 4354   0.843   0.090   4.870
 1152SOL    HW1 4355   0.891   0.178   4.862
 1152SOL    HW2 4356   0.881   0.039   4.947
 1153SOL     OW 4357   2.258   6.077   2.797
 1153SOL    HW1 4358   2.344   6.084   2.849
 1153SOL    HW2 4359   2.181   6.094   2.858
 1154SOL     OW 4360   0.772   4.111   2.123
 1154SOL    HW1 4361   0.672   4.108   2.120
 1154SOL    HW2 4362   0.803   4.067   2.207
 1155SOL     OW 4363   3.257   5.991   0.697
 1155SOL    HW1 4364   3.281   5.944   0.613
 1155SOL    HW2 4365   3.336   5.995   0.758
 1156SOL     OW 4366   2.443   0.568   3.738
 1156SOL    HW1 4367   2.422   0.568   3.836
 1156SOL    HW2 4368   2.466   0.661   3.709
 1157SOL     OW 4369   6.896   2.369   4.733
 1157SOL    HW1 4370   6.862   2.312   4.658
 1157SOL    HW2 4371   6.996   2.364   4.737
 1158SOL     OW 4372   5.652   4.545   6.281
 1158SOL    HW1 4373   5.659   4.455   6.238
 1158SOL    HW2 4374   5.647   4.534   6.381
 1159SOL     OW 4375   3.417   6.082   2.720
 1159SOL    HW1 4376   3.318   6.101   2.721
 1159SOL    HW2 4377   3.446   6.070   2.625
 1160SOL     OW 4378   3.930   4.002   2.095
 1160SOL    HW1 4379   4.003   3.946   2.135
 1160SOL    HW2 4380   3.963   4.096   2.084
 1161SOL     OW 4381   5.630   0.410   4.431
 1161SOL    HW1 4382   5.616   0.399   4.332
 1161SOL    HW2 4383   5.717   0.369   4.457
 1162SOL     OW 4384   3.109   3.291   1.518
 1162SOL    HW1 4385   3.104   3.391   1.522
 1162SOL    HW2 4386   3.025   3.255   1.477
 1163SOL     OW 4387   4.972   2.056   1.556
 1163SOL    HW1 4388   4.969   2.033   1.459
 1163SOL    HW2 4389   5.027   1.987   1.604
 1164SOL     OW 4390   5.420   3.365   2.820
 1164SOL    HW1 4391   5.326   3.358   2.854
 1164SOL    HW2 4392   5.475   3.292   2.860
 1165SOL     OW 4393   0.930   3.330   3.611
 1165SOL    HW1 4394   0.946   3.281   3.696
 1165SOL    HW2 4395   0.911   3.264   3.538
 1166SOL     OW 4396   4.274   2.177   6.586
 1166SOL    HW1 4397   4.241   2.112   6.655
 1166SOL    HW2 4398   4.371   2.197   6.604
 1167SOL     OW 4399   3.770   0.918   5.371
 1167SOL    HW1 4400   3.670   0.913   5.376
 1167SOL    HW2 4401   3.803   0.850   5.306
 1168SOL     OW 4402   6.709   6.263   3.021
 1168SOL    HW1 4403   6.714   6.198   3.097
 1168SOL    HW2 4404   6.732   6.355   3.054
 1169SOL     OW 4405   0.265   3.201   1.247
 1169SOL    HW1 4406   0.332   3.253   1.298
 1169SOL    HW2 4407   0.310   3.154   1.171
 1170SOL     OW 4408   3.943   1.370   3.120
 1170SOL    HW1 4409   4.034   1.327   3.119
 1170SOL    HW2 4410   3.896   1.346   3.205
 1171SOL     OW 4411   2.983   6.273   1.258
 1171SOL    HW1 4412   3.058   6.308   1.314
 1171SOL    HW2 4413   2.940   6.349   1.210
 1172SOL     OW 4414   4.055   3.755   4.216
 1172SOL    HW1 4415   4.125   3.713   4.160
 1172SOL    HW2 4416   3.969   3.759   4.165
 1173SOL     OW 4417   3.215   0.491   5.815
 1173SOL    HW1 4418   3.248   0.570   5.763
 1173SOL    HW2 4419   3.134   0.452   5.770
 1174SOL     OW 4420   2.592   5.660   0.786
 1174SOL    HW1 4421   2.502   5.665   0.741
 1174SOL    HW2 4422   2.617   5.750   0.822
 1175SOL     OW 4423   5.710   4.508   6.791
 1175SOL    HW1 4424   5.800   4.548   6.777
 1175SOL    HW2 4425   5.706   4.465   6.881
 1176SOL     OW 4426   5.338   4.902   1.039
 1176SOL    HW1 4427   5.373   4.996   1.037
 1176SOL    HW2 4428   5.295   4.884   1.127
 1177SOL     OW 4429   6.696   3.213   5.511
 1177SOL    HW1 4430   6.649   3.152   5.448
 1177SOL    HW2 4431   6.795   3.208   5.495
 1178SOL     OW 4432   5.409   3.572   2.368
 1178SOL    HW1 4433   5.415   3.666   2.337
 1178SOL    HW2 4434   5.394   3.512   2.289
 1179SOL     OW 4435   1.850   3.561   0.807
 1179SOL    HW1 4436   1.912   3.541   0.882
 1179SOL    HW2 4437   1.823   3.476   0.762
 1180SOL     OW 4438   2.176   1.387   3.558
 1180SOL    HW1 4439   2.184   1.325   3.480
 1180SOL    HW2 4440   2.252   1.370   3.621
 1181SOL     OW 4441   1.446   4.726   4.081
 1181SOL    HW1 4442   1.506   4.715   4.160
 1181SOL    HW2 4443   1.398   4.640   4.064
 1182SOL     OW 4444   2.109   4.185   3.964
 1182SOL    HW1 4445   2.139   4.266   3.913
 1182SOL    HW2 4446   2.158   4.180   4.051
 1183SOL     OW 4447   4.267   5.782   1.502
 1183SOL    HW1 4448   4.353   5.825   1.473
 1183SOL    HW2 4449   4.266   5.687   1.474
 1184SOL     OW 4450   3.237   2.872   5.254
 1184SOL    HW1 4451   3.184   2.932   5.314
 1184SOL    HW2 4452   3.237   2.908   5.161
 1185SOL     OW 4453   2.393   7.014   0.303
 1185SOL    HW1 4454   2.435   0.069   0.270
 1185SOL    HW2 4455   2.449   6.936   0.273
 1186SOL     OW 4456   6.036   0.322   4.927
 1186SOL    HW1 4457   5.964   0.350   4.990
 1186SOL    HW2 4458   6.004   0.244   4.874
 1187SOL     OW 4459   5.760   6.379   4.639
 1187SOL    HW1 4460   5.804   6.289   4.640
 1187SOL    HW2 4461   5.830   6.449   4.619
 1188SOL     OW 4462   2.280   6.662   6.052
 1188SOL    HW1 4463   2.284   6.579   6.107
 1188SOL    HW2 4464   2.362   6.718   6.069
 1189SOL     OW 4465   5.597   1.288   1.406
 1189SOL    HW1 4466   5.617   1.233   1.325
 1189SOL    HW2 4467   5.661   1.364   1.411
 1190SOL     OW 4468   3.858   5.468   3.675
 1190SOL    HW1 4469   3.759   5.462   3.691
 1190SOL    HW2 4470   3.877   5.461   3.577
 1191SOL     OW 4471   2.945   5.343   5.983
 1191SOL    HW1 4472   2.957   5.355   5.884
 1191SOL    HW2 4473   2.969   5.249   6.008
 1192SOL     OW 4474   5.990   4.694   3.028
 1192SOL    HW1 4475   6.010   4.661   3.120
 1192SOL    HW2 4476   6.058   4.657   2.964
 1193SOL     OW 4477   4.929   0.012   4.583
 1193SOL    HW1 4478   4.942   6.971   4.514
 1193SOL    HW2 4479   4.914   6.999   4.672
 1194SOL     OW 4480   6.219   0.211   0.800
 1194SOL    HW1 4481   6.263   0.294   0.832
 1194SOL    HW2 4482   6.188   0.223   0.706
 1195SOL     OW 4483   6.369   0.972   6.176
 1195SOL    HW1 4484   6.441   0.984   6.108
 1195SOL    HW2 4485   6.384   1.035   6.252
 1196SOL     OW 4486   0.241   4.866   2.804
 1196SOL    HW1 4487   0.266   4.863   2.901
 1196SOL    HW2 4488   0.293   4.796   2.755
 1197SOL     OW 4489   4.137   6.367   5.471
 1197SOL    HW1 4490   4.093   6.289   5.517
 1197SOL    HW2 4491   4.236   6.360   5.484
 1198SOL     OW 4492   3.320   2.102   2.970
 1198SOL    HW1 4493   3.316   2.150   3.058
 1198SOL    HW2 4494   3.254   2.144   2.907
 1199SOL     OW 4495   2.877   3.571   2.087
 1199SOL    HW1 4496   2.924   3.586   2.001
 1199SOL    HW2 4497   2.935   3.601   2.163
 1200SOL     OW 4498   4.532   4.093   5.685
 1200SOL    HW1 4499   4.551   4.146   5.768
 1200SOL    HW2 4500   4.506   4.155   5.611
 1201SOL     OW 4501   1.645   1.402   4.775
 1201SOL    HW1 4502   1.632   1.326   4.839
 1201SOL    HW2 4503   1.566   1.409   4.714
 1202SOL     OW 4504   5.642   0.118   5.511
 1202SOL    HW1 4505   5.687   0.206   5.497
 1202SOL    HW2 4506   5.697   0.062   5.574
 1203SOL     OW 4507   5.484   0.652   1.093
 1203SOL    HW1 4508   5.571   0.645   1.142
 1203SOL    HW2 4509   5.419   0.585   1.130
 1204SOL     OW 4510   3.576   1.443   0.368
 1204SOL    HW1 4511   3.629   1.363   0.396
 1204SOL    HW2 4512   3.481   1.433   0.398
 1205SOL     OW 4513   5.968   2.637   5.843
 1205SOL    HW1 4514   5.958   2.538   5.858
 1205SOL    HW2 4515   6.026   2.676   5.915
 1206SOL     OW 4516   1.832   1.298   4.414
 1206SOL    HW1 4517   1.784   1.238   4.478
 1206SOL    HW2 4518   1.777   1.380   4.398
 1207SOL     OW 4519   6.036   6.789   0.410
 1207SOL    HW1 4520   6.066   6.883   0.393
 1207SOL    HW2 4521   5.957   6.790   0.471
 1208SOL     OW 4522   3.204   3.512   2.848
 1208SOL    HW1 4523   3.110   3.484   2.868
 1208SOL    HW2 4524   3.213   3.534   2.751
 1209SOL     OW 4525   6.118   6.147   5.270
 1209SOL    HW1 4526   6.026   6.145   5.231
 1209SOL    HW2 4527   6.180   6.093   5.212
 1210SOL     OW 4528   3.790   0.216   2.898
 1210SOL    HW1 4529   3.831   0.208   2.807
 1210SOL    HW2 4530   3.804   0.131   2.949
 1211SOL     OW 4531   1.566   3.541   4.333
 1211SOL    HW1 4532   1.527   3.517   4.244
 1211SOL    HW2 4533   1.662   3.564   4.322
 1212SOL     OW 4534   1.378   3.899   5.295
 1212SOL    HW1 4535   1.379   3.883   5.394
 1212SOL    HW2 4536   1.362   3.996   5.277
 1213SOL     OW 4537   7.027   2.715   5.118
 1213SOL    HW1 4538   6.927   2.709   5.110
 1213SOL    HW2 4539   0.037   2.737   5.029
 1214SOL     OW 4540   1.818   3.644   4.843
 1214SOL    HW1 4541   1.813   3.618   4.747
 1214SOL    HW2 4542   1.883   3.585   4.891
 1215SOL     OW 4543   2.663   4.766   2.974
 1215SOL    HW1 4544   2.750   4.768   2.924
 1215SOL    HW2 4545   2.599   4.706   2.926
 1216SOL     OW 4546   1.517   6.701   1.463
 1216SOL    HW1 4547   1.502   6.770   1.393
 1216SOL    HW2 4548   1.465   6.725   1.545
 1217SOL     OW 4549   1.190   6.687   0.104
 1217SOL    HW1 4550   1.127   6.756   0.139
 1217SOL    HW2 4551   1.277   6.731   0.080
 1218SOL     OW 4552   0.676   3.807   4.824
 1218SOL    HW1 4553   0.656   3.863   4.904
 1218SOL    HW2 4554   0.758   3.752   4.841
 1219SOL     OW 4555   4.303   5.543   0.651
 1219SOL    HW1 4556   4.213   5.510   0.679
 1219SOL    HW2 4557   4.345   5.595   0.725
 1220SOL     OW 4558   5.642   2.937   2.376
 1220SOL    HW1 4559   5.734   2.906   2.349
 1220SOL    HW2 4560   5.589   2.959   2.295
 1221SOL     OW 4561   5.781   3.851   0.633
 1221SOL    HW1 4562   5.773   3.822   0.538
 1221SOL    HW2 4563   5.708   3.916   0.654
 1222SOL     OW 4564   6.731   6.463   0.340
 1222SOL    HW1 4565   6.714   6.418   0.427
 1222SOL    HW2 4566   6.780   6.400   0.279
 1223SOL     OW 4567   6.097   6.675   6.556
 1223SOL    HW1 4568   6.149   6.710   6.478
 1223SOL    HW2 4569   6.069   6.751   6.614
 1224SOL     OW 4570   4.125   5.987   0.469
 1224SOL    HW1 4571   4.042   5.932   0.473
 1224SOL    HW2 4572   4.129   6.036   0.383
 1225SOL     OW 4573   4.076   1.908   0.476
 1225SOL    HW1 4574   4.090   1.849   0.555
 1225SOL    HW2 4575   4.093   2.003   0.501
 1226SOL     OW 4576   5.900   6.603   1.190
 1226SOL    HW1 4577   5.909   6.509   1.157
 1226SOL    HW2 4578   5.951   6.613   1.276
 1227SOL     OW 4579   5.491   4.185   5.917
 1227SOL    HW1 4580   5.463   4.127   5.840
 1227SOL    HW2 4581   5.459   4.279   5.902
 1228SOL     OW 4582   3.816   2.909   2.225
 1228SOL    HW1 4583   3.904   2.955   2.219
 1228SOL    HW2 4584   3.782   2.891   2.132
 1229SOL     OW 4585   1.984   6.139   2.442
 1229SOL    HW1 4586   1.932   6.146   2.358
 1229SOL    HW2 4587   1.999   6.043   2.465
 1230SOL     OW 4588   5.185   5.077   2.406
 1230SOL    HW1 4589   5.104   5.073   2.464
 1230SOL    HW2 4590   5.238   5.159   2.428
 1231SOL     OW 4591   1.555   2.183   6.141
 1231SOL    HW1 4592   1.611   2.265   6.141
 1231SOL    HW2 4593   1.554   2.143   6.233
 1232SOL     OW 4594   3.429   0.581   4.953
 1232SOL    HW1 4595   3.371   0.658   4.926
 1232SOL    HW2 4596   3.470   0.540   4.871
 1233SOL     OW 4597   0.899   4.496   3.380
 1233SOL    HW1 4598   0.970   4.427   3.385
 1233SOL    HW2 4599   0.842   4.492   3.462
 1234SOL     OW 4600   6.799   3.496   6.866
 1234SOL    HW1 4601   6.824   3.428   6.798
 1234SOL    HW2 4602   6.731   3.457   6.929
 1235SOL     OW 4603   5.972   4.632   0.466
 1235SOL    HW1 4604   5.948   4.616   0.562
 1235SOL    HW2 4605   6.071   4.639   0.458
 1236SOL     OW 4606   2.776   0.841   0.442
 1236SOL    HW1 4607   2.788   0.898   0.523
 1236SOL    HW2 4608   2.744   0.898   0.366
 1237SOL     OW 4609   1.569   0.327   4.529
 1237SOL    HW1 4610   1.493   0.380   4.567
 1237SOL    HW2 4611   1.599   0.368   4.443
 1238SOL     OW 4612   0.383   0.178   3.438
 1238SOL    HW1 4613   0.456   0.242   3.413
 1238SOL    HW2 4614   0.422   0.087   3.454
 1239SOL     OW 4615   6.184   5.519   4.395
 1239SOL    HW1 4616   6.231   5.491   4.311
 1239SOL    HW2 4617   6.086   5.503   4.385
 1240SOL     OW 4618   5.924   5.513   2.927
 1240SOL    HW1 4619   5.910   5.419   2.897
 1240SOL    HW2 4620   5.896   5.522   3.022
 1241SOL     OW 4621   5.895   5.459   4.385
 1241SOL    HW1 4622   5.814   5.416   4.345
 1241SOL    HW2 4623   5.920   5.410   4.469
 1242SOL     OW 4624   1.515   3.160   0.149
 1242SOL    HW1 4625   1.537   3.064   0.132
 1242SOL    HW2 4626   1.486   3.170   0.245
 1243SOL     OW 4627   1.182   3.959   5.553
 1243SOL    HW1 4628   1.264   3.909   5.580
 1243SOL    HW2 4629   1.101   3.914   5.591
 1244SOL     OW 4630   6.143   6.622   5.087
 1244SOL    HW1 4631   6.195   6.585   5.010
 1244SOL    HW2 4632   6.046   6.613   5.069
 1245SOL     OW 4633   5.022   6.040   0.897
 1245SOL    HW1 4634   5.018   5.996   0.987
 1245SOL    HW2 4635   4.965   6.122   0.898
 1246SOL     OW 4636   4.632   1.579   0.807
 1246SOL    HW1 4637   4.636   1.533   0.719
 1246SOL    HW2 4638   4.572   1.658   0.801
 1247SOL     OW 4639   0.081   6.744   3.675
 1247SOL    HW1 4640   0.176   6.761   3.699
 1247SOL    HW2 4641   0.039   6.828   3.641
 1248SOL     OW 4642   0.021   0.194   4.727
 1248SOL    HW1 4643   0.002   0.288   4.752
 1248SOL    HW2 4644   0.021   0.137   4.809
 1249SOL     OW 4645   0.466   4.777   1.504
 1249SOL    HW1 4646   0.531   4.720   1.554
 1249SOL    HW2 4647   0.515   4.838   1.442
 1250SOL     OW 4648   5.796   3.513   5.592
 1250SOL    HW1 4649   5.793   3.473   5.684
 1250SOL    HW2 4650   5.709   3.560   5.574
 1251SOL     OW 4651   2.594   0.569   2.395
 1251SOL    HW1 4652   2.543   0.648   2.430
 1251SOL    HW2 4653   2.677   0.601   2.350
 1252SOL     OW 4654   2.609   5.599   6.654
 1252SOL    HW1 4655   2.582   5.686   6.696
 1252SOL    HW2 4656   2.634   5.615   6.558
 1253SOL     OW 4657   3.105   0.443   0.711
 1253SOL    HW1 4658   3.103   0.343   0.710
 1253SOL    HW2 4659   3.017   0.479   0.744
 1254SOL     OW 4660   6.518   1.564   2.293
 1254SOL    HW1 4661   6.497   1.661   2.307
 1254SOL    HW2 4662   6.609   1.545   2.329
 1255SOL     OW 4663   5.391   1.944   4.750
 1255SOL    HW1 4664   5.308   1.998   4.745
 1255SOL    HW2 4665   5.448   1.962   4.669
 1256SOL     OW 4666   0.202   6.112   3.968
 1256SOL    HW1 4667   0.168   6.189   3.915
 1256SOL    HW2 4668   0.274   6.143   4.030
 1257SOL     OW 4669   0.139   4.542   3.484
 1257SOL    HW1 4670   0.179   4.472   3.543
 1257SOL    HW2 4671   0.200   4.559   3.406
 1258SOL     OW 4672   2.957   6.280   4.513
 1258SOL    HW1 4673   3.005   6.287   4.426
 1258SOL    HW2 4674   3.023   6.261   4.586
 1259SOL     OW 4675   4.389   0.469   5.199
 1259SOL    HW1 4676   4.352   0.536   5.264
 1259SOL    HW2 4677   4.398   0.381   5.245
 1260SOL     OW 4678   2.211   0.477   2.457
 1260SOL    HW1 4679   2.135   0.533   2.427
 1260SOL    HW2 4680   2.229   0.405   2.389
 1261SOL     OW 4681   0.288   3.856   6.453
 1261SOL    HW1 4682   0.240   3.775   6.487
 1261SOL    HW2 4683   0.298   3.922   6.527
 1262SOL     OW 4684   4.817   5.012   0.880
 1262SOL    HW1 4685   4.882   4.941   0.909
 1262SOL    HW2 4686   4.726   4.989   0.913
 1263SOL     OW 4687   6.714   2.103   0.750
 1263SOL    HW1 4688   6.812   2.087   0.742
 1263SOL    HW2 4689   6.690   2.189   0.705
 1264SOL     OW 4690   0.918   3.721   3.178
 1264SOL    HW1 4691   0.826   3.682   3.176
 1264SOL    HW2 4692   0.979   3.661   3.229
 1265SOL     OW 4693   0.263   3.833   4.391
 1265SOL    HW1 4694   0.197   3.793   4.454
 1265SOL    HW2 4695   0.348   3.780   4.393
 1266SOL     OW 4696   3.102   1.780   5.643
 1266SOL    HW1 4697   3.101   1.706   5.576
 1266SOL    HW2 4698   3.095   1.742   5.735
 1267SOL     OW 4699   0.056   5.492   3.081
 1267SOL    HW1 4700   0.036   5.562   3.150
 1267SOL    HW2 4701   0.058   5.402   3.124
 1268SOL     OW 4702   5.636   2.294   6.741
 1268SOL    HW1 4703   5.594   2.367   6.796
 1268SOL    HW2 4704   5.566   2.254   6.681
 1269SOL     OW 4705   6.816   6.390   4.529
 1269SOL    HW1 4706   6.777   6.479   4.549
 1269SOL    HW2 4707   6.754   6.339   4.470
 1270SOL     OW 4708   2.076   3.871   4.764
 1270SOL    HW1 4709   1.992   3.901   4.720
 1270SOL    HW2 4710   2.083   3.910   4.855
 1271SOL     OW 4711   3.314   1.836   3.071
 1271SOL    HW1 4712   3.218   1.831   3.099
 1271SOL    HW2 4713   3.332   1.924   3.028
 1272SOL     OW 4714   0.199   5.693   0.603
 1272SOL    HW1 4715   0.209   5.788   0.573
 1272SOL    HW2 4716   0.280   5.665   0.653
 1273SOL     OW 4717   3.157   4.709   0.015
 1273SOL    HW1 4718   3.123   4.653   6.969
 1273SOL    HW2 4719   3.092   4.782   0.036
 1274SOL     OW 4720   6.902   2.496   2.021
 1274SOL    HW1 4721   6.854   2.536   2.099
 1274SOL    HW2 4722   6.843   2.428   1.977
 1275SOL     OW 4723   4.394   0.807   4.282
 1275SOL    HW1 4724   4.380   0.748   4.362
 1275SOL    HW2 4725   4.452   0.884   4.307
 1276SOL     OW 4726   6.825   0.741   2.432
 1276SOL    HW1 4727   6.732   0.746   2.469
 1276SOL    HW2 4728   6.854   0.645   2.428
 1277SOL     OW 4729   0.211   1.134   4.566
 1277SOL    HW1 4730   0.162   1.220   4.577
 1277SOL    HW2 4731   0.246   1.127   4.472
 1278SOL     OW 4732   1.486   2.061   5.258
 1278SOL    HW1 4733   1.521   2.152   5.281
 1278SOL    HW2 4734   1.499   2.000   5.336
 1279SOL     OW 4735   2.878   6.601   0.756
 1279SOL    HW1 4736   2.864   6.677   0.820
 1279SOL    HW2 4737   2.921   6.525   0.803
 1280SOL     OW 4738   1.875   0.347   2.610
 1280SOL    HW1 4739   1.847   0.285   2.683
 1280SOL    HW2 4740   1.967   0.323   2.580
 1281SOL     OW 4741   1.198   5.790   3.193
 1281SOL    HW1 4742   1.244   5.727   3.131
 1281SOL    HW2 4743   1.258   5.868   3.213
 1282SOL     OW 4744   0.582   1.216   0.980
 1282SOL    HW1 4745   0.561   1.151   0.907
 1282SOL    HW2 4746   0.523   1.199   1.059
 1283SOL     OW 4747   5.471   3.889   5.941
 1283SOL    HW1 4748   5.459   3.864   6.037
 1283SOL    HW2 4749   5.545   3.833   5.901
 1284SOL     OW 4750   2.704   2.345   1.796
 1284SOL    HW1 4751   2.732   2.253   1.767
 1284SOL    HW2 4752   2.768   2.380   1.863
 1285SOL     OW 4753   5.131   2.903   6.419
 1285SOL    HW1 4754   5.230   2.888   6.426
 1285SOL    HW2 4755   5.111   3.000   6.432
 1286SOL     OW 4756   5.081   4.226   2.071
 1286SOL    HW1 4757   5.006   4.275   2.025
 1286SOL    HW2 4758   5.167   4.272   2.053
 1287SOL     OW 4759   6.087   4.956   6.508
 1287SOL    HW1 4760   6.123   4.951   6.601
 1287SOL    HW2 4761   6.010   4.893   6.498
 1288SOL     OW 4762   0.557   2.859   0.134
 1288SOL    HW1 4763   0.524   2.934   0.077
 1288SOL    HW2 4764   0.654   2.843   0.115
 1289SOL     OW 4765   0.215   6.478   2.096
 1289SOL    HW1 4766   0.264   6.526   2.169
 1289SOL    HW2 4767   0.164   6.402   2.135
 1290SOL     OW 4768   0.508   0.029   6.663
 1290SOL    HW1 4769   0.443   7.026   6.594
 1290SOL    HW2 4770   0.459   0.082   6.733
 1291SOL     OW 4771   2.329   5.263   6.321
 1291SOL    HW1 4772   2.411   5.221   6.280
 1291SOL    HW2 4773   2.344   5.277   6.419
 1292SOL     OW 4774   0.035   4.469   1.605
 1292SOL    HW1 4775   0.050   4.474   1.507
 1292SOL    HW2 4776   0.064   4.554   1.648
 1293SOL     OW 4777   2.340   1.234   6.274
 1293SOL    HW1 4778   2.272   1.199   6.210
 1293SOL    HW2 4779   2.303   1.231   6.367
 1294SOL     OW 4780   0.167   3.431   2.097
 1294SOL    HW1 4781   0.190   3.335   2.111
 1294SOL    HW2 4782   0.183   3.482   2.181
 1295SOL     OW 4783   5.928   3.407   2.522
 1295SOL    HW1 4784   5.935   3.374   2.616
 1295SOL    HW2 4785   5.834   3.433   2.502
 1296SOL     OW 4786   3.069   2.131   6.287
 1296SOL    HW1 4787   3.165   2.116   6.265
 1296SOL    HW2 4788   3.014   2.055   6.250
 1297SOL     OW 4789   5.874   1.685   5.659
 1297SOL    HW1 4790   5.927   1.690   5.744
 1297SOL    HW2 4791   5.788   1.636   5.677
 1298SOL     OW 4792   5.642   3.367   3.642
 1298SOL    HW1 4793   5.608   3.284   3.597
 1298SOL    HW2 4794   5.711   3.342   3.710
 1299SOL     OW 4795   2.003   4.295   3.439
 1299SOL    HW1 4796   2.084   4.344   3.469
 1299SOL    HW2 4797   2.002   4.204   3.479
 1300SOL     OW 4798   3.219   3.510   1.916
 1300SOL    HW1 4799   3.252   3.510   2.010
 1300SOL    HW2 4800   3.144   3.576   1.907
 1301SOL     OW 4801   1.158   6.628   3.625
 1301SOL    HW1 4802   1.116   6.711   3.663
 1301SOL    HW2 4803   1.255   6.643   3.610
 1302SOL     OW 4804   2.287   6.816   4.976
 1302SOL    HW1 4805   2.345   6.869   5.038
 1302SOL    HW2 4806   2.293   6.719   5.000
 1303SOL     OW 4807   3.753   1.313   1.180
 1303SOL    HW1 4808   3.655   1.330   1.179
 1303SOL    HW2 4809   3.785   1.294   1.087
 1304SOL     OW 4810   1.502   0.520   6.146
 1304SOL    HW1 4811   1.557   0.537   6.063
 1304SOL    HW2 4812   1.447   0.437   6.133
 1305SOL     OW 4813   5.363   6.140   5.126
 1305SOL    HW1 4814   5.305   6.152   5.207
 1305SOL    HW2 4815   5.310   6.156   5.043
 1306SOL     OW 4816   1.217   3.612   5.012
 1306SOL    HW1 4817   1.134   3.574   5.053
 1306SOL    HW2 4818   1.275   3.538   4.977
 1307SOL     OW 4819   1.537   3.151   5.023
 1307SOL    HW1 4820   1.551   3.155   4.924
 1307SOL    HW2 4821   1.525   3.056   5.052
 1308SOL     OW 4822   4.459   5.887   4.270
 1308SOL    HW1 4823   4.539   5.845   4.313
 1308SOL    HW2 4824   4.380   5.876   4.330
 1309SOL     OW 4825   5.777   2.940   5.337
 1309SOL    HW1 4826   5.709   2.918   5.407
 1309SOL    HW2 4827   5.731   2.967   5.253
 1310SOL     OW 4828   5.807   3.731   4.706
 1310SOL    HW1 4829   5.728   3.685   4.665
 1310SOL    HW2 4830   5.874   3.662   4.734
 1311SOL     OW 4831   5.895   0.054   4.146
 1311SOL    HW1 4832   5.837   0.013   4.075
 1311SOL    HW2 4833   5.970   0.104   4.102
 1312SOL     OW 4834   0.338   0.981   6.433
 1312SOL    HW1 4835   0.309   0.891   6.465
 1312SOL    HW2 4836   0.291   1.052   6.487
 1313SOL     OW 4837   3.299   5.775   5.152
 1313SOL    HW1 4838   3.225   5.821   5.103
 1313SOL    HW2 4839   3.322   5.689   5.105
 1314SOL     OW 4840   1.725   1.585   5.555
 1314SOL    HW1 4841   1.734   1.507   5.493
 1314SOL    HW2 4842   1.802   1.587   5.619
 1315SOL     OW 4843   1.294   1.214   0.688
 1315SOL    HW1 4844   1.298   1.116   0.707
 1315SOL    HW2 4845   1.386   1.253   0.691
 1316SOL     OW 4846   1.780   0.101   3.517
 1316SOL    HW1 4847   1.734   0.043   3.584
 1316SOL    HW2 4848   1.811   0.185   3.561
 1317SOL     OW 4849   0.952   4.493   4.288
 1317SOL    HW1 4850   0.952   4.479   4.387
 1317SOL    HW2 4851   0.890   4.427   4.246
 1318SOL     OW 4852   0.223   0.649   0.286
 1318SOL    HW1 4853   0.184   0.604   0.367
 1318SOL    HW2 4854   0.196   0.746   0.286
 1319SOL     OW 4855   6.570   0.792   0.621
 1319SOL    HW1 4856   6.531   0.750   0.538
 1319SOL    HW2 4857   6.505   0.782   0.697
 1320SOL     OW 4858   5.703   4.527   0.076
 1320SOL    HW1 4859   5.705   4.578   0.162
 1320SOL    HW2 4860   5.608   4.514   0.047
 1321SOL     OW 4861   4.645   3.194   0.148
 1321SOL    HW1 4862   4.563   3.150   0.112
 1321SOL    HW2 4863   4.716   3.125   0.163
 1322SOL     OW 4864   6.366   0.977   3.279
 1322SOL    HW1 4865   6.363   0.924   3.363
 1322SOL    HW2 4866   6.462   0.992   3.252
 1323SOL     OW 4867   5.401   1.702   5.625
 1323SOL    HW1 4868   5.488   1.661   5.594
 1323SOL    HW2 4869   5.365   1.761   5.553
 1324SOL     OW 4870   1.681   2.139   1.263
 1324SOL    HW1 4871   1.582   2.124   1.261
 1324SOL    HW2 4872   1.726   2.060   1.303
 1325SOL     OW 4873   1.700   6.671   3.345
 1325SOL    HW1 4874   1.675   6.750   3.288
 1325SOL    HW2 4875   1.794   6.681   3.377
 1326SOL     OW 4876   5.084   2.412   4.221
 1326SOL    HW1 4877   5.031   2.496   4.228
 1326SOL    HW2 4878   5.099   2.374   4.312
 1327SOL     OW 4879   2.321   5.299   2.626
 1327SOL    HW1 4880   2.400   5.261   2.674
 1327SOL    HW2 4881   2.327   5.399   2.626
 1328SOL     OW 4882   1.342   2.578   6.472
 1328SOL    HW1 4883   1.282   2.525   6.411
 1328SOL    HW2 4884   1.388   2.516   6.535
 1329SOL     OW 4885   0.098   1.524   0.488
 1329SOL    HW1 4886   0.158   1.603   0.478
 1329SOL    HW2 4887   0.123   1.474   0.572
 1330SOL     OW 4888   6.448   0.607   1.017
 1330SOL    HW1 4889   6.486   0.607   1.110
 1330SOL    HW2 4890   6.379   0.535   1.010
 1331SOL     OW 4891   5.605   1.156   2.765
 1331SOL    HW1 4892   5.639   1.072   2.722
 1331SOL    HW2 4893   5.508   1.167   2.743
 1332SOL     OW 4894   4.189   1.179   1.101
 1332SOL    HW1 4895   4.106   1.170   1.158
 1332SOL    HW2 4896   4.246   1.252   1.137
 1333SOL     OW 4897   3.540   4.352   5.179
 1333SOL    HW1 4898   3.567   4.324   5.087
 1333SOL    HW2 4899   3.446   4.385   5.179
 1334SOL     OW 4900   1.450   3.404   5.038
 1334SOL    HW1 4901   1.436   3.423   5.135
 1334SOL    HW2 4902   1.476   3.309   5.026
 1335SOL     OW 4903   2.404   6.651   2.646
 1335SOL    HW1 4904   2.482   6.592   2.627
 1335SOL    HW2 4905   2.380   6.645   2.743
 1336SOL     OW 4906   1.216   1.440   6.564
 1336SOL    HW1 4907   1.250   1.502   6.492
 1336SOL    HW2 4908   1.126   1.405   6.537
 1337SOL     OW 4909   1.933   2.822   6.430
 1337SOL    HW1 4910   2.028   2.851   6.436
 1337SOL    HW2 4911   1.873   2.902   6.433
 1338SOL     OW 4912   4.508   4.076   6.517
 1338SOL    HW1 4913   4.438   4.115   6.577
 1338SOL    HW2 4914   4.464   4.016   6.450
 1339SOL     OW 4915   6.980   4.822   6.640
 1339SOL    HW1 4916   6.893   4.811   6.592
 1339SOL    HW2 4917   0.015   4.752   6.608
 1340SOL     OW 4918   0.974   1.733   0.653
 1340SOL    HW1 4919   1.004   1.800   0.721
 1340SOL    HW2 4920   1.042   1.727   0.580
 1341SOL     OW 4921   3.814   1.107   5.067
 1341SOL    HW1 4922   3.817   1.010   5.041
 1341SOL    HW2 4923   3.863   1.120   5.153
 1342SOL     OW 4924   1.163   6.287   6.005
 1342SOL    HW1 4925   1.243   6.259   6.058
 1342SOL    HW2 4926   1.193   6.333   5.922
 1343SOL     OW 4927   3.528   6.794   2.600
 1343SOL    HW1 4928   3.567   6.884   2.621
 1343SOL    HW2 4929   3.601   6.726   2.601
 1344SOL     OW 4930   6.073   1.747   3.007
 1344SOL    HW1 4931   6.121   1.774   2.924
 1344SOL    HW2 4932   6.087   1.649   3.024
 1345SOL     OW 4933   0.549   0.888   3.356
 1345SOL    HW1 4934   0.501   0.842   3.431
 1345SOL    HW2 4935   0.548   0.986   3.372
 1346SOL     OW 4936   1.094   6.353   3.485
 1346SOL    HW1 4937   1.119   6.291   3.559
 1346SOL    HW2 4938   1.102   6.448   3.517
 1347SOL     OW 4939   6.562   6.671   3.279
 1347SOL    HW1 4940   6.596   6.691   3.187
 1347SOL    HW2 4941   6.517   6.581   3.279
 1348SOL     OW 4942   5.580   4.997   4.125
 1348SOL    HW1 4943   5.590   4.941   4.043
 1348SOL    HW2 4944   5.669   5.036   4.150
 1349SOL     OW 4945   4.327   2.638   0.112
 1349SOL    HW1 4946   4.344   2.711   0.177
 1349SOL    HW2 4947   4.231   2.642   0.082
 1350SOL     OW 4948   3.383   4.563   6.622
 1350SOL    HW1 4949   3.336   4.482   6.656
 1350SOL    HW2 4950   3.335   4.599   6.543
 1351SOL     OW 4951   0.662   0.143   2.970
 1351SOL    HW1 4952   0.590   0.209   2.993
 1351SOL    HW2 4953   0.745   0.192   2.943
 1352SOL     OW 4954   6.388   0.556   3.803
 1352SOL    HW1 4955   6.420   0.496   3.730
 1352SOL    HW2 4956   6.431   0.646   3.793
 1353SOL     OW 4957   6.791   4.038   5.063
 1353SOL    HW1 4958   6.716   4.092   5.101
 1353SOL    HW2 4959   6.815   3.964   5.126
 1354SOL     OW 4960   0.175   0.941   0.858
 1354SOL    HW1 4961   0.092   0.983   0.896
 1354SOL    HW2 4962   0.172   0.947   0.758
 1355SOL     OW 4963   5.245   4.370   0.582
 1355SOL    HW1 4964   5.170   4.312   0.550
 1355SOL    HW2 4965   5.238   4.460   0.538
 1356SOL     OW 4966   3.182   4.009   2.683
 1356SOL    HW1 4967   3.127   4.091   2.697
 1356SOL    HW2 4968   3.278   4.030   2.701
 1357SOL     OW 4969   2.696   3.242   6.206
 1357SOL    HW1 4970   2.604   3.251   6.168
 1357SOL    HW2 4971   2.702   3.156   6.257
 1358SOL     OW 4972   2.263   2.634   6.614
 1358SOL    HW1 4973   2.218   2.571   6.678
 1358SOL    HW2 4974   2.321   2.581   6.552
 1359SOL     OW 4975   6.343   3.958   1.671
 1359SOL    HW1 4976   6.257   3.909   1.690
 1359SOL    HW2 4977   6.410   3.893   1.635
 1360SOL     OW 4978   4.069   3.779   2.804
 1360SOL    HW1 4979   4.024   3.700   2.845
 1360SOL    HW2 4980   4.072   3.854   2.870
 1361SOL     OW 4981   1.050   0.026   6.007
 1361SOL    HW1 4982   0.971   0.022   5.945
 1361SOL    HW2 4983   1.018   0.024   6.102
 1362SOL     OW 4984   2.945   3.415   5.850
 1362SOL    HW1 4985   3.030   3.395   5.800
 1362SOL    HW2 4986   2.919   3.335   5.904
 1363SOL     OW 4987   6.641   6.099   3.230
 1363SOL    HW1 4988   6.562   6.139   3.277
 1363SOL    HW2 4989   6.668   6.015   3.277
 1364SOL     OW 4990   0.083   3.626   0.599
 1364SOL    HW1 4991   0.092   3.699   0.532
 1364SOL    HW2 4992   0.063   3.540   0.553
 1365SOL     OW 4993   1.330   3.421   5.300
 1365SOL    HW1 4994   1.307   3.329   5.334
 1365SOL    HW2 4995   1.256   3.484   5.323
 1366SOL     OW 4996   6.885   2.840   1.065
 1366SOL    HW1 4997   6.951   2.773   1.033
 1366SOL    HW2 4998   6.906   2.929   1.024
 1367SOL     OW 4999   1.414   4.466   3.825
 1367SOL    HW1 5000   1.501   4.498   3.863
 1367SOL    HW2 5001   1.401   4.506   3.734
 1368SOL     OW 5002   6.471   6.571   4.309
 1368SOL    HW1 5003   6.480   6.488   4.254
 1368SOL    HW2 5004   6.375   6.590   4.326
 1369SOL     OW 5005   1.946   6.090   2.150
 1369SOL    HW1 5006   1.849   6.068   2.158
 1369SOL    HW2 5007   1.958   6.189   2.152
 1370SOL     OW 5008   0.159   2.337   3.659
 1370SOL    HW1 5009   0.141   2.273   3.585
 1370SOL    HW2 5010   0.258   2.344   3.674
 1371SOL     OW 5011   6.132   0.936   4.608
 1371SOL    HW1 5012   6.107   0.872   4.536
 1371SOL    HW2 5013   6.156   1.024   4.567
 1372SOL     OW 5014   6.528   2.892   0.541
 1372SOL    HW1 5015   6.552   2.801   0.575
 1372SOL    HW2 5016   6.478   2.942   0.612
 1373SOL     OW 5017   4.587   2.322   1.404
 1373SOL    HW1 5018   4.665   2.311   1.466
 1373SOL    HW2 5019   4.601   2.403   1.347
 1374SOL     OW 5020   5.307   3.862   0.649
 1374SOL    HW1 5021   5.250   3.782   0.628
 1374SOL    HW2 5022   5.251   3.932   0.694
 1375SOL     OW 5023   6.681   5.502   5.901
 1375SOL    HW1 5024   6.589   5.532   5.874
 1375SOL    HW2 5025   6.685   5.402   5.900
 1376SOL     OW 5026   3.102   4.740   6.647
 1376SOL    HW1 5027   3.157   4.698   6.575
 1376SOL    HW2 5028   3.065   4.670   6.707
 1377SOL     OW 5029   0.949   2.797   3.697
 1377SOL    HW1 5030   0.920   2.881   3.651
 1377SOL    HW2 5031   1.013   2.819   3.770
 1378SOL     OW 5032   4.202   2.310   4.768
 1378SOL    HW1 5033   4.241   2.362   4.692
 1378SOL    HW2 5034   4.202   2.366   4.851
 1379SOL     OW 5035   4.904   5.593   2.325
 1379SOL    HW1 5036   4.804   5.594   2.326
 1379SOL    HW2 5037   4.937   5.501   2.345
 1380SOL     OW 5038   6.285   6.242   1.993
 1380SOL    HW1 5039   6.379   6.270   2.012
 1380SOL    HW2 5040   6.284   6.169   1.925
 1381SOL     OW 5041   5.679   2.229   6.185
 1381SOL    HW1 5042   5.708   2.325   6.176
 1381SOL    HW2 5043   5.742   2.171   6.134
 1382SOL     OW 5044   4.304   2.979   1.539
 1382SOL    HW1 5045   4.385   3.002   1.486
 1382SOL    HW2 5046   4.236   2.936   1.479
 1383SOL     OW 5047   1.888   6.433   1.574
 1383SOL    HW1 5048   1.930   6.475   1.655
 1383SOL    HW2 5049   1.801   6.392   1.600
 1384SOL     OW 5050   4.399   0.688   0.713
 1384SOL    HW1 5051   4.342   0.763   0.748
 1384SOL    HW2 5052   4.476   0.673   0.776
 1385SOL     OW 5053   2.206   4.914   3.751
 1385SOL    HW1 5054   2.129   4.875   3.801
 1385SOL    HW2 5055   2.292   4.888   3.796
 1386SOL     OW 5056   3.131   6.509   4.063
 1386SOL    HW1 5057   3.113   6.460   3.978
 1386SOL    HW2 5058   3.135   6.607   4.046
 1387SOL     OW 5059   3.720   5.825   1.604
 1387SOL    HW1 5060   3.666   5.762   1.548
 1387SOL    HW2 5061   3.660   5.894   1.644
 1388SOL     OW 5062   6.141   6.779   1.205
 1388SOL    HW1 5063   6.172   6.818   1.291
 1388SOL    HW2 5064   6.113   6.852   1.143
 1389SOL     OW 5065   5.634   1.131   3.039
 1389SOL    HW1 5066   5.602   1.205   3.100
 1389SOL    HW2 5067   5.626   1.162   2.944
 1390SOL     OW 5068   0.596   3.491   6.893
 1390SOL    HW1 5069   0.605   3.404   6.942
 1390SOL    HW2 5070   0.644   3.484   6.805
 1391SOL     OW 5071   6.681   0.803   3.960
 1391SOL    HW1 5072   6.721   0.894   3.963
 1391SOL    HW2 5073   6.599   0.804   3.903
 1392SOL     OW 5074   5.211   5.810   6.095
 1392SOL    HW1 5075   5.281   5.740   6.083
 1392SOL    HW2 5076   5.254   5.895   6.126
 1393SOL     OW 5077   6.331   5.263   5.262
 1393SOL    HW1 5078   6.365   5.219   5.345
 1393SOL    HW2 5079   6.232   5.276   5.269
 1394SOL     OW 5080   2.941   6.005   5.174
 1394SOL    HW1 5081   3.024   6.010   5.229
 1394SOL    HW2 5082   2.863   6.037   5.229
 1395SOL     OW 5083   2.435   4.379   6.064
 1395SOL    HW1 5084   2.364   4.340   6.006
 1395SOL    HW2 5085   2.484   4.450   6.013
 1396SOL     OW 5086   1.956   0.549   3.972
 1396SOL    HW1 5087   1.865   0.590   3.975
 1396SOL    HW2 5088   2.020   0.607   4.023
 1397SOL     OW 5089   0.342   0.635   3.934
 1397SOL    HW1 5090   0.353   0.733   3.917
 1397SOL    HW2 5091   0.268   0.620   4.000
 1398SOL     OW 5092   1.773   1.199   5.601
 1398SOL    HW1 5093   1.688   1.184   5.652
 1398SOL    HW2 5094   1.753   1.253   5.519
 1399SOL     OW 5095   4.285   6.405   0.972
 1399SOL    HW1 5096   4.235   6.426   0.888
 1399SOL    HW2 5097   4.381   6.432   0.962
 1400SOL     OW 5098   6.901   2.026   2.515
 1400SOL    HW1 5099   6.887   2.013   2.417
 1400SOL    HW2 5100   6.983   2.081   2.531
 1401SOL     OW 5101   0.081   1.872   5.008
 1401SOL    HW1 5102   0.151   1.934   4.973
 1401SOL    HW2 5103   0.091   1.862   5.107
 1402SOL     OW 5104   0.978   4.416   0.229
 1402SOL    HW1 5105   1.057   4.383   0.279
 1402SOL    HW2 5106   0.894   4.378   0.270
 1403SOL     OW 5107   2.930   1.372   1.719
 1403SOL    HW1 5108   3.025   1.403   1.732
 1403SOL    HW2 5109   2.916   1.351   1.623
 1404SOL     OW 5110   5.376   0.220   0.240
 1404SOL    HW1 5111   5.295   0.202   0.184
 1404SOL    HW2 5112   5.437   0.282   0.191
 1405SOL     OW 5113   2.033   3.892   1.016
 1405SOL    HW1 5114   2.097   3.827   0.975
 1405SOL    HW2 5115   2.027   3.875   1.114
 1406SOL     OW 5116   1.372   5.202   1.669
 1406SOL    HW1 5117   1.408   5.244   1.752
 1406SOL    HW2 5118   1.275   5.179   1.682
 1407SOL     OW 5119   0.537   2.038   1.689
 1407SOL    HW1 5120   0.623   2.084   1.667
 1407SOL    HW2 5121   0.557   1.952   1.737
 1408SOL     OW 5122   5.626   1.040   5.811
 1408SOL    HW1 5123   5.595   0.971   5.876
 1408SOL    HW2 5124   5.604   1.131   5.846
 1409SOL     OW 5125   0.488   0.231   5.253
 1409SOL    HW1 5126   0.557   0.202   5.187
 1409SOL    HW2 5127   0.463   0.154   5.312
 1410SOL     OW 5128   2.313   3.657   6.510
 1410SOL    HW1 5129   2.342   3.688   6.601
 1410SOL    HW2 5130   2.336   3.726   6.442
 1411SOL     OW 5131   3.197   6.367   2.822
 1411SOL    HW1 5132   3.202   6.376   2.921
 1411SOL    HW2 5133   3.263   6.428   2.779
 1412SOL     OW 5134   0.477   2.669   0.463
 1412SOL    HW1 5135   0.385   2.636   0.486
 1412SOL    HW2 5136   0.496   2.653   0.366
 1413SOL     OW 5137   2.086   1.322   4.554
 1413SOL    HW1 5138   2.176   1.290   4.523
 1413SOL    HW2 5139   2.021   1.317   4.478
 1414SOL     OW 5140   2.394   0.957   1.342
 1414SOL    HW1 5141   2.421   1.031   1.403
 1414SOL    HW2 5142   2.301   0.927   1.365
 1415SOL     OW 5143   2.655   0.656   4.858
 1415SOL    HW1 5144   2.566   0.660   4.904
 1415SOL    HW2 5145   2.642   0.626   4.763
 1416SOL     OW 5146   4.320   4.638   4.002
 1416SOL    HW1 5147   4.326   4.676   4.095
 1416SOL    HW2 5148   4.373   4.553   3.998
 1417SOL     OW 5149   2.289   1.766   0.265
 1417SOL    HW1 5150   2.193   1.766   0.238
 1417SOL    HW2 5151   2.303   1.696   0.336
 1418SOL     OW 5152   2.919   3.347   3.528
 1418SOL    HW1 5153   2.899   3.283   3.454
 1418SOL    HW2 5154   2.907   3.441   3.495
 1419SOL     OW 5155   3.214   6.614   4.666
 1419SOL    HW1 5156   3.217   6.578   4.573
 1419SOL    HW2 5157   3.276   6.560   4.724
 1420SOL     OW 5158   1.998   6.244   1.442
 1420SOL    HW1 5159   1.931   6.310   1.474
 1420SOL    HW2 5160   1.978   6.219   1.347
 1421SOL     OW 5161   2.127   3.288   3.394
 1421SOL    HW1 5162   2.043   3.322   3.438
 1421SOL    HW2 5163   2.159   3.207   3.443
 1422SOL     OW 5164   2.321   4.512   1.361
 1422SOL    HW1 5165   2.224   4.490   1.369
 1422SOL    HW2 5166   2.357   4.470   1.277
 1423SOL     OW 5167   4.809   6.632   2.488
 1423SOL    HW1 5168   4.845   6.550   2.443
 1423SOL    HW2 5169   4.766   6.607   2.575
 1424SOL     OW 5170   6.414   4.134   4.846
 1424SOL    HW1 5171   6.388   4.114   4.751
 1424SOL    HW2 5172   6.332   4.151   4.900
 1425SOL     OW 5173   1.399   6.115   4.448
 1425SOL    HW1 5174   1.393   6.114   4.349
 1425SOL    HW2 5175   1.422   6.023   4.481
 1426SOL     OW 5176   1.366   2.223   5.520
 1426SOL    HW1 5177   1.282   2.198   5.568
 1426SOL    HW2 5178   1.343   2.269   5.434
 1427SOL     OW 5179   6.967   0.180   3.117
 1427SOL    HW1 5180   7.020   0.105   3.157
 1427SOL    HW2 5181   7.026   0.232   3.055
 1428SOL     OW 5182   5.893   2.685   0.815
 1428SOL    HW1 5183   5.952   2.744   0.869
 1428SOL    HW2 5184   5.940   2.599   0.796
 1429SOL     OW 5185   5.857   1.978   0.261
 1429SOL    HW1 5186   5.896   2.031   0.185
 1429SOL    HW2 5187   5.759   1.964   0.244
 1430SOL     OW 5188   1.915   4.718   4.350
 1430SOL    HW1 5189   1.888   4.666   4.269
 1430SOL    HW2 5190   2.000   4.680   4.387
 1431SOL     OW 5191   1.891   1.806   0.869
 1431SOL    HW1 5192   1.839   1.866   0.810
 1431SOL    HW2 5193   1.833   1.773   0.944
 1432SOL     OW 5194   3.078   1.652   2.932
 1432SOL    HW1 5195   3.070   1.726   2.999
 1432SOL    HW2 5196   2.996   1.595   2.935
 1433SOL     OW 5197   4.574   1.502   4.072
 1433SOL    HW1 5198   4.498   1.529   4.130
 1433SOL    HW2 5199   4.541   1.440   4.000
 1434SOL     OW 5200   6.746   1.124   5.681
 1434SOL    HW1 5201   6.834   1.145   5.722
 1434SOL    HW2 5202   6.673   1.169   5.732
 1435SOL     OW 5203   5.503   1.143   2.458
 1435SOL    HW1 5204   5.557   1.210   2.407
 1435SOL    HW2 5205   5.565   1.078   2.503
 1436SOL     OW 5206   5.524   3.966   0.508
 1436SOL    HW1 5207   5.543   4.062   0.531
 1436SOL    HW2 5208   5.444   3.935   0.559
 1437SOL     OW 5209   2.359   2.526   3.425
 1437SOL    HW1 5210   2.365   2.571   3.514
 1437SOL    HW2 5211   2.314   2.586   3.359
 1438SOL     OW 5212   3.144   6.685   1.035
 1438SOL    HW1 5213   3.053   6.687   1.078
 1438SOL    HW2 5214   3.177   6.779   1.023
 1439SOL     OW 5215   6.962   5.481   1.080
 1439SOL    HW1 5216   0.014   5.439   1.039
 1439SOL    HW2 5217   6.982   5.575   1.105
 1440SOL     OW 5218   3.185   3.807   0.875
 1440SOL    HW1 5219   3.138   3.826   0.789
 1440SOL    HW2 5220   3.269   3.756   0.856
 1441SOL     OW 5221   5.839   0.406   2.366
 1441SOL    HW1 5222   5.891   0.452   2.437
 1441SOL    HW2 5223   5.896   0.391   2.285
 1442SOL     OW 5224   6.426   5.573   0.400
 1442SOL    HW1 5225   6.383   5.660   0.376
 1442SOL    HW2 5226   6.492   5.548   0.329
 1443SOL     OW 5227   0.670   2.171   2.489
 1443SOL    HW1 5228   0.629   2.232   2.422
 1443SOL    HW2 5229   0.765   2.153   2.463
 1444SOL     OW 5230   5.163   0.590   0.485
 1444SOL    HW1 5231   5.247   0.543   0.459
 1444SOL    HW2 5232   5.146   0.666   0.421
 1445SOL     OW 5233   1.154   3.134   2.480
 1445SOL    HW1 5234   1.064   3.092   2.471
 1445SOL    HW2 5235   1.145   3.222   2.527
 1446SOL     OW 5236   6.467   0.846   0.059
 1446SOL    HW1 5237   6.487   0.890   0.146
 1446SOL    HW2 5238   6.534   0.877   7.020
 1447SOL     OW 5239   6.318   5.473   4.120
 1447SOL    HW1 5240   6.364   5.384   4.120
 1447SOL    HW2 5241   6.223   5.461   4.090
 1448SOL     OW 5242   6.400   3.211   4.858
 1448SOL    HW1 5243   6.391   3.294   4.802
 1448SOL    HW2 5244   6.441   3.138   4.804
 1449SOL     OW 5245   1.271   4.141   5.383
 1449SOL    HW1 5246   1.231   4.071   5.442
 1449SOL    HW2 5247   1.288   4.224   5.437
 1450SOL     OW 5248   1.157   2.221   6.652
 1450SOL    HW1 5249   1.234   2.249   6.595
 1450SOL    HW2 5250   1.177   2.131   6.691
 1451SOL     OW 5251   1.333   6.175   2.687
 1451SOL    HW1 5252   1.357   6.248   2.623
 1451SOL    HW2 5253   1.338   6.209   2.781
 1452SOL     OW 5254   4.360   2.593   5.318
 1452SOL    HW1 5255   4.303   2.560   5.244
 1452SOL    HW2 5256   4.409   2.515   5.359
 1453SOL     OW 5257   0.529   4.468   5.897
 1453SOL    HW1 5258   0.529   4.568   5.901
 1453SOL    HW2 5259   0.620   4.435   5.872
 1454SOL     OW 5260   1.901   1.960   2.586
 1454SOL    HW1 5261   1.979   2.022   2.577
 1454SOL    HW2 5262   1.931   1.866   2.568
 1455SOL     OW 5263   1.868   6.667   2.524
 1455SOL    HW1 5264   1.786   6.616   2.550
 1455SOL    HW2 5265   1.949   6.618   2.556
 1456SOL     OW 5266   6.382   6.547   5.773
 1456SOL    HW1 5267   6.361   6.585   5.683
 1456SOL    HW2 5268   6.361   6.449   5.774
 1457SOL     OW 5269   1.604   4.672   0.044
 1457SOL    HW1 5270   1.604   4.737   0.120
 1457SOL    HW2 5271   1.509   4.653   0.017
 1458SOL     OW 5272   5.506   4.884   5.339
 1458SOL    HW1 5273   5.528   4.980   5.354
 1458SOL    HW2 5274   5.522   4.833   5.423
 1459SOL     OW 5275   4.318   6.937   6.224
 1459SOL    HW1 5276   4.324   6.959   6.321
 1459SOL    HW2 5277   4.272   6.849   6.212
 1460SOL     OW 5278   1.591   6.881   4.990
 1460SOL    HW1 5279   1.670   6.826   4.963
 1460SOL    HW2 5280   1.622   6.958   5.047
 1461SOL     OW 5281   0.218   4.015   3.032
 1461SOL    HW1 5282   0.267   3.950   3.090
 1461SOL    HW2 5283   0.154   3.966   2.973
 1462SOL     OW 5284   0.853   0.434   6.812
 1462SOL    HW1 5285   0.850   0.521   6.861
 1462SOL    HW2 5286   0.764   0.417   6.769
 1463SOL     OW 5287   0.829   4.794   5.601
 1463SOL    HW1 5288   0.905   4.794   5.536
 1463SOL    HW2 5289   0.777   4.709   5.591
 1464SOL     OW 5290   6.868   4.922   2.812
 1464SOL    HW1 5291   6.799   4.850   2.803
 1464SOL    HW2 5292   6.938   4.910   2.742
 1465SOL     OW 5293   2.334   1.907   3.887
 1465SOL    HW1 5294   2.356   1.851   3.807
 1465SOL    HW2 5295   2.306   1.998   3.857
 1466SOL     OW 5296   4.021   1.696   2.051
 1466SOL    HW1 5297   4.049   1.780   2.099
 1466SOL    HW2 5298   4.009   1.623   2.118
 1467SOL     OW 5299   1.978   1.426   4.010
 1467SOL    HW1 5300   2.071   1.403   4.036
 1467SOL    HW2 5301   1.970   1.525   3.999
 1468SOL     OW 5302   2.169   5.708   1.984
 1468SOL    HW1 5303   2.169   5.628   2.044
 1468SOL    HW2 5304   2.179   5.791   2.038
 1469SOL     OW 5305   6.398   6.468   2.859
 1469SOL    HW1 5306   6.473   6.519   2.817
 1469SOL    HW2 5307   6.324   6.532   2.882
 1470SOL     OW 5308   6.928   2.129   1.800
 1470SOL    HW1 5309   6.892   2.201   1.859
 1470SOL    HW2 5310   6.868   2.049   1.804
 1471SOL     OW 5311   1.055   0.302   0.066
 1471SOL    HW1 5312   1.112   0.228   0.102
 1471SOL    HW2 5313   1.015   0.274   7.009
 1472SOL     OW 5314   2.830   5.626   0.507
 1472SOL    HW1 5315   2.897   5.591   0.573
 1472SOL    HW2 5316   2.864   5.711   0.466
 1473SOL     OW 5317   2.729   5.968   5.382
 1473SOL    HW1 5318   2.801   5.945   5.447
 1473SOL    HW2 5319   2.706   5.887   5.328
 1474SOL     OW 5320   4.390   4.557   1.190
 1474SOL    HW1 5321   4.463   4.495   1.161
 1474SOL    HW2 5322   4.394   4.570   1.289
 1475SOL     OW 5323   5.185   1.308   6.998
 1475SOL    HW1 5324   5.107   1.369   6.988
 1475SOL    HW2 5325   5.200   1.287   0.065
 1476SOL     OW 5326   2.451   1.189   1.495
 1476SOL    HW1 5327   2.370   1.247   1.482
 1476SOL    HW2 5328   2.456   1.161   1.591
 1477SOL     OW 5329   3.436   6.820   7.013
 1477SOL    HW1 5330   3.437   6.916   6.985
 1477SOL    HW2 5331   3.501   6.805   0.057
 1478SOL     OW 5332   5.695   6.277   5.439
 1478SOL    HW1 5333   5.744   6.192   5.456
 1478SOL    HW2 5334   5.760   6.351   5.423
 1479SOL     OW 5335   3.097   3.195   1.811
 1479SOL    HW1 5336   3.122   3.258   1.737
 1479SOL    HW2 5337   3.175   3.182   1.872
 1480SOL     OW 5338   2.407   6.934   5.984
 1480SOL    HW1 5339   2.477   6.904   5.919
 1480SOL    HW2 5340   2.443   6.929   6.077
 1481SOL     OW 5341   5.808   3.327   5.834
 1481SOL    HW1 5342   5.763   3.346   5.921
 1481SOL    HW2 5343   5.743   3.282   5.773
 1482SOL     OW 5344   4.642   0.663   0.861
 1482SOL    HW1 5345   4.689   0.671   0.948
 1482SOL    HW2 5346   4.709   0.660   0.787
 1483SOL     OW 5347   5.818   2.598   5.395
 1483SOL    HW1 5348   5.747   2.541   5.354
 1483SOL    HW2 5349   5.861   2.654   5.325
 1484SOL     OW 5350   4.778   5.155   3.754
 1484SOL    HW1 5351   4.718   5.232   3.734
 1484SOL    HW2 5352   4.750   5.113   3.841
 1485SOL     OW 5353   5.107   0.714   4.030
 1485SOL    HW1 5354   5.177   0.643   4.038
 1485SOL    HW2 5355   5.151   0.803   4.023
 1486SOL     OW 5356   4.898   6.773   3.161
 1486SOL    HW1 5357   4.948   6.750   3.244
 1486SOL    HW2 5358   4.962   6.810   3.093
 1487SOL     OW 5359   0.179   1.463   6.879
 1487SOL    HW1 5360   0.166   1.513   6.964
 1487SOL    HW2 5361   0.242   1.386   6.894
 1488SOL     OW 5362   5.220   0.629   3.301
 1488SOL    HW1 5363   5.295   0.591   3.248
 1488SOL    HW2 5364   5.134   0.589   3.270
 1489SOL     OW 5365   4.176   4.355   5.807
 1489SOL    HW1 5366   4.151   4.421   5.878
 1489SOL    HW2 5367   4.097   4.340   5.747
 1490SOL     OW 5368   0.623   3.289   0.853
 1490SOL    HW1 5369   0.552   3.327   0.794
 1490SOL    HW2 5370   0.650   3.199   0.820
 1491SOL     OW 5371   6.602   3.960   2.635
 1491SOL    HW1 5372   6.631   4.012   2.554
 1491SOL    HW2 5373   6.503   3.951   2.636
 1492SOL     OW 5374   6.607   0.108   2.290
 1492SOL    HW1 5375   6.547   0.187   2.284
 1492SOL    HW2 5376   6.606   0.059   2.203
 1493SOL     OW 5377   3.670   0.851   6.447
 1493SOL    HW1 5378   3.614   0.831   6.527
 1493SOL    HW2 5379   3.668   0.949   6.428
 1494SOL     OW 5380   5.755   2.926   6.919
 1494SOL    HW1 5381   5.784   2.837   6.953
 1494SOL    HW2 5382   5.772   2.996   6.989
 1495SOL     OW 5383   6.848   4.184   4.807
 1495SOL    HW1 5384   6.944   4.182   4.778
 1495SOL    HW2 5385   6.831   4.110   4.872
 1496SOL     OW 5386   0.682   0.196   0.369
 1496SOL    HW1 5387   0.660   0.105   0.334
 1496SOL    HW2 5388   0.752   0.189   0.440
 1497SOL     OW 5389   5.098   2.877   2.176
 1497SOL    HW1 5390   5.041   2.798   2.198
 1497SOL    HW2 5391   5.040   2.950   2.140
 1498SOL     OW 5392   3.095   3.980   1.061
 1498SOL    HW1 5393   2.995   3.974   1.070
 1498SOL    HW2 5394   3.125   3.922   0.986
 1499SOL     OW 5395   0.602   3.741   6.507
 1499SOL    HW1 5396   0.549   3.656   6.514
 1499SOL    HW2 5397   0.539   3.819   6.505
 1500SOL     OW 5398   1.028   6.145   6.392
 1500SOL    HW1 5399   0.928   6.138   6.383
 1500SOL    HW2 5400   1.056   6.239   6.376
 1501SOL     OW 5401   6.141   1.996   6.495
 1501SOL    HW1 5402   6.196   1.947   6.563
 1501SOL    HW2 5403   6.158   2.094   6.503
 1502SOL     OW 5404   5.337   1.386   6.730
 1502SOL    HW1 5405   5.381   1.367   6.817
 1502SOL    HW2 5406   5.371   1.323   6.660
 1503SOL     OW 5407   0.690   3.140   2.803
 1503SOL    HW1 5408   0.742   3.215   2.845
 1503SOL    HW2 5409   0.616   3.113   2.863
 1504SOL     OW 5410   0.859   0.327   3.362
 1504SOL    HW1 5411   0.887   0.288   3.450
 1504SOL    HW2 5412   0.918   0.291   3.290
 1505SOL     OW 5413   5.165   0.020   5.684
 1505SOL    HW1 5414   5.137   0.083   5.757
 1505SOL    HW2 5415   5.257   0.044   5.653
 1506SOL     OW 5416   1.318   0.420   7.007
 1506SOL    HW1 5417   1.413   0.400   6.982
 1506SOL    HW2 5418   1.302   0.393   0.072
 1507SOL     OW 5419   6.845   1.890   4.957
 1507SOL    HW1 5420   6.815   1.935   4.872
 1507SOL    HW2 5421   6.935   1.924   4.983
 1508SOL     OW 5422   0.047   1.867   1.226
 1508SOL    HW1 5423   7.012   1.819   1.167
 1508SOL    HW2 5424   0.010   1.871   1.319
 1509SOL     OW 5425   4.804   2.055   4.569
 1509SOL    HW1 5426   4.889   2.047   4.517
 1509SOL    HW2 5427   4.750   2.131   4.533
 1510SOL     OW 5428   5.197   6.932   4.650
 1510SOL    HW1 5429   5.109   6.938   4.602
 1510SOL    HW2 5430   5.261   6.998   4.610
 1511SOL     OW 5431   3.557   3.634   4.264
 1511SOL    HW1 5432   3.538   3.727   4.296
 1511SOL    HW2 5433   3.506   3.569   4.321
 1512SOL     OW 5434   6.238   5.347   1.817
 1512SOL    HW1 5435   6.323   5.300   1.842
 1512SOL    HW2 5436   6.188   5.371   1.900
 1513SOL     OW 5437   3.323   0.040   4.773
 1513SOL    HW1 5438   3.319   6.972   4.795
 1513SOL    HW2 5439   3.280   0.092   4.847
 1514SOL     OW 5440   3.618   2.502   5.648
 1514SOL    HW1 5441   3.630   2.588   5.597
 1514SOL    HW2 5442   3.626   2.425   5.585
 1515SOL     OW 5443   6.488   1.224   2.343
 1515SOL    HW1 5444   6.441   1.303   2.304
 1515SOL    HW2 5445   6.521   1.165   2.270
 1516SOL     OW 5446   5.734   5.626   5.423
 1516SOL    HW1 5447   5.710   5.548   5.365
 1516SOL    HW2 5448   5.677   5.624   5.505
 1517SOL     OW 5449   4.203   6.684   3.148
 1517SOL    HW1 5450   4.139   6.632   3.205
 1517SOL    HW2 5451   4.268   6.621   3.105
 1518SOL     OW 5452   6.133   3.803   0.480
 1518SOL    HW1 5453   6.130   3.896   0.515
 1518SOL    HW2 5454   6.067   3.747   0.530
 1519SOL     OW 5455   6.912   4.393   1.177
 1519SOL    HW1 5456   6.951   4.313   1.132
 1519SOL    HW2 5457   6.848   4.438   1.115
 1520SOL     OW 5458   0.794   4.411   1.543
 1520SOL    HW1 5459   0.745   4.330   1.512
 1520SOL    HW2 5460   0.844   4.388   1.627
 1521SOL     OW 5461   2.027   4.694   6.979
 1521SOL    HW1 5462   2.025   4.717   0.046
 1521SOL    HW2 5463   1.936   4.706   6.940
 1522SOL     OW 5464   5.697   5.677   4.479
 1522SOL    HW1 5465   5.779   5.651   4.427
 1522SOL    HW2 5466   5.619   5.683   4.417
 1523SOL     OW 5467   3.892   6.612   6.603
 1523SOL    HW1 5468   3.825   6.654   6.541
 1523SOL    HW2 5469   3.897   6.665   6.688
 1524SOL     OW 5470   2.988   2.037   2.622
 1524SOL    HW1 5471   2.959   1.961   2.680
 1524SOL    HW2 5472   2.952   2.024   2.529
 1525SOL     OW 5473   5.433   2.892   1.139
 1525SOL    HW1 5474   5.373   2.965   1.172
 1525SOL    HW2 5475   5.387   2.804   1.147
 1526SOL     OW 5476   6.998   0.772   6.569
 1526SOL    HW1 5477   6.985   0.697   6.504
 1526SOL    HW2 5478   6.960   0.856   6.530
 1527SOL     OW 5479   3.536   0.742   4.586
 1527SOL    HW1 5480   3.546   0.841   4.581
 1527SOL    HW2 5481   3.532   0.704   4.493
 1528SOL     OW 5482   4.179   5.082   1.825
 1528SOL    HW1 5483   4.149   5.025   1.748
 1528SOL    HW2 5484   4.190   5.176   1.795
 1529SOL     OW 5485   4.759   1.177   6.761
 1529SOL    HW1 5486   4.706   1.093   6.755
 1529SOL    HW2 5487   4.851   1.162   6.726
 1530SOL     OW 5488   3.085   1.348   1.061
 1530SOL    HW1 5489   3.043   1.423   1.113
 1530SOL    HW2 5490   3.160   1.308   1.114
 1531SOL     OW 5491   4.541   0.866   4.891
 1531SOL    HW1 5492   4.623   0.875   4.946
 1531SOL    HW2 5493   4.471   0.930   4.924
 1532SOL     OW 5494   3.658   4.252   5.660
 1532SOL    HW1 5495   3.664   4.317   5.585
 1532SOL    HW2 5496   3.568   4.260   5.704
 1533SOL     OW 5497   5.170   5.553   0.498
 1533SOL    HW1 5498   5.231   5.565   0.577
 1533SOL    HW2 5499   5.197   5.470   0.448
 1534SOL     OW 5500   3.326   5.193   6.034
 1534SOL    HW1 5501   3.300   5.122   5.968
 1534SOL    HW2 5502   3.407   5.241   6.000
 1535SOL     OW 5503   5.483   5.944   4.873
 1535SOL    HW1 5504   5.481   5.851   4.837
 1535SOL    HW2 5505   5.459   5.943   4.970
 1536SOL     OW 5506   3.987   4.917   6.540
 1536SOL    HW1 5507   4.078   4.877   6.553
 1536SOL    HW2 5508   3.919   4.845   6.536
 1537SOL     OW 5509   4.366   6.057   3.547
 1537SOL    HW1 5510   4.368   6.064   3.647
 1537SOL    HW2 5511   4.380   6.147   3.507
 1538SOL     OW 5512   3.268   0.043   6.658
 1538SOL    HW1 5513   3.182   0.014   6.699
 1538SOL    HW2 5514   3.295   0.132   6.697
 1539SOL     OW 5515   4.773   2.904   2.295
 1539SOL    HW1 5516   4.774   2.908   2.195
 1539SOL    HW2 5517   4.786   2.996   2.333
 1540SOL     OW 5518   0.164   6.695   5.391
 1540SOL    HW1 5519   0.153   6.714   5.489
 1540SOL    HW2 5520   0.142   6.777   5.339
 1541SOL     OW 5521   3.167   3.999   3.902
 1541SOL    HW1 5522   3.182   3.912   3.948
 1541SOL    HW2 5523   3.164   4.073   3.969
 1542SOL     OW 5524   6.609   0.131   1.801
 1542SOL    HW1 5525   6.525   0.126   1.746
 1542SOL    HW2 5526   6.659   0.215   1.777
 1543SOL     OW 5527   3.634   5.699   5.598
 1543SOL    HW1 5528   3.587   5.629   5.651
 1543SOL    HW2 5529   3.669   5.659   5.513
 1544SOL     OW 5530   2.958   3.857   3.371
 1544SOL    HW1 5531   3.030   3.922   3.347
 1544SOL    HW2 5532   2.944   3.860   3.470
 1545SOL     OW 5533   4.723   0.933   2.848
 1545SOL    HW1 5534   4.690   0.929   2.942
 1545SOL    HW2 5535   4.666   0.873   2.791
 1546SOL     OW 5536   5.391   6.397   6.069
 1546SOL    HW1 5537   5.306   6.347   6.058
 1546SOL    HW2 5538   5.406   6.417   6.166
 1547SOL     OW 5539   1.222   3.688   1.357
 1547SOL    HW1 5540   1.250   3.597   1.389
 1547SOL    HW2 5541   1.298   3.730   1.306
 1548SOL     OW 5542   4.746   3.678   0.334
 1548SOL    HW1 5543   4.763   3.586   0.299
 1548SOL    HW2 5544   4.739   3.676   0.434
 1549SOL     OW 5545   4.278   1.456   2.614
 1549SOL    HW1 5546   4.222   1.487   2.691
 1549SOL    HW2 5547   4.274   1.356   2.609
 1550SOL     OW 5548   3.795   3.445   1.432
 1550SOL    HW1 5549   3.779   3.352   1.399
 1550SOL    HW2 5550   3.719   3.473   1.490
 1551SOL     OW 5551   1.784   4.703   6.855
 1551SOL    HW1 5552   1.709   4.677   6.917
 1551SOL    HW2 5553   1.747   4.731   6.767
 1552SOL     OW 5554   1.457   5.470   0.455
 1552SOL    HW1 5555   1.491   5.440   0.365
 1552SOL    HW2 5556   1.503   5.418   0.527
 1553SOL     OW 5557   6.794   1.610   6.384
 1553SOL    HW1 5558   6.706   1.654   6.365
 1553SOL    HW2 5559   6.866   1.679   6.388
 1554SOL     OW 5560   3.091   2.003   3.530
 1554SOL    HW1 5561   3.094   1.915   3.482
 1554SOL    HW2 5562   3.053   2.072   3.469
 1555SOL     OW 5563   5.727   3.361   6.731
 1555SOL    HW1 5564   5.695   3.346   6.825
 1555SOL    HW2 5565   5.689   3.289   6.672
 1556SOL     OW 5566   1.441   1.758   6.176
 1556SOL    HW1 5567   1.393   1.844   6.197
 1556SOL    HW2 5568   1.536   1.777   6.153
 1557SOL     OW 5569   2.225   3.967   5.878
 1557SOL    HW1 5570   2.143   3.925   5.838
 1557SOL    HW2 5571   2.256   4.042   5.820
 1558SOL     OW 5572   6.037   0.797   4.393
 1558SOL    HW1 5573   6.007   0.800   4.298
 1558SOL    HW2 5574   6.024   0.704   4.429
 1559SOL     OW 5575   1.885   3.324   6.375
 1559SOL    HW1 5576   1.849   3.346   6.466
 1559SOL    HW2 5577   1.815   3.344   6.306
 1560SOL     OW 5578   6.785   7.025   5.806
 1560SOL    HW1 5579   6.781   6.926   5.814
 1560SOL    HW2 5580   6.865   0.022   5.752
 1561SOL     OW 5581   5.316   6.559   3.786
 1561SOL    HW1 5582   5.220   6.540   3.810
 1561SOL    HW2 5583   5.335   6.656   3.800
 1562SOL     OW 5584   5.014   6.270   2.565
 1562SOL    HW1 5585   5.111   6.293   2.555
 1562SOL    HW2 5586   5.005   6.193   2.628
 1563SOL     OW 5587   3.001   0.631   5.514
 1563SOL    HW1 5588   2.908   0.659   5.537
 1563SOL    HW2 5589   3.059   0.712   5.506
 1564SOL     OW 5590   1.298   0.544   3.089
 1564SOL    HW1 5591   1.310   0.584   3.180
 1564SOL    HW2 5592   1.236   0.601   3.035
 1565SOL     OW 5593   4.659   4.285   2.957
 1565SOL    HW1 5594   4.680   4.382   2.942
 1565SOL    HW2 5595   4.644   4.240   2.869
 1566SOL     OW 5596   5.933   3.916   3.631
 1566SOL    HW1 5597   5.936   3.847   3.703
 1566SOL    HW2 5598   5.928   3.871   3.541
 1567SOL     OW 5599   6.095   6.047   0.570
 1567SOL    HW1 5600   6.092   6.137   0.527
 1567SOL    HW2 5601   6.096   6.057   0.669
 1568SOL     OW 5602   1.207   0.007   0.116
 1568SOL    HW1 5603   1.255   0.049   0.193
 1568SOL    HW2 5604   1.132   6.980   0.151
 1569SOL     OW 5605   4.370   6.500   3.005
 1569SOL    HW1 5606   4.378   6.487   2.906
 1569SOL    HW2 5607   4.458   6.479   3.048
 1570SOL     OW 5608   2.151   0.319   0.886
 1570SOL    HW1 5609   2.203   0.366   0.958
 1570SOL    HW2 5610   2.053   0.331   0.903
 1571SOL     OW 5611   5.766   3.115   0.945
 1571SOL    HW1 5612   5.696   3.044   0.937
 1571SOL    HW2 5613   5.721   3.204   0.957
 1572SOL     OW 5614   0.618   0.297   2.053
 1572SOL    HW1 5615   0.569   0.233   1.995
 1572SOL    HW2 5616   0.711   0.263   2.069
 1573SOL     OW 5617   4.985   1.325   1.694
 1573SOL    HW1 5618   4.892   1.300   1.718
 1573SOL    HW2 5619   5.050   1.274   1.751
 1574SOL     OW 5620   6.918   1.649   1.698
 1574SOL    HW1 5621   6.832   1.614   1.661
 1574SOL    HW2 5622   6.898   1.721   1.765
 1575SOL     OW 5623   2.305   1.335   0.551
 1575SOL    HW1 5624   2.294   1.296   0.643
 1575SOL    HW2 5625   2.226   1.310   0.495
 1576SOL     OW 5626   6.062   6.401   4.406
 1576SOL    HW1 5627   6.004   6.480   4.384
 1576SOL    HW2 5628   6.060   6.336   4.330
 1577SOL     OW 5629   2.870   1.541   4.544
 1577SOL    HW1 5630   2.819   1.627   4.542
 1577SOL    HW2 5631   2.832   1.478   4.477
 1578SOL     OW 5632   6.358   3.346   5.571
 1578SOL    HW1 5633   6.367   3.376   5.666
 1578SOL    HW2 5634   6.342   3.247   5.569
 1579SOL     OW 5635   0.227   1.569   3.297
 1579SOL    HW1 5636   0.235   1.469   3.302
 1579SOL    HW2 5637   0.315   1.611   3.320
 1580SOL     OW 5638   2.944   3.975   5.159
 1580SOL    HW1 5639   3.032   4.023   5.164
 1580SOL    HW2 5640   2.875   4.026   5.211
 1581SOL     OW 5641   0.286   4.680   4.479
 1581SOL    HW1 5642   0.299   4.723   4.390
 1581SOL    HW2 5643   0.375   4.671   4.524
 1582SOL     OW 5644   1.471   6.239   4.703
 1582SOL    HW1 5645   1.456   6.205   4.610
 1582SOL    HW2 5646   1.398   6.303   4.727
 1583SOL     OW 5647   1.466   2.387   4.175
 1583SOL    HW1 5648   1.562   2.368   4.192
 1583SOL    HW2 5649   1.419   2.402   4.262
 1584SOL     OW 5650   2.011   6.847   5.002
 1584SOL    HW1 5651   1.979   6.755   5.022
 1584SOL    HW2 5652   2.111   6.847   4.996
 1585SOL     OW 5653   5.526   1.571   3.496
 1585SOL    HW1 5654   5.540   1.635   3.421
 1585SOL    HW2 5655   5.602   1.506   3.500
 1586SOL     OW 5656   3.793   4.098   1.828
 1586SOL    HW1 5657   3.874   4.057   1.786
 1586SOL    HW2 5658   3.757   4.169   1.768
 1587SOL     OW 5659   2.954   5.151   6.395
 1587SOL    HW1 5660   2.985   5.205   6.317
 1587SOL    HW2 5661   3.032   5.121   6.449
 1588SOL     OW 5662   4.952   1.696   3.567
 1588SOL    HW1 5663   4.968   1.771   3.504
 1588SOL    HW2 5664   4.957   1.609   3.518
 1589SOL     OW 5665   5.445   4.269   3.620
 1589SOL    HW1 5666   5.373   4.329   3.584
 1589SOL    HW2 5667   5.466   4.296   3.714
 1590SOL     OW 5668   1.929   6.736   6.828
 1590SOL    HW1 5669   2.028   6.746   6.823
 1590SOL    HW2 5670   1.906   6.638   6.827
 1591SOL     OW 5671   1.253   5.099   3.319
 1591SOL    HW1 5672   1.203   5.123   3.236
 1591SOL    HW2 5673   1.333   5.043   3.295
 1592SOL     OW 5674   2.387   4.103   1.423
 1592SOL    HW1 5675   2.448   4.152   1.485
 1592SOL    HW2 5676   2.348   4.168   1.358
 1593SOL     OW 5677   0.911   6.689   4.293
 1593SOL    HW1 5678   0.944   6.602   4.255
 1593SOL    HW2 5679   0.811   6.688   4.298
 1594SOL     OW 5680   0.470   5.146   3.504
 1594SOL    HW1 5681   0.474   5.148   3.603
 1594SOL    HW2 5682   0.558   5.116   3.467
 1595SOL     OW 5683   0.306   4.647   6.469
 1595SOL    HW1 5684   0.231   4.634   6.533
 1595SOL    HW2 5685   0.356   4.731   6.492
 1596SOL     OW 5686   1.202   3.691   5.351
 1596SOL    HW1 5687   1.118   3.745   5.351
 1596SOL    HW2 5688   1.267   3.729   5.285
 1597SOL     OW 5689   2.765   5.451   0.742
 1597SOL    HW1 5690   2.769   5.456   0.642
 1597SOL    HW2 5691   2.700   5.519   0.776
 1598SOL     OW 5692   0.487   3.918   0.256
 1598SOL    HW1 5693   0.571   3.882   0.216
 1598SOL    HW2 5694   0.497   4.017   0.270
 1599SOL     OW 5695   4.697   3.484   5.573
 1599SOL    HW1 5696   4.763   3.557   5.590
 1599SOL    HW2 5697   4.693   3.422   5.651
 1600SOL     OW 5698   5.004   1.731   4.486
 1600SOL    HW1 5699   5.011   1.831   4.486
 1600SOL    HW2 5700   5.094   1.692   4.503
 1601SOL     OW 5701   1.090   4.932   4.756
 1601SOL    HW1 5702   1.134   5.020   4.739
 1601SOL    HW2 5703   1.100   4.907   4.852
 1602SOL     OW 5704   1.640   5.636   4.053
 1602SOL    HW1 5705   1.713   5.573   4.079
 1602SOL    HW2 5706   1.680   5.718   4.011
 1603SOL     OW 5707   1.674   6.281   1.624
 1603SOL    HW1 5708   1.663   6.181   1.619
 1603SOL    HW2 5709   1.627   6.324   1.547
 1604SOL     OW 5710   5.989   5.063   6.779
 1604SOL    HW1 5711   5.960   5.143   6.727
 1604SOL    HW2 5712   5.909   5.014   6.813
 1605SOL     OW 5713   6.303   0.327   1.634
 1605SOL    HW1 5714   6.282   0.234   1.605
 1605SOL    HW2 5715   6.297   0.334   1.733
 1606SOL     OW 5716   4.411   0.838   5.457
 1606SOL    HW1 5717   4.408   0.813   5.361
 1606SOL    HW2 5718   4.333   0.797   5.505
 1607SOL     OW 5719   5.306   2.624   1.270
 1607SOL    HW1 5720   5.319   2.603   1.367
 1607SOL    HW2 5721   5.253   2.708   1.261
 1608SOL     OW 5722   1.367   0.990   5.865
 1608SOL    HW1 5723   1.344   1.065   5.927
 1608SOL    HW2 5724   1.359   0.903   5.914
 1609SOL     OW 5725   5.593   1.805   6.509
 1609SOL    HW1 5726   5.660   1.752   6.561
 1609SOL    HW2 5727   5.517   1.746   6.481
 1610SOL     OW 5728   5.876   4.361   5.443
 1610SOL    HW1 5729   5.945   4.330   5.377
 1610SOL    HW2 5730   5.789   4.318   5.422
 1611SOL     OW 5731   3.945   3.534   1.992
 1611SOL    HW1 5732   3.976   3.576   2.077
 1611SOL    HW2 5733   4.019   3.480   1.952
 1612SOL     OW 5734   2.831   0.928   5.759
 1612SOL    HW1 5735   2.785   1.016   5.744
 1612SOL    HW2 5736   2.813   0.868   5.681
 1613SOL     OW 5737   2.442   5.316   1.109
 1613SOL    HW1 5738   2.518   5.251   1.108
 1613SOL    HW2 5739   2.477   5.409   1.124
 1614SOL     OW 5740   6.911   3.840   0.338
 1614SOL    HW1 5741   6.879   3.925   0.379
 1614SOL    HW2 5742   7.010   3.830   0.354
 1615SOL     OW 5743   6.682   4.764   1.354
 1615SOL    HW1 5744   6.778   4.791   1.349
 1615SOL    HW2 5745   6.636   4.817   1.425
 1616SOL     OW 5746   4.025   1.383   5.858
 1616SOL    HW1 5747   4.073   1.397   5.945
 1616SOL    HW2 5748   4.092   1.387   5.783
 1617SOL     OW 5749   5.802   0.163   1.958
 1617SOL    HW1 5750   5.737   0.201   2.025
 1617SOL    HW2 5751   5.787   0.065   1.949
 1618SOL     OW 5752   0.621   4.084   0.996
 1618SOL    HW1 5753   0.563   4.067   0.916
 1618SOL    HW2 5754   0.597   4.173   1.036
 1619SOL     OW 5755   1.664   2.919   4.042
 1619SOL    HW1 5756   1.731   2.846   4.027
 1619SOL    HW2 5757   1.607   2.928   3.961
 1620SOL     OW 5758   2.255   5.601   0.808
 1620SOL    HW1 5759   2.240   5.506   0.837
 1620SOL    HW2 5760   2.300   5.601   0.719
 1621SOL     OW 5761   0.201   0.777   6.712
 1621SOL    HW1 5762   0.207   0.842   6.788
 1621SOL    HW2 5763   0.135   0.811   6.645
 1622SOL     OW 5764   1.662   2.004   4.860
 1622SOL    HW1 5765   1.616   1.922   4.896
 1622SOL    HW2 5766   1.756   1.980   4.833
 1623SOL     OW 5767   2.538   2.851   6.207
 1623SOL    HW1 5768   2.447   2.814   6.227
 1623SOL    HW2 5769   2.588   2.866   6.292
 1624SOL     OW 5770   2.368   0.932   6.252
 1624SOL    HW1 5771   2.321   0.982   6.325
 1624SOL    HW2 5772   2.464   0.918   6.277
 1625SOL     OW 5773   1.264   5.340   2.478
 1625SOL    HW1 5774   1.213   5.315   2.395
 1625SOL    HW2 5775   1.200   5.350   2.554
 1626SOL     OW 5776   2.077   1.796   6.612
 1626SOL    HW1 5777   2.171   1.816   6.584
 1626SOL    HW2 5778   2.039   1.876   6.659
 1627SOL     OW 5779   6.592   1.803   4.551
 1627SOL    HW1 5780   6.542   1.889   4.562
 1627SOL    HW2 5781   6.681   1.810   4.594
 1628SOL     OW 5782   3.919   5.320   0.147
 1628SOL    HW1 5783   3.926   5.386   0.221
 1628SOL    HW2 5784   4.003   5.322   0.093
 1629SOL     OW 5785   2.790   2.335   4.229
 1629SOL    HW1 5786   2.744   2.359   4.315
 1629SOL    HW2 5787   2.887   2.320   4.246
 1630SOL     OW 5788   0.527   6.038   5.697
 1630SOL    HW1 5789   0.508   6.034   5.598
 1630SOL    HW2 5790   0.482   5.962   5.743
 1631SOL     OW 5791   6.946   0.793   5.729
 1631SOL    HW1 5792   6.894   0.716   5.693
 1631SOL    HW2 5793   6.899   0.879   5.708
 1632SOL     OW 5794   7.018   1.313   6.730
 1632SOL    HW1 5795   6.947   1.373   6.695
 1632SOL    HW2 5796   0.042   1.361   6.800
 1633SOL     OW 5797   5.933   2.949   2.795
 1633SOL    HW1 5798   5.860   2.881   2.790
 1633SOL    HW2 5799   5.949   2.987   2.704
 1634SOL     OW 5800   4.247   6.004   5.760
 1634SOL    HW1 5801   4.161   6.055   5.765
 1634SOL    HW2 5802   4.320   6.065   5.730
 1635SOL     OW 5803   6.306   5.575   4.659
 1635SOL    HW1 5804   6.227   5.587   4.719
 1635SOL    HW2 5805   6.274   5.552   4.567
 1636SOL     OW 5806   2.535   4.529   1.556
 1636SOL    HW1 5807   2.506   4.558   1.646
 1636SOL    HW2 5808   2.456   4.528   1.494
 1637SOL     OW 5809   6.747   2.059   2.823
 1637SOL    HW1 5810   6.800   2.003   2.887
 1637SOL    HW2 5811   6.791   2.148   2.812
 1638SOL     OW 5812   0.453   3.961   3.993
 1638SOL    HW1 5813   0.480   3.945   4.088
 1638SOL    HW2 5814   0.391   4.039   3.989
 1639SOL     OW 5815   5.309   6.202   2.698
 1639SOL    HW1 5816   5.274   6.112   2.722
 1639SOL    HW2 5817   5.409   6.200   2.697
 1640SOL     OW 5818   6.009   2.179   0.382
 1640SOL    HW1 5819   5.949   2.124   0.324
 1640SOL    HW2 5820   6.061   2.242   0.324
 1641SOL     OW 5821   5.710   3.098   3.979
 1641SOL    HW1 5822   5.728   3.042   3.898
 1641SOL    HW2 5823   5.612   3.097   3.999
 1642SOL     OW 5824   6.631   3.333   7.015
 1642SOL    HW1 5825   6.632   3.391   0.066
 1642SOL    HW2 5826   6.695   3.257   7.027
 1643SOL     OW 5827   3.441   6.527   4.797
 1643SOL    HW1 5828   3.474   6.522   4.703
 1643SOL    HW2 5829   3.410   6.437   4.826
 1644SOL     OW 5830   2.366   3.087   1.045
 1644SOL    HW1 5831   2.410   3.168   1.007
 1644SOL    HW2 5832   2.319   3.037   0.972
 1645SOL     OW 5833   3.259   6.473   5.575
 1645SOL    HW1 5834   3.223   6.550   5.521
 1645SOL    HW2 5835   3.342   6.439   5.531
 1646SOL     OW 5836   2.981   4.449   1.391
 1646SOL    HW1 5837   2.955   4.389   1.466
 1646SOL    HW2 5838   3.052   4.406   1.336
 1647SOL     OW 5839   6.079   2.445   3.655
 1647SOL    HW1 5840   6.128   2.379   3.598
 1647SOL    HW2 5841   6.003   2.484   3.602
 1648SOL     OW 5842   5.331   6.509   1.765
 1648SOL    HW1 5843   5.259   6.573   1.795
 1648SOL    HW2 5844   5.400   6.559   1.713
 1649SOL     OW 5845   3.492   0.384   3.344
 1649SOL    HW1 5846   3.515   0.463   3.287
 1649SOL    HW2 5847   3.410   0.404   3.398
 1650SOL     OW 5848   2.912   6.721   4.575
 1650SOL    HW1 5849   3.010   6.712   4.591
 1650SOL    HW2 5850   2.874   6.631   4.551
 1651SOL     OW 5851   0.515   0.415   0.932
 1651SOL    HW1 5852   0.571   0.345   0.975
 1651SOL    HW2 5853   0.566   0.501   0.928
 1652SOL     OW 5854   2.046   1.661   0.695
 1652SOL    HW1 5855   1.974   1.700   0.752
 1652SOL    HW2 5856   2.074   1.728   0.626
 1653SOL     OW 5857   0.306   4.931   1.669
 1653SOL    HW1 5858   0.227   4.980   1.632
 1653SOL    HW2 5859   0.365   4.901   1.593
 1654SOL     OW 5860   6.999   2.882   2.359
 1654SOL    HW1 5861   7.017   2.870   2.456
 1654SOL    HW2 5862   6.993   2.980   2.338
 1655SOL     OW 5863   5.508   3.764   6.196
 1655SOL    HW1 5864   5.459   3.777   6.282
 1655SOL    HW2 5865   5.605   3.787   6.210
 1656SOL     OW 5866   1.663   4.285   3.295
 1656SOL    HW1 5867   1.667   4.354   3.222
 1656SOL    HW2 5868   1.747   4.290   3.349
 1657SOL     OW 5869   0.371   1.034   5.226
 1657SOL    HW1 5870   0.431   1.053   5.149
 1657SOL    HW2 5871   0.327   1.118   5.256
 1658SOL     OW 5872   6.541   6.922   2.716
 1658SOL    HW1 5873   6.482   6.975   2.655
 1658SOL    HW2 5874   6.511   6.937   2.811
 1659SOL     OW 5875   3.335   2.177   6.222
 1659SOL    HW1 5876   3.330   2.190   6.123
 1659SOL    HW2 5877   3.295   2.256   6.268
 1660SOL     OW 5878   1.325   5.475   3.925
 1660SOL    HW1 5879   1.291   5.381   3.920
 1660SOL    HW2 5880   1.324   5.505   4.021
 1661SOL     OW 5881   3.427   2.010   2.089
 1661SOL    HW1 5882   3.392   2.089   2.038
 1661SOL    HW2 5883   3.527   2.011   2.086
 1662SOL     OW 5884   6.582   1.072   3.578
 1662SOL    HW1 5885   6.613   1.098   3.486
 1662SOL    HW2 5886   6.511   1.135   3.608
 1663SOL     OW 5887   2.696   0.214   2.977
 1663SOL    HW1 5888   2.617   0.226   3.037
 1663SOL    HW2 5889   2.776   0.192   3.031
 1664SOL     OW 5890   2.023   0.379   4.338
 1664SOL    HW1 5891   2.020   0.295   4.393
 1664SOL    HW2 5892   2.006   0.355   4.242
 1665SOL     OW 5893   0.272   1.204   3.002
 1665SOL    HW1 5894   0.173   1.216   2.993
 1665SOL    HW2 5895   0.292   1.140   3.076
 1666SOL     OW 5896   6.292   2.921   0.261
 1666SOL    HW1 5897   6.279   2.918   0.360
 1666SOL    HW2 5898   6.381   2.883   0.237
 1667SOL     OW 5899   5.455   0.627   0.109
 1667SOL    HW1 5900   5.510   0.544   0.122
 1667SOL    HW2 5901   5.511   0.707   0.128
 1668SOL     OW 5902   5.258   6.401   4.727
 1668SOL    HW1 5903   5.313   6.374   4.649
 1668SOL    HW2 5904   5.286   6.491   4.759
 1669SOL     OW 5905   5.669   6.432   0.578
 1669SOL    HW1 5906   5.720   6.377   0.511
 1669SOL    HW2 5907   5.731   6.462   0.650
 1670SOL     OW 5908   6.476   5.629   5.642
 1670SOL    HW1 5909   6.390   5.613   5.691
 1670SOL    HW2 5910   6.504   5.545   5.596
 1671SOL     OW 5911   4.366   2.725   1.075
 1671SOL    HW1 5912   4.433   2.656   1.101
 1671SOL    HW2 5913   4.280   2.707   1.123
 1672SOL     OW 5914   2.208   4.067   2.725
 1672SOL    HW1 5915   2.231   4.141   2.662
 1672SOL    HW2 5916   2.202   3.981   2.675
 1673SOL     OW 5917   0.254   2.890   4.588
 1673SOL    HW1 5918   0.191   2.821   4.625
 1673SOL    HW2 5919   0.220   2.922   4.500
 1674SOL     OW 5920   1.834   4.073   1.279
 1674SOL    HW1 5921   1.755   4.132   1.297
 1674SOL    HW2 5922   1.908   4.095   1.343
 1675SOL     OW 5923   4.908   0.401   6.393
 1675SOL    HW1 5924   4.832   0.425   6.333
 1675SOL    HW2 5925   4.877   0.404   6.488
 1676SOL     OW 5926   3.072   1.362   2.686
 1676SOL    HW1 5927   3.138   1.435   2.706
 1676SOL    HW2 5928   2.981   1.401   2.674
 1677SOL     OW 5929   5.046   1.985   5.387
 1677SOL    HW1 5930   5.022   1.994   5.291
 1677SOL    HW2 5931   4.964   1.960   5.439
 1678SOL     OW 5932   5.283   4.987   4.040
 1678SOL    HW1 5933   5.200   4.999   4.094
 1678SOL    HW2 5934   5.327   4.901   4.065
 1679SOL     OW 5935   1.459   3.900   5.571
 1679SOL    HW1 5936   1.527   3.848   5.622
 1679SOL    HW2 5937   1.480   3.998   5.576
 1680SOL     OW 5938   0.863   1.531   3.983
 1680SOL    HW1 5939   0.877   1.488   3.893
 1680SOL    HW2 5940   0.947   1.576   4.012
 1681SOL     OW 5941   6.608   5.426   1.374
 1681SOL    HW1 5942   6.569   5.487   1.443
 1681SOL    HW2 5943   6.581   5.458   1.283
 1682SOL     OW 5944   0.242   3.141   4.671
 1682SOL    HW1 5945   0.257   3.047   4.640
 1682SOL    HW2 5946   0.326   3.194   4.657
 1683SOL     OW 5947   3.770   4.848   0.592
 1683SOL    HW1 5948   3.795   4.867   0.497
 1683SOL    HW2 5949   3.708   4.770   0.596
 1684SOL     OW 5950   1.076   6.501   3.891
 1684SOL    HW1 5951   1.129   6.532   3.811
 1684SOL    HW2 5952   0.990   6.551   3.895
 1685SOL     OW 5953   1.569   1.158   6.379
 1685SOL    HW1 5954   1.560   1.092   6.305
 1685SOL    HW2 5955   1.658   1.146   6.424
 1686SOL     OW 5956   1.528   5.814   5.920
 1686SOL    HW1 5957   1.532   5.898   5.865
 1686SOL    HW2 5958   1.439   5.770   5.908
 1687SOL     OW 5959   1.963   2.958   1.571
 1687SOL    HW1 5960   1.951   2.874   1.518
 1687SOL    HW2 5961   1.948   2.939   1.668
 1688SOL     OW 5962   1.615   1.274   3.278
 1688SOL    HW1 5963   1.571   1.362   3.298
 1688SOL    HW2 5964   1.546   1.202   3.274
 1689SOL     OW 5965   3.611   1.609   2.286
 1689SOL    HW1 5966   3.653   1.644   2.370
 1689SOL    HW2 5967   3.626   1.675   2.211
 1690SOL     OW 5968   1.291   2.534   3.129
 1690SOL    HW1 5969   1.330   2.619   3.164
 1690SOL    HW2 5970   1.199   2.521   3.166
 1691SOL     OW 5971   5.049   4.225   3.155
 1691SOL    HW1 5972   5.059   4.166   3.235
 1691SOL    HW2 5973   5.115   4.198   3.085
 1692SOL     OW 5974   6.914   0.050   1.064
 1692SOL    HW1 5975   6.911   0.140   1.021
 1692SOL    HW2 5976   6.895   0.059   1.162
 1693SOL     OW 5977   1.437   2.382   2.818
 1693SOL    HW1 5978   1.502   2.365   2.744
 1693SOL    HW2 5979   1.484   2.425   2.895
 1694SOL     OW 5980   4.277   6.447   4.435
 1694SOL    HW1 5981   4.178   6.449   4.428
 1694SOL    HW2 5982   4.314   6.385   4.367
 1695SOL     OW 5983   2.859   1.843   4.782
 1695SOL    HW1 5984   2.922   1.885   4.717
 1695SOL    HW2 5985   2.804   1.774   4.734
 1696SOL     OW 5986   4.773   5.550   0.772
 1696SOL    HW1 5987   4.867   5.564   0.804
 1696SOL    HW2 5988   4.770   5.475   0.707
 1697SOL     OW 5989   0.690   6.835   1.257
 1697SOL    HW1 5990   0.690   6.774   1.337
 1697SOL    HW2 5991   0.680   6.929   1.288
 1698SOL     OW 5992   4.517   1.931   1.379
 1698SOL    HW1 5993   4.494   2.012   1.325
 1698SOL    HW2 5994   4.433   1.882   1.404
 1699SOL     OW 5995   2.443   2.170   1.563
 1699SOL    HW1 5996   2.344   2.173   1.553
 1699SOL    HW2 5997   2.485   2.132   1.481
 1700SOL     OW 5998   6.467   2.387   3.433
 1700SOL    HW1 5999   6.525   2.307   3.448
 1700SOL    HW2 6000   6.501   2.464   3.488
 1701SOL     OW 6001   5.902   2.539   4.874
 1701SOL    HW1 6002   5.998   2.516   4.859
 1701SOL    HW2 6003   5.845   2.485   4.813
 1702SOL     OW 6004   6.290   4.147   1.013
 1702SOL    HW1 6005   6.316   4.052   1.031
 1702SOL    HW2 6006   6.286   4.197   1.099
 1703SOL     OW 6007   3.065   3.903   1.901
 1703SOL    HW1 6008   3.127   3.948   1.966
 1703SOL    HW2 6009   3.015   3.973   1.850
 1704SOL     OW 6010   0.336   1.212   0.584
 1704SOL    HW1 6011   0.277   1.134   0.560
 1704SOL    HW2 6012   0.280   1.283   0.627
 1705SOL     OW 6013   3.173   2.411   1.526
 1705SOL    HW1 6014   3.220   2.481   1.580
 1705SOL    HW2 6015   3.228   2.387   1.446
 1706SOL     OW 6016   4.229   0.201   1.423
 1706SOL    HW1 6017   4.192   0.268   1.359
 1706SOL    HW2 6018   4.311   0.238   1.466
 1707SOL     OW 6019   4.024   1.491   1.805
 1707SOL    HW1 6020   4.026   1.562   1.876
 1707SOL    HW2 6021   3.995   1.532   1.718
 1708SOL     OW 6022   6.307   5.979   2.968
 1708SOL    HW1 6023   6.318   5.945   2.875
 1708SOL    HW2 6024   6.371   6.055   2.984
 1709SOL     OW 6025   2.696   6.566   2.026
 1709SOL    HW1 6026   2.597   6.576   2.018
 1709SOL    HW2 6027   2.716   6.485   2.081
 1710SOL     OW 6028   0.183   3.818   3.797
 1710SOL    HW1 6029   0.271   3.865   3.805
 1710SOL    HW2 6030   0.117   3.877   3.753
 1711SOL     OW 6031   1.422   4.392   5.152
 1711SOL    HW1 6032   1.397   4.309   5.203
 1711SOL    HW2 6033   1.475   4.366   5.071
 1712SOL     OW 6034   0.658   4.162   6.332
 1712SOL    HW1 6035   0.561   4.138   6.333
 1712SOL    HW2 6036   0.696   4.144   6.242
 1713SOL     OW 6037   2.051   2.120   1.332
 1713SOL    HW1 6038   2.080   2.178   1.255
 1713SOL    HW2 6039   1.951   2.114   1.333
 1714SOL     OW 6040   3.981   1.578   6.309
 1714SOL    HW1 6041   3.964   1.511   6.382
 1714SOL    HW2 6042   3.919   1.655   6.320
 1715SOL     OW 6043   0.051   2.916   3.135
 1715SOL    HW1 6044   0.027   2.909   3.038
 1715SOL    HW2 6045   0.042   3.011   3.166
 1716SOL     OW 6046   5.655   6.669   1.135
 1716SOL    HW1 6047   5.653   6.769   1.134
 1716SOL    HW2 6048   5.749   6.637   1.148
 1717SOL     OW 6049   2.568   6.076   6.656
 1717SOL    HW1 6050   2.594   6.067   6.752
 1717SOL    HW2 6051   2.543   6.172   6.638
 1718SOL     OW 6052   2.123   2.468   0.286
 1718SOL    HW1 6053   2.183   2.540   0.251
 1718SOL    HW2 6054   2.070   2.429   0.210
 1719SOL     OW 6055   2.203   3.883   1.252
 1719SOL    HW1 6056   2.278   3.933   1.294
 1719SOL    HW2 6057   2.121   3.893   1.309
 1720SOL     OW 6058   6.551   2.074   0.982
 1720SOL    HW1 6059   6.491   2.018   0.926
 1720SOL    HW2 6060   6.637   2.089   0.934
 1721SOL     OW 6061   1.166   6.683   2.170
 1721SOL    HW1 6062   1.238   6.749   2.193
 1721SOL    HW2 6063   1.169   6.665   2.071
 1722SOL     OW 6064   5.182   0.600   2.947
 1722SOL    HW1 6065   5.212   0.691   2.973
 1722SOL    HW2 6066   5.086   0.588   2.974
 1723SOL     OW 6067   6.598   1.872   3.374
 1723SOL    HW1 6068   6.530   1.922   3.428
 1723SOL    HW2 6069   6.587   1.774   3.390
 1724SOL     OW 6070   5.926   1.092   0.742
 1724SOL    HW1 6071   5.829   1.104   0.763
 1724SOL    HW2 6072   5.971   1.182   0.741
 1725SOL     OW 6073   3.487   4.339   6.826
 1725SOL    HW1 6074   3.554   4.389   6.772
 1725SOL    HW2 6075   3.513   4.342   6.923
 1726SOL     OW 6076   6.509   4.154   4.209
 1726SOL    HW1 6077   6.546   4.063   4.189
 1726SOL    HW2 6078   6.430   4.172   4.150
 1727SOL     OW 6079   3.783   3.478   4.548
 1727SOL    HW1 6080   3.828   3.482   4.459
 1727SOL    HW2 6081   3.733   3.563   4.564
 1728SOL     OW 6082   5.073   4.636   4.423
 1728SOL    HW1 6083   5.002   4.589   4.371
 1728SOL    HW2 6084   5.119   4.702   4.363
 1729SOL     OW 6085   1.982   4.046   3.550
 1729SOL    HW1 6086   2.026   4.001   3.628
 1729SOL    HW2 6087   1.889   4.010   3.539
 1730SOL     OW 6088   6.621   0.779   5.412
 1730SOL    HW1 6089   6.585   0.870   5.428
 1730SOL    HW2 6090   6.654   0.772   5.317
 1731SOL     OW 6091   1.419   4.640   2.198
 1731SOL    HW1 6092   1.368   4.663   2.115
 1731SOL    HW2 6093   1.363   4.659   2.279
 1732SOL     OW 6094   2.273   4.187   6.468
 1732SOL    HW1 6095   2.365   4.157   6.443
 1732SOL    HW2 6096   2.266   4.286   6.455
 1733SOL     OW 6097   2.073   3.349   2.503
 1733SOL    HW1 6098   2.109   3.395   2.421
 1733SOL    HW2 6099   2.110   3.393   2.585
 1734SOL     OW 6100   4.305   3.205   1.823
 1734SOL    HW1 6101   4.374   3.146   1.864
 1734SOL    HW2 6102   4.218   3.156   1.816
 1735SOL     OW 6103   5.986   5.687   1.626
 1735SOL    HW1 6104   5.954   5.781   1.620
 1735SOL    HW2 6105   5.908   5.624   1.619
 1736SOL     OW 6106   5.044   2.488   0.101
 1736SOL    HW1 6107   4.947   2.505   0.084
 1736SOL    HW2 6108   5.093   2.480   0.014
 1737SOL     OW 6109   2.690   0.498   3.984
 1737SOL    HW1 6110   2.677   0.582   3.930
 1737SOL    HW2 6111   2.721   0.425   3.924
 1738SOL     OW 6112   2.172   2.782   3.730
 1738SOL    HW1 6113   2.102   2.725   3.773
 1738SOL    HW2 6114   2.254   2.782   3.787
 1739SOL     OW 6115   4.959   2.443   4.535
 1739SOL    HW1 6116   4.948   2.533   4.492
 1739SOL    HW2 6117   4.877   2.389   4.521
 1740SOL     OW 6118   6.885   1.088   6.756
 1740SOL    HW1 6119   6.917   1.014   6.697
 1740SOL    HW2 6120   6.940   1.170   6.742
 1741SOL     OW 6121   2.068   0.909   2.428
 1741SOL    HW1 6122   2.046   0.817   2.461
 1741SOL    HW2 6123   1.993   0.971   2.448
 1742SOL     OW 6124   3.979   6.202   6.065
 1742SOL    HW1 6125   3.946   6.297   6.066
 1742SOL    HW2 6126   3.904   6.142   6.039
 1743SOL     OW 6127   1.706   1.059   2.138
 1743SOL    HW1 6128   1.747   1.084   2.226
 1743SOL    HW2 6129   1.617   1.104   2.130
 1744SOL     OW 6130   1.622   0.210   1.803
 1744SOL    HW1 6131   1.590   0.291   1.755
 1744SOL    HW2 6132   1.598   0.217   1.900
 1745SOL     OW 6133   6.442   1.284   4.422
 1745SOL    HW1 6134   6.450   1.185   4.427
 1745SOL    HW2 6135   6.462   1.324   4.512
 1746SOL     OW 6136   2.612   5.763   5.725
 1746SOL    HW1 6137   2.673   5.822   5.673
 1746SOL    HW2 6138   2.665   5.692   5.771
 1747SOL     OW 6139   5.039   7.003   2.011
 1747SOL    HW1 6140   4.947   0.008   2.032
 1747SOL    HW2 6141   5.033   6.906   1.986
 1748SOL     OW 6142   6.612   1.249   3.927
 1748SOL    HW1 6143   6.538   1.183   3.922
 1748SOL    HW2 6144   6.578   1.340   3.901
 1749SOL     OW 6145   3.988   6.602   5.593
 1749SOL    HW1 6146   4.031   6.532   5.536
 1749SOL    HW2 6147   3.950   6.674   5.534
 1750SOL     OW 6148   4.942   0.970   3.245
 1750SOL    HW1 6149   4.858   0.958   3.193
 1750SOL    HW2 6150   4.991   1.051   3.212
 1751SOL     OW 6151   3.094   4.948   4.988
 1751SOL    HW1 6152   3.068   4.912   4.898
 1751SOL    HW2 6153   3.011   4.970   5.040
 1752SOL     OW 6154   6.289   2.892   1.588
 1752SOL    HW1 6155   6.366   2.829   1.597
 1752SOL    HW2 6156   6.208   2.851   1.631
 1753SOL     OW 6157   0.717   1.141   0.481
 1753SOL    HW1 6158   0.759   1.176   0.565
 1753SOL    HW2 6159   0.701   1.043   0.490
 1754SOL     OW 6160   3.705   3.418   0.850
 1754SOL    HW1 6161   3.744   3.361   0.923
 1754SOL    HW2 6162   3.776   3.476   0.811
 1755SOL     OW 6163   5.543   5.091   1.439
 1755SOL    HW1 6164   5.574   5.085   1.344
 1755SOL    HW2 6165   5.618   5.122   1.497
 1756SOL     OW 6166   5.683   4.910   5.091
 1756SOL    HW1 6167   5.635   4.884   5.175
 1756SOL    HW2 6168   5.779   4.883   5.098
 1757SOL     OW 6169   2.240   6.546   4.701
 1757SOL    HW1 6170   2.337   6.570   4.704
 1757SOL    HW2 6171   2.210   6.519   4.793
 1758SOL     OW 6172   2.745   0.719   3.847
 1758SOL    HW1 6173   2.798   0.682   3.770
 1758SOL    HW2 6174   2.744   0.819   3.842
 1759SOL     OW 6175   0.058   5.240   6.090
 1759SOL    HW1 6176   6.996   5.276   6.108
 1759SOL    HW2 6177   0.068   5.151   6.134
 1760SOL     OW 6178   6.506   1.691   1.293
 1760SOL    HW1 6179   6.531   1.745   1.213
 1760SOL    HW2 6180   6.431   1.736   1.341
 1761SOL     OW 6181   6.747   6.749   0.270
 1761SOL    HW1 6182   6.766   6.651   0.278
 1761SOL    HW2 6183   6.827   6.801   0.301
 1762SOL     OW 6184   6.220   2.159   5.628
 1762SOL    HW1 6185   6.248   2.230   5.563
 1762SOL    HW2 6186   6.290   2.088   5.633
 1763SOL     OW 6187   1.527   3.930   4.011
 1763SOL    HW1 6188   1.512   3.984   3.929
 1763SOL    HW2 6189   1.453   3.864   4.022
 1764SOL     OW 6190   2.160   3.806   2.551
 1764SOL    HW1 6191   2.140   3.838   2.458
 1764SOL    HW2 6192   2.191   3.711   2.548
 1765SOL     OW 6193   2.960   1.827   6.799
 1765SOL    HW1 6194   2.879   1.845   6.743
 1765SOL    HW2 6195   3.032   1.787   6.742
 1766SOL     OW 6196   5.171   2.767   3.777
 1766SOL    HW1 6197   5.093   2.743   3.833
 1766SOL    HW2 6198   5.193   2.864   3.790
 1767SOL     OW 6199   5.086   3.759   2.902
 1767SOL    HW1 6200   4.992   3.745   2.870
 1767SOL    HW2 6201   5.137   3.811   2.833
 1768SOL     OW 6202   4.076   0.925   5.205
 1768SOL    HW1 6203   4.068   0.868   5.124
 1768SOL    HW2 6204   4.084   1.021   5.178
 1769SOL     OW 6205   4.194   2.234   4.030
 1769SOL    HW1 6206   4.250   2.311   3.997
 1769SOL    HW2 6207   4.197   2.160   3.962
 1770SOL     OW 6208   2.088   5.801   5.234
 1770SOL    HW1 6209   2.118   5.707   5.250
 1770SOL    HW2 6210   1.989   5.803   5.219
 1771SOL     OW 6211   2.678   5.709   6.389
 1771SOL    HW1 6212   2.642   5.799   6.411
 1771SOL    HW2 6213   2.776   5.717   6.367
 1772SOL     OW 6214   3.021   6.878   4.282
 1772SOL    HW1 6215   3.013   6.778   4.285
 1772SOL    HW2 6216   3.112   6.905   4.311
 1773SOL     OW 6217   2.556   5.165   5.637
 1773SOL    HW1 6218   2.458   5.153   5.655
 1773SOL    HW2 6219   2.603   5.077   5.651
 1774SOL     OW 6220   4.333   5.965   1.709
 1774SOL    HW1 6221   4.419   5.988   1.665
 1774SOL    HW2 6222   4.312   5.869   1.693
 1775SOL     OW 6223   1.524   4.128   3.755
 1775SOL    HW1 6224   1.497   4.173   3.670
 1775SOL    HW2 6225   1.505   4.188   3.833
 1776SOL     OW 6226   3.456   6.756   3.941
 1776SOL    HW1 6227   3.497   6.665   3.931
 1776SOL    HW2 6228   3.386   6.769   3.871
 1777SOL     OW 6229   3.786   4.977   6.134
 1777SOL    HW1 6230   3.753   4.924   6.212
 1777SOL    HW2 6231   3.726   5.055   6.119
 1778SOL     OW 6232   4.204   3.447   5.710
 1778SOL    HW1 6233   4.132   3.494   5.761
 1778SOL    HW2 6234   4.263   3.515   5.666
 1779SOL     OW 6235   4.729   0.750   4.696
 1779SOL    HW1 6236   4.741   0.815   4.622
 1779SOL    HW2 6237   4.719   0.799   4.783
 1780SOL     OW 6238   3.555   2.641   6.575
 1780SOL    HW1 6239   3.500   2.710   6.528
 1780SOL    HW2 6240   3.503   2.555   6.580
 1781SOL     OW 6241   4.209   5.942   3.371
 1781SOL    HW1 6242   4.191   5.852   3.411
 1781SOL    HW2 6243   4.289   5.983   3.415
 1782SOL     OW 6244   3.137   1.773   2.503
 1782SOL    HW1 6245   3.069   1.843   2.527
 1782SOL    HW2 6246   3.174   1.793   2.412
 1783SOL     OW 6247   1.943   5.577   5.924
 1783SOL    HW1 6248   2.005   5.629   5.983
 1783SOL    HW2 6249   1.971   5.481   5.923
 1784SOL     OW 6250   4.140   1.450   6.119
 1784SOL    HW1 6251   4.077   1.504   6.176
 1784SOL    HW2 6252   4.134   1.354   6.145
 1785SOL     OW 6253   6.167   4.220   3.496
 1785SOL    HW1 6254   6.215   4.283   3.558
 1785SOL    HW2 6255   6.069   4.239   3.498
 1786SOL     OW 6256   2.333   2.329   0.016
 1786SOL    HW1 6257   2.306   2.367   6.957
 1786SOL    HW2 6258   2.402   2.388   0.058
 1787SOL     OW 6259   3.137   0.942   5.225
 1787SOL    HW1 6260   3.099   0.865   5.173
 1787SOL    HW2 6261   3.126   1.026   5.171
 1788SOL     OW 6262   2.976   3.001   0.278
 1788SOL    HW1 6263   3.069   2.965   0.286
 1788SOL    HW2 6264   2.922   2.942   0.218
 1789SOL     OW 6265   5.848   1.822   3.146
 1789SOL    HW1 6266   5.782   1.854   3.078
 1789SOL    HW2 6267   5.930   1.789   3.100
 1790SOL     OW 6268   4.097   6.198   3.871
 1790SOL    HW1 6269   4.063   6.252   3.947
 1790SOL    HW2 6270   4.153   6.255   3.811
 1791SOL     OW 6271   5.885   0.561   2.923
 1791SOL    HW1 6272   5.841   0.633   2.975
 1791SOL    HW2 6273   5.953   0.515   2.980
 1792SOL     OW 6274   6.382   3.393   5.123
 1792SOL    HW1 6275   6.351   3.447   5.044
 1792SOL    HW2 6276   6.328   3.419   5.203
 1793SOL     OW 6277   6.402   6.879   3.395
 1793SOL    HW1 6278   6.424   6.790   3.354
 1793SOL    HW2 6279   6.442   6.951   3.339
 1794SOL     OW 6280   5.535   6.031   5.683
 1794SOL    HW1 6281   5.627   6.037   5.646
 1794SOL    HW2 6282   5.518   6.110   5.742
 1795SOL     OW 6283   1.159   1.717   0.416
 1795SOL    HW1 6284   1.089   1.743   0.349
 1795SOL    HW2 6285   1.235   1.672   0.368
 1796SOL     OW 6286   2.604   0.853   4.528
 1796SOL    HW1 6287   2.603   0.895   4.619
 1796SOL    HW2 6288   2.623   0.755   4.537
 1797SOL     OW 6289   1.887   6.548   0.693
 1797SOL    HW1 6290   1.817   6.479   0.676
 1797SOL    HW2 6291   1.847   6.626   0.740
 1798SOL     OW 6292   4.759   2.694   3.538
 1798SOL    HW1 6293   4.852   2.727   3.554
 1798SOL    HW2 6294   4.714   2.675   3.625
 1799SOL     OW 6295   6.952   2.599   5.902
 1799SOL    HW1 6296   6.995   2.525   5.850
 1799SOL    HW2 6297   6.854   2.603   5.879
 1800SOL     OW 6298   3.863   4.901   1.920
 1800SOL    HW1 6299   3.852   4.857   1.831
 1800SOL    HW2 6300   3.779   4.891   1.973
 1801SOL     OW 6301   6.968   0.349   1.550
 1801SOL    HW1 6302   0.016   0.411   1.562
 1801SOL    HW2 6303   6.997   0.255   1.571
 1802SOL     OW 6304   5.272   5.491   3.810
 1802SOL    HW1 6305   5.252   5.589   3.817
 1802SOL    HW2 6306   5.223   5.442   3.882
 1803SOL     OW 6307   0.534   5.799   6.852
 1803SOL    HW1 6308   0.510   5.708   6.818
 1803SOL    HW2 6309   0.483   5.868   6.802
 1804SOL     OW 6310   2.615   3.896   5.357
 1804SOL    HW1 6311   2.616   3.796   5.360
 1804SOL    HW2 6312   2.538   3.927   5.301
 1805SOL     OW 6313   5.740   4.012   6.244
 1805SOL    HW1 6314   5.733   4.013   6.344
 1805SOL    HW2 6315   5.665   4.064   6.204
 1806SOL     OW 6316   0.416   0.093   0.179
 1806SOL    HW1 6317   0.425   0.154   0.101
 1806SOL    HW2 6318   0.493   0.030   0.182
 1807SOL     OW 6319   5.400   2.446   4.886
 1807SOL    HW1 6320   5.445   2.531   4.912
 1807SOL    HW2 6321   5.322   2.429   4.946
 1808SOL     OW 6322   0.432   4.310   5.681
 1808SOL    HW1 6323   0.387   4.221   5.683
 1808SOL    HW2 6324   0.445   4.343   5.775
 1809SOL     OW 6325   1.983   2.594   4.925
 1809SOL    HW1 6326   1.973   2.673   4.986
 1809SOL    HW2 6327   1.936   2.515   4.965
 1810SOL     OW 6328   2.687   6.929   3.681
 1810SOL    HW1 6329   2.601   6.976   3.660
 1810SOL    HW2 6330   2.720   6.958   3.771
 1811SOL     OW 6331   6.233   5.399   3.728
 1811SOL    HW1 6332   6.225   5.478   3.669
 1811SOL    HW2 6333   6.322   5.401   3.774
 1812SOL     OW 6334   4.299   6.171   4.896
 1812SOL    HW1 6335   4.358   6.101   4.936
 1812SOL    HW2 6336   4.296   6.160   4.797
 1813SOL     OW 6337   6.326   4.636   1.159
 1813SOL    HW1 6338   6.380   4.557   1.188
 1813SOL    HW2 6339   6.372   4.681   1.082
 1814SOL     OW 6340   5.559   0.194   1.432
 1814SOL    HW1 6341   5.504   0.220   1.511
 1814SOL    HW2 6342   5.655   0.217   1.449
 1815SOL     OW 6343   0.466   1.800   2.538
 1815SOL    HW1 6344   0.535   1.806   2.466
 1815SOL    HW2 6345   0.453   1.890   2.579
 1816SOL     OW 6346   3.040   3.484   1.010
 1816SOL    HW1 6347   3.077   3.420   1.077
 1816SOL    HW2 6348   2.945   3.460   0.990
 1817SOL     OW 6349   2.644   6.922   2.602
 1817SOL    HW1 6350   2.738   6.912   2.635
 1817SOL    HW2 6351   2.605   7.008   2.637
 1818SOL     OW 6352   1.341   6.615   2.641
 1818SOL    HW1 6353   1.305   6.555   2.570
 1818SOL    HW2 6354   1.269   6.679   2.670
 1819SOL     OW 6355   1.358   4.220   1.767
 1819SOL    HW1 6356   1.327   4.213   1.672
 1819SOL    HW2 6357   1.387   4.129   1.799
 1820SOL     OW 6358   4.179   1.267   3.025
 1820SOL    HW1 6359   4.260   1.210   3.013
 1820SOL    HW2 6360   4.179   1.339   2.955
 1821SOL     OW 6361   0.844   1.015   1.523
 1821SOL    HW1 6362   0.807   0.924   1.509
 1821SOL    HW2 6363   0.873   1.054   1.435
 1822SOL     OW 6364   2.592   2.931   1.133
 1822SOL    HW1 6365   2.593   2.963   1.038
 1822SOL    HW2 6366   2.498   2.916   1.163
 1823SOL     OW 6367   3.124   5.735   2.999
 1823SOL    HW1 6368   3.054   5.737   3.069
 1823SOL    HW2 6369   3.182   5.816   3.007
 1824SOL     OW 6370   3.533   2.143   1.071
 1824SOL    HW1 6371   3.462   2.194   1.119
 1824SOL    HW2 6372   3.600   2.109   1.137
 1825SOL     OW 6373   1.300   0.796   2.042
 1825SOL    HW1 6374   1.220   0.851   2.067
 1825SOL    HW2 6375   1.328   0.740   2.120
 1826SOL     OW 6376   3.344   0.620   1.765
 1826SOL    HW1 6377   3.283   0.602   1.842
 1826SOL    HW2 6378   3.301   0.684   1.702
 1827SOL     OW 6379   0.153   5.263   2.301
 1827SOL    HW1 6380   0.125   5.304   2.388
 1827SOL    HW2 6381   0.246   5.292   2.279
 1828SOL     OW 6382   0.308   2.414   0.300
 1828SOL    HW1 6383   0.243   2.443   0.370
 1828SOL    HW2 6384   0.383   2.481   0.295
 1829SOL     OW 6385   4.309   6.942   2.850
 1829SOL    HW1 6386   4.220   6.984   2.832
 1829SOL    HW2 6387   4.380   6.988   2.797
 1830SOL     OW 6388   5.471   5.647   4.312
 1830SOL    HW1 6389   5.391   5.676   4.260
 1830SOL    HW2 6390   5.485   5.549   4.301
 1831SOL     OW 6391   5.984   0.318   3.300
 1831SOL    HW1 6392   5.895   0.352   3.331
 1831SOL    HW2 6393   5.982   0.218   3.298
 1832SOL     OW 6394   5.810   2.038   0.807
 1832SOL    HW1 6395   5.752   2.119   0.802
 1832SOL    HW2 6396   5.843   2.015   0.716
 1833SOL     OW 6397   5.568   0.782   5.179
 1833SOL    HW1 6398   5.560   0.878   5.205
 1833SOL    HW2 6399   5.665   0.759   5.164
 1834SOL     OW 6400   3.405   3.894   6.966
 1834SOL    HW1 6401   3.377   3.798   6.966
 1834SOL    HW2 6402   3.427   3.923   0.030
 1835SOL     OW 6403   1.663   4.357   2.091
 1835SOL    HW1 6404   1.671   4.445   2.136
 1835SOL    HW2 6405   1.568   4.325   2.096
 1836SOL     OW 6406   6.668   1.521   0.885
 1836SOL    HW1 6407   6.758   1.479   0.874
 1836SOL    HW2 6408   6.622   1.524   0.797
 1837SOL     OW 6409   0.607   2.438   3.970
 1837SOL    HW1 6410   0.641   2.509   3.908
 1837SOL    HW2 6411   0.684   2.398   4.020
 1838SOL     OW 6412   0.248   2.099   3.839
 1838SOL    HW1 6413   0.236   2.113   3.741
 1838SOL    HW2 6414   0.344   2.079   3.859
 1839SOL     OW 6415   4.622   2.338   4.737
 1839SOL    HW1 6416   4.642   2.435   4.723
 1839SOL    HW2 6417   4.581   2.325   4.827
 1840SOL     OW 6418   3.622   6.042   1.698
 1840SOL    HW1 6419   3.537   6.033   1.749
 1840SOL    HW2 6420   3.618   6.123   1.639
 1841SOL     OW 6421   2.291   2.971   4.460
 1841SOL    HW1 6422   2.380   2.999   4.425
 1841SOL    HW2 6423   2.297   2.955   4.559
 1842SOL     OW 6424   0.861   5.682   0.429
 1842SOL    HW1 6425   0.864   5.781   0.439
 1842SOL    HW2 6426   0.921   5.640   0.498
 1843SOL     OW 6427   1.169   2.241   4.302
 1843SOL    HW1 6428   1.198   2.278   4.390
 1843SOL    HW2 6429   1.180   2.142   4.302
 1844SOL     OW 6430   3.813   0.621   6.062
 1844SOL    HW1 6431   3.790   0.648   6.156
 1844SOL    HW2 6432   3.770   0.685   5.998
 1845SOL     OW 6433   2.456   0.310   5.932
 1845SOL    HW1 6434   2.419   0.397   5.897
 1845SOL    HW2 6435   2.512   0.268   5.862
 1846SOL     OW 6436   3.654   2.198   0.024
 1846SOL    HW1 6437   3.702   2.180   6.968
 1846SOL    HW2 6438   3.706   2.159   0.100
 1847SOL     OW 6439   1.528   0.992   6.728
 1847SOL    HW1 6440   1.428   0.982   6.727
 1847SOL    HW2 6441   1.552   1.089   6.727
 1848SOL     OW 6442   1.914   6.333   2.711
 1848SOL    HW1 6443   1.957   6.276   2.781
 1848SOL    HW2 6444   1.855   6.276   2.654
 1849SOL     OW 6445   4.046   1.616   0.450
 1849SOL    HW1 6446   3.949   1.624   0.469
 1849SOL    HW2 6447   4.099   1.649   0.529
 1850SOL     OW 6448   6.572   2.399   2.732
 1850SOL    HW1 6449   6.511   2.394   2.811
 1850SOL    HW2 6450   6.667   2.395   2.763
 1851SOL     OW 6451   0.496   1.553   0.693
 1851SOL    HW1 6452   0.485   1.499   0.610
 1851SOL    HW2 6453   0.554   1.503   0.758
 1852SOL     OW 6454   5.075   4.181   1.139
 1852SOL    HW1 6455   5.084   4.230   1.226
 1852SOL    HW2 6456   5.041   4.089   1.155
 1853SOL     OW 6457   0.925   3.051   2.418
 1853SOL    HW1 6458   0.933   3.026   2.322
 1853SOL    HW2 6459   0.889   3.144   2.426
 1854SOL     OW 6460   2.721   6.119   3.715
 1854SOL    HW1 6461   2.714   6.022   3.689
 1854SOL    HW2 6462   2.802   6.159   3.672
 1855SOL     OW 6463   4.348   4.189   6.716
 1855SOL    HW1 6464   4.276   4.178   6.784
 1855SOL    HW2 6465   4.392   4.278   6.729
 1856SOL     OW 6466   6.196   3.122   5.448
 1856SOL    HW1 6467   6.099   3.107   5.467
 1856SOL    HW2 6468   6.210   3.130   5.350
 1857SOL     OW 6469   3.474   0.917   5.552
 1857SOL    HW1 6470   3.511   0.843   5.609
 1857SOL    HW2 6471   3.439   0.879   5.467
 1858SOL     OW 6472   5.779   2.895   3.781
 1858SOL    HW1 6473   5.713   2.840   3.731
 1858SOL    HW2 6474   5.867   2.847   3.785
 1859SOL     OW 6475   4.261   1.612   3.779
 1859SOL    HW1 6476   4.315   1.690   3.747
 1859SOL    HW2 6477   4.260   1.541   3.709
 1860SOL     OW 6478   6.439   0.270   3.703
 1860SOL    HW1 6479   6.358   0.318   3.671
 1860SOL    HW2 6480   6.414   0.208   3.778
 1861SOL     OW 6481   4.937   6.439   2.327
 1861SOL    HW1 6482   5.001   6.395   2.391
 1861SOL    HW2 6483   4.921   6.378   2.249
 1862SOL     OW 6484   2.436   0.056   6.726
 1862SOL    HW1 6485   2.398   0.074   6.816
 1862SOL    HW2 6486   2.363   0.062   6.657
 1863SOL     OW 6487   2.146   2.203   0.596
 1863SOL    HW1 6488   2.209   2.275   0.567
 1863SOL    HW2 6489   2.181   2.160   0.679
 1864SOL     OW 6490   1.247   0.136   5.382
 1864SOL    HW1 6491   1.339   0.151   5.418
 1864SOL    HW2 6492   1.180   0.155   5.454
 1865SOL     OW 6493   3.434   0.360   5.597
 1865SOL    HW1 6494   3.514   0.377   5.540
 1865SOL    HW2 6495   3.386   0.447   5.614
 1866SOL     OW 6496   4.212   4.722   2.626
 1866SOL    HW1 6497   4.118   4.741   2.598
 1866SOL    HW2 6498   4.229   4.760   2.717
 1867SOL     OW 6499   1.196   4.305   0.748
 1867SOL    HW1 6500   1.246   4.336   0.667
 1867SOL    HW2 6501   1.174   4.383   0.806
 1868SOL     OW 6502   4.425   4.409   0.575
 1868SOL    HW1 6503   4.444   4.361   0.661
 1868SOL    HW2 6504   4.487   4.486   0.566
 1869SOL     OW 6505   6.683   2.032   4.743
 1869SOL    HW1 6506   6.676   2.100   4.815
 1869SOL    HW2 6507   6.599   2.031   4.688
 1870SOL     OW 6508   2.030   3.802   5.797
 1870SOL    HW1 6509   2.089   3.728   5.765
 1870SOL    HW2 6510   1.937   3.788   5.762
 1871SOL     OW 6511   1.450   6.892   6.438
 1871SOL    HW1 6512   1.498   6.959   6.494
 1871SOL    HW2 6513   1.383   6.844   6.494
 1872SOL     OW 6514   3.768   3.507   6.656
 1872SOL    HW1 6515   3.760   3.495   6.557
 1872SOL    HW2 6516   3.680   3.537   6.693
 1873SOL     OW 6517   4.423   1.388   5.171
 1873SOL    HW1 6518   4.373   1.373   5.256
 1873SOL    HW2 6519   4.506   1.331   5.171
 1874SOL     OW 6520   2.454   1.012   0.655
 1874SOL    HW1 6521   2.496   1.082   0.598
 1874SOL    HW2 6522   2.423   1.053   0.740
 1875SOL     OW 6523   0.734   1.444   6.882
 1875SOL    HW1 6524   0.680   1.397   6.951
 1875SOL    HW2 6525   0.778   1.377   6.823
 1876SOL     OW 6526   3.465   0.328   6.133
 1876SOL    HW1 6527   3.560   0.308   6.109
 1876SOL    HW2 6528   3.405   0.291   6.063
 1877SOL     OW 6529   0.912   7.023   3.099
 1877SOL    HW1 6530   0.818   0.014   3.128
 1877SOL    HW2 6531   0.971   0.071   3.122
 1878SOL     OW 6532   6.689   1.553   3.864
 1878SOL    HW1 6533   6.674   1.634   3.807
 1878SOL    HW2 6534   6.697   1.582   3.960
 1879SOL     OW 6535   1.098   3.851   4.086
 1879SOL    HW1 6536   1.066   3.786   4.017
 1879SOL    HW2 6537   1.189   3.824   4.117
 1880SOL     OW 6538   6.830   1.605   4.903
 1880SOL    HW1 6539   6.882   1.676   4.857
 1880SOL    HW2 6540   6.775   1.645   4.976
 1881SOL     OW 6541   5.501   2.478   2.800
 1881SOL    HW1 6542   5.470   2.550   2.738
 1881SOL    HW2 6543   5.543   2.404   2.747
 1882SOL     OW 6544   1.035   4.287   6.765
 1882SOL    HW1 6545   0.977   4.357   6.807
 1882SOL    HW2 6546   1.053   4.311   6.670
 1883SOL     OW 6547   5.944   2.209   2.645
 1883SOL    HW1 6548   5.904   2.154   2.572
 1883SOL    HW2 6549   5.901   2.186   2.732
 1884SOL     OW 6550   0.396   2.188   0.389
 1884SOL    HW1 6551   0.367   2.279   0.359
 1884SOL    HW2 6552   0.428   2.194   0.484
 1885SOL     OW 6553   1.921   1.813   6.382
 1885SOL    HW1 6554   1.908   1.910   6.359
 1885SOL    HW2 6555   1.971   1.806   6.469
 1886SOL     OW 6556   1.255   0.175   2.190
 1886SOL    HW1 6557   1.213   0.148   2.277
 1886SOL    HW2 6558   1.233   0.107   2.120
 1887SOL     OW 6559   0.648   5.375   5.711
 1887SOL    HW1 6560   0.610   5.358   5.620
 1887SOL    HW2 6561   0.584   5.343   5.781
 1888SOL     OW 6562   3.104   2.190   6.923
 1888SOL    HW1 6563   3.123   2.103   6.969
 1888SOL    HW2 6564   3.057   2.173   6.836
 1889SOL     OW 6565   0.676   3.943   5.076
 1889SOL    HW1 6566   0.706   3.858   5.119
 1889SOL    HW2 6567   0.687   4.018   5.140
 1890SOL     OW 6568   1.609   5.412   3.855
 1890SOL    HW1 6569   1.561   5.464   3.925
 1890SOL    HW2 6570   1.634   5.472   3.780
 1891SOL     OW 6571   4.734   2.757   1.619
 1891SOL    HW1 6572   4.642   2.786   1.646
 1891SOL    HW2 6573   4.729   2.703   1.535
 1892SOL     OW 6574   0.392   6.823   1.932
 1892SOL    HW1 6575   0.353   6.773   1.854
 1892SOL    HW2 6576   0.325   6.827   2.006
 1893SOL     OW 6577   3.458   2.820   1.985
 1893SOL    HW1 6578   3.454   2.811   2.085
 1893SOL    HW2 6579   3.371   2.855   1.951
 1894SOL     OW 6580   3.755   3.325   4.138
 1894SOL    HW1 6581   3.823   3.253   4.153
 1894SOL    HW2 6582   3.787   3.410   4.179
 1895SOL     OW 6583   4.282   0.458   0.618
 1895SOL    HW1 6584   4.339   0.379   0.595
 1895SOL    HW2 6585   4.339   0.528   0.661
 1896SOL     OW 6586   6.133   1.485   1.144
 1896SOL    HW1 6587   6.050   1.472   1.091
 1896SOL    HW2 6588   6.207   1.431   1.104
 1897SOL     OW 6589   2.230   5.041   1.815
 1897SOL    HW1 6590   2.257   5.065   1.722
 1897SOL    HW2 6591   2.260   4.948   1.836
 1898SOL     OW 6592   1.862   4.516   3.370
 1898SOL    HW1 6593   1.921   4.437   3.386
 1898SOL    HW2 6594   1.826   4.512   3.277
 1899SOL     OW 6595   0.486   1.900   0.329
 1899SOL    HW1 6596   0.451   1.993   0.331
 1899SOL    HW2 6597   0.546   1.888   0.249
 1900SOL     OW 6598   2.340   0.710   7.028
 1900SOL    HW1 6599   2.280   0.772   0.048
 1900SOL    HW2 6600   2.308   0.616   0.010
 1901SOL     OW 6601   2.204   1.861   1.018
 1901SOL    HW1 6602   2.105   1.869   1.033
 1901SOL    HW2 6603   2.252   1.868   1.106
 1902SOL     OW 6604   2.619   0.985   4.302
 1902SOL    HW1 6605   2.584   0.934   4.381
 1902SOL    HW2 6606   2.553   1.054   4.274
 1903SOL     OW 6607   0.854   3.305   2.466
 1903SOL    HW1 6608   0.892   3.395   2.486
 1903SOL    HW2 6609   0.756   3.313   2.450
 1904SOL     OW 6610   5.505   5.394   3.315
 1904SOL    HW1 6611   5.455   5.327   3.369
 1904SOL    HW2 6612   5.470   5.394   3.221
 1905SOL     OW 6613   0.549   0.427   3.632
 1905SOL    HW1 6614   0.628   0.375   3.601
 1905SOL    HW2 6615   0.535   0.412   3.730
 1906SOL     OW 6616   3.164   0.982   5.973
 1906SOL    HW1 6617   3.130   0.888   5.979
 1906SOL    HW2 6618   3.247   0.984   5.917
 1907SOL     OW 6619   4.670   2.555   1.283
 1907SOL    HW1 6620   4.756   2.521   1.322
 1907SOL    HW2 6621   4.682   2.650   1.256
 1908SOL     OW 6622   3.996   6.293   6.651
 1908SOL    HW1 6623   4.034   6.384   6.668
 1908SOL    HW2 6624   4.067   6.234   6.613
 1909SOL     OW 6625   0.870   3.013   3.544
 1909SOL    HW1 6626   0.966   3.043   3.547
 1909SOL    HW2 6627   0.830   3.039   3.457
 1910SOL     OW 6628   0.177   6.265   5.088
 1910SOL    HW1 6629   0.246   6.193   5.075
 1910SOL    HW2 6630   0.222   6.348   5.121
 1911SOL     OW 6631   6.921   3.763   4.498
 1911SOL    HW1 6632   6.999   3.776   4.559
 1911SOL    HW2 6633   6.895   3.850   4.458
 1912SOL     OW 6634   2.924   5.977   2.181
 1912SOL    HW1 6635   2.948   5.905   2.246
 1912SOL    HW2 6636   2.914   5.938   2.090
 1913SOL     OW 6637   2.889   0.536   4.931
 1913SOL    HW1 6638   2.811   0.589   4.899
 1913SOL    HW2 6639   2.858   0.464   4.993
 1914SOL     OW 6640   3.901   3.377   7.016
 1914SOL    HW1 6641   3.932   3.283   0.001
 1914SOL    HW2 6642   3.870   3.415   0.074
 1915SOL     OW 6643   4.973   3.033   5.864
 1915SOL    HW1 6644   4.933   3.099   5.927
 1915SOL    HW2 6645   5.026   2.966   5.916
 1916SOL     OW 6646   4.593   6.293   1.083
 1916SOL    HW1 6647   4.561   6.321   1.174
 1916SOL    HW2 6648   4.595   6.372   1.023
 1917SOL     OW 6649   2.722   3.323   0.079
 1917SOL    HW1 6650   2.807   3.277   0.107
 1917SOL    HW2 6651   2.645   3.283   0.129
 1918SOL     OW 6652   0.642   1.010   4.761
 1918SOL    HW1 6653   0.662   1.064   4.679
 1918SOL    HW2 6654   0.611   0.919   4.733
 1919SOL     OW 6655   1.927   1.353   1.339
 1919SOL    HW1 6656   1.915   1.408   1.256
 1919SOL    HW2 6657   1.952   1.413   1.415
 1920SOL     OW 6658   6.159   3.267   2.956
 1920SOL    HW1 6659   6.203   3.185   2.919
 1920SOL    HW2 6660   6.210   3.348   2.927
 1921SOL     OW 6661   1.528   3.161   6.871
 1921SOL    HW1 6662   1.463   3.094   6.837
 1921SOL    HW2 6663   1.517   3.171   6.970
 1922SOL     OW 6664   2.745   3.392   1.896
 1922SOL    HW1 6665   2.732   3.407   1.994
 1922SOL    HW2 6666   2.790   3.304   1.882
 1923SOL     OW 6667   4.174   1.374   6.903
 1923SOL    HW1 6668   4.159   1.364   6.805
 1923SOL    HW2 6669   4.251   1.436   6.919
 1924SOL     OW 6670   4.628   0.203   0.730
 1924SOL    HW1 6671   4.586   0.283   0.774
 1924SOL    HW2 6672   4.572   0.122   0.747
 1925SOL     OW 6673   1.300   4.647   1.684
 1925SOL    HW1 6674   1.349   4.728   1.652
 1925SOL    HW2 6675   1.202   4.661   1.671
 1926SOL     OW 6676   3.051   0.333   1.847
 1926SOL    HW1 6677   2.991   0.390   1.790
 1926SOL    HW2 6678   3.005   0.314   1.934
 1927SOL     OW 6679   2.560   3.950   0.567
 1927SOL    HW1 6680   2.529   3.856   0.556
 1927SOL    HW2 6681   2.493   4.002   0.620
 1928SOL     OW 6682   5.377   5.142   4.387
 1928SOL    HW1 6683   5.411   5.048   4.388
 1928SOL    HW2 6684   5.277   5.140   4.391
 1929SOL     OW 6685   2.523   0.354   1.846
 1929SOL    HW1 6686   2.462   0.283   1.810
 1929SOL    HW2 6687   2.565   0.322   1.931
 1930SOL     OW 6688   5.414   3.365   6.917
 1930SOL    HW1 6689   5.403   3.336   6.822
 1930SOL    HW2 6690   5.509   3.352   6.945
 1931SOL     OW 6691   1.123   2.128   6.331
 1931SOL    HW1 6692   1.047   2.152   6.270
 1931SOL    HW2 6693   1.100   2.046   6.383
 1932SOL     OW 6694   4.749   2.717   3.255
 1932SOL    HW1 6695   4.791   2.806   3.237
 1932SOL    HW2 6696   4.729   2.709   3.353
 1933SOL     OW 6697   0.852   2.003   0.555
 1933SOL    HW1 6698   0.918   1.931   0.535
 1933SOL    HW2 6699   0.875   2.086   0.505
 1934SOL     OW 6700   0.385   0.886   5.654
 1934SOL    HW1 6701   0.420   0.874   5.561
 1934SOL    HW2 6702   0.362   0.797   5.693
 1935SOL     OW 6703   4.560   4.857   3.512
 1935SOL    HW1 6704   4.570   4.905   3.424
 1935SOL    HW2 6705   4.465   4.826   3.522
 1936SOL     OW 6706   4.936   3.578   4.259
 1936SOL    HW1 6707   4.944   3.674   4.231
 1936SOL    HW2 6708   4.937   3.519   4.178
 1937SOL     OW 6709   4.721   6.049   7.012
 1937SOL    HW1 6710   4.797   6.012   0.036
 1937SOL    HW2 6711   4.755   6.081   6.924
 1938SOL     OW 6712   1.081   2.556   0.688
 1938SOL    HW1 6713   1.175   2.525   0.671
 1938SOL    HW2 6714   1.078   2.656   0.682
 1939SOL     OW 6715   0.326   6.083   4.372
 1939SOL    HW1 6716   0.237   6.109   4.410
 1939SOL    HW2 6717   0.398   6.115   4.433
 1940SOL     OW 6718   5.965   4.564   1.791
 1940SOL    HW1 6719   5.875   4.578   1.751
 1940SOL    HW2 6720   5.958   4.564   1.891
 1941SOL     OW 6721   0.522   2.807   3.401
 1941SOL    HW1 6722   0.477   2.731   3.355
 1941SOL    HW2 6723   0.580   2.772   3.475
 1942SOL     OW 6724   5.552   3.966   2.658
 1942SOL    HW1 6725   5.548   3.986   2.756
 1942SOL    HW2 6726   5.638   3.919   2.637
 1943SOL     OW 6727   1.511   1.672   2.345
 1943SOL    HW1 6728   1.533   1.583   2.304
 1943SOL    HW2 6729   1.538   1.671   2.441
 1944SOL     OW 6730   6.358   4.553   0.048
 1944SOL    HW1 6731   6.313   4.569   6.989
 1944SOL    HW2 6732   6.427   4.481   0.037
 1945SOL     OW 6733   3.819   6.743   1.095
 1945SOL    HW1 6734   3.887   6.671   1.082
 1945SOL    HW2 6735   3.849   6.803   1.170
 1946SOL     OW 6736   5.605   6.376   2.002
 1946SOL    HW1 6737   5.511   6.353   1.977
 1946SOL    HW2 6738   5.668   6.340   1.934
 1947SOL     OW 6739   6.452   5.854   4.183
 1947SOL    HW1 6740   6.506   5.928   4.222
 1947SOL    HW2 6741   6.379   5.829   4.246
 1948SOL     OW 6742   5.643   4.252   2.700
 1948SOL    HW1 6743   5.598   4.253   2.611
 1948SOL    HW2 6744   5.607   4.327   2.756
 1949SOL     OW 6745   4.089   3.941   0.394
 1949SOL    HW1 6746   4.128   3.860   0.351
 1949SOL    HW2 6747   4.134   4.023   0.359
 1950SOL     OW 6748   4.098   3.356   3.828
 1950SOL    HW1 6749   4.100   3.298   3.746
 1950SOL    HW2 6750   4.012   3.406   3.832
 1951SOL     OW 6751   6.364   4.383   5.549
 1951SOL    HW1 6752   6.298   4.443   5.594
 1951SOL    HW2 6753   6.443   4.369   5.609
 1952SOL     OW 6754   4.942   4.425   1.359
 1952SOL    HW1 6755   5.010   4.456   1.425
 1952SOL    HW2 6756   4.926   4.327   1.369
 1953SOL     OW 6757   0.021   1.544   5.979
 1953SOL    HW1 6758   6.965   1.521   5.933
 1953SOL    HW2 6759   0.098   1.507   5.927
 1954SOL     OW 6760   5.466   0.827   1.890
 1954SOL    HW1 6761   5.508   0.911   1.924
 1954SOL    HW2 6762   5.535   0.755   1.887
 1955SOL     OW 6763   0.368   1.513   1.258
 1955SOL    HW1 6764   0.463   1.492   1.283
 1955SOL    HW2 6765   0.351   1.610   1.273
 1956SOL     OW 6766   4.715   0.095   2.696
 1956SOL    HW1 6767   4.768   0.012   2.676
 1956SOL    HW2 6768   4.618   0.073   2.697
 1957SOL     OW 6769   5.403   3.373   4.298
 1957SOL    HW1 6770   5.388   3.287   4.347
 1957SOL    HW2 6771   5.340   3.443   4.333
 1958SOL     OW 6772   4.696   1.663   1.292
 1958SOL    HW1 6773   4.707   1.703   1.201
 1958SOL    HW2 6774   4.649   1.727   1.352
 1959SOL     OW 6775   6.243   6.618   3.948
 1959SOL    HW1 6776   6.185   6.666   4.015
 1959SOL    HW2 6777   6.316   6.678   3.918
 1960SOL     OW 6778   6.860   2.729   3.168
 1960SOL    HW1 6779   6.911   2.811   3.196
 1960SOL    HW2 6780   6.924   2.660   3.134
 1961SOL     OW 6781   6.466   4.455   4.664
 1961SOL    HW1 6782   6.511   4.443   4.576
 1961SOL    HW2 6783   6.503   4.536   4.710
 1962SOL     OW 6784   1.176   5.710   2.682
 1962SOL    HW1 6785   1.240   5.642   2.717
 1962SOL    HW2 6786   1.122   5.670   2.607
 1963SOL     OW 6787   0.936   1.570   0.972
 1963SOL    HW1 6788   0.847   1.548   0.933
 1963SOL    HW2 6789   0.961   1.663   0.947
 1964SOL     OW 6790   5.322   4.526   1.677
 1964SOL    HW1 6791   5.364   4.616   1.677
 1964SOL    HW2 6792   5.237   4.528   1.623
 1965SOL     OW 6793   1.175   3.487   4.085
 1965SOL    HW1 6794   1.195   3.526   3.995
 1965SOL    HW2 6795   1.091   3.433   4.080
 1966SOL     OW 6796   1.713   4.710   0.870
 1966SOL    HW1 6797   1.685   4.684   0.963
 1966SOL    HW2 6798   1.749   4.803   0.872
 1967SOL     OW 6799   6.824   2.249   3.812
 1967SOL    HW1 6800   6.819   2.171   3.876
 1967SOL    HW2 6801   6.796   2.332   3.860
 1968SOL     OW 6802   2.502   1.209   5.468
 1968SOL    HW1 6803   2.602   1.213   5.462
 1968SOL    HW2 6804   2.463   1.281   5.411
 1969SOL     OW 6805   3.267   0.983   2.004
 1969SOL    HW1 6806   3.343   0.944   2.056
 1969SOL    HW2 6807   3.206   0.910   1.975
 1970SOL     OW 6808   6.503   6.741   4.745
 1970SOL    HW1 6809   6.523   6.646   4.722
 1970SOL    HW2 6810   6.548   6.802   4.679
 1971SOL     OW 6811   0.606   6.985   5.398
 1971SOL    HW1 6812   0.530   0.015   5.423
 1971SOL    HW2 6813   0.679   6.993   5.465
 1972SOL     OW 6814   5.386   2.286   1.191
 1972SOL    HW1 6815   5.319   2.214   1.205
 1972SOL    HW2 6816   5.414   2.324   1.279
 1973SOL     OW 6817   2.321   3.951   1.645
 1973SOL    HW1 6818   2.405   3.903   1.619
 1973SOL    HW2 6819   2.291   4.009   1.569
 1974SOL     OW 6820   4.641   6.779   4.657
 1974SOL    HW1 6821   4.586   6.701   4.630
 1974SOL    HW2 6822   4.581   6.855   4.683
 1975SOL     OW 6823   2.216   2.974   4.030
 1975SOL    HW1 6824   2.160   3.056   4.040
 1975SOL    HW2 6825   2.205   2.916   4.111
 1976SOL     OW 6826   6.080   6.923   6.713
 1976SOL    HW1 6827   6.055   7.019   6.724
 1976SOL    HW2 6828   6.090   6.880   6.803
 1977SOL     OW 6829   2.774   3.020   6.365
 1977SOL    HW1 6830   2.849   3.051   6.423
 1977SOL    HW2 6831   2.789   2.925   6.338
 1978SOL     OW 6832   2.102   6.084   3.367
 1978SOL    HW1 6833   2.098   6.129   3.456
 1978SOL    HW2 6834   2.102   5.985   3.380
 1979SOL     OW 6835   6.124   5.116   0.037
 1979SOL    HW1 6836   6.059   5.048   0.071
 1979SOL    HW2 6837   6.174   5.078   6.988
 1980SOL     OW 6838   3.402   0.829   2.536
 1980SOL    HW1 6839   3.385   0.744   2.586
 1980SOL    HW2 6840   3.402   0.906   2.601
 1981SOL     OW 6841   5.370   2.683   2.646
 1981SOL    HW1 6842   5.452   2.708   2.593
 1981SOL    HW2 6843   5.294   2.665   2.584
 1982SOL     OW 6844   6.831   4.225   3.955
 1982SOL    HW1 6845   6.785   4.309   3.926
 1982SOL    HW2 6846   6.929   4.235   3.938
 1983SOL     OW 6847   0.687   0.274   1.126
 1983SOL    HW1 6848   0.610   0.319   1.172
 1983SOL    HW2 6849   0.714   0.193   1.179
 1984SOL     OW 6850   5.250   2.412   4.493
 1984SOL    HW1 6851   5.158   2.401   4.530
 1984SOL    HW2 6852   5.314   2.356   4.546
 1985SOL     OW 6853   6.504   5.269   1.841
 1985SOL    HW1 6854   6.576   5.332   1.867
 1985SOL    HW2 6855   6.516   5.182   1.889
 1986SOL     OW 6856   2.667   1.164   6.648
 1986SOL    HW1 6857   2.667   1.173   6.549
 1986SOL    HW2 6858   2.574   1.177   6.683
 1987SOL     OW 6859   2.152   1.085   3.903
 1987SOL    HW1 6860   2.102   1.160   3.860
 1987SOL    HW2 6861   2.224   1.053   3.841
 1988SOL     OW 6862   0.329   1.392   0.999
 1988SOL    HW1 6863   0.380   1.306   0.999
 1988SOL    HW2 6864   0.342   1.438   1.087
 1989SOL     OW 6865   2.881   6.084   4.677
 1989SOL    HW1 6866   2.883   6.136   4.591
 1989SOL    HW2 6867   2.791   6.043   4.689
 1990SOL     OW 6868   3.963   0.222   0.377
 1990SOL    HW1 6869   3.964   0.172   0.463
 1990SOL    HW2 6870   3.928   0.163   0.304
 1991SOL     OW 6871   2.798   5.102   0.237
 1991SOL    HW1 6872   2.737   5.154   0.177
 1991SOL    HW2 6873   2.768   5.112   0.332
 1992SOL     OW 6874   0.008   6.562   0.270
 1992SOL    HW1 6875   0.050   6.476   0.299
 1992SOL    HW2 6876   6.967   6.544   0.202
 1993SOL     OW 6877   2.625   2.407   4.451
 1993SOL    HW1 6878   2.584   2.322   4.481
 1993SOL    HW2 6879   2.569   2.484   4.481
 1994SOL     OW 6880   4.526   2.199   0.825
 1994SOL    HW1 6881   4.539   2.295   0.847
 1994SOL    HW2 6882   4.549   2.183   0.729
 1995SOL     OW 6883   5.671   2.448   4.176
 1995SOL    HW1 6884   5.693   2.543   4.155
 1995SOL    HW2 6885   5.726   2.388   4.117
 1996SOL     OW 6886   2.555   2.072   1.311
 1996SOL    HW1 6887   2.503   2.133   1.250
 1996SOL    HW2 6888   2.650   2.102   1.314
 1997SOL     OW 6889   3.578   1.364   4.025
 1997SOL    HW1 6890   3.486   1.405   4.030
 1997SOL    HW2 6891   3.645   1.435   4.003
 1998SOL     OW 6892   1.395   3.146   1.090
 1998SOL    HW1 6893   1.405   3.149   0.990
 1998SOL    HW2 6894   1.334   3.071   1.115
 1999SOL     OW 6895   0.007   0.888   4.918
 1999SOL    HW1 6896   7.008   0.793   4.912
 1999SOL    HW2 6897   0.077   0.907   4.850
 2000SOL     OW 6898   4.179   3.755   5.956
 2000SOL    HW1 6899   4.208   3.850   5.972
 2000SOL    HW2 6900   4.259   3.696   5.954
 2001SOL     OW 6901   1.569   1.770   6.929
 2001SOL    HW1 6902   1.586   1.676   6.958
 2001SOL    HW2 6903   1.631   1.831   6.978
 2002SOL     OW 6904   0.742   5.602   0.826
 2002SOL    HW1 6905   0.700   5.624   0.738
 2002SOL    HW2 6906   0.694   5.650   0.899
 2003SOL     OW 6907   6.267   5.171   2.074
 2003SOL    HW1 6908   6.343   5.109   2.088
 2003SOL    HW2 6909   6.282   5.255   2.127
 2004SOL     OW 6910   4.391   0.965   3.850
 2004SOL    HW1 6911   4.292   0.959   3.856
 2004SOL    HW2 6912   4.433   0.901   3.914
 2005SOL     OW 6913   6.749   5.998   0.084
 2005SOL    HW1 6914   6.679   6.067   0.101
 2005SOL    HW2 6915   6.737   5.960   7.022
 2006SOL     OW 6916   5.214   0.021   4.352
 2006SOL    HW1 6917   5.310   0.002   4.373
 2006SOL    HW2 6918   5.163   6.964   4.348
 2007SOL     OW 6919   4.912   4.204   1.510
 2007SOL    HW1 6920   4.887   4.108   1.505
 2007SOL    HW2 6921   4.972   4.220   1.589
 2008SOL     OW 6922   2.089   3.444   4.184
 2008SOL    HW1 6923   2.137   3.471   4.101
 2008SOL    HW2 6924   2.096   3.517   4.252
 2009SOL     OW 6925   5.686   6.169   1.823
 2009SOL    HW1 6926   5.749   6.197   1.750
 2009SOL    HW2 6927   5.592   6.178   1.791
 2010SOL     OW 6928   1.295   2.277   1.047
 2010SOL    HW1 6929   1.383   2.269   1.002
 2010SOL    HW2 6930   1.265   2.373   1.046
 2011SOL     OW 6931   7.021   0.090   5.708
 2011SOL    HW1 6932   0.047   0.046   5.779
 2011SOL    HW2 6933   0.045   0.094   5.623
 2012SOL     OW 6934   1.797   3.814   2.280
 2012SOL    HW1 6935   1.781   3.725   2.237
 2012SOL    HW2 6936   1.709   3.855   2.305
 2013SOL     OW 6937   0.272   2.739   3.177
 2013SOL    HW1 6938   0.249   2.644   3.154
 2013SOL    HW2 6939   0.192   2.797   3.163
 2014SOL     OW 6940   3.351   0.265   3.710
 2014SOL    HW1 6941   3.446   0.273   3.681
 2014SOL    HW2 6942   3.342   0.300   3.803
 2015SOL     OW 6943   3.725   0.530   1.156
 2015SOL    HW1 6944   3.792   0.604   1.163
 2015SOL    HW2 6945   3.736   0.468   1.235
 2016SOL     OW 6946   1.449   6.263   5.587
 2016SOL    HW1 6947   1.415   6.193   5.524
 2016SOL    HW2 6948   1.545   6.281   5.568
 2017SOL     OW 6949   4.268   0.175   3.548
 2017SOL    HW1 6950   4.243   0.179   3.645
 2017SOL    HW2 6951   4.362   0.143   3.539
 2018SOL     OW 6952   0.136   2.161   3.417
 2018SOL    HW1 6953   0.158   2.069   3.383
 2018SOL    HW2 6954   0.060   2.155   3.481
 2019SOL     OW 6955   6.149   4.650   6.917
 2019SOL    HW1 6956   6.224   4.696   6.869
 2019SOL    HW2 6957   6.075   4.633   6.852
 2020SOL     OW 6958   1.009   5.904   6.042
 2020SOL    HW1 6959   1.104   5.906   6.075
 2020SOL    HW2 6960   0.959   5.833   6.090
 2021SOL     OW 6961   6.465   6.414   3.303
 2021SOL    HW1 6962   6.409   6.366   3.236
 2021SOL    HW2 6963   6.449   6.374   3.394
 2022SOL     OW 6964   1.965   4.382   4.939
 2022SOL    HW1 6965   2.025   4.303   4.932
 2022SOL    HW2 6966   1.996   4.441   5.013
 2023SOL     OW 6967   6.825   6.777   6.934
 2023SOL    HW1 6968   6.813   6.876   6.932
 2023SOL    HW2 6969   6.769   6.735   6.863
 2024SOL     OW 6970   0.051   5.727   4.288
 2024SOL    HW1 6971   0.092   5.750   4.200
 2024SOL    HW2 6972   0.120   5.737   4.360
 2025SOL     OW 6973   3.152   0.869   3.719
 2025SOL    HW1 6974   3.108   0.900   3.804
 2025SOL    HW2 6975   3.189   0.948   3.671
 2026SOL     OW 6976   5.948   1.053   6.740
 2026SOL    HW1 6977   5.852   1.082   6.744
 2026SOL    HW2 6978   6.006   1.126   6.776
 2027SOL     OW 6979   0.827   6.011   1.835
 2027SOL    HW1 6980   0.778   5.930   1.802
 2027SOL    HW2 6981   0.900   5.984   1.897
 2028SOL     OW 6982   3.969   5.885   2.938
 2028SOL    HW1 6983   3.980   5.830   3.021
 2028SOL    HW2 6984   3.960   5.825   2.859
 2029SOL     OW 6985   0.062   1.959   0.079
 2029SOL    HW1 6986   7.005   1.996   0.044
 2029SOL    HW2 6987   0.094   2.016   0.154
 2030SOL     OW 6988   2.827   6.121   2.583
 2030SOL    HW1 6989   2.883   6.166   2.513
 2030SOL    HW2 6990   2.865   6.139   2.673
 2031SOL     OW 6991   0.147   5.625   2.506
 2031SOL    HW1 6992   0.189   5.672   2.585
 2031SOL    HW2 6993   0.129   5.530   2.530
 2032SOL     OW 6994   3.623   1.684   0.185
 2032SOL    HW1 6995   3.556   1.705   0.114
 2032SOL    HW2 6996   3.592   1.604   0.237
 2033SOL     OW 6997   1.362   0.976   0.204
 2033SOL    HW1 6998   1.274   0.929   0.212
 2033SOL    HW2 6999   1.384   0.989   0.107
 2034SOL     OW 7000   1.544   5.264   5.600
 2034SOL    HW1 7001   1.577   5.186   5.547
 2034SOL    HW2 7002   1.555   5.244   5.698
 2035SOL     OW 7003   6.848   6.923   1.620
 2035SOL    HW1 7004   6.893   6.851   1.672
 2035SOL    HW2 7005   6.749   6.914   1.630
 2036SOL     OW 7006   1.034   3.519   2.862
 2036SOL    HW1 7007   0.997   3.607   2.891
 2036SOL    HW2 7008   1.134   3.524   2.861
 2037SOL     OW 7009   7.000   3.118   6.124
 2037SOL    HW1 7010   6.938   3.071   6.187
 2037SOL    HW2 7011   6.947   3.162   6.052
 2038SOL     OW 7012   2.913   1.285   0.021
 2038SOL    HW1 7013   2.873   1.246   0.104
 2038SOL    HW2 7014   2.855   1.359   7.017
 2039SOL     OW 7015   0.156   5.812   2.298
 2039SOL    HW1 7016   0.135   5.745   2.369
 2039SOL    HW2 7017   0.163   5.766   2.209
 2040SOL     OW 7018   1.890   2.545   0.014
 2040SOL    HW1 7019   1.942   2.461   0.032
 2040SOL    HW2 7020   1.954   2.620   7.024
 2041SOL     OW 7021   1.987   6.767   5.567
 2041SOL    HW1 7022   2.036   6.729   5.646
 2041SOL    HW2 7023   1.956   6.860   5.590
 2042SOL     OW 7024   5.212   0.512   6.111
 2042SOL    HW1 7025   5.172   0.497   6.021
 2042SOL    HW2 7026   5.265   0.597   6.110
 2043SOL     OW 7027   6.673   2.628   1.429
 2043SOL    HW1 7028   6.673   2.545   1.374
 2043SOL    HW2 7029   6.751   2.628   1.491
 2044SOL     OW 7030   5.869   1.217   1.266
 2044SOL    HW1 7031   5.779   1.181   1.241
 2044SOL    HW2 7032   5.902   1.168   1.347
 2045SOL     OW 7033   1.802   5.270   5.915
 2045SOL    HW1 7034   1.794   5.295   6.012
 2045SOL    HW2 7035   1.721   5.219   5.887
 2046SOL     OW 7036   0.267   1.633   5.401
 2046SOL    HW1 7037   0.270   1.601   5.496
 2046SOL    HW2 7038   0.342   1.592   5.349
 2047SOL     OW 7039   6.591   2.598   0.667
 2047SOL    HW1 7040   6.535   2.587   0.749
 2047SOL    HW2 7041   6.664   2.665   0.685
 2048SOL     OW 7042   0.784   1.362   4.196
 2048SOL    HW1 7043   0.826   1.426   4.131
 2048SOL    HW2 7044   0.854   1.297   4.227
 2049SOL     OW 7045   4.342   1.273   4.720
 2049SOL    HW1 7046   4.337   1.337   4.796
 2049SOL    HW2 7047   4.253   1.270   4.673
 2050SOL     OW 7048   0.182   2.182   4.105
 2050SOL    HW1 7049   0.226   2.162   4.018
 2050SOL    HW2 7050   0.126   2.265   4.096
 2051SOL     OW 7051   2.863   6.592   0.163
 2051SOL    HW1 7052   2.833   6.687   0.174
 2051SOL    HW2 7053   2.958   6.584   0.193
 2052SOL     OW 7054   2.000   3.617   0.461
 2052SOL    HW1 7055   2.016   3.543   0.527
 2052SOL    HW2 7056   1.953   3.693   0.507
 2053SOL     OW 7057   1.247   5.181   4.601
 2053SOL    HW1 7058   1.306   5.117   4.553
 2053SOL    HW2 7059   1.269   5.274   4.573
 2054SOL     OW 7060   3.442   2.979   2.634
 2054SOL    HW1 7061   3.491   2.947   2.553
 2054SOL    HW2 7062   3.401   3.068   2.615
 2055SOL     OW 7063   0.570   2.406   4.763
 2055SOL    HW1 7064   0.602   2.493   4.801
 2055SOL    HW2 7065   0.637   2.335   4.782
 2056SOL     OW 7066   3.937   5.154   0.765
 2056SOL    HW1 7067   3.939   5.169   0.666
 2056SOL    HW2 7068   3.949   5.057   0.784
 2057SOL     OW 7069   5.727   2.360   4.428
 2057SOL    HW1 7070   5.638   2.366   4.474
 2057SOL    HW2 7071   5.718   2.393   4.334
 2058SOL     OW 7072   0.726   6.093   3.266
 2058SOL    HW1 7073   0.748   6.117   3.172
 2058SOL    HW2 7074   0.797   6.127   3.327
 2059SOL     OW 7075   2.674   0.451   5.616
 2059SOL    HW1 7076   2.712   0.487   5.531
 2059SOL    HW2 7077   2.575   0.438   5.605
 2060SOL     OW 7078   1.058   3.262   0.256
 2060SOL    HW1 7079   1.074   3.198   0.180
 2060SOL    HW2 7080   1.024   3.349   0.220
 2061SOL     OW 7081   1.991   2.703   2.413
 2061SOL    HW1 7082   1.937   2.704   2.497
 2061SOL    HW2 7083   2.046   2.785   2.408
 2062SOL     OW 7084   6.805   5.027   5.144
 2062SOL    HW1 7085   6.785   5.109   5.091
 2062SOL    HW2 7086   6.874   4.972   5.096
 2063SOL     OW 7087   1.393   6.805   5.437
 2063SOL    HW1 7088   1.463   6.754   5.487
 2063SOL    HW2 7089   1.361   6.881   5.493
 2064SOL     OW 7090   1.005   3.615   4.492
 2064SOL    HW1 7091   0.967   3.683   4.554
 2064SOL    HW2 7092   0.981   3.524   4.524
 2065SOL     OW 7093   5.463   2.823   5.198
 2065SOL    HW1 7094   5.458   2.748   5.265
 2065SOL    HW2 7095   5.394   2.808   5.127
 2066SOL     OW 7096   6.030   3.700   5.778
 2066SOL    HW1 7097   6.022   3.769   5.705
 2066SOL    HW2 7098   5.944   3.696   5.828
 2067SOL     OW 7099   6.388   4.707   1.542
 2067SOL    HW1 7100   6.311   4.662   1.587
 2067SOL    HW2 7101   6.360   4.740   1.452
 2068SOL     OW 7102   3.812   1.224   4.142
 2068SOL    HW1 7103   3.814   1.307   4.085
 2068SOL    HW2 7104   3.830   1.144   4.085
 2069SOL     OW 7105   6.916   1.711   4.252
 2069SOL    HW1 7106   6.950   1.781   4.190
 2069SOL    HW2 7107   6.964   1.625   4.236
 2070SOL     OW 7108   1.372   3.007   1.774
 2070SOL    HW1 7109   1.331   3.043   1.858
 2070SOL    HW2 7110   1.471   3.020   1.777
 2071SOL     OW 7111   6.299   1.288   5.946
 2071SOL    HW1 7112   6.353   1.284   6.030
 2071SOL    HW2 7113   6.310   1.377   5.903
 2072SOL     OW 7114   3.908   4.809   5.294
 2072SOL    HW1 7115   3.972   4.744   5.253
 2072SOL    HW2 7116   3.883   4.777   5.386
 2073SOL     OW 7117   3.823   6.175   6.823
 2073SOL    HW1 7118   3.760   6.133   6.758
 2073SOL    HW2 7119   3.891   6.229   6.772
 2074SOL     OW 7120   1.835   3.647   5.651
 2074SOL    HW1 7121   1.763   3.591   5.692
 2074SOL    HW2 7122   1.858   3.611   5.560
 2075SOL     OW 7123   6.734   2.286   2.227
 2075SOL    HW1 7124   6.693   2.229   2.298
 2075SOL    HW2 7125   6.827   2.311   2.254
 2076SOL     OW 7126   5.663   0.262   4.903
 2076SOL    HW1 7127   5.708   0.299   4.985
 2076SOL    HW2 7128   5.641   0.337   4.841
 2077SOL     OW 7129   0.626   2.833   1.495
 2077SOL    HW1 7130   0.721   2.817   1.521
 2077SOL    HW2 7131   0.566   2.785   1.559
 2078SOL     OW 7132   2.074   4.927   5.945
 2078SOL    HW1 7133   2.064   4.966   6.037
 2078SOL    HW2 7134   2.094   4.829   5.953
 2079SOL     OW 7135   5.176   1.278   2.037
 2079SOL    HW1 7136   5.156   1.242   2.128
 2079SOL    HW2 7137   5.237   1.357   2.046
 2080SOL     OW 7138   2.772   2.349   4.712
 2080SOL    HW1 7139   2.719   2.364   4.628
 2080SOL    HW2 7140   2.734   2.403   4.786
 2081SOL     OW 7141   0.172   6.606   3.221
 2081SOL    HW1 7142   0.178   6.705   3.226
 2081SOL    HW2 7143   0.234   6.566   3.289
 2082SOL     OW 7144   0.617   6.284   2.321
 2082SOL    HW1 7145   0.652   6.310   2.231
 2082SOL    HW2 7146   0.596   6.186   2.321
 2083SOL     OW 7147   0.482   6.136   3.568
 2083SOL    HW1 7148   0.551   6.191   3.521
 2083SOL    HW2 7149   0.391   6.176   3.551
 2084SOL     OW 7150   1.134   1.441   1.368
 2084SOL    HW1 7151   1.232   1.454   1.378
 2084SOL    HW2 7152   1.086   1.486   1.444
 2085SOL     OW 7153   4.992   5.999   0.114
 2085SOL    HW1 7154   4.952   5.979   0.203
 2085SOL    HW2 7155   5.033   6.091   0.117
 2086SOL     OW 7156   3.871   0.009   0.251
 2086SOL    HW1 7157   3.790   6.995   0.292
 2086SOL    HW2 7158   3.892   6.995   0.164
 2087SOL     OW 7159   4.226   2.047   6.838
 2087SOL    HW1 7160   4.151   2.057   6.903
 2087SOL    HW2 7161   4.268   1.957   6.849
 2088SOL     OW 7162   0.106   5.644   5.634
 2088SOL    HW1 7163   0.110   5.718   5.566
 2088SOL    HW2 7164   0.195   5.599   5.641
 2089SOL     OW 7165   3.677   2.978   5.599
 2089SOL    HW1 7166   3.740   2.978   5.677
 2089SOL    HW2 7167   3.634   3.067   5.590
 2090SOL     OW 7168   4.663   3.284   5.316
 2090SOL    HW1 7169   4.634   3.362   5.261
 2090SOL    HW2 7170   4.676   3.313   5.411
 2091SOL     OW 7171   6.362   6.076   1.819
 2091SOL    HW1 7172   6.367   5.979   1.841
 2091SOL    HW2 7173   6.380   6.089   1.722
 2092SOL     OW 7174   4.616   3.752   1.303
 2092SOL    HW1 7175   4.631   3.739   1.401
 2092SOL    HW2 7176   4.569   3.839   1.287
 2093SOL     OW 7177   4.030   1.944   2.215
 2093SOL    HW1 7178   4.013   1.928   2.313
 2093SOL    HW2 7179   3.981   2.026   2.186
 2094SOL     OW 7180   5.833   3.123   0.066
 2094SOL    HW1 7181   5.848   3.050   0.132
 2094SOL    HW2 7182   5.921   3.156   0.032
 2095SOL     OW 7183   5.881   6.343   4.131
 2095SOL    HW1 7184   5.937   6.270   4.094
 2095SOL    HW2 7185   5.793   6.306   4.162
 2096SOL     OW 7186   4.593   6.465   2.172
 2096SOL    HW1 7187   4.580   6.439   2.267
 2096SOL    HW2 7188   4.680   6.428   2.138
 2097SOL     OW 7189   2.023   4.731   6.587
 2097SOL    HW1 7190   2.002   4.638   6.557
 2097SOL    HW2 7191   2.001   4.740   6.684
 2098SOL     OW 7192   4.101   6.064   3.158
 2098SOL    HW1 7193   4.076   6.004   3.082
 2098SOL    HW2 7194   4.122   6.009   3.239
 2099SOL     OW 7195   4.686   1.612   6.918
 2099SOL    HW1 7196   4.698   1.515   6.940
 2099SOL    HW2 7197   4.592   1.628   6.889
 2100SOL     OW 7198   5.593   0.789   0.575
 2100SOL    HW1 7199   5.689   0.803   0.599
 2100SOL    HW2 7200   5.536   0.809   0.655
 2101SOL     OW 7201   6.933   6.369   1.098
 2101SOL    HW1 7202   0.001   6.377   1.119
 2101SOL    HW2 7203   6.882   6.356   1.183
 2102SOL     OW 7204   3.800   3.132   1.345
 2102SOL    HW1 7205   3.708   3.110   1.377
 2102SOL    HW2 7206   3.863   3.058   1.368
 2103SOL     OW 7207   3.279   5.210   0.062
 2103SOL    HW1 7208   3.255   5.124   0.108
 2103SOL    HW2 7209   3.376   5.208   0.037
 2104SOL     OW 7210   1.535   4.950   2.949
 2104SOL    HW1 7211   1.467   4.881   2.923
 2104SOL    HW2 7212   1.488   5.037   2.967
 2105SOL     OW 7213   5.413   4.573   0.281
 2105SOL    HW1 7214   5.473   4.498   0.307
 2105SOL    HW2 7215   5.444   4.658   0.325
 2106SOL     OW 7216   4.963   3.536   1.722
 2106SOL    HW1 7217   4.975   3.614   1.784
 2106SOL    HW2 7218   5.013   3.458   1.758
 2107SOL     OW 7219   5.075   3.674   6.075
 2107SOL    HW1 7220   4.981   3.702   6.093
 2107SOL    HW2 7221   5.075   3.595   6.014
 2108SOL     OW 7222   5.617   6.948   6.233
 2108SOL    HW1 7223   5.634   6.854   6.202
 2108SOL    HW2 7224   5.551   6.992   6.172
 2109SOL     OW 7225   2.972   5.830   2.624
 2109SOL    HW1 7226   2.968   5.787   2.534
 2109SOL    HW2 7227   2.932   5.769   2.692
 2110SOL     OW 7228   3.515   0.539   6.694
 2110SOL    HW1 7229   3.590   0.606   6.699
 2110SOL    HW2 7230   3.553   0.447   6.688
 2111SOL     OW 7231   0.946   2.825   5.850
 2111SOL    HW1 7232   0.970   2.874   5.934
 2111SOL    HW2 7233   1.010   2.849   5.778
 2112SOL     OW 7234   6.621   0.945   0.375
 2112SOL    HW1 7235   6.667   0.907   0.456
 2112SOL    HW2 7236   6.683   1.006   0.326
 2113SOL     OW 7237   1.648   6.856   4.566
 2113SOL    HW1 7238   1.711   6.814   4.501
 2113SOL    HW2 7239   1.556   6.820   4.551
 2114SOL     OW 7240   1.741   2.578   6.805
 2114SOL    HW1 7241   1.775   2.573   6.899
 2114SOL    HW2 7242   1.786   2.653   6.757
 2115SOL     OW 7243   0.351   4.884   3.069
 2115SOL    HW1 7244   0.374   4.968   3.119
 2115SOL    HW2 7245   0.356   4.806   3.131
 2116SOL     OW 7246   1.288   2.051   6.929
 2116SOL    HW1 7247   1.253   1.962   6.902
 2116SOL    HW2 7248   1.339   2.043   7.014
 2117SOL     OW 7249   5.611   2.348   2.569
 2117SOL    HW1 7250   5.524   2.300   2.571
 2117SOL    HW2 7251   5.652   2.340   2.478
 2118SOL     OW 7252   6.638   3.647   2.452
 2118SOL    HW1 7253   6.732   3.667   2.482
 2118SOL    HW2 7254   6.588   3.602   2.526
 2119SOL     OW 7255   2.377   0.738   6.584
 2119SOL    HW1 7256   2.356   0.784   6.498
 2119SOL    HW2 7257   2.429   0.655   6.566
 2120SOL     OW 7258   6.333   2.150   1.707
 2120SOL    HW1 7259   6.357   2.151   1.610
 2120SOL    HW2 7260   6.346   2.242   1.745
 2121SOL     OW 7261   1.713   1.551   5.911
 2121SOL    HW1 7262   1.770   1.499   5.847
 2121SOL    HW2 7263   1.633   1.496   5.935
 2122SOL     OW 7264   5.963   0.479   5.334
 2122SOL    HW1 7265   5.938   0.412   5.405
 2122SOL    HW2 7266   6.062   0.496   5.337
 2123SOL     OW 7267   0.321   5.848   3.064
 2123SOL    HW1 7268   0.338   5.924   3.127
 2123SOL    HW2 7269   0.408   5.817   3.026
 2124SOL     OW 7270   3.367   2.841   5.496
 2124SOL    HW1 7271   3.302   2.878   5.562
 2124SOL    HW2 7272   3.337   2.865   5.403
 2125SOL     OW 7273   1.737   5.528   3.665
 2125SOL    HW1 7274   1.725   5.477   3.579
 2125SOL    HW2 7275   1.829   5.566   3.668
 2126SOL     OW 7276   3.556   3.563   0.118
 2126SOL    HW1 7277   3.526   3.498   0.048
 2126SOL    HW2 7278   3.565   3.516   0.205
 2127SOL     OW 7279   0.173   3.119   5.820
 2127SOL    HW1 7280   0.243   3.070   5.872
 2127SOL    HW2 7281   0.217   3.182   5.756
 2128SOL     OW 7282   5.192   3.896   1.041
 2128SOL    HW1 7283   5.200   3.836   1.121
 2128SOL    HW2 7284   5.116   3.865   0.984
 2129SOL     OW 7285   5.080   3.968   3.739
 2129SOL    HW1 7286   5.061   3.872   3.757
 2129SOL    HW2 7287   5.179   3.984   3.749
 2130SOL     OW 7288   2.145   1.290   2.030
 2130SOL    HW1 7289   2.049   1.315   2.042
 2130SOL    HW2 7290   2.152   1.209   1.972
 2131SOL     OW 7291   5.507   1.641   6.103
 2131SOL    HW1 7292   5.460   1.598   6.180
 2131SOL    HW2 7293   5.569   1.712   6.137
 2132SOL     OW 7294   2.268   1.508   6.970
 2132SOL    HW1 7295   2.335   1.577   6.944
 2132SOL    HW2 7296   2.300   1.460   0.022
 2133SOL     OW 7297   2.119   1.675   1.571
 2133SOL    HW1 7298   2.139   1.751   1.509
 2133SOL    HW2 7299   2.135   1.705   1.665
 2134SOL     OW 7300   0.342   6.559   4.386
 2134SOL    HW1 7301   0.430   6.518   4.410
 2134SOL    HW2 7302   0.271   6.488   4.385
 2135SOL     OW 7303   0.882   0.937   3.380
 2135SOL    HW1 7304   0.824   0.869   3.335
 2135SOL    HW2 7305   0.911   1.005   3.312
 2136SOL     OW 7306   0.934   3.674   4.894
 2136SOL    HW1 7307   0.966   3.579   4.884
 2136SOL    HW2 7308   0.975   3.730   4.822
 2137SOL     OW 7309   1.157   6.529   5.505
 2137SOL    HW1 7310   1.187   6.539   5.600
 2137SOL    HW2 7311   1.093   6.452   5.498
 2138SOL     OW 7312   6.778   2.775   0.692
 2138SOL    HW1 7313   6.763   2.773   0.791
 2138SOL    HW2 7314   6.857   2.720   0.668
 2139SOL     OW 7315   2.930   0.768   4.316
 2139SOL    HW1 7316   2.922   0.856   4.363
 2139SOL    HW2 7317   2.872   0.701   4.362
 2140SOL     OW 7318   2.522   6.258   3.500
 2140SOL    HW1 7319   2.538   6.180   3.560
 2140SOL    HW2 7320   2.528   6.229   3.404
 2141SOL     OW 7321   6.270   2.750   1.141
 2141SOL    HW1 7322   6.284   2.833   1.197
 2141SOL    HW2 7323   6.347   2.688   1.155
 2142SOL     OW 7324   1.253   1.920   3.652
 2142SOL    HW1 7325   1.249   1.833   3.702
 2142SOL    HW2 7326   1.195   1.914   3.571
 2143SOL     OW 7327   3.633   6.779   1.644
 2143SOL    HW1 7328   3.670   6.870   1.662
 2143SOL    HW2 7329   3.634   6.763   1.545
 2144SOL     OW 7330   1.272   0.321   3.401
 2144SOL    HW1 7331   1.189   0.267   3.383
 2144SOL    HW2 7332   1.333   0.315   3.322
 2145SOL     OW 7333   3.339   5.599   3.756
 2145SOL    HW1 7334   3.361   5.613   3.853
 2145SOL    HW2 7335   3.400   5.530   3.718
 2146SOL     OW 7336   3.134   2.992   2.343
 2146SOL    HW1 7337   3.111   2.982   2.246
 2146SOL    HW2 7338   3.128   3.088   2.369
 2147SOL     OW 7339   0.734   1.979   6.352
 2147SOL    HW1 7340   0.726   1.888   6.313
 2147SOL    HW2 7341   0.768   2.042   6.282
 2148SOL     OW 7342   5.028   3.758   3.932
 2148SOL    HW1 7343   5.030   3.675   3.877
 2148SOL    HW2 7344   5.118   3.773   3.973
 2149SOL     OW 7345   4.013   1.047   2.451
 2149SOL    HW1 7346   4.059   0.964   2.482
 2149SOL    HW2 7347   4.081   1.119   2.434
 2150SOL     OW 7348   3.741   1.856   3.244
 2150SOL    HW1 7349   3.718   1.763   3.271
 2150SOL    HW2 7350   3.720   1.869   3.147
 2151SOL     OW 7351   3.772   2.368   5.957
 2151SOL    HW1 7352   3.840   2.392   5.888
 2151SOL    HW2 7353   3.688   2.337   5.912
 2152SOL     OW 7354   5.926   6.480   1.948
 2152SOL    HW1 7355   5.851   6.476   1.882
 2152SOL    HW2 7356   6.013   6.482   1.900
 2153SOL     OW 7357   4.671   1.745   3.977
 2153SOL    HW1 7358   4.636   1.669   4.031
 2153SOL    HW2 7359   4.754   1.716   3.929
 2154SOL     OW 7360   3.337   5.576   4.865
 2154SOL    HW1 7361   3.252   5.547   4.908
 2154SOL    HW2 7362   3.378   5.499   4.817
 2155SOL     OW 7363   1.981   4.439   0.353
 2155SOL    HW1 7364   2.047   4.394   0.412
 2155SOL    HW2 7365   2.028   4.484   0.277
 2156SOL     OW 7366   1.549   0.240   2.091
 2156SOL    HW1 7367   1.455   0.210   2.104
 2156SOL    HW2 7368   1.551   0.339   2.078
 2157SOL     OW 7369   6.911   1.410   5.067
 2157SOL    HW1 7370   6.928   1.467   5.148
 2157SOL    HW2 7371   6.858   1.463   5.001
 2158SOL     OW 7372   3.865   0.073   1.173
 2158SOL    HW1 7373   3.782   0.090   1.226
 2158SOL    HW2 7374   3.925   0.152   1.180
 2159SOL     OW 7375   1.531   7.023   4.747
 2159SOL    HW1 7376   1.520   6.965   4.828
 2159SOL    HW2 7377   1.583   6.974   4.677
 2160SOL     OW 7378   3.433   4.154   1.150
 2160SOL    HW1 7379   3.512   4.094   1.162
 2160SOL    HW2 7380   3.453   4.221   1.078
 2161SOL     OW 7381   5.207   3.517   3.453
 2161SOL    HW1 7382   5.204   3.468   3.540
 2161SOL    HW2 7383   5.131   3.582   3.448
 2162SOL     OW 7384   2.133   0.640   6.736
 2162SOL    HW1 7385   2.100   0.726   6.776
 2162SOL    HW2 7386   2.230   0.649   6.715
 2163SOL     OW 7387   1.693   0.079   0.029
 2163SOL    HW1 7388   1.651   0.092   6.969
 2163SOL    HW2 7389   1.655   0.146   0.094
 2164SOL     OW 7390   2.017   0.614   6.209
 2164SOL    HW1 7391   2.030   0.656   6.299
 2164SOL    HW2 7392   2.079   0.535   6.200
 2165SOL     OW 7393   1.143   0.537   2.418
 2165SOL    HW1 7394   1.107   0.459   2.469
 2165SOL    HW2 7395   1.157   0.511   2.322
 2166SOL     OW 7396   1.432   2.267   5.052
 2166SOL    HW1 7397   1.428   2.250   4.954
 2166SOL    HW2 7398   1.444   2.180   5.100
 2167SOL     OW 7399   2.810   0.691   2.230
 2167SOL    HW1 7400   2.880   0.721   2.166
 2167SOL    HW2 7401   2.832   0.726   2.321
 2168SOL     OW 7402   5.883   3.320   4.488
 2168SOL    HW1 7403   5.936   3.385   4.543
 2168SOL    HW2 7404   5.935   3.294   4.407
 2169SOL     OW 7405   5.483   2.849   5.762
 2169SOL    HW1 7406   5.581   2.847   5.786
 2169SOL    HW2 7407   5.431   2.803   5.834
 2170SOL     OW 7408   4.598   4.999   5.204
 2170SOL    HW1 7409   4.540   4.962   5.277
 2170SOL    HW2 7410   4.542   5.054   5.141
 2171SOL     OW 7411   6.653   3.494   0.198
 2171SOL    HW1 7412   6.688   3.585   0.177
 2171SOL    HW2 7413   6.566   3.502   0.245
 2172SOL     OW 7414   3.341   1.096   0.685
 2172SOL    HW1 7415   3.375   1.181   0.725
 2172SOL    HW2 7416   3.241   1.096   0.686
 2173SOL     OW 7417   4.128   0.788   5.935
 2173SOL    HW1 7418   4.186   0.808   6.014
 2173SOL    HW2 7419   4.112   0.689   5.930
 2174SOL     OW 7420   6.492   4.332   4.405
 2174SOL    HW1 7421   6.499   4.268   4.329
 2174SOL    HW2 7422   6.498   4.282   4.491
 2175SOL     OW 7423   2.633   0.314   3.737
 2175SOL    HW1 7424   2.707   0.311   3.669
 2175SOL    HW2 7425   2.572   0.390   3.716
 2176SOL     OW 7426   2.030   2.224   2.901
 2176SOL    HW1 7427   2.077   2.161   2.840
 2176SOL    HW2 7428   2.096   2.264   2.965
 2177SOL     OW 7429   0.096   2.119   1.205
 2177SOL    HW1 7430   0.067   2.159   1.118
 2177SOL    HW2 7431   0.108   2.020   1.195
 2178SOL     OW 7432   0.856   4.911   0.489
 2178SOL    HW1 7433   0.888   4.825   0.528
 2178SOL    HW2 7434   0.758   4.922   0.507
 2179SOL     OW 7435   1.666   5.287   4.480
 2179SOL    HW1 7436   1.687   5.371   4.530
 2179SOL    HW2 7437   1.661   5.307   4.382
 2180SOL     OW 7438   3.012   3.802   2.571
 2180SOL    HW1 7439   3.054   3.890   2.594
 2180SOL    HW2 7440   2.985   3.755   2.656
 2181SOL     OW 7441   4.857   5.787   5.771
 2181SOL    HW1 7442   4.901   5.766   5.684
 2181SOL    HW2 7443   4.893   5.726   5.842
 2182SOL     OW 7444   6.752   4.067   6.268
 2182SOL    HW1 7445   6.847   4.056   6.295
 2182SOL    HW2 7446   6.737   4.161   6.236
 2183SOL     OW 7447   3.285   3.001   0.573
 2183SOL    HW1 7448   3.218   3.032   0.641
 2183SOL    HW2 7449   3.260   2.910   0.540
 2184SOL     OW 7450   3.603   1.725   6.257
 2184SOL    HW1 7451   3.550   1.641   6.249
 2184SOL    HW2 7452   3.606   1.771   6.168
 2185SOL     OW 7453   1.341   0.593   0.407
 2185SOL    HW1 7454   1.320   0.519   0.344
 2185SOL    HW2 7455   1.257   0.639   0.435
 2186SOL     OW 7456   6.998   5.012   3.050
 2186SOL    HW1 7457   0.042   5.054   2.997
 2186SOL    HW2 7458   6.934   4.966   2.988
 2187SOL     OW 7459   6.298   1.779   0.547
 2187SOL    HW1 7460   6.209   1.770   0.592
 2187SOL    HW2 7461   6.308   1.872   0.512
 2188SOL     OW 7462   5.390   6.463   3.396
 2188SOL    HW1 7463   5.361   6.368   3.380
 2188SOL    HW2 7464   5.335   6.525   3.339
 2189SOL     OW 7465   2.125   0.437   5.992
 2189SOL    HW1 7466   2.106   0.378   5.913
 2189SOL    HW2 7467   2.188   0.510   5.964
 2190SOL     OW 7468   6.407   2.258   1.135
 2190SOL    HW1 7469   6.464   2.185   1.096
 2190SOL    HW2 7470   6.348   2.220   1.206
 2191SOL     OW 7471   3.599   3.163   6.444
 2191SOL    HW1 7472   3.521   3.116   6.403
 2191SOL    HW2 7473   3.571   3.204   6.531
 2192SOL     OW 7474   4.123   5.896   5.124
 2192SOL    HW1 7475   4.199   5.849   5.078
 2192SOL    HW2 7476   4.051   5.829   5.143
 2193SOL     OW 7477   0.873   5.244   5.649
 2193SOL    HW1 7478   0.788   5.291   5.676
 2193SOL    HW2 7479   0.874   5.153   5.689
 2194SOL     OW 7480   2.463   6.307   0.916
 2194SOL    HW1 7481   2.410   6.242   0.970
 2194SOL    HW2 7482   2.547   6.264   0.884
 2195SOL     OW 7483   1.383   5.549   2.773
 2195SOL    HW1 7484   1.369   5.451   2.758
 2195SOL    HW2 7485   1.443   5.586   2.703
 2196SOL     OW 7486   3.377   1.662   5.965
 2196SOL    HW1 7487   3.367   1.634   5.870
 2196SOL    HW2 7488   3.460   1.718   5.974
 2197SOL     OW 7489   5.019   4.804   1.619
 2197SOL    HW1 7490   4.985   4.851   1.701
 2197SOL    HW2 7491   4.963   4.830   1.540
 2198SOL     OW 7492   6.889   4.330   0.383
 2198SOL    HW1 7493   6.976   4.348   0.338
 2198SOL    HW2 7494   6.814   4.365   0.326
 2199SOL     OW 7495   4.774   6.919   0.965
 2199SOL    HW1 7496   4.758   6.877   0.876
 2199SOL    HW2 7497   4.872   6.916   0.986
 2200SOL     OW 7498   3.909   0.834   4.695
 2200SOL    HW1 7499   3.887   0.931   4.686
 2200SOL    HW2 7500   3.985   0.812   4.634
 2201SOL     OW 7501   6.247   3.378   2.562
 2201SOL    HW1 7502   6.289   3.291   2.584
 2201SOL    HW2 7503   6.147   3.368   2.562
 2202SOL     OW 7504   4.022   5.640   4.018
 2202SOL    HW1 7505   3.992   5.722   4.067
 2202SOL    HW2 7506   4.050   5.571   4.085
 2203SOL     OW 7507   3.586   2.077   2.907
 2203SOL    HW1 7508   3.489   2.097   2.924
 2203SOL    HW2 7509   3.607   1.985   2.940
 2204SOL     OW 7510   2.976   2.461   0.719
 2204SOL    HW1 7511   3.054   2.518   0.743
 2204SOL    HW2 7512   2.891   2.509   0.741
 2205SOL     OW 7513   2.505   6.468   0.502
 2205SOL    HW1 7514   2.576   6.421   0.555
 2205SOL    HW2 7515   2.432   6.497   0.563
 2206SOL     OW 7516   2.924   3.056   6.915
 2206SOL    HW1 7517   2.987   3.119   6.960
 2206SOL    HW2 7518   2.852   3.108   6.870
 2207SOL     OW 7519   1.675   4.753   6.601
 2207SOL    HW1 7520   1.705   4.658   6.593
 2207SOL    HW2 7521   1.623   4.779   6.520
 2208SOL     OW 7522   0.314   3.949   1.905
 2208SOL    HW1 7523   0.273   3.864   1.939
 2208SOL    HW2 7524   0.379   3.926   1.832
 2209SOL     OW 7525   0.883   5.661   6.157
 2209SOL    HW1 7526   0.875   5.662   6.257
 2209SOL    HW2 7527   0.920   5.573   6.127
 2210SOL     OW 7528   1.323   5.325   3.469
 2210SOL    HW1 7529   1.289   5.416   3.447
 2210SOL    HW2 7530   1.290   5.260   3.400
 2211SOL     OW 7531   5.982   1.331   5.470
 2211SOL    HW1 7532   5.886   1.316   5.492
 2211SOL    HW2 7533   6.005   1.427   5.485
 2212SOL     OW 7534   1.055   0.307   6.030
 2212SOL    HW1 7535   1.046   0.362   5.947
 2212SOL    HW2 7536   1.077   0.213   6.005
 2213SOL     OW 7537   4.142   2.278   3.465
 2213SOL    HW1 7538   4.068   2.248   3.405
 2213SOL    HW2 7539   4.198   2.347   3.418
 2214SOL     OW 7540   5.503   0.112   4.764
 2214SOL    HW1 7541   5.565   0.175   4.813
 2214SOL    HW2 7542   5.443   0.165   4.704
 2215SOL     OW 7543   6.545   2.283   5.398
 2215SOL    HW1 7544   6.611   2.239   5.460
 2215SOL    HW2 7545   6.594   2.340   5.333
 2216SOL     OW 7546   1.058   6.699   0.828
 2216SOL    HW1 7547   1.054   6.600   0.815
 2216SOL    HW2 7548   0.974   6.741   0.794
 2217SOL     OW 7549   4.418   7.018   1.410
 2217SOL    HW1 7550   4.344   0.055   1.397
 2217SOL    HW2 7551   4.496   0.034   1.453
 2218SOL     OW 7552   0.763   5.767   6.487
 2218SOL    HW1 7553   0.702   5.830   6.536
 2218SOL    HW2 7554   0.858   5.795   6.501
 2219SOL     OW 7555   2.130   3.971   2.961
 2219SOL    HW1 7556   2.152   4.006   2.871
 2219SOL    HW2 7557   2.136   3.871   2.960
 2220SOL     OW 7558   0.226   1.547   5.690
 2220SOL    HW1 7559   0.188   1.478   5.628
 2220SOL    HW2 7560   0.295   1.504   5.748
 2221SOL     OW 7561   6.442   2.316   1.503
 2221SOL    HW1 7562   6.491   2.346   1.585
 2221SOL    HW2 7563   6.383   2.390   1.470
 2222SOL     OW 7564   4.672   6.801   2.054
 2222SOL    HW1 7565   4.753   6.750   2.082
 2222SOL    HW2 7566   4.622   6.748   1.985
 2223SOL     OW 7567   5.852   5.114   3.705
 2223SOL    HW1 7568   5.840   5.057   3.787
 2223SOL    HW2 7569   5.950   5.119   3.683
 2224SOL     OW 7570   2.066   4.673   1.684
 2224SOL    HW1 7571   1.980   4.698   1.730
 2224SOL    HW2 7572   2.069   4.715   1.593
 2225SOL     OW 7573   6.450   4.953   2.160
 2225SOL    HW1 7574   6.494   4.963   2.070
 2225SOL    HW2 7575   6.399   4.867   2.162
 2226SOL     OW 7576   3.834   3.270   1.104
 2226SOL    HW1 7577   3.847   3.231   1.195
 2226SOL    HW2 7578   3.922   3.303   1.069
 2227SOL     OW 7579   6.779   3.831   5.471
 2227SOL    HW1 7580   6.866   3.871   5.501
 2227SOL    HW2 7581   6.790   3.732   5.462
 2228SOL     OW 7582   3.240   4.904   6.263
 2228SOL    HW1 7583   3.173   4.973   6.237
 2228SOL    HW2 7584   3.193   4.829   6.309
 2229SOL     OW 7585   4.317   1.094   3.233
 2229SOL    HW1 7586   4.403   1.084   3.283
 2229SOL    HW2 7587   4.299   1.010   3.181
 2230SOL     OW 7588   0.721   6.199   5.432
 2230SOL    HW1 7589   0.765   6.148   5.505
 2230SOL    HW2 7590   0.783   6.207   5.354
 2231SOL     OW 7591   2.165   7.011   1.932
 2231SOL    HW1 7592   2.192   6.997   1.836
 2231SOL    HW2 7593   2.202   6.938   1.988
 2232SOL     OW 7594   6.553   2.806   2.353
 2232SOL    HW1 7595   6.475   2.812   2.415
 2232SOL    HW2 7596   6.577   2.710   2.339
 2233SOL     OW 7597   3.504   6.480   0.277
 2233SOL    HW1 7598   3.498   6.438   0.367
 2233SOL    HW2 7599   3.421   6.459   0.225
 2234SOL     OW 7600   3.666   1.471   0.743
 2234SOL    HW1 7601   3.590   1.411   0.768
 2234SOL    HW2 7602   3.668   1.550   0.806
 2235SOL     OW 7603   0.669   6.542   0.647
 2235SOL    HW1 7604   0.668   6.577   0.553
 2235SOL    HW2 7605   0.604   6.593   0.703
 2236SOL     OW 7606   1.022   4.409   1.394
 2236SOL    HW1 7607   0.940   4.384   1.446
 2236SOL    HW2 7608   0.996   4.435   1.301
 2237SOL     OW 7609   6.181   3.063   4.650
 2237SOL    HW1 7610   6.218   3.153   4.674
 2237SOL    HW2 7611   6.098   3.045   4.703
 2238SOL     OW 7612   0.591   5.896   2.139
 2238SOL    HW1 7613   0.555   5.806   2.164
 2238SOL    HW2 7614   0.554   5.923   2.050
 2239SOL     OW 7615   4.353   5.303   3.122
 2239SOL    HW1 7616   4.360   5.402   3.109
 2239SOL    HW2 7617   4.256   5.277   3.127
 2240SOL     OW 7618   6.158   4.824   2.699
 2240SOL    HW1 7619   6.081   4.886   2.711
 2240SOL    HW2 7620   6.151   4.778   2.611
 2241SOL     OW 7621   0.164   6.621   1.490
 2241SOL    HW1 7622   0.127   6.674   1.566
 2241SOL    HW2 7623   0.092   6.605   1.422
 2242SOL     OW 7624   4.835   1.770   3.170
 2242SOL    HW1 7625   4.890   1.784   3.253
 2242SOL    HW2 7626   4.828   1.856   3.121
 2243SOL     OW 7627   2.548   5.820   5.071
 2243SOL    HW1 7628   2.505   5.910   5.062
 2243SOL    HW2 7629   2.492   5.762   5.130
 2244SOL     OW 7630   2.477   0.329   4.556
 2244SOL    HW1 7631   2.414   0.359   4.484
 2244SOL    HW2 7632   2.476   0.229   4.561
 2245SOL     OW 7633   0.961   1.279   2.582
 2245SOL    HW1 7634   0.894   1.213   2.548
 2245SOL    HW2 7635   0.944   1.297   2.679
 2246SOL     OW 7636   0.808   4.077   6.044
 2246SOL    HW1 7637   0.866   4.139   6.096
 2246SOL    HW2 7638   0.856   3.990   6.031
 2247SOL     OW 7639   2.171   2.998   6.447
 2247SOL    HW1 7640   2.264   3.026   6.423
 2247SOL    HW2 7641   2.161   2.996   6.547
 2248SOL     OW 7642   4.693   3.670   5.876
 2248SOL    HW1 7643   4.733   3.659   5.967
 2248SOL    HW2 7644   4.764   3.657   5.807
 2249SOL     OW 7645   5.445   5.733   3.359
 2249SOL    HW1 7646   5.351   5.701   3.367
 2249SOL    HW2 7647   5.507   5.665   3.400
 2250SOL     OW 7648   6.573   4.007   1.026
 2250SOL    HW1 7649   6.495   3.973   1.079
 2250SOL    HW2 7650   6.581   3.956   0.941
 2251SOL     OW 7651   5.560   0.897   0.314
 2251SOL    HW1 7652   5.623   0.843   0.259
 2251SOL    HW2 7653   5.551   0.856   0.405
 2252SOL     OW 7654   5.377   2.568   5.288
 2252SOL    HW1 7655   5.380   2.499   5.361
 2252SOL    HW2 7656   5.329   2.530   5.209
 2253SOL     OW 7657   2.562   2.845   0.123
 2253SOL    HW1 7658   2.533   2.927   0.172
 2253SOL    HW2 7659   2.661   2.850   0.106
 2254SOL     OW 7660   2.389   3.828   6.336
 2254SOL    HW1 7661   2.333   3.876   6.269
 2254SOL    HW2 7662   2.479   3.810   6.298
 2255SOL     OW 7663   5.783   2.604   1.459
 2255SOL    HW1 7664   5.781   2.602   1.360
 2255SOL    HW2 7665   5.742   2.521   1.496
 2256SOL     OW 7666   4.204   4.702   2.168
 2256SOL    HW1 7667   4.264   4.627   2.141
 2256SOL    HW2 7668   4.183   4.758   2.087
 2257SOL     OW 7669   1.891   4.222   3.812
 2257SOL    HW1 7670   1.852   4.131   3.797
 2257SOL    HW2 7671   1.980   4.214   3.856
 2258SOL     OW 7672   1.926   5.675   4.970
 2258SOL    HW1 7673   1.950   5.578   4.962
 2258SOL    HW2 7674   2.004   5.725   5.009
 2259SOL     OW 7675   5.173   3.927   6.956
 2259SOL    HW1 7676   5.100   3.960   7.016
 2259SOL    HW2 7677   5.166   3.973   6.867
 2260SOL     OW 7678   5.548   4.784   1.555
 2260SOL    HW1 7679   5.594   4.868   1.525
 2260SOL    HW2 7680   5.462   4.807   1.600
 2261SOL     OW 7681   5.588   0.341   0.119
 2261SOL    HW1 7682   5.651   0.351   0.042
 2261SOL    HW2 7683   5.618   0.266   0.178
 2262SOL     OW 7684   4.878   2.012   3.764
 2262SOL    HW1 7685   4.885   1.917   3.731
 2262SOL    HW2 7686   4.912   2.017   3.858
 2263SOL     OW 7687   1.275   5.439   5.650
 2263SOL    HW1 7688   1.374   5.452   5.651
 2263SOL    HW2 7689   1.231   5.529   5.655
 2264SOL     OW 7690   3.313   2.920   4.015
 2264SOL    HW1 7691   3.371   2.998   4.033
 2264SOL    HW2 7692   3.264   2.933   3.928
 2265SOL     OW 7693   0.084   6.988   1.849
 2265SOL    HW1 7694   0.098   6.975   1.947
 2265SOL    HW2 7695   0.020   0.033   1.833
 2266SOL     OW 7696   5.781   0.544   0.435
 2266SOL    HW1 7697   5.872   0.508   0.456
 2266SOL    HW2 7698   5.713   0.494   0.489
 2267SOL     OW 7699   6.558   2.677   5.606
 2267SOL    HW1 7700   6.474   2.655   5.655
 2267SOL    HW2 7701   6.555   2.772   5.575
 2268SOL     OW 7702   0.009   5.882   6.721
 2268SOL    HW1 7703   0.080   5.839   6.778
 2268SOL    HW2 7704   0.041   5.971   6.689
 2269SOL     OW 7705   6.417   5.431   6.196
 2269SOL    HW1 7706   6.451   5.521   6.224
 2269SOL    HW2 7707   6.386   5.436   6.101
 2270SOL     OW 7708   3.496   3.365   1.842
 2270SOL    HW1 7709   3.444   3.310   1.907
 2270SOL    HW2 7710   3.442   3.377   1.758
 2271SOL     OW 7711   6.321   4.479   2.365
 2271SOL    HW1 7712   6.299   4.517   2.455
 2271SOL    HW2 7713   6.360   4.388   2.376
 2272SOL     OW 7714   5.607   2.022   5.791
 2272SOL    HW1 7715   5.691   2.006   5.739
 2272SOL    HW2 7716   5.528   2.003   5.734
 2273SOL     OW 7717   0.526   1.417   3.389
 2273SOL    HW1 7718   0.568   1.487   3.447
 2273SOL    HW2 7719   0.524   1.448   3.295
 2274SOL     OW 7720   1.296   3.459   4.716
 2274SOL    HW1 7721   1.317   3.444   4.619
 2274SOL    HW2 7722   1.370   3.512   4.758
 2275SOL     OW 7723   5.421   6.437   4.122
 2275SOL    HW1 7724   5.400   6.380   4.042
 2275SOL    HW2 7725   5.338   6.449   4.177
 2276SOL     OW 7726   4.177   4.437   1.642
 2276SOL    HW1 7727   4.081   4.430   1.615
 2276SOL    HW2 7728   4.219   4.346   1.640
 2277SOL     OW 7729   3.375   3.097   0.127
 2277SOL    HW1 7730   3.470   3.108   0.100
 2277SOL    HW2 7731   3.320   3.073   0.047
 2278SOL     OW 7732   5.138   6.056   1.300
 2278SOL    HW1 7733   5.234   6.082   1.292
 2278SOL    HW2 7734   5.087   6.130   1.343
 2279SOL     OW 7735   5.660   3.277   5.026
 2279SOL    HW1 7736   5.717   3.273   4.944
 2279SOL    HW2 7737   5.652   3.186   5.067
 2280SOL     OW 7738   6.112   6.069   6.079
 2280SOL    HW1 7739   6.103   6.086   5.981
 2280SOL    HW2 7740   6.173   5.991   6.094
 2281SOL     OW 7741   3.526   2.423   1.436
 2281SOL    HW1 7742   3.589   2.499   1.421
 2281SOL    HW2 7743   3.565   2.359   1.501
 2282SOL     OW 7744   4.630   5.821   3.165
 2282SOL    HW1 7745   4.641   5.744   3.229
 2282SOL    HW2 7746   4.572   5.792   3.089
 2283SOL     OW 7747   0.291   3.437   3.490
 2283SOL    HW1 7748   0.231   3.489   3.550
 2283SOL    HW2 7749   0.259   3.342   3.484
 2284SOL     OW 7750   2.169   2.149   1.558
 2284SOL    HW1 7751   2.180   2.246   1.581
 2284SOL    HW2 7752   2.118   2.141   1.472
 2285SOL     OW 7753   1.609   3.899   1.100
 2285SOL    HW1 7754   1.700   3.924   1.131
 2285SOL    HW2 7755   1.616   3.843   1.018
 2286SOL     OW 7756   6.507   6.457   4.660
 2286SOL    HW1 7757   6.533   6.438   4.565
 2286SOL    HW2 7758   6.562   6.401   4.722
 2287SOL     OW 7759   2.307   2.592   2.043
 2287SOL    HW1 7760   2.396   2.581   1.998
 2287SOL    HW2 7761   2.270   2.683   2.024
 2288SOL     OW 7762   0.168   6.414   2.792
 2288SOL    HW1 7763   0.135   6.344   2.855
 2288SOL    HW2 7764   0.124   6.501   2.812
 2289SOL     OW 7765   5.365   2.227   2.478
 2289SOL    HW1 7766   5.342   2.197   2.385
 2289SOL    HW2 7767   5.313   2.173   2.544
 2290SOL     OW 7768   2.906   3.359   2.781
 2290SOL    HW1 7769   2.932   3.262   2.779
 2290SOL    HW2 7770   2.901   3.395   2.688
 2291SOL     OW 7771   2.066   2.645   1.058
 2291SOL    HW1 7772   1.974   2.608   1.071
 2291SOL    HW2 7773   2.109   2.598   0.981
 2292SOL     OW 7774   4.182   2.031   3.136
 2292SOL    HW1 7775   4.280   2.018   3.123
 2292SOL    HW2 7776   4.132   1.978   3.067
 2293SOL     OW 7777   5.999   1.273   0.192
 2293SOL    HW1 7778   5.995   1.336   0.269
 2293SOL    HW2 7779   5.970   1.182   0.222
 2294SOL     OW 7780   0.746   2.532   6.071
 2294SOL    HW1 7781   0.744   2.464   6.144
 2294SOL    HW2 7782   0.834   2.528   6.023
 2295SOL     OW 7783   6.308   6.877   1.841
 2295SOL    HW1 7784   6.354   6.919   1.762
 2295SOL    HW2 7785   6.355   6.792   1.865
 2296SOL     OW 7786   2.818   5.390   3.545
 2296SOL    HW1 7787   2.865   5.302   3.537
 2296SOL    HW2 7788   2.722   5.378   3.519
 2297SOL     OW 7789   4.395   4.718   5.590
 2297SOL    HW1 7790   4.298   4.722   5.565
 2297SOL    HW2 7791   4.411   4.639   5.649
 2298SOL     OW 7792   3.702   3.211   4.986
 2298SOL    HW1 7793   3.623   3.151   4.990
 2298SOL    HW2 7794   3.777   3.171   5.039
 2299SOL     OW 7795   5.383   2.966   4.909
 2299SOL    HW1 7796   5.457   2.901   4.929
 2299SOL    HW2 7797   5.361   2.962   4.811
 2300SOL     OW 7798   4.424   6.425   2.749
 2300SOL    HW1 7799   4.437   6.522   2.729
 2300SOL    HW2 7800   4.511   6.377   2.738
 2301SOL     OW 7801   3.709   3.756   4.894
 2301SOL    HW1 7802   3.676   3.765   4.800
 2301SOL    HW2 7803   3.745   3.664   4.908
 2302SOL     OW 7804   4.943   2.191   0.002
 2302SOL    HW1 7805   4.917   2.284   0.027
 2302SOL    HW2 7806   4.905   2.127   0.070
 2303SOL     OW 7807   2.645   1.893   0.850
 2303SOL    HW1 7808   2.633   1.855   0.942
 2303SOL    HW2 7809   2.728   1.948   0.847
 2304SOL     OW 7810   6.036   5.783   2.000
 2304SOL    HW1 7811   6.114   5.842   1.983
 2304SOL    HW2 7812   5.952   5.829   1.971
 2305SOL     OW 7813   1.610   1.189   4.940
 2305SOL    HW1 7814   1.564   1.100   4.934
 2305SOL    HW2 7815   1.672   1.188   5.019
 2306SOL     OW 7816   2.452   4.896   3.868
 2306SOL    HW1 7817   2.501   4.926   3.949
 2306SOL    HW2 7818   2.507   4.914   3.787
 2307SOL     OW 7819   0.972   2.379   5.203
 2307SOL    HW1 7820   1.023   2.458   5.237
 2307SOL    HW2 7821   0.961   2.313   5.277
 2308SOL     OW 7822   2.726   4.370   1.651
 2308SOL    HW1 7823   2.659   4.441   1.631
 2308SOL    HW2 7824   2.804   4.410   1.699
 2309SOL     OW 7825   1.333   6.866   4.541
 2309SOL    HW1 7826   1.284   6.853   4.455
 2309SOL    HW2 7827   1.369   6.959   4.545
 2310SOL     OW 7828   4.415   6.603   1.339
 2310SOL    HW1 7829   4.476   6.682   1.334
 2310SOL    HW2 7830   4.341   6.613   1.273
 2311SOL     OW 7831   2.621   6.045   1.338
 2311SOL    HW1 7832   2.574   5.958   1.327
 2311SOL    HW2 7833   2.598   6.105   1.261
 2312SOL     OW 7834   3.529   5.135   2.884
 2312SOL    HW1 7835   3.519   5.061   2.951
 2312SOL    HW2 7836   3.447   5.192   2.885
 2313SOL     OW 7837   5.534   4.913   2.122
 2313SOL    HW1 7838   5.442   4.952   2.125
 2313SOL    HW2 7839   5.562   4.899   2.027
 2314SOL     OW 7840   2.987   6.203   3.600
 2314SOL    HW1 7841   3.048   6.213   3.522
 2314SOL    HW2 7842   3.036   6.159   3.676
 2315SOL     OW 7843   4.195   3.251   6.428
 2315SOL    HW1 7844   4.221   3.182   6.360
 2315SOL    HW2 7845   4.276   3.305   6.453
 2316SOL     OW 7846   5.465   2.843   2.949
 2316SOL    HW1 7847   5.531   2.773   2.975
 2316SOL    HW2 7848   5.375   2.800   2.938
 2317SOL     OW 7849   1.713   4.529   3.124
 2317SOL    HW1 7850   1.625   4.519   3.076
 2317SOL    HW2 7851   1.785   4.545   3.057
 2318SOL     OW 7852   7.000   0.695   3.499
 2318SOL    HW1 7853   0.047   0.759   3.493
 2318SOL    HW2 7854   7.026   0.607   3.460
 2319SOL     OW 7855   1.480   4.580   4.470
 2319SOL    HW1 7856   1.424   4.552   4.548
 2319SOL    HW2 7857   1.529   4.501   4.434
 2320SOL     OW 7858   6.814   2.934   3.957
 2320SOL    HW1 7859   6.736   2.896   3.907
 2320SOL    HW2 7860   6.863   2.860   4.004
 2321SOL     OW 7861   2.854   6.954   5.439
 2321SOL    HW1 7862   2.910   6.982   5.361
 2321SOL    HW2 7863   2.779   6.896   5.408
 2322SOL     OW 7864   1.691   0.473   4.974
 2322SOL    HW1 7865   1.662   0.382   4.944
 2322SOL    HW2 7866   1.655   0.492   5.065
 2323SOL     OW 7867   4.427   5.859   2.152
 2323SOL    HW1 7868   4.355   5.904   2.099
 2323SOL    HW2 7869   4.515   5.874   2.108
 2324SOL     OW 7870   0.029   5.245   3.185
 2324SOL    HW1 7871   0.125   5.225   3.202
 2324SOL    HW2 7872   7.018   5.171   3.132
 2325SOL     OW 7873   0.714   3.347   1.272
 2325SOL    HW1 7874   0.730   3.441   1.304
 2325SOL    HW2 7875   0.709   3.346   1.173
 2326SOL     OW 7876   1.074   5.310   6.879
 2326SOL    HW1 7877   1.085   5.222   6.924
 2326SOL    HW2 7878   1.144   5.319   6.808
 2327SOL     OW 7879   5.004   2.785   4.029
 2327SOL    HW1 7880   5.014   2.764   4.127
 2327SOL    HW2 7881   4.937   2.858   4.019
 2328SOL     OW 7882   4.231   0.859   3.140
 2328SOL    HW1 7883   4.139   0.831   3.113
 2328SOL    HW2 7884   4.297   0.830   3.071
 2329SOL     OW 7885   1.327   5.701   3.782
 2329SOL    HW1 7886   1.264   5.688   3.706
 2329SOL    HW2 7887   1.332   5.616   3.836
 2330SOL     OW 7888   0.761   4.424   2.649
 2330SOL    HW1 7889   0.754   4.333   2.689
 2330SOL    HW2 7890   0.756   4.417   2.549
 2331SOL     OW 7891   0.443   4.778   5.512
 2331SOL    HW1 7892   0.503   4.750   5.437
 2331SOL    HW2 7893   0.373   4.840   5.477
 2332SOL     OW 7894   5.443   2.691   6.001
 2332SOL    HW1 7895   5.513   2.747   6.043
 2332SOL    HW2 7896   5.486   2.615   5.952
 2333SOL     OW 7897   1.197   5.575   3.386
 2333SOL    HW1 7898   1.139   5.571   3.467
 2333SOL    HW2 7899   1.182   5.661   3.338
 2334SOL     OW 7900   3.167   6.794   6.997
 2334SOL    HW1 7901   3.267   6.788   6.992
 2334SOL    HW2 7902   3.141   6.850   0.046
 2335SOL     OW 7903   5.228   6.968   3.459
 2335SOL    HW1 7904   5.195   6.884   3.501
 2335SOL    HW2 7905   5.278   7.023   3.527
 2336SOL     OW 7906   4.811   1.397   5.986
 2336SOL    HW1 7907   4.835   1.299   5.987
 2336SOL    HW2 7908   4.839   1.438   6.073
 2337SOL     OW 7909   5.140   6.984   2.925
 2337SOL    HW1 7910   5.175   6.984   3.019
 2337SOL    HW2 7911   5.198   0.012   2.867
 2338SOL     OW 7912   0.837   6.624   6.482
 2338SOL    HW1 7913   0.844   6.611   6.383
 2338SOL    HW2 7914   0.799   6.714   6.501
 2339SOL     OW 7915   3.739   4.532   6.807
 2339SOL    HW1 7916   3.813   4.487   6.856
 2339SOL    HW2 7917   3.744   4.506   6.710
 2340SOL     OW 7918   4.026   5.630   4.864
 2340SOL    HW1 7919   4.074   5.659   4.781
 2340SOL    HW2 7920   4.083   5.564   4.913
 2341SOL     OW 7921   5.343   5.235   0.873
 2341SOL    HW1 7922   5.283   5.314   0.859
 2341SOL    HW2 7923   5.429   5.265   0.916
 2342SOL     OW 7924   6.263   0.423   5.080
 2342SOL    HW1 7925   6.296   0.344   5.130
 2342SOL    HW2 7926   6.185   0.397   5.023
 2343SOL     OW 7927   1.331   6.057   1.055
 2343SOL    HW1 7928   1.333   6.042   0.956
 2343SOL    HW2 7929   1.248   6.108   1.079
 2344SOL     OW 7930   1.227   2.049   2.242
 2344SOL    HW1 7931   1.154   2.075   2.305
 2344SOL    HW2 7932   1.244   2.124   2.178
 2345SOL     OW 7933   2.247   1.023   4.420
 2345SOL    HW1 7934   2.253   0.927   4.448
 2345SOL    HW2 7935   2.193   1.030   4.336
 2346SOL     OW 7936   5.085   3.957   6.031
 2346SOL    HW1 7937   5.094   3.859   6.014
 2346SOL    HW2 7938   5.160   3.987   6.090
 2347SOL     OW 7939   1.457   2.699   1.579
 2347SOL    HW1 7940   1.549   2.730   1.603
 2347SOL    HW2 7941   1.399   2.699   1.661
 2348SOL     OW 7942   2.666   6.760   2.343
 2348SOL    HW1 7943   2.576   6.760   2.388
 2348SOL    HW2 7944   2.654   6.768   2.244
 2349SOL     OW 7945   6.064   6.510   5.670
 2349SOL    HW1 7946   6.128   6.578   5.637
 2349SOL    HW2 7947   6.068   6.429   5.612
 2350SOL     OW 7948   2.724   0.269   5.809
 2350SOL    HW1 7949   2.724   0.317   5.721
 2350SOL    HW2 7950   2.696   0.331   5.882
 2351SOL     OW 7951   2.609   5.727   3.921
 2351SOL    HW1 7952   2.641   5.641   3.961
 2351SOL    HW2 7953   2.684   5.792   3.918
 2352SOL     OW 7954   0.948   3.810   2.914
 2352SOL    HW1 7955   1.006   3.886   2.881
 2352SOL    HW2 7956   0.945   3.812   3.013
 2353SOL     OW 7957   3.257   4.725   5.602
 2353SOL    HW1 7958   3.198   4.668   5.659
 2353SOL    HW2 7959   3.312   4.667   5.542
 2354SOL     OW 7960   3.412   2.342   0.813
 2354SOL    HW1 7961   3.348   2.402   0.861
 2354SOL    HW2 7962   3.433   2.262   0.870
 2355SOL     OW 7963   0.427   6.372   0.764
 2355SOL    HW1 7964   0.486   6.327   0.697
 2355SOL    HW2 7965   0.374   6.303   0.813
 2356SOL     OW 7966   2.743   5.068   3.364
 2356SOL    HW1 7967   2.838   5.048   3.388
 2356SOL    HW2 7968   2.706   4.993   3.310
 2357SOL     OW 7969   6.544   4.273   2.082
 2357SOL    HW1 7970   6.521   4.190   2.032
 2357SOL    HW2 7971   6.643   4.286   2.082
 2358SOL     OW 7972   3.612   1.250   5.468
 2358SOL    HW1 7973   3.693   1.202   5.503
 2358SOL    HW2 7974   3.566   1.296   5.544
 2359SOL     OW 7975   1.257   1.493   5.178
 2359SOL    HW1 7976   1.218   1.457   5.263
 2359SOL    HW2 7977   1.289   1.417   5.121
 2360SOL     OW 7978   3.896   4.869   0.857
 2360SOL    HW1 7979   3.860   4.858   0.764
 2360SOL    HW2 7980   3.915   4.779   0.897
 2361SOL     OW 7981   3.215   6.703   2.003
 2361SOL    HW1 7982   3.123   6.741   1.994
 2361SOL    HW2 7983   3.252   6.684   1.912
 2362SOL     OW 7984   4.193   5.843   4.410
 2362SOL    HW1 7985   4.224   5.756   4.373
 2362SOL    HW2 7986   4.121   5.827   4.478
 2363SOL     OW 7987   3.481   3.459   0.701
 2363SOL    HW1 7988   3.549   3.431   0.769
 2363SOL    HW2 7989   3.407   3.508   0.747
 2364SOL     OW 7990   4.408   2.096   2.034
 2364SOL    HW1 7991   4.326   2.151   2.047
 2364SOL    HW2 7992   4.397   2.038   1.953
 2365SOL     OW 7993   5.811   3.657   4.257
 2365SOL    HW1 7994   5.779   3.574   4.302
 2365SOL    HW2 7995   5.880   3.635   4.188
 2366SOL     OW 7996   2.475   4.272   5.478
 2366SOL    HW1 7997   2.453   4.289   5.382
 2366SOL    HW2 7998   2.438   4.184   5.507
 2367SOL     OW 7999   0.811   4.421   5.877
 2367SOL    HW1 8000   0.902   4.460   5.860
 2367SOL    HW2 8001   0.804   4.332   5.834
 2368SOL     OW 8002   5.726   6.781   4.745
 2368SOL    HW1 8003   5.663   6.714   4.707
 2368SOL    HW2 8004   5.759   6.840   4.671
 2369SOL     OW 8005   2.958   1.299   3.332
 2369SOL    HW1 8006   3.007   1.312   3.419
 2369SOL    HW2 8007   2.860   1.310   3.347
 2370SOL     OW 8008   5.783   2.555   1.187
 2370SOL    HW1 8009   5.784   2.541   1.089
 2370SOL    HW2 8010   5.717   2.628   1.210
 2371SOL     OW 8011   0.785   6.743   2.588
 2371SOL    HW1 8012   0.687   6.726   2.587
 2371SOL    HW2 8013   0.804   6.833   2.551
 2372SOL     OW 8014   6.616   1.595   5.892
 2372SOL    HW1 8015   6.653   1.582   5.801
 2372SOL    HW2 8016   6.679   1.649   5.947
 2373SOL     OW 8017   6.073   6.700   6.189
 2373SOL    HW1 8018   6.078   6.608   6.229
 2373SOL    HW2 8019   6.146   6.757   6.225
 2374SOL     OW 8020   6.138   6.103   2.382
 2374SOL    HW1 8021   6.215   6.070   2.328
 2374SOL    HW2 8022   6.122   6.041   2.459
 2375SOL     OW 8023   1.347   0.812   3.936
 2375SOL    HW1 8024   1.381   0.767   3.853
 2375SOL    HW2 8025   1.424   0.849   3.988
 2376SOL     OW 8026   5.831   1.777   2.693
 2376SOL    HW1 8027   5.917   1.826   2.705
 2376SOL    HW2 8028   5.818   1.756   2.596
 2377SOL     OW 8029   4.474   4.993   5.942
 2377SOL    HW1 8030   4.388   4.996   5.992
 2377SOL    HW2 8031   4.466   5.043   5.856
 2378SOL     OW 8032   7.010   1.464   0.224
 2378SOL    HW1 8033   0.040   1.480   0.302
 2378SOL    HW2 8034   7.019   1.540   0.159
 2379SOL     OW 8035   6.739   5.582   0.937
 2379SOL    HW1 8036   6.759   5.646   0.862
 2379SOL    HW2 8037   6.824   5.554   0.981
 2380SOL     OW 8038   4.840   4.531   4.991
 2380SOL    HW1 8039   4.853   4.497   4.897
 2380SOL    HW2 8040   4.769   4.602   4.991
 2381SOL     OW 8041   3.088   5.352   5.390
 2381SOL    HW1 8042   3.035   5.297   5.325
 2381SOL    HW2 8043   3.074   5.449   5.371
 2382SOL     OW 8044   1.182   6.114   1.694
 2382SOL    HW1 8045   1.261   6.156   1.740
 2382SOL    HW2 8046   1.154   6.172   1.617
 2383SOL     OW 8047   5.027   5.660   4.744
 2383SOL    HW1 8048   4.971   5.580   4.766
 2383SOL    HW2 8049   4.980   5.743   4.776
 2384SOL     OW 8050   0.910   1.535   1.519
 2384SOL    HW1 8051   0.881   1.451   1.565
 2384SOL    HW2 8052   0.854   1.612   1.551
 2385SOL     OW 8053   0.573   2.077   0.605
 2385SOL    HW1 8054   0.669   2.068   0.580
 2385SOL    HW2 8055   0.528   1.988   0.600
 2386SOL     OW 8056   4.461   6.089   3.819
 2386SOL    HW1 8057   4.506   6.107   3.906
 2386SOL    HW2 8058   4.424   6.175   3.783
 2387SOL     OW 8059   1.324   1.606   3.153
 2387SOL    HW1 8060   1.364   1.695   3.176
 2387SOL    HW2 8061   1.370   1.567   3.073
 2388SOL     OW 8062   6.744   2.028   6.089
 2388SOL    HW1 8063   6.819   2.048   6.152
 2388SOL    HW2 8064   6.770   1.953   6.029
 2389SOL     OW 8065   5.340   4.628   3.802
 2389SOL    HW1 8066   5.389   4.637   3.715
 2389SOL    HW2 8067   5.252   4.584   3.787
 2390SOL     OW 8068   4.935   4.204   5.859
 2390SOL    HW1 8069   4.915   4.133   5.791
 2390SOL    HW2 8070   4.956   4.161   5.946
 2391SOL     OW 8071   3.374   3.391   6.480
 2391SOL    HW1 8072   3.294   3.334   6.468
 2391SOL    HW2 8073   3.415   3.374   6.570
 2392SOL     OW 8074   3.358   6.149   4.933
 2392SOL    HW1 8075   3.405   6.105   4.856
 2392SOL    HW2 8076   3.277   6.096   4.957
 2393SOL     OW 8077   3.291   5.058   1.099
 2393SOL    HW1 8078   3.269   5.080   1.004
 2393SOL    HW2 8079   3.359   5.122   1.134
 2394SOL     OW 8080   0.908   3.194   3.337
 2394SOL    HW1 8081   0.980   3.223   3.274
 2394SOL    HW2 8082   0.835   3.149   3.286
 2395SOL     OW 8083   0.382   2.818   5.857
 2395SOL    HW1 8084   0.389   2.912   5.889
 2395SOL    HW2 8085   0.287   2.797   5.837
 2396SOL     OW 8086   6.219   1.159   5.715
 2396SOL    HW1 8087   6.142   1.215   5.684
 2396SOL    HW2 8088   6.262   1.202   5.794
 2397SOL     OW 8089   0.617   4.726   5.221
 2397SOL    HW1 8090   0.686   4.695   5.156
 2397SOL    HW2 8091   0.644   4.813   5.260
 2398SOL     OW 8092   3.101   5.345   4.077
 2398SOL    HW1 8093   3.048   5.421   4.040
 2398SOL    HW2 8094   3.115   5.359   4.175
 2399SOL     OW 8095   2.777   2.301   3.382
 2399SOL    HW1 8096   2.731   2.370   3.328
 2399SOL    HW2 8097   2.792   2.335   3.475
 2400SOL     OW 8098   1.267   3.847   0.021
 2400SOL    HW1 8099   1.228   3.786   6.981
 2400SOL    HW2 8100   1.284   3.937   7.009
 2401SOL     OW 8101   3.867   0.014   5.720
 2401SOL    HW1 8102   3.837   0.097   5.767
 2401SOL    HW2 8103   3.923   0.039   5.640
 2402SOL     OW 8104   1.009   2.022   2.025
 2402SOL    HW1 8105   0.929   2.010   1.966
 2402SOL    HW2 8106   1.089   2.043   1.968
 2403SOL     OW 8107   3.525   3.767   2.480
 2403SOL    HW1 8108   3.452   3.808   2.425
 2403SOL    HW2 8109   3.513   3.793   2.576
 2404SOL     OW 8110   7.007   1.331   0.703
 2404SOL    HW1 8111   0.066   1.374   0.684
 2404SOL    HW2 8112   6.984   1.344   0.800
 2405SOL     OW 8113   2.796   3.955   0.328
 2405SOL    HW1 8114   2.759   3.980   0.239
 2405SOL    HW2 8115   2.896   3.953   0.323
 2406SOL     OW 8116   2.170   0.163   5.152
 2406SOL    HW1 8117   2.249   0.141   5.095
 2406SOL    HW2 8118   2.088   0.120   5.113
 2407SOL     OW 8119   3.830   1.264   3.695
 2407SOL    HW1 8120   3.770   1.189   3.725
 2407SOL    HW2 8121   3.862   1.314   3.775
 2408SOL     OW 8122   2.285   6.382   4.185
 2408SOL    HW1 8123   2.369   6.430   4.160
 2408SOL    HW2 8124   2.308   6.299   4.236
 2409SOL     OW 8125   2.651   2.932   0.823
 2409SOL    HW1 8126   2.705   3.009   0.790
 2409SOL    HW2 8127   2.556   2.942   0.793
 2410SOL     OW 8128   6.634   3.501   5.616
 2410SOL    HW1 8129   6.705   3.486   5.547
 2410SOL    HW2 8130   6.560   3.436   5.603
 2411SOL     OW 8131   2.454   3.301   0.251
 2411SOL    HW1 8132   2.432   3.356   0.331
 2411SOL    HW2 8133   2.387   3.318   0.179
 2412SOL     OW 8134   2.504   2.039   6.626
 2412SOL    HW1 8135   2.590   2.001   6.593
 2412SOL    HW2 8136   2.485   2.003   6.718
 2413SOL     OW 8137   0.082   2.561   6.511
 2413SOL    HW1 8138   0.129   2.619   6.578
 2413SOL    HW2 8139   0.150   2.515   6.454
 2414SOL     OW 8140   6.212   2.386   4.621
 2414SOL    HW1 8141   6.133   2.412   4.565
 2414SOL    HW2 8142   6.273   2.464   4.630
 2415SOL     OW 8143   2.905   5.996   1.297
 2415SOL    HW1 8144   2.958   6.078   1.279
 2415SOL    HW2 8145   2.810   6.020   1.319
 2416SOL     OW 8146   6.773   3.092   3.174
 2416SOL    HW1 8147   6.694   3.032   3.191
 2416SOL    HW2 8148   6.748   3.161   3.106
 2417SOL     OW 8149   3.839   2.853   0.557
 2417SOL    HW1 8150   3.762   2.917   0.558
 2417SOL    HW2 8151   3.804   2.760   0.545
 2418SOL     OW 8152   4.909   3.968   5.688
 2418SOL    HW1 8153   4.826   3.939   5.641
 2418SOL    HW2 8154   4.969   4.015   5.623
 2419SOL     OW 8155   1.868   6.431   4.514
 2419SOL    HW1 8156   1.781   6.387   4.491
 2419SOL    HW2 8157   1.936   6.362   4.535
 2420SOL     OW 8158   2.821   4.978   2.647
 2420SOL    HW1 8159   2.782   5.068   2.667
 2420SOL    HW2 8160   2.842   4.972   2.549
 2421SOL     OW 8161   3.260   6.807   4.853
 2421SOL    HW1 8162   3.342   6.769   4.895
 2421SOL    HW2 8163   3.226   6.745   4.782
 2422SOL     OW 8164   3.969   6.566   2.150
 2422SOL    HW1 8165   3.979   6.665   2.156
 2422SOL    HW2 8166   3.920   6.542   2.066
 2423SOL     OW 8167   1.758   5.231   2.247
 2423SOL    HW1 8168   1.812   5.283   2.181
 2423SOL    HW2 8169   1.816   5.203   2.323
 2424SOL     OW 8170   5.185   0.928   6.403
 2424SOL    HW1 8171   5.242   0.946   6.484
 2424SOL    HW2 8172   5.200   0.834   6.372
 2425SOL     OW 8173   4.461   5.483   5.778
 2425SOL    HW1 8174   4.375   5.478   5.728
 2425SOL    HW2 8175   4.508   5.568   5.754
 2426SOL     OW 8176   0.929   5.392   5.428
 2426SOL    HW1 8177   0.896   5.349   5.511
 2426SOL    HW2 8178   0.852   5.411   5.367
 2427SOL     OW 8179   5.365   0.528   6.454
 2427SOL    HW1 8180   5.278   0.572   6.431
 2427SOL    HW2 8181   5.349   0.452   6.516
 2428SOL     OW 8182   0.180   0.883   3.425
 2428SOL    HW1 8183   0.238   0.912   3.500
 2428SOL    HW2 8184   0.219   0.802   3.381
 2429SOL     OW 8185   5.810   5.926   1.913
 2429SOL    HW1 8186   5.752   6.005   1.892
 2429SOL    HW2 8187   5.769   5.844   1.875
 2430SOL     OW 8188   6.136   2.983   0.531
 2430SOL    HW1 8189   6.125   2.885   0.546
 2430SOL    HW2 8190   6.067   3.015   0.467
 2431SOL     OW 8191   6.611   1.800   1.048
 2431SOL    HW1 8192   6.572   1.768   0.962
 2431SOL    HW2 8193   6.616   1.900   1.047
 2432SOL     OW 8194   3.728   5.483   2.245
 2432SOL    HW1 8195   3.677   5.562   2.211
 2432SOL    HW2 8196   3.817   5.514   2.279
 2433SOL     OW 8197   6.933   5.057   0.130
 2433SOL    HW1 8198   6.913   5.146   0.171
 2433SOL    HW2 8199   6.976   5.070   0.041
 2434SOL     OW 8200   4.022   1.952   2.869
 2434SOL    HW1 8201   4.085   1.963   2.791
 2434SOL    HW2 8202   3.982   1.861   2.866
 2435SOL     OW 8203   5.947   0.153   6.689
 2435SOL    HW1 8204   5.876   0.129   6.755
 2435SOL    HW2 8205   5.911   0.221   6.625
 2436SOL     OW 8206   1.029   1.153   0.826
 2436SOL    HW1 8207   1.127   1.173   0.824
 2436SOL    HW2 8208   0.978   1.226   0.780
 2437SOL     OW 8209   6.758   6.045   2.315
 2437SOL    HW1 8210   6.782   6.026   2.219
 2437SOL    HW2 8211   6.841   6.042   2.371
 2438SOL     OW 8212   3.274   1.751   4.526
 2438SOL    HW1 8213   3.258   1.794   4.437
 2438SOL    HW2 8214   3.253   1.653   4.520
 2439SOL     OW 8215   0.448   5.200   6.748
 2439SOL    HW1 8216   0.472   5.136   6.821
 2439SOL    HW2 8217   0.497   5.174   6.664
 2440SOL     OW 8218   4.177   1.300   4.484
 2440SOL    HW1 8219   4.089   1.268   4.450
 2440SOL    HW2 8220   4.250   1.271   4.423
 2441SOL     OW 8221   6.280   7.018   6.535
 2441SOL    HW1 8222   6.295   0.087   6.547
 2441SOL    HW2 8223   6.220   6.985   6.608
 2442SOL     OW 8224   5.122   3.283   1.760
 2442SOL    HW1 8225   5.194   3.251   1.821
 2442SOL    HW2 8226   5.055   3.210   1.745
 2443SOL     OW 8227   2.153   1.213   6.905
 2443SOL    HW1 8228   2.214   1.177   6.976
 2443SOL    HW2 8229   2.139   1.311   6.919
 2444SOL     OW 8230   3.372   5.661   0.686
 2444SOL    HW1 8231   3.279   5.634   0.712
 2444SOL    HW2 8232   3.422   5.580   0.656
 2445SOL     OW 8233   0.365   2.201   1.215
 2445SOL    HW1 8234   0.268   2.179   1.215
 2445SOL    HW2 8235   0.378   2.295   1.249
 2446SOL     OW 8236   1.571   3.942   2.328
 2446SOL    HW1 8237   1.510   3.875   2.370
 2446SOL    HW2 8238   1.519   3.997   2.263
 2447SOL     OW 8239   2.078   0.709   0.854
 2447SOL    HW1 8240   2.138   0.734   0.930
 2447SOL    HW2 8241   2.133   0.679   0.776
 2448SOL     OW 8242   6.249   2.028   4.270
 2448SOL    HW1 8243   6.253   2.064   4.363
 2448SOL    HW2 8244   6.332   2.053   4.221
 2449SOL     OW 8245   1.896   4.182   2.118
 2449SOL    HW1 8246   1.804   4.221   2.113
 2449SOL    HW2 8247   1.911   4.145   2.209
 2450SOL     OW 8248   2.131   5.363   6.593
 2450SOL    HW1 8249   2.102   5.453   6.628
 2450SOL    HW2 8250   2.228   5.349   6.613
 2451SOL     OW 8251   0.578   0.662   4.091
 2451SOL    HW1 8252   0.664   0.676   4.043
 2451SOL    HW2 8253   0.505   0.645   4.024
 2452SOL     OW 8254   2.549   2.448   3.242
 2452SOL    HW1 8255   2.506   2.535   3.218
 2452SOL    HW2 8256   2.486   2.394   3.298
 2453SOL     OW 8257   0.057   2.017   0.442
 2453SOL    HW1 8258   0.034   2.065   0.358
 2453SOL    HW2 8259   0.034   1.920   0.432
 2454SOL     OW 8260   3.498   5.314   0.898
 2454SOL    HW1 8261   3.484   5.257   0.817
 2454SOL    HW2 8262   3.541   5.400   0.871
 2455SOL     OW 8263   3.337   1.067   0.150
 2455SOL    HW1 8264   3.311   1.048   0.244
 2455SOL    HW2 8265   3.397   1.147   0.147
 2456SOL     OW 8266   1.110   3.924   6.788
 2456SOL    HW1 8267   1.118   3.985   6.866
 2456SOL    HW2 8268   1.155   3.837   6.809
 2457SOL     OW 8269   5.189   1.299   5.664
 2457SOL    HW1 8270   5.281   1.315   5.698
 2457SOL    HW2 8271   5.123   1.348   5.721
 2458SOL     OW 8272   0.914   0.551   2.914
 2458SOL    HW1 8273   0.844   0.590   2.972
 2458SOL    HW2 8274   0.932   0.612   2.837
 2459SOL     OW 8275   2.801   5.494   0.080
 2459SOL    HW1 8276   2.834   5.578   0.123
 2459SOL    HW2 8277   2.879   5.439   0.051
 2460SOL     OW 8278   0.865   1.259   6.757
 2460SOL    HW1 8279   0.874   1.316   6.675
 2460SOL    HW2 8280   0.953   1.255   6.804
 2461SOL     OW 8281   4.329   0.439   4.776
 2461SOL    HW1 8282   4.239   0.427   4.734
 2461SOL    HW2 8283   4.365   0.529   4.752
 2462SOL     OW 8284   0.762   4.693   0.713
 2462SOL    HW1 8285   0.861   4.708   0.716
 2462SOL    HW2 8286   0.716   4.759   0.773
 2463SOL     OW 8287   6.480   1.221   0.037
 2463SOL    HW1 8288   6.400   1.248   0.092
 2463SOL    HW2 8289   6.450   1.197   6.975
 2464SOL     OW 8290   0.461   2.817   2.743
 2464SOL    HW1 8291   0.471   2.725   2.704
 2464SOL    HW2 8292   0.549   2.864   2.740
 2465SOL     OW 8293   6.744   5.485   6.183
 2465SOL    HW1 8294   6.714   5.512   6.092
 2465SOL    HW2 8295   6.774   5.389   6.182
 2466SOL     OW 8296   1.440   1.753   1.845
 2466SOL    HW1 8297   1.361   1.697   1.818
 2466SOL    HW2 8298   1.511   1.693   1.883
 2467SOL     OW 8299   4.443   1.897   6.107
 2467SOL    HW1 8300   4.497   1.853   6.035
 2467SOL    HW2 8301   4.350   1.861   6.105
 2468SOL     OW 8302   3.571   0.242   6.783
 2468SOL    HW1 8303   3.666   0.240   6.815
 2468SOL    HW2 8304   3.565   0.200   6.692
 2469SOL     OW 8305   4.465   2.764   5.675
 2469SOL    HW1 8306   4.504   2.743   5.765
 2469SOL    HW2 8307   4.382   2.710   5.662
 2470SOL     OW 8308   4.169   4.454   6.075
 2470SOL    HW1 8309   4.080   4.476   6.114
 2470SOL    HW2 8310   4.236   4.522   6.106
 2471SOL     OW 8311   3.804   6.807   0.823
 2471SOL    HW1 8312   3.801   6.800   0.923
 2471SOL    HW2 8313   3.855   6.730   0.786
 2472SOL     OW 8314   4.615   2.709   3.971
 2472SOL    HW1 8315   4.631   2.677   3.877
 2472SOL    HW2 8316   4.557   2.644   4.019
 2473SOL     OW 8317   1.536   4.324   4.903
 2473SOL    HW1 8318   1.627   4.332   4.863
 2473SOL    HW2 8319   1.488   4.247   4.861
 2474SOL     OW 8320   1.135   5.599   0.324
 2474SOL    HW1 8321   1.079   5.676   0.354
 2474SOL    HW2 8322   1.232   5.626   0.326
 2475SOL     OW 8323   4.572   0.965   0.745
 2475SOL    HW1 8324   4.551   0.912   0.663
 2475SOL    HW2 8325   4.486   0.997   0.786
 2476SOL     OW 8326   5.210   0.585   2.660
 2476SOL    HW1 8327   5.214   0.591   2.760
 2476SOL    HW2 8328   5.150   0.657   2.625
 2477SOL     OW 8329   4.202   0.534   3.625
 2477SOL    HW1 8330   4.218   0.522   3.527
 2477SOL    HW2 8331   4.215   0.447   3.672
 2478SOL     OW 8332   4.526   1.090   2.448
 2478SOL    HW1 8333   4.445   1.038   2.474
 2478SOL    HW2 8334   4.503   1.188   2.442
 2479SOL     OW 8335   1.179   2.976   1.174
 2479SOL    HW1 8336   1.150   2.882   1.157
 2479SOL    HW2 8337   1.101   3.029   1.208
 2480SOL     OW 8338   3.897   2.853   1.386
 2480SOL    HW1 8339   3.862   2.805   1.467
 2480SOL    HW2 8340   3.878   2.800   1.304
 2481SOL     OW 8341   2.517   0.470   1.415
 2481SOL    HW1 8342   2.589   0.421   1.366
 2481SOL    HW2 8343   2.483   0.545   1.358
 2482SOL     OW 8344   5.387   3.383   0.203
 2482SOL    HW1 8345   5.395   3.409   0.107
 2482SOL    HW2 8346   5.468   3.414   0.252
 2483SOL     OW 8347   1.377   1.828   0.159
 2483SOL    HW1 8348   1.404   1.757   0.094
 2483SOL    HW2 8349   1.449   1.840   0.228
 2484SOL     OW 8350   3.433   0.824   1.026
 2484SOL    HW1 8351   3.509   0.811   0.963
 2484SOL    HW2 8352   3.427   0.746   1.088
 2485SOL     OW 8353   5.131   2.925   0.408
 2485SOL    HW1 8354   5.078   2.844   0.384
 2485SOL    HW2 8355   5.172   2.913   0.498
 2486SOL     OW 8356   0.315   5.265   5.580
 2486SOL    HW1 8357   0.347   5.172   5.595
 2486SOL    HW2 8358   0.267   5.297   5.662
 2487SOL     OW 8359   3.802   6.287   0.538
 2487SOL    HW1 8360   3.855   6.350   0.482
 2487SOL    HW2 8361   3.860   6.250   0.611
 2488SOL     OW 8362   0.472   3.380   1.669
 2488SOL    HW1 8363   0.463   3.293   1.716
 2488SOL    HW2 8364   0.432   3.453   1.726
 2489SOL     OW 8365   1.063   5.885   3.821
 2489SOL    HW1 8366   1.153   5.842   3.829
 2489SOL    HW2 8367   1.022   5.896   3.911
 2490SOL     OW 8368   0.658   5.812   0.977
 2490SOL    HW1 8369   0.606   5.822   1.062
 2490SOL    HW2 8370   0.668   5.901   0.933
 2491SOL     OW 8371   3.963   4.525   1.065
 2491SOL    HW1 8372   3.952   4.566   1.155
 2491SOL    HW2 8373   3.876   4.487   1.035
 2492SOL     OW 8374   4.597   3.454   1.062
 2492SOL    HW1 8375   4.646   3.541   1.070
 2492SOL    HW2 8376   4.531   3.460   0.988
 2493SOL     OW 8377   6.630   0.209   1.190
 2493SOL    HW1 8378   6.703   0.277   1.204
 2493SOL    HW2 8379   6.544   0.245   1.227
 2494SOL     OW 8380   6.157   3.667   2.238
 2494SOL    HW1 8381   6.141   3.568   2.244
 2494SOL    HW2 8382   6.233   3.692   2.298
 2495SOL     OW 8383   5.486   5.876   3.670
 2495SOL    HW1 8384   5.519   5.965   3.640
 2495SOL    HW2 8385   5.520   5.805   3.608
 2496SOL     OW 8386   0.643   3.771   6.799
 2496SOL    HW1 8387   0.614   3.679   6.828
 2496SOL    HW2 8388   0.658   3.772   6.701
 2497SOL     OW 8389   0.342   0.147   0.989
 2497SOL    HW1 8390   0.257   0.108   1.024
 2497SOL    HW2 8391   0.368   0.227   1.045
 2498SOL     OW 8392   3.387   2.159   5.711
 2498SOL    HW1 8393   3.402   2.250   5.671
 2498SOL    HW2 8394   3.339   2.101   5.645
 2499SOL     OW 8395   5.558   3.082   2.152
 2499SOL    HW1 8396   5.588   3.150   2.218
 2499SOL    HW2 8397   5.618   3.084   2.072
 2500SOL     OW 8398   4.339   3.560   6.513
 2500SOL    HW1 8399   4.387   3.622   6.452
 2500SOL    HW2 8400   4.393   3.477   6.525
 2501SOL     OW 8401   5.207   5.625   0.102
 2501SOL    HW1 8402   5.196   5.627   0.003
 2501SOL    HW2 8403   5.280   5.688   0.128
 2502SOL     OW 8404   2.068   0.709   5.230
 2502SOL    HW1 8405   2.060   0.615   5.262
 2502SOL    HW2 8406   2.155   0.721   5.182
 2503SOL     OW 8407   3.132   6.766   5.162
 2503SOL    HW1 8408   3.188   6.796   5.084
 2503SOL    HW2 8409   3.038   6.798   5.149
 2504SOL     OW 8410   3.710   5.670   3.046
 2504SOL    HW1 8411   3.781   5.737   3.067
 2504SOL    HW2 8412   3.711   5.650   2.948
 2505SOL     OW 8413   0.255   5.760   2.712
 2505SOL    HW1 8414   0.261   5.689   2.782
 2505SOL    HW2 8415   0.277   5.848   2.753
 2506SOL     OW 8416   6.369   2.863   6.441
 2506SOL    HW1 8417   6.418   2.861   6.528
 2506SOL    HW2 8418   6.339   2.957   6.422
 2507SOL     OW 8419   0.370   3.369   0.216
 2507SOL    HW1 8420   0.358   3.271   0.198
 2507SOL    HW2 8421   0.436   3.381   0.290
 2508SOL     OW 8422   2.491   1.816   4.095
 2508SOL    HW1 8423   2.572   1.778   4.050
 2508SOL    HW2 8424   2.433   1.860   4.028
 2509SOL     OW 8425   0.137   4.664   0.934
 2509SOL    HW1 8426   0.140   4.645   1.032
 2509SOL    HW2 8427   0.049   4.632   0.897
 2510SOL     OW 8428   3.118   4.621   1.060
 2510SOL    HW1 8429   3.167   4.551   1.112
 2510SOL    HW2 8430   3.172   4.705   1.057
 2511SOL     OW 8431   2.571   1.522   4.318
 2511SOL    HW1 8432   2.477   1.509   4.349
 2511SOL    HW2 8433   2.595   1.619   4.324
 2512SOL     OW 8434   4.247   4.058   5.359
 2512SOL    HW1 8435   4.203   4.147   5.351
 2512SOL    HW2 8436   4.268   4.040   5.455
 2513SOL     OW 8437   2.160   5.575   4.666
 2513SOL    HW1 8438   2.235   5.515   4.695
 2513SOL    HW2 8439   2.106   5.601   4.746
 2514SOL     OW 8440   0.549   4.217   4.234
 2514SOL    HW1 8441   0.505   4.136   4.273
 2514SOL    HW2 8442   0.480   4.279   4.197
 2515SOL     OW 8443   1.645   6.421   0.679
 2515SOL    HW1 8444   1.552   6.455   0.681
 2515SOL    HW2 8445   1.645   6.322   0.694
 2516SOL     OW 8446   5.386   1.504   2.354
 2516SOL    HW1 8447   5.338   1.494   2.441
 2516SOL    HW2 8448   5.470   1.450   2.355
 2517SOL     OW 8449   1.431   0.776   6.222
 2517SOL    HW1 8450   1.461   0.778   6.318
 2517SOL    HW2 8451   1.443   0.683   6.186
 2518SOL     OW 8452   0.981   5.480   0.934
 2518SOL    HW1 8453   0.991   5.551   1.004
 2518SOL    HW2 8454   0.885   5.476   0.905
 2519SOL     OW 8455   3.289   0.365   1.737
 2519SOL    HW1 8456   3.197   0.349   1.773
 2519SOL    HW2 8457   3.306   0.464   1.733
 2520SOL     OW 8458   3.321   2.030   0.749
 2520SOL    HW1 8459   3.412   1.991   0.765
 2520SOL    HW2 8460   3.327   2.101   0.678
 2521SOL     OW 8461   3.063   1.241   5.437
 2521SOL    HW1 8462   3.137   1.293   5.393
 2521SOL    HW2 8463   3.102   1.165   5.489
 2522SOL     OW 8464   1.489   1.248   5.289
 2522SOL    HW1 8465   1.475   1.284   5.197
 2522SOL    HW2 8466   1.401   1.225   5.330
 2523SOL     OW 8467   1.008   3.330   0.989
 2523SOL    HW1 8468   0.996   3.231   0.981
 2523SOL    HW2 8469   0.919   3.376   0.984
 2524SOL     OW 8470   6.716   6.634   4.403
 2524SOL    HW1 8471   6.691   6.721   4.446
 2524SOL    HW2 8472   6.633   6.589   4.369
 2525SOL     OW 8473   0.707   2.640   4.791
 2525SOL    HW1 8474   0.798   2.679   4.774
 2525SOL    HW2 8475   0.641   2.714   4.801
 2526SOL     OW 8476   1.819   4.322   7.007
 2526SOL    HW1 8477   1.815   4.298   0.075
 2526SOL    HW2 8478   1.728   4.350   6.976
 2527SOL     OW 8479   5.813   6.564   5.758
 2527SOL    HW1 8480   5.902   6.547   5.717
 2527SOL    HW2 8481   5.822   6.628   5.834
 2528SOL     OW 8482   5.554   4.914   6.491
 2528SOL    HW1 8483   5.530   4.953   6.580
 2528SOL    HW2 8484   5.484   4.941   6.424
 2529SOL     OW 8485   6.708   6.661   6.708
 2529SOL    HW1 8486   6.675   6.754   6.690
 2529SOL    HW2 8487   6.741   6.620   6.623
 2530SOL     OW 8488   2.461   6.065   4.974
 2530SOL    HW1 8489   2.395   6.107   4.912
 2530SOL    HW2 8490   2.483   6.129   5.048
 2531SOL     OW 8491   6.352   6.463   4.954
 2531SOL    HW1 8492   6.438   6.413   4.947
 2531SOL    HW2 8493   6.306   6.462   4.865
 2532SOL     OW 8494   7.013   6.389   0.633
 2532SOL    HW1 8495   6.943   6.460   0.645
 2532SOL    HW2 8496   6.980   6.321   0.568
 2533SOL     OW 8497   4.696   6.746   3.569
 2533SOL    HW1 8498   4.657   6.728   3.659
 2533SOL    HW2 8499   4.637   6.706   3.499
 2534SOL     OW 8500   3.548   1.391   2.008
 2534SOL    HW1 8501   3.612   1.316   2.025
 2534SOL    HW2 8502   3.461   1.371   2.054
 2535SOL     OW 8503   3.451   3.428   6.206
 2535SOL    HW1 8504   3.425   3.343   6.160
 2535SOL    HW2 8505   3.449   3.415   6.305
 2536SOL     OW 8506   1.293   1.141   6.365
 2536SOL    HW1 8507   1.260   1.228   6.329
 2536SOL    HW2 8508   1.391   1.148   6.384
 2537SOL     OW 8509   3.025   6.917   6.519
 2537SOL    HW1 8510   2.960   6.862   6.466
 2537SOL    HW2 8511   3.070   6.859   6.587
 2538SOL     OW 8512   0.410   3.983   3.488
 2538SOL    HW1 8513   0.442   3.957   3.579
 2538SOL    HW2 8514   0.489   3.998   3.428
 2539SOL     OW 8515   5.293   0.930   4.065
 2539SOL    HW1 8516   5.381   0.908   4.107
 2539SOL    HW2 8517   5.259   1.016   4.103
 2540SOL     OW 8518   4.202   1.981   2.648
 2540SOL    HW1 8519   4.256   2.060   2.622
 2540SOL    HW2 8520   4.230   1.901   2.595
 2541SOL     OW 8521   3.317   0.409   5.120
 2541SOL    HW1 8522   3.360   0.479   5.063
 2541SOL    HW2 8523   3.239   0.448   5.169
 2542SOL     OW 8524   3.678   3.503   6.383
 2542SOL    HW1 8525   3.760   3.451   6.359
 2542SOL    HW2 8526   3.622   3.516   6.301
 2543SOL     OW 8527   0.429   0.867   3.649
 2543SOL    HW1 8528   0.412   0.772   3.621
 2543SOL    HW2 8529   0.363   0.894   3.718
 2544SOL     OW 8530   0.267   5.806   0.265
 2544SOL    HW1 8531   0.208   5.853   0.331
 2544SOL    HW2 8532   0.216   5.789   0.181
 2545SOL     OW 8533   1.883   6.907   1.915
 2545SOL    HW1 8534   1.916   6.829   1.862
 2545SOL    HW2 8535   1.960   6.967   1.935
 2546SOL     OW 8536   0.047   1.434   1.748
 2546SOL    HW1 8537   0.018   1.408   1.840
 2546SOL    HW2 8538   7.022   1.511   1.715
 2547SOL     OW 8539   0.748   4.332   6.678
 2547SOL    HW1 8540   0.672   4.267   6.683
 2547SOL    HW2 8541   0.732   4.396   6.603
 2548SOL     OW 8542   1.034   6.704   4.635
 2548SOL    HW1 8543   1.076   6.633   4.577
 2548SOL    HW2 8544   1.105   6.767   4.667
 2549SOL     OW 8545   0.724   0.063   1.328
 2549SOL    HW1 8546   0.675   0.119   1.395
 2549SOL    HW2 8547   0.820   0.057   1.354
 2550SOL     OW 8548   6.518   6.835   0.126
 2550SOL    HW1 8549   6.442   6.770   0.127
 2550SOL    HW2 8550   6.596   6.796   0.175
 2551SOL     OW 8551   3.554   4.384   0.070
 2551SOL    HW1 8552   3.633   4.444   0.078
 2551SOL    HW2 8553   3.471   4.437   0.087
 2552SOL     OW 8554   1.737   5.974   4.371
 2552SOL    HW1 8555   1.786   6.044   4.423
 2552SOL    HW2 8556   1.670   6.018   4.311
 2553SOL     OW 8557   3.992   3.620   5.822
 2553SOL    HW1 8558   3.982   3.648   5.726
 2553SOL    HW2 8559   4.038   3.692   5.873
 2554SOL     OW 8560   2.675   0.616   0.600
 2554SOL    HW1 8561   2.699   0.698   0.548
 2554SOL    HW2 8562   2.675   0.537   0.539
 2555SOL     OW 8563   6.280   1.289   4.782
 2555SOL    HW1 8564   6.371   1.323   4.760
 2555SOL    HW2 8565   6.284   1.237   4.867
 2556SOL     OW 8566   4.767   6.867   0.475
 2556SOL    HW1 8567   4.866   6.866   0.463
 2556SOL    HW2 8568   4.723   6.825   0.395
 2557SOL     OW 8569   1.603   3.901   0.786
 2557SOL    HW1 8570   1.607   3.816   0.839
 2557SOL    HW2 8571   1.531   3.960   0.823
 2558SOL     OW 8572   4.828   0.997   4.607
 2558SOL    HW1 8573   4.823   0.998   4.507
 2558SOL    HW2 8574   4.847   1.089   4.641
 2559SOL     OW 8575   1.002   4.512   5.216
 2559SOL    HW1 8576   1.065   4.499   5.139
 2559SOL    HW2 8577   1.052   4.551   5.293
 2560SOL     OW 8578   5.534   2.462   5.912
 2560SOL    HW1 8579   5.472   2.389   5.941
 2560SOL    HW2 8580   5.581   2.434   5.828
 2561SOL     OW 8581   2.632   5.056   5.261
 2561SOL    HW1 8582   2.640   5.143   5.310
 2561SOL    HW2 8583   2.551   5.007   5.292
 2562SOL     OW 8584   2.768   4.861   1.526
 2562SOL    HW1 8585   2.811   4.786   1.575
 2562SOL    HW2 8586   2.818   4.946   1.544
 2563SOL     OW 8587   3.313   1.447   0.459
 2563SOL    HW1 8588   3.243   1.376   0.447
 2563SOL    HW2 8589   3.272   1.527   0.503
 2564SOL     OW 8590   1.890   5.894   6.841
 2564SOL    HW1 8591   1.986   5.866   6.835
 2564SOL    HW2 8592   1.850   5.857   6.925
 2565SOL     OW 8593   1.618   0.036   6.609
 2565SOL    HW1 8594   1.666   0.101   6.550
 2565SOL    HW2 8595   1.590   0.082   6.693
 2566SOL     OW 8596   1.983   0.173   1.129
 2566SOL    HW1 8597   1.983   0.152   1.227
 2566SOL    HW2 8598   2.028   0.260   1.113
 2567SOL     OW 8599   0.847   0.520   0.565
 2567SOL    HW1 8600   0.920   0.502   0.499
 2567SOL    HW2 8601   0.884   0.570   0.643
 2568SOL     OW 8602   4.589   1.886   6.332
 2568SOL    HW1 8603   4.540   1.910   6.416
 2568SOL    HW2 8604   4.524   1.859   6.261
 2569SOL     OW 8605   2.753   0.427   2.824
 2569SOL    HW1 8606   2.841   0.431   2.872
 2569SOL    HW2 8607   2.699   0.350   2.860
 2570SOL     OW 8608   5.541   0.468   5.527
 2570SOL    HW1 8609   5.499   0.516   5.450
 2570SOL    HW2 8610   5.588   0.534   5.586
 2571SOL     OW 8611   2.513   5.169   4.825
 2571SOL    HW1 8612   2.483   5.118   4.906
 2571SOL    HW2 8613   2.601   5.212   4.843
 2572SOL     OW 8614   2.990   5.563   1.685
 2572SOL    HW1 8615   3.004   5.590   1.780
 2572SOL    HW2 8616   3.035   5.628   1.624
 2573SOL     OW 8617   0.504   1.958   1.158
 2573SOL    HW1 8618   0.482   1.889   1.227
 2573SOL    HW2 8619   0.462   2.045   1.185
 2574SOL     OW 8620   5.633   4.277   0.650
 2574SOL    HW1 8621   5.585   4.365   0.643
 2574SOL    HW2 8622   5.728   4.289   0.621
 2575SOL     OW 8623   5.397   6.133   0.118
 2575SOL    HW1 8624   5.335   6.204   0.152
 2575SOL    HW2 8625   5.491   6.167   0.123
 2576SOL     OW 8626   4.669   6.375   4.138
 2576SOL    HW1 8627   4.666   6.326   4.226
 2576SOL    HW2 8628   4.758   6.418   4.127
 2577SOL     OW 8629   3.485   6.033   2.460
 2577SOL    HW1 8630   3.407   6.028   2.397
 2577SOL    HW2 8631   3.562   6.078   2.415
 2578SOL     OW 8632   4.064   1.730   3.904
 2578SOL    HW1 8633   3.979   1.678   3.897
 2578SOL    HW2 8634   4.136   1.682   3.853
 2579SOL     OW 8635   1.209   6.194   3.725
 2579SOL    HW1 8636   1.160   6.197   3.812
 2579SOL    HW2 8637   1.308   6.195   3.742
 2580SOL     OW 8638   2.521   4.529   7.005
 2580SOL    HW1 8639   2.425   4.544   6.979
 2580SOL    HW2 8640   2.525   4.460   0.048
 2581SOL     OW 8641   2.698   5.199   1.669
 2581SOL    HW1 8642   2.728   5.274   1.610
 2581SOL    HW2 8643   2.639   5.235   1.741
 2582SOL     OW 8644   0.325   4.468   1.750
 2582SOL    HW1 8645   0.252   4.507   1.806
 2582SOL    HW2 8646   0.362   4.387   1.795
 2583SOL     OW 8647   0.649   1.424   6.427
 2583SOL    HW1 8648   0.672   1.328   6.413
 2583SOL    HW2 8649   0.601   1.459   6.346
 2584SOL     OW 8650   4.065   5.453   6.047
 2584SOL    HW1 8651   4.157   5.492   6.049
 2584SOL    HW2 8652   4.063   5.372   5.989
 2585SOL     OW 8653   3.239   3.527   0.482
 2585SOL    HW1 8654   3.245   3.592   0.558
 2585SOL    HW2 8655   3.280   3.440   0.510
 2586SOL     OW 8656   3.179   0.831   5.464
 2586SOL    HW1 8657   3.139   0.883   5.539
 2586SOL    HW2 8658   3.165   0.880   5.378
 2587SOL     OW 8659   6.136   1.060   3.531
 2587SOL    HW1 8660   6.223   1.104   3.510
 2587SOL    HW2 8661   6.081   1.052   3.448
 2588SOL     OW 8662   3.806   2.102   6.049
 2588SOL    HW1 8663   3.731   2.091   6.114
 2588SOL    HW2 8664   3.826   2.199   6.037
 2589SOL     OW 8665   1.630   6.942   5.634
 2589SOL    HW1 8666   1.716   6.985   5.606
 2589SOL    HW2 8667   1.636   6.843   5.621
 2590SOL     OW 8668   3.286   4.963   0.184
 2590SOL    HW1 8669   3.300   4.882   0.128
 2590SOL    HW2 8670   3.367   4.980   0.240
 2591SOL     OW 8671   6.553   4.947   3.306
 2591SOL    HW1 8672   6.597   5.003   3.377
 2591SOL    HW2 8673   6.562   4.992   3.218
 2592SOL     OW 8674   3.026   4.559   6.841
 2592SOL    HW1 8675   2.946   4.525   6.890
 2592SOL    HW2 8676   3.062   4.487   6.782
 2593SOL     OW 8677   3.556   5.862   0.651
 2593SOL    HW1 8678   3.523   5.771   0.676
 2593SOL    HW2 8679   3.522   5.885   0.560
 2594SOL     OW 8680   2.364   3.739   5.936
 2594SOL    HW1 8681   2.296   3.807   5.910
 2594SOL    HW2 8682   2.432   3.780   5.997
 2595SOL     OW 8683   0.189   1.100   3.990
 2595SOL    HW1 8684   0.140   1.046   4.058
 2595SOL    HW2 8685   0.124   1.159   3.941
 2596SOL     OW 8686   2.428   2.490   1.381
 2596SOL    HW1 8687   2.457   2.578   1.419
 2596SOL    HW2 8688   2.388   2.434   1.453
 2597SOL     OW 8689   0.510   5.150   6.433
 2597SOL    HW1 8690   0.570   5.223   6.399
 2597SOL    HW2 8691   0.419   5.161   6.394
 2598SOL     OW 8692   6.884   1.312   1.915
 2598SOL    HW1 8693   6.813   1.381   1.905
 2598SOL    HW2 8694   6.896   1.263   1.828
 2599SOL     OW 8695   1.598   6.137   0.629
 2599SOL    HW1 8696   1.571   6.110   0.537
 2599SOL    HW2 8697   1.697   6.137   0.636
 2600SOL     OW 8698   5.976   2.449   4.507
 2600SOL    HW1 8699   5.947   2.532   4.555
 2600SOL    HW2 8700   5.895   2.398   4.478
 2601SOL     OW 8701   1.420   1.677   1.080
 2601SOL    HW1 8702   1.400   1.774   1.097
 2601SOL    HW2 8703   1.352   1.621   1.128
 2602SOL     OW 8704   1.699   4.733   4.732
 2602SOL    HW1 8705   1.784   4.682   4.746
 2602SOL    HW2 8706   1.684   4.747   4.634
 2603SOL     OW 8707   2.869   1.092   2.743
 2603SOL    HW1 8708   2.843   1.100   2.647
 2603SOL    HW2 8709   2.896   1.182   2.778
 2604SOL     OW 8710   4.993   1.595   2.807
 2604SOL    HW1 8711   4.921   1.542   2.853
 2604SOL    HW2 8712   4.951   1.660   2.743
 2605SOL     OW 8713   1.530   3.008   2.539
 2605SOL    HW1 8714   1.559   2.936   2.476
 2605SOL    HW2 8715   1.556   3.097   2.503
 2606SOL     OW 8716   5.775   5.171   1.554
 2606SOL    HW1 8717   5.790   5.230   1.633
 2606SOL    HW2 8718   5.864   5.142   1.517
 2607SOL     OW 8719   0.672   1.478   0.875
 2607SOL    HW1 8720   0.651   1.412   0.947
 2607SOL    HW2 8721   0.662   1.570   0.910
 2608SOL     OW 8722   3.266   5.643   6.867
 2608SOL    HW1 8723   3.298   5.603   6.953
 2608SOL    HW2 8724   3.202   5.718   6.886
 2609SOL     OW 8725   6.786   1.391   1.555
 2609SOL    HW1 8726   6.715   1.364   1.490
 2609SOL    HW2 8727   6.827   1.309   1.594
 2610SOL     OW 8728   1.121   4.480   3.894
 2610SOL    HW1 8729   1.176   4.470   3.977
 2610SOL    HW2 8730   1.181   4.500   3.817
 2611SOL     OW 8731   4.666   6.337   0.112
 2611SOL    HW1 8732   4.708   6.265   0.167
 2611SOL    HW2 8733   4.569   6.317   0.100
 2612SOL     OW 8734   5.456   6.705   4.046
 2612SOL    HW1 8735   5.459   6.605   4.036
 2612SOL    HW2 8736   5.416   6.746   3.964
 2613SOL     OW 8737   2.379   5.027   6.600
 2613SOL    HW1 8738   2.339   5.016   6.509
 2613SOL    HW2 8739   2.305   5.033   6.667
 2614SOL     OW 8740   5.874   1.293   6.476
 2614SOL    HW1 8741   5.830   1.362   6.419
 2614SOL    HW2 8742   5.852   1.202   6.442
 2615SOL     OW 8743   0.039   2.715   1.983
 2615SOL    HW1 8744   6.998   2.645   1.993
 2615SOL    HW2 8745   0.061   2.727   1.887
 2616SOL     OW 8746   0.947   1.792   5.542
 2616SOL    HW1 8747   0.867   1.776   5.484
 2616SOL    HW2 8748   1.000   1.708   5.549
 2617SOL     OW 8749   4.976   0.861   0.639
 2617SOL    HW1 8750   4.997   0.930   0.570
 2617SOL    HW2 8751   4.970   0.905   0.729
 2618SOL     OW 8752   1.236   5.948   4.835
 2618SOL    HW1 8753   1.213   5.995   4.750
 2618SOL    HW2 8754   1.300   6.003   4.888
 2619SOL     OW 8755   4.048   1.895   1.818
 2619SOL    HW1 8756   4.003   1.983   1.829
 2619SOL    HW2 8757   4.044   1.844   1.905
 2620SOL     OW 8758   6.425   6.637   1.912
 2620SOL    HW1 8759   6.403   6.598   2.001
 2620SOL    HW2 8760   6.524   6.633   1.897
 2621SOL     OW 8761   0.573   4.856   2.615
 2621SOL    HW1 8762   0.591   4.758   2.622
 2621SOL    HW2 8763   0.635   4.897   2.547
 2622SOL     OW 8764   3.384   3.159   5.828
 2622SOL    HW1 8765   3.325   3.147   5.907
 2622SOL    HW2 8766   3.418   3.070   5.798
 2623SOL     OW 8767   0.500   0.354   3.892
 2623SOL    HW1 8768   0.426   0.290   3.912
 2623SOL    HW2 8769   0.471   0.447   3.913
 2624SOL     OW 8770   6.835   2.337   4.411
 2624SOL    HW1 8771   6.894   2.265   4.449
 2624SOL    HW2 8772   6.843   2.338   4.312
 2625SOL     OW 8773   1.876   5.186   5.669
 2625SOL    HW1 8774   1.860   5.091   5.696
 2625SOL    HW2 8775   1.869   5.245   5.749
 2626SOL     OW 8776   6.392   6.973   5.547
 2626SOL    HW1 8777   6.447   0.017   5.585
 2626SOL    HW2 8778   6.437   6.936   5.466
 2627SOL     OW 8779   0.868   0.409   6.489
 2627SOL    HW1 8780   0.805   0.487   6.488
 2627SOL    HW2 8781   0.816   0.324   6.504
 2628SOL     OW 8782   1.858   3.487   4.544
 2628SOL    HW1 8783   1.945   3.454   4.506
 2628SOL    HW2 8784   1.841   3.579   4.510
 2629SOL     OW 8785   3.573   3.488   3.701
 2629SOL    HW1 8786   3.499   3.543   3.662
 2629SOL    HW2 8787   3.579   3.401   3.652
 2630SOL     OW 8788   3.688   1.035   3.774
 2630SOL    HW1 8789   3.732   0.975   3.708
 2630SOL    HW2 8790   3.683   0.989   3.863
 2631SOL     OW 8791   5.923   0.829   6.596
 2631SOL    HW1 8792   5.867   0.784   6.665
 2631SOL    HW2 8793   5.937   0.925   6.622
 2632SOL     OW 8794   5.735   4.032   1.727
 2632SOL    HW1 8795   5.794   4.089   1.784
 2632SOL    HW2 8796   5.717   4.080   1.641
 2633SOL     OW 8797   6.390   2.546   5.266
 2633SOL    HW1 8798   6.475   2.546   5.319
 2633SOL    HW2 8799   6.413   2.534   5.169
 2634SOL     OW 8800   0.679   6.013   4.178
 2634SOL    HW1 8801   0.647   6.052   4.264
 2634SOL    HW2 8802   0.602   5.971   4.130
 2635SOL     OW 8803   6.222   5.133   3.999
 2635SOL    HW1 8804   6.292   5.093   3.940
 2635SOL    HW2 8805   6.136   5.085   3.987
 2636SOL     OW 8806   3.177   1.203   6.416
 2636SOL    HW1 8807   3.145   1.200   6.510
 2636SOL    HW2 8808   3.244   1.276   6.405
 2637SOL     OW 8809   6.971   1.502   3.849
 2637SOL    HW1 8810   6.871   1.505   3.850
 2637SOL    HW2 8811   7.005   1.546   3.766
 2638SOL     OW 8812   0.357   0.419   4.537
 2638SOL    HW1 8813   0.372   0.515   4.560
 2638SOL    HW2 8814   0.261   0.406   4.509
 2639SOL     OW 8815   4.834   5.161   5.457
 2639SOL    HW1 8816   4.735   5.147   5.444
 2639SOL    HW2 8817   4.881   5.074   5.447
 2640SOL     OW 8818   0.234   0.230   5.148
 2640SOL    HW1 8819   0.215   0.147   5.095
 2640SOL    HW2 8820   0.331   0.233   5.172
 2641SOL     OW 8821   4.968   2.607   0.849
 2641SOL    HW1 8822   5.039   2.580   0.914
 2641SOL    HW2 8823   4.991   2.571   0.759
 2642SOL     OW 8824   6.893   0.878   3.712
 2642SOL    HW1 8825   6.923   0.968   3.680
 2642SOL    HW2 8826   6.891   0.814   3.634
 2643SOL     OW 8827   0.649   3.380   3.987
 2643SOL    HW1 8828   0.657   3.388   3.888
 2643SOL    HW2 8829   0.591   3.454   4.022
 2644SOL     OW 8830   4.697   5.486   5.059
 2644SOL    HW1 8831   4.710   5.446   4.968
 2644SOL    HW2 8832   4.641   5.425   5.115
 2645SOL     OW 8833   4.990   4.717   3.931
 2645SOL    HW1 8834   4.995   4.816   3.939
 2645SOL    HW2 8835   4.895   4.690   3.914
 2646SOL     OW 8836   0.895   4.153   6.499
 2646SOL    HW1 8837   0.897   4.166   6.400
 2646SOL    HW2 8838   0.837   4.224   6.540
 2647SOL     OW 8839   5.039   0.255   1.674
 2647SOL    HW1 8840   4.957   0.275   1.727
 2647SOL    HW2 8841   5.038   0.309   1.590
 2648SOL     OW 8842   0.741   6.839   3.382
 2648SOL    HW1 8843   0.681   6.919   3.385
 2648SOL    HW2 8844   0.786   6.835   3.293
 2649SOL     OW 8845   5.147   2.991   1.864
 2649SOL    HW1 8846   5.215   2.927   1.899
 2649SOL    HW2 8847   5.057   2.947   1.864
 2650SOL     OW 8848   2.976   5.615   4.607
 2650SOL    HW1 8849   3.028   5.535   4.577
 2650SOL    HW2 8850   2.883   5.609   4.570
 2651SOL     OW 8851   3.386   1.496   6.327
 2651SOL    HW1 8852   3.309   1.494   6.263
 2651SOL    HW2 8853   3.462   1.443   6.290
 2652SOL     OW 8854   4.423   3.575   5.600
 2652SOL    HW1 8855   4.379   3.587   5.511
 2652SOL    HW2 8856   4.513   3.535   5.587
 2653SOL     OW 8857   3.748   6.183   5.724
 2653SOL    HW1 8858   3.740   6.084   5.737
 2653SOL    HW2 8859   3.672   6.229   5.769
 2654SOL     OW 8860   5.255   6.746   0.903
 2654SOL    HW1 8861   5.240   6.731   0.806
 2654SOL    HW2 8862   5.305   6.831   0.917
 2655SOL     OW 8863   4.714   6.218   3.425
 2655SOL    HW1 8864   4.754   6.134   3.462
 2655SOL    HW2 8865   4.639   6.195   3.363
 2656SOL     OW 8866   3.700   5.713   3.828
 2656SOL    HW1 8867   3.786   5.762   3.815
 2656SOL    HW2 8868   3.650   5.711   3.741
 2657SOL     OW 8869   1.860   3.083   0.399
 2657SOL    HW1 8870   1.844   3.167   0.346
 2657SOL    HW2 8871   1.774   3.051   0.438
 2658SOL     OW 8872   4.796   3.975   6.498
 2658SOL    HW1 8873   4.696   3.978   6.504
 2658SOL    HW2 8874   4.833   4.066   6.514
 2659SOL     OW 8875   5.556   2.751   4.916
 2659SOL    HW1 8876   5.625   2.743   4.845
 2659SOL    HW2 8877   5.599   2.740   5.006
 2660SOL     OW 8878   0.518   1.095   0.759
 2660SOL    HW1 8879   0.492   0.999   0.750
 2660SOL    HW2 8880   0.488   1.146   0.677
 2661SOL     OW 8881   1.029   0.650   2.096
 2661SOL    HW1 8882   1.041   0.734   2.149
 2661SOL    HW2 8883   1.091   0.580   2.131
 2662SOL     OW 8884   3.281   0.624   3.756
 2662SOL    HW1 8885   3.245   0.707   3.715
 2662SOL    HW2 8886   3.223   0.546   3.732
 2663SOL     OW 8887   3.572   6.814   5.946
 2663SOL    HW1 8888   3.520   6.729   5.946
 2663SOL    HW2 8889   3.616   6.826   5.857
 2664SOL     OW 8890   3.952   2.319   5.592
 2664SOL    HW1 8891   3.963   2.390   5.522
 2664SOL    HW2 8892   3.928   2.362   5.679
 2665SOL     OW 8893   2.455   3.422   5.448
 2665SOL    HW1 8894   2.454   3.344   5.385
 2665SOL    HW2 8895   2.520   3.490   5.415
 2666SOL     OW 8896   1.897   2.842   1.810
 2666SOL    HW1 8897   1.866   2.915   1.872
 2666SOL    HW2 8898   1.821   2.779   1.792
 2667SOL     OW 8899   6.719   4.868   3.674
 2667SOL    HW1 8900   6.783   4.792   3.682
 2667SOL    HW2 8901   6.649   4.846   3.606
 2668SOL     OW 8902   5.375   2.457   4.260
 2668SOL    HW1 8903   5.343   2.457   4.355
 2668SOL    HW2 8904   5.471   2.428   4.257
 2669SOL     OW 8905   2.817   5.872   6.816
 2669SOL    HW1 8906   2.900   5.848   6.864
 2669SOL    HW2 8907   2.833   5.867   6.717
 2670SOL     OW 8908   6.325   1.578   5.581
 2670SOL    HW1 8909   6.316   1.553   5.677
 2670SOL    HW2 8910   6.236   1.602   5.544
 2671SOL     OW 8911   4.291   6.294   6.511
 2671SOL    HW1 8912   4.331   6.260   6.426
 2671SOL    HW2 8913   4.231   6.372   6.490
 2672SOL     OW 8914   3.328   1.142   1.765
 2672SOL    HW1 8915   3.295   1.082   1.838
 2672SOL    HW2 8916   3.422   1.117   1.740
 2673SOL     OW 8917   4.899   6.900   2.862
 2673SOL    HW1 8918   4.989   6.939   2.879
 2673SOL    HW2 8919   4.836   6.930   2.935
 2674SOL     OW 8920   1.794   5.236   3.809
 2674SOL    HW1 8921   1.752   5.147   3.826
 2674SOL    HW2 8922   1.724   5.308   3.816
 2675SOL     OW 8923   0.515   6.723   3.290
 2675SOL    HW1 8924   0.599   6.771   3.315
 2675SOL    HW2 8925   0.537   6.628   3.265
 2676SOL     OW 8926   2.957   3.744   2.291
 2676SOL    HW1 8927   2.872   3.770   2.245
 2676SOL    HW2 8928   2.960   3.788   2.381
 2677SOL     OW 8929   2.720   4.415   0.902
 2677SOL    HW1 8930   2.781   4.335   0.900
 2677SOL    HW2 8931   2.678   4.423   0.992
 2678SOL     OW 8932   6.970   2.352   2.376
 2678SOL    HW1 8933   0.014   2.416   2.353
 2678SOL    HW2 8934   7.010   2.272   2.422
 2679SOL     OW 8935   2.353   5.632   2.610
 2679SOL    HW1 8936   2.377   5.725   2.582
 2679SOL    HW2 8937   2.351   5.627   2.710
 2680SOL     OW 8938   0.871   2.452   0.549
 2680SOL    HW1 8939   0.956   2.478   0.594
 2680SOL    HW2 8940   0.859   2.507   0.467
 2681SOL     OW 8941   1.441   2.549   5.110
 2681SOL    HW1 8942   1.469   2.458   5.079
 2681SOL    HW2 8943   1.518   2.593   5.156
 2682SOL     OW 8944   4.725   4.163   2.385
 2682SOL    HW1 8945   4.800   4.159   2.319
 2682SOL    HW2 8946   4.663   4.238   2.360
 2683SOL     OW 8947   2.051   4.428   2.815
 2683SOL    HW1 8948   2.039   4.375   2.899
 2683SOL    HW2 8949   1.977   4.408   2.751
 2684SOL     OW 8950   5.496   6.621   2.046
 2684SOL    HW1 8951   5.412   6.591   2.092
 2684SOL    HW2 8952   5.556   6.542   2.032
 2685SOL     OW 8953   6.701   4.780   4.893
 2685SOL    HW1 8954   6.727   4.876   4.881
 2685SOL    HW2 8955   6.613   4.763   4.849
 2686SOL     OW 8956   1.149   1.412   4.775
 2686SOL    HW1 8957   1.079   1.340   4.771
 2686SOL    HW2 8958   1.125   1.477   4.847
 2687SOL     OW 8959   3.947   0.445   1.619
 2687SOL    HW1 8960   3.968   0.352   1.650
 2687SOL    HW2 8961   3.879   0.486   1.680
 2688SOL     OW 8962   3.133   1.967   0.928
 2688SOL    HW1 8963   3.181   1.993   1.012
 2688SOL    HW2 8964   3.193   1.981   0.850
 2689SOL     OW 8965   0.439   4.152   2.496
 2689SOL    HW1 8966   0.440   4.060   2.456
 2689SOL    HW2 8967   0.531   4.177   2.525
 2690SOL     OW 8968   3.043   2.725   6.540
 2690SOL    HW1 8969   3.077   2.647   6.594
 2690SOL    HW2 8970   2.991   2.786   6.600
 2691SOL     OW 8971   0.313   4.570   3.954
 2691SOL    HW1 8972   0.371   4.647   3.978
 2691SOL    HW2 8973   0.235   4.567   4.017
 2692SOL     OW 8974   2.761   6.296   3.017
 2692SOL    HW1 8975   2.810   6.368   2.968
 2692SOL    HW2 8976   2.783   6.301   3.115
 2693SOL     OW 8977   1.864   4.878   4.027
 2693SOL    HW1 8978   1.892   4.834   3.941
 2693SOL    HW2 8979   1.940   4.932   4.062
 2694SOL     OW 8980   3.837   6.223   3.602
 2694SOL    HW1 8981   3.764   6.209   3.670
 2694SOL    HW2 8982   3.897   6.296   3.633
 2695SOL     OW 8983   6.263   0.136   3.066
 2695SOL    HW1 8984   6.229   0.212   3.011
 2695SOL    HW2 8985   6.310   0.171   3.147
 2696SOL     OW 8986   4.573   3.752   6.681
 2696SOL    HW1 8987   4.638   3.799   6.740
 2696SOL    HW2 8988   4.495   3.811   6.663
 2697SOL     OW 8989   4.282   1.423   1.196
 2697SOL    HW1 8990   4.215   1.489   1.230
 2697SOL    HW2 8991   4.368   1.470   1.175
 2698SOL     OW 8992   1.574   5.131   6.434
 2698SOL    HW1 8993   1.581   5.231   6.428
 2698SOL    HW2 8994   1.494   5.100   6.384
 2699SOL     OW 8995   2.858   5.870   1.939
 2699SOL    HW1 8996   2.766   5.907   1.923
 2699SOL    HW2 8997   2.912   5.878   1.856
 2700SOL     OW 8998   2.490   1.696   0.696
 2700SOL    HW1 8999   2.459   1.681   0.790
 2700SOL    HW2 9000   2.555   1.772   0.694
 2701SOL     OW 9001   5.039   2.303   4.863
 2701SOL    HW1 9002   4.954   2.276   4.908
 2701SOL    HW2 9003   5.051   2.402   4.869
 2702SOL     OW 9004   1.513   1.502   3.840
 2702SOL    HW1 9005   1.504   1.466   3.933
 2702SOL    HW2 9006   1.533   1.427   3.777
 2703SOL     OW 9007   1.607   5.729   1.236
 2703SOL    HW1 9008   1.519   5.724   1.188
 2703SOL    HW2 9009   1.611   5.656   1.305
 2704SOL     OW 9010   6.918   5.651   2.664
 2704SOL    HW1 9011   6.939   5.748   2.649
 2704SOL    HW2 9012   6.942   5.598   2.583
 2705SOL     OW 9013   6.972   1.420   5.703
 2705SOL    HW1 9014   7.000   1.335   5.747
 2705SOL    HW2 9015   6.955   1.403   5.606
 2706SOL     OW 9016   5.775   4.416   4.380
 2706SOL    HW1 9017   5.869   4.386   4.397
 2706SOL    HW2 9018   5.712   4.352   4.423
 2707SOL     OW 9019   4.021   6.850   3.470
 2707SOL    HW1 9020   4.066   6.881   3.386
 2707SOL    HW2 9021   4.088   6.804   3.528
 2708SOL     OW 9022   6.133   3.051   0.060
 2708SOL    HW1 9023   6.118   2.985   7.016
 2708SOL    HW2 9024   6.200   3.014   0.125
 2709SOL     OW 9025   5.037   6.920   6.268
 2709SOL    HW1 9026   5.113   6.858   6.251
 2709SOL    HW2 9027   4.958   6.891   6.215
 2710SOL     OW 9028   1.785   2.714   3.905
 2710SOL    HW1 9029   1.746   2.626   3.877
 2710SOL    HW2 9030   1.827   2.759   3.827
 2711SOL     OW 9031   3.325   2.029   3.670
 2711SOL    HW1 9032   3.348   1.931   3.678
 2711SOL    HW2 9033   3.233   2.038   3.633
 2712SOL     OW 9034   3.416   5.551   2.139
 2712SOL    HW1 9035   3.418   5.506   2.049
 2712SOL    HW2 9036   3.331   5.526   2.186
 2713SOL     OW 9037   4.546   4.564   6.494
 2713SOL    HW1 9038   4.616   4.615   6.543
 2713SOL    HW2 9039   4.586   4.479   6.458
 2714SOL     OW 9040   3.797   3.790   6.614
 2714SOL    HW1 9041   3.751   3.718   6.666
 2714SOL    HW2 9042   3.753   3.801   6.526
 2715SOL     OW 9043   5.447   1.914   0.833
 2715SOL    HW1 9044   5.506   1.848   0.787
 2715SOL    HW2 9045   5.437   1.996   0.776
 2716SOL     OW 9046   4.516   2.520   2.650
 2716SOL    HW1 9047   4.439   2.457   2.643
 2716SOL    HW2 9048   4.543   2.551   2.559
 2717SOL     OW 9049   0.294   0.383   1.915
 2717SOL    HW1 9050   0.201   0.410   1.889
 2717SOL    HW2 9051   0.305   0.392   2.014
 2718SOL     OW 9052   0.287   1.384   5.224
 2718SOL    HW1 9053   0.249   1.330   5.149
 2718SOL    HW2 9054   0.349   1.453   5.186
 2719SOL     OW 9055   1.700   4.165   2.713
 2719SOL    HW1 9056   1.616   4.165   2.768
 2719SOL    HW2 9057   1.676   4.162   2.616
 2720SOL     OW 9058   0.789   6.764   5.014
 2720SOL    HW1 9059   0.875   6.813   5.000
 2720SOL    HW2 9060   0.764   6.717   4.930
 2721SOL     OW 9061   3.214   6.414   1.407
 2721SOL    HW1 9062   3.172   6.416   1.497
 2721SOL    HW2 9063   3.253   6.504   1.386
 2722SOL     OW 9064   4.784   5.990   6.411
 2722SOL    HW1 9065   4.880   5.970   6.390
 2722SOL    HW2 9066   4.770   6.089   6.408
 2723SOL     OW 9067   2.964   6.667   6.876
 2723SOL    HW1 9068   3.045   6.694   6.928
 2723SOL    HW2 9069   2.883   6.709   6.916
 2724SOL     OW 9070   1.273   5.858   6.242
 2724SOL    HW1 9071   1.288   5.761   6.221
 2724SOL    HW2 9072   1.196   5.867   6.304
 2725SOL     OW 9073   5.164   4.112   4.291
 2725SOL    HW1 9074   5.158   4.157   4.379
 2725SOL    HW2 9075   5.220   4.029   4.299
 2726SOL     OW 9076   0.756   2.066   1.219
 2726SOL    HW1 9077   0.791   1.982   1.263
 2726SOL    HW2 9078   0.673   2.044   1.167
 2727SOL     OW 9079   2.296   4.189   4.496
 2727SOL    HW1 9080   2.198   4.203   4.482
 2727SOL    HW2 9081   2.314   4.092   4.514
 2728SOL     OW 9082   5.401   5.863   6.600
 2728SOL    HW1 9083   5.496   5.870   6.630
 2728SOL    HW2 9084   5.348   5.817   6.671
 2729SOL     OW 9085   6.109   6.326   0.153
 2729SOL    HW1 9086   6.102   6.321   0.053
 2729SOL    HW2 9087   6.188   6.273   0.184
 2730SOL     OW 9088   0.706   5.790   1.741
 2730SOL    HW1 9089   0.703   5.755   1.647
 2730SOL    HW2 9090   0.688   5.715   1.805
 2731SOL     OW 9091   3.158   3.472   3.292
 2731SOL    HW1 9092   3.191   3.396   3.348
 2731SOL    HW2 9093   3.107   3.437   3.214
 2732SOL     OW 9094   5.086   1.704   1.397
 2732SOL    HW1 9095   5.070   1.658   1.484
 2732SOL    HW2 9096   5.183   1.696   1.373
 2733SOL     OW 9097   6.715   1.270   5.285
 2733SOL    HW1 9098   6.791   1.275   5.220
 2733SOL    HW2 9099   6.636   1.318   5.248
 2734SOL     OW 9100   3.862   6.230   1.761
 2734SOL    HW1 9101   3.931   6.283   1.713
 2734SOL    HW2 9102   3.776   6.231   1.710
 2735SOL     OW 9103   1.290   2.109   0.195
 2735SOL    HW1 9104   1.344   2.024   0.197
 2735SOL    HW2 9105   1.312   2.163   0.276
 2736SOL     OW 9106   5.614   6.026   4.384
 2736SOL    HW1 9107   5.620   5.995   4.478
 2736SOL    HW2 9108   5.705   6.036   4.345
 2737SOL     OW 9109   2.776   2.318   5.866
 2737SOL    HW1 9110   2.699   2.378   5.888
 2737SOL    HW2 9111   2.827   2.356   5.789
 2738SOL     OW 9112   6.101   0.170   1.914
 2738SOL    HW1 9113   6.003   0.183   1.905
 2738SOL    HW2 9114   6.119   0.088   1.969
 2739SOL     OW 9115   0.646   5.264   1.112
 2739SOL    HW1 9116   0.712   5.189   1.118
 2739SOL    HW2 9117   0.622   5.280   1.016
 2740SOL     OW 9118   0.558   5.394   2.580
 2740SOL    HW1 9119   0.523   5.485   2.601
 2740SOL    HW2 9120   0.612   5.361   2.657
 2741SOL     OW 9121   1.003   1.953   4.283
 2741SOL    HW1 9122   0.942   1.903   4.345
 2741SOL    HW2 9123   1.021   1.897   4.202
 2742SOL     OW 9124   3.214   4.845   2.133
 2742SOL    HW1 9125   3.263   4.863   2.219
 2742SOL    HW2 9126   3.259   4.770   2.084
 2743SOL     OW 9127   0.200   4.774   2.329
 2743SOL    HW1 9128   0.207   4.757   2.231
 2743SOL    HW2 9129   0.130   4.844   2.346
 2744SOL     OW 9130   3.545   3.573   2.261
 2744SOL    HW1 9131   3.586   3.484   2.281
 2744SOL    HW2 9132   3.558   3.634   2.339
 2745SOL     OW 9133   6.341   1.566   5.878
 2745SOL    HW1 9134   6.435   1.600   5.870
 2745SOL    HW2 9135   6.290   1.623   5.943
 2746SOL     OW 9136   0.974   1.202   4.298
 2746SOL    HW1 9137   1.040   1.269   4.332
 2746SOL    HW2 9138   0.997   1.180   4.203
 2747SOL     OW 9139   4.332   5.790   6.570
 2747SOL    HW1 9140   4.398   5.832   6.508
 2747SOL    HW2 9141   4.260   5.745   6.517
 2748SOL     OW 9142   4.530   0.660   1.360
 2748SOL    HW1 9143   4.567   0.748   1.390
 2748SOL    HW2 9144   4.602   0.605   1.319
 2749SOL     OW 9145   1.347   3.804   0.291
 2749SOL    HW1 9146   1.445   3.820   0.283
 2749SOL    HW2 9147   1.305   3.804   0.200
 2750SOL     OW 9148   2.521   4.876   1.665
 2750SOL    HW1 9149   2.609   4.837   1.640
 2750SOL    HW2 9150   2.481   4.822   1.740
 2751SOL     OW 9151   1.879   1.511   1.590
 2751SOL    HW1 9152   1.794   1.563   1.586
 2751SOL    HW2 9153   1.957   1.573   1.585
 2752SOL     OW 9154   4.608   4.324   6.178
 2752SOL    HW1 9155   4.586   4.316   6.275
 2752SOL    HW2 9156   4.678   4.394   6.165
 2753SOL     OW 9157   6.017   6.250   4.941
 2753SOL    HW1 9158   6.026   6.340   4.983
 2753SOL    HW2 9159   5.931   6.208   4.969
 2754SOL     OW 9160   0.953   6.758   6.760
 2754SOL    HW1 9161   0.953   6.706   6.845
 2754SOL    HW2 9162   0.878   6.725   6.701
 2755SOL     OW 9163   2.885   6.923   2.967
 2755SOL    HW1 9164   2.984   6.916   2.953
 2755SOL    HW2 9165   2.838   6.892   2.884
 2756SOL     OW 9166   4.262   6.235   0.613
 2756SOL    HW1 9167   4.231   6.153   0.662
 2756SOL    HW2 9168   4.203   6.312   0.637
 2757SOL     OW 9169   1.766   5.665   0.458
 2757SOL    HW1 9170   1.745   5.593   0.524
 2757SOL    HW2 9171   1.801   5.625   0.374
 2758SOL     OW 9172   4.842   0.331   5.077
 2758SOL    HW1 9173   4.916   0.298   5.018
 2758SOL    HW2 9174   4.861   0.425   5.104
 2759SOL     OW 9175   5.249   6.104   4.033
 2759SOL    HW1 9176   5.321   6.066   4.093
 2759SOL    HW2 9177   5.282   6.188   3.990
 2760SOL     OW 9178   1.442   5.722   2.196
 2760SOL    HW1 9179   1.438   5.820   2.176
 2760SOL    HW2 9180   1.439   5.671   2.110
 2761SOL     OW 9181   1.830   4.590   4.080
 2761SOL    HW1 9182   1.815   4.688   4.069
 2761SOL    HW2 9183   1.760   4.539   4.030
 2762SOL     OW 9184   1.063   1.016   5.245
 2762SOL    HW1 9185   1.099   0.935   5.197
 2762SOL    HW2 9186   0.966   1.027   5.224
 2763SOL     OW 9187   5.646   2.147   3.820
 2763SOL    HW1 9188   5.643   2.071   3.755
 2763SOL    HW2 9189   5.560   2.198   3.816
 2764SOL     OW 9190   5.874   0.076   1.056
 2764SOL    HW1 9191   5.795   0.124   1.017
 2764SOL    HW2 9192   5.843   7.027   1.109
 2765SOL     OW 9193   5.307   0.447   1.124
 2765SOL    HW1 9194   5.259   0.500   1.054
 2765SOL    HW2 9195   5.251   0.440   1.206
 2766SOL     OW 9196   5.787   1.474   0.517
 2766SOL    HW1 9197   5.766   1.566   0.484
 2766SOL    HW2 9198   5.879   1.449   0.488
 2767SOL     OW 9199   0.096   5.199   6.825
 2767SOL    HW1 9200   0.105   5.255   6.907
 2767SOL    HW2 9201   0.180   5.206   6.771
 2768SOL     OW 9202   5.502   1.554   0.395
 2768SOL    HW1 9203   5.580   1.551   0.457
 2768SOL    HW2 9204   5.534   1.549   0.300
 2769SOL     OW 9205   6.514   4.617   4.425
 2769SOL    HW1 9206   6.507   4.530   4.378
 2769SOL    HW2 9207   6.430   4.633   4.478
 2770SOL     OW 9208   1.824   5.882   6.453
 2770SOL    HW1 9209   1.901   5.916   6.398
 2770SOL    HW2 9210   1.786   5.801   6.410
 2771SOL     OW 9211   5.332   1.179   1.366
 2771SOL    HW1 9212   5.300   1.262   1.413
 2771SOL    HW2 9213   5.429   1.164   1.387
 2772SOL     OW 9214   4.600   2.226   0.566
 2772SOL    HW1 9215   4.694   2.252   0.546
 2772SOL    HW2 9216   4.569   2.157   0.500
 2773SOL     OW 9217   4.527   3.077   6.062
 2773SOL    HW1 9218   4.525   3.177   6.058
 2773SOL    HW2 9219   4.485   3.039   5.979
 2774SOL     OW 9220   6.316   3.019   3.137
 2774SOL    HW1 9221   6.225   3.017   3.180
 2774SOL    HW2 9222   6.305   3.015   3.038
 2775SOL     OW 9223   0.007   5.604   0.429
 2775SOL    HW1 9224   0.081   5.644   0.483
 2775SOL    HW2 9225   6.952   5.605   0.482
 2776SOL     OW 9226   4.051   5.828   5.638
 2776SOL    HW1 9227   4.128   5.861   5.694
 2776SOL    HW2 9228   4.053   5.872   5.549
 2777SOL     OW 9229   3.139   1.241   2.003
 2777SOL    HW1 9230   3.203   1.166   2.021
 2777SOL    HW2 9231   3.048   1.204   1.987
 2778SOL     OW 9232   1.816   1.219   5.150
 2778SOL    HW1 9233   1.889   1.153   5.166
 2778SOL    HW2 9234   1.849   1.291   5.089
 2779SOL     OW 9235   4.541   0.346   0.439
 2779SOL    HW1 9236   4.555   0.309   0.531
 2779SOL    HW2 9237   4.571   0.442   0.437
 2780SOL     OW 9238   6.193   5.927   5.812
 2780SOL    HW1 9239   6.290   5.911   5.833
 2780SOL    HW2 9240   6.183   6.015   5.767
 2781SOL     OW 9241   6.143   5.488   2.023
 2781SOL    HW1 9242   6.044   5.476   2.021
 2781SOL    HW2 9243   6.165   5.585   2.008
 2782SOL     OW 9244   3.212   2.821   6.330
 2782SOL    HW1 9245   3.184   2.886   6.259
 2782SOL    HW2 9246   3.133   2.800   6.388
 2783SOL     OW 9247   5.881   3.504   5.123
 2783SOL    HW1 9248   5.812   3.435   5.102
 2783SOL    HW2 9249   5.947   3.508   5.049
 2784SOL     OW 9250   2.435   1.816   1.511
 2784SOL    HW1 9251   2.370   1.842   1.440
 2784SOL    HW2 9252   2.404   1.852   1.600
 2785SOL     OW 9253   6.295   1.251   0.226
 2785SOL    HW1 9254   6.334   1.193   0.298
 2785SOL    HW2 9255   6.195   1.241   0.227
 2786SOL     OW 9256   3.717   0.139   1.423
 2786SOL    HW1 9257   3.661   0.208   1.377
 2786SOL    HW2 9258   3.787   0.185   1.479
 2787SOL     OW 9259   2.523   2.963   6.542
 2787SOL    HW1 9260   2.447   2.939   6.602
 2787SOL    HW2 9261   2.539   3.062   6.545
 2788SOL     OW 9262   2.119   4.011   0.295
 2788SOL    HW1 9263   2.025   4.045   0.299
 2788SOL    HW2 9264   2.180   4.074   0.344
 2789SOL     OW 9265   1.524   1.954   3.722
 2789SOL    HW1 9266   1.430   1.966   3.689
 2789SOL    HW2 9267   1.557   1.864   3.695
 2790SOL     OW 9268   3.475   5.417   2.739
 2790SOL    HW1 9269   3.403   5.439   2.804
 2790SOL    HW2 9270   3.455   5.330   2.695
 2791SOL     OW 9271   1.775   4.303   4.774
 2791SOL    HW1 9272   1.834   4.319   4.853
 2791SOL    HW2 9273   1.815   4.346   4.693
 2792SOL     OW 9274   1.167   0.066   4.858
 2792SOL    HW1 9275   1.228   0.094   4.784
 2792SOL    HW2 9276   1.111   0.144   4.886
 2793SOL     OW 9277   4.696   2.206   2.437
 2793SOL    HW1 9278   4.615   2.200   2.496
 2793SOL    HW2 9279   4.694   2.293   2.387
 2794SOL     OW 9280   6.791   3.032   0.551
 2794SOL    HW1 9281   6.709   3.034   0.493
 2794SOL    HW2 9282   6.793   2.947   0.603
 2795SOL     OW 9283   3.012   3.783   1.540
 2795SOL    HW1 9284   2.933   3.824   1.585
 2795SOL    HW2 9285   3.082   3.853   1.525
 2796SOL     OW 9286   6.652   4.304   2.639
 2796SOL    HW1 9287   6.725   4.253   2.685
 2796SOL    HW2 9288   6.638   4.266   2.548
 2797SOL     OW 9289   5.201   5.548   4.941
 2797SOL    HW1 9290   5.164   5.612   4.873
 2797SOL    HW2 9291   5.136   5.540   5.017
 2798SOL     OW 9292   1.245   4.113   2.448
 2798SOL    HW1 9293   1.324   4.090   2.391
 2798SOL    HW2 9294   1.179   4.038   2.446
 2799SOL     OW 9295   0.008   5.939   0.155
 2799SOL    HW1 9296   6.938   5.940   0.154
 2799SOL    HW2 9297   0.042   5.866   0.096
 2800SOL     OW 9298   4.708   4.313   6.785
 2800SOL    HW1 9299   4.615   4.338   6.757
 2800SOL    HW2 9300   4.705   4.229   6.839
 2801SOL     OW 9301   4.430   5.802   4.005
 2801SOL    HW1 9302   4.420   5.852   4.091
 2801SOL    HW2 9303   4.416   5.865   3.928
 2802SOL     OW 9304   4.454   3.317   6.505
 2802SOL    HW1 9305   4.516   3.334   6.582
 2802SOL    HW2 9306   4.466   3.224   6.472
 2803SOL     OW 9307   2.403   6.105   6.167
 2803SOL    HW1 9308   2.389   6.128   6.070
 2803SOL    HW2 9309   2.473   6.034   6.174
 2804SOL     OW 9310   6.869   4.412   3.630
 2804SOL    HW1 9311   6.935   4.340   3.655
 2804SOL    HW2 9312   6.816   4.438   3.711
 2805SOL     OW 9313   4.417   3.501   1.385
 2805SOL    HW1 9314   4.419   3.599   1.404
 2805SOL    HW2 9315   4.494   3.477   1.325
 2806SOL     OW 9316   5.866   5.322   3.509
 2806SOL    HW1 9317   5.951   5.360   3.547
 2806SOL    HW2 9318   5.827   5.257   3.575
 2807SOL     OW 9319   5.442   4.990   3.791
 2807SOL    HW1 9320   5.457   5.084   3.761
 2807SOL    HW2 9321   5.366   4.987   3.856
 2808SOL     OW 9322   4.061   1.634   3.098
 2808SOL    HW1 9323   4.066   1.701   3.172
 2808SOL    HW2 9324   4.005   1.556   3.128
 2809SOL     OW 9325   6.661   3.067   1.432
 2809SOL    HW1 9326   6.611   2.980   1.438
 2809SOL    HW2 9327   6.683   3.085   1.336
 2810SOL     OW 9328   3.638   6.773   4.724
 2810SOL    HW1 9329   3.548   6.788   4.684
 2810SOL    HW2 9330   3.694   6.718   4.661
 2811SOL     OW 9331   0.718   0.681   3.599
 2811SOL    HW1 9332   0.672   0.731   3.526
 2811SOL    HW2 9333   0.662   0.604   3.627
 2812SOL     OW 9334   5.274   3.475   1.413
 2812SOL    HW1 9335   5.339   3.506   1.343
 2812SOL    HW2 9336   5.194   3.435   1.368
 2813SOL     OW 9337   6.287   6.667   5.562
 2813SOL    HW1 9338   6.325   6.757   5.583
 2813SOL    HW2 9339   6.260   6.664   5.465
 2814SOL     OW 9340   4.433   3.048   0.039
 2814SOL    HW1 9341   4.379   3.111   7.012
 2814SOL    HW2 9342   4.372   2.983   0.083
 2815SOL     OW 9343   0.051   1.474   4.839
 2815SOL    HW1 9344   7.003   1.526   4.875
 2815SOL    HW2 9345   0.066   1.393   4.895
 2816SOL     OW 9346   6.822   6.631   3.685
 2816SOL    HW1 9347   6.807   6.533   3.687
 2816SOL    HW2 9348   6.919   6.650   3.670
 2817SOL     OW 9349   1.524   0.144   1.221
 2817SOL    HW1 9350   1.592   0.166   1.290
 2817SOL    HW2 9351   1.487   0.228   1.181
 2818SOL     OW 9352   6.841   5.440   7.004
 2818SOL    HW1 9353   6.870   5.353   0.015
 2818SOL    HW2 9354   6.886   5.515   0.022
 2819SOL     OW 9355   0.248   2.318   0.810
 2819SOL    HW1 9356   0.305   2.239   0.832
 2819SOL    HW2 9357   0.209   2.307   0.718
 2820SOL     OW 9358   0.921   2.334   1.898
 2820SOL    HW1 9359   0.855   2.318   1.971
 2820SOL    HW2 9360   1.013   2.344   1.938
 2821SOL     OW 9361   3.561   3.665   6.749
 2821SOL    HW1 9362   3.504   3.730   6.699
 2821SOL    HW2 9363   3.503   3.610   6.809
 2822SOL     OW 9364   3.852   2.411   0.151
 2822SOL    HW1 9365   3.783   2.341   0.133
 2822SOL    HW2 9366   3.809   2.489   0.196
 2823SOL     OW 9367   2.248   6.443   1.477
 2823SOL    HW1 9368   2.174   6.416   1.416
 2823SOL    HW2 9369   2.312   6.367   1.488
 2824SOL     OW 9370   2.590   1.282   4.500
 2824SOL    HW1 9371   2.664   1.339   4.467
 2824SOL    HW2 9372   2.626   1.211   4.560
 2825SOL     OW 9373   6.400   6.645   0.352
 2825SOL    HW1 9374   6.464   6.676   0.423
 2825SOL    HW2 9375   6.452   6.609   0.274
 2826SOL     OW 9376   5.421   2.286   6.313
 2826SOL    HW1 9377   5.391   2.382   6.316
 2826SOL    HW2 9378   5.515   2.282   6.280
 2827SOL     OW 9379   6.592   1.065   5.425
 2827SOL    HW1 9380   6.662   1.047   5.494
 2827SOL    HW2 9381   6.625   1.134   5.361
 2828SOL     OW 9382   3.407   1.202   6.695
 2828SOL    HW1 9383   3.328   1.262   6.684
 2828SOL    HW2 9384   3.487   1.257   6.719
 2829SOL     OW 9385   4.111   4.250   6.399
 2829SOL    HW1 9386   4.111   4.156   6.431
 2829SOL    HW2 9387   4.043   4.261   6.327
 2830SOL     OW 9388   0.260   4.007   6.692
 2830SOL    HW1 9389   0.219   3.921   6.721
 2830SOL    HW2 9390   0.192   4.079   6.694
 2831SOL     OW 9391   6.831   6.139   3.766
 2831SOL    HW1 9392   6.811   6.162   3.671
 2831SOL    HW2 9393   6.880   6.052   3.769
 2832SOL     OW 9394   0.547   1.011   1.449
 2832SOL    HW1 9395   0.528   1.035   1.354
 2832SOL    HW2 9396   0.643   1.030   1.470
 2833SOL     OW 9397   5.224   2.026   1.974
 2833SOL    HW1 9398   5.262   2.004   1.885
 2833SOL    HW2 9399   5.126   2.007   1.976
 2834SOL     OW 9400   2.882   0.596   5.900
 2834SOL    HW1 9401   2.975   0.629   5.914
 2834SOL    HW2 9402   2.878   0.497   5.914
 2835SOL     OW 9403   0.279   0.270   1.343
 2835SOL    HW1 9404   0.230   0.184   1.358
 2835SOL    HW2 9405   0.269   0.328   1.424
 2836SOL     OW 9406   6.544   0.597   1.293
 2836SOL    HW1 9407   6.547   0.687   1.337
 2836SOL    HW2 9408   6.626   0.545   1.318
 2837SOL     OW 9409   5.766   3.028   3.116
 2837SOL    HW1 9410   5.782   3.073   3.203
 2837SOL    HW2 9411   5.829   2.952   3.106
 2838SOL     OW 9412   1.860   4.070   1.839
 2838SOL    HW1 9413   1.878   4.132   1.915
 2838SOL    HW2 9414   1.816   3.987   1.873
 2839SOL     OW 9415   6.063   1.419   1.901
 2839SOL    HW1 9416   6.014   1.476   1.967
 2839SOL    HW2 9417   6.138   1.471   1.860
 2840SOL     OW 9418   0.614   0.926   4.148
 2840SOL    HW1 9419   0.602   0.828   4.131
 2840SOL    HW2 9420   0.585   0.947   4.241
 2841SOL     OW 9421   0.141   0.913   5.898
 2841SOL    HW1 9422   0.077   0.842   5.868
 2841SOL    HW2 9423   0.124   0.937   5.993
 2842SOL     OW 9424   0.590   1.662   4.136
 2842SOL    HW1 9425   0.654   1.593   4.102
 2842SOL    HW2 9426   0.548   1.709   4.058
 2843SOL     OW 9427   3.449   1.771   3.867
 2843SOL    HW1 9428   3.409   1.741   3.781
 2843SOL    HW2 9429   3.548   1.779   3.858
 2844SOL     OW 9430   1.342   4.453   0.567
 2844SOL    HW1 9431   1.298   4.526   0.516
 2844SOL    HW2 9432   1.371   4.486   0.656
 2845SOL     OW 9433   1.301   3.220   0.379
 2845SOL    HW1 9434   1.331   3.296   0.436
 2845SOL    HW2 9435   1.218   3.246   0.330
 2846SOL     OW 9436   5.138   1.558   6.791
 2846SOL    HW1 9437   5.231   1.524   6.776
 2846SOL    HW2 9438   5.119   1.630   6.725
 2847SOL     OW 9439   5.423   3.730   3.532
 2847SOL    HW1 9440   5.413   3.657   3.600
 2847SOL    HW2 9441   5.389   3.815   3.571
 2848SOL     OW 9442   0.434   4.672   6.221
 2848SOL    HW1 9443   0.390   4.649   6.308
 2848SOL    HW2 9444   0.433   4.771   6.208
 2849SOL     OW 9445   3.552   0.341   1.738
 2849SOL    HW1 9446   3.592   0.411   1.797
 2849SOL    HW2 9447   3.452   0.350   1.738
 2850SOL     OW 9448   3.173   0.312   2.388
 2850SOL    HW1 9449   3.157   0.214   2.394
 2850SOL    HW2 9450   3.208   0.336   2.297
 2851SOL     OW 9451   0.676   3.954   5.373
 2851SOL    HW1 9452   0.582   3.925   5.352
 2851SOL    HW2 9453   0.675   4.013   5.454
 2852SOL     OW 9454   5.720   4.635   0.326
 2852SOL    HW1 9455   5.816   4.628   0.352
 2852SOL    HW2 9456   5.666   4.663   0.406
 2853SOL     OW 9457   2.496   1.942   6.889
 2853SOL    HW1 9458   2.536   1.947   6.980
 2853SOL    HW2 9459   2.420   1.878   6.889
 2854SOL     OW 9460   3.226   1.733   4.128
 2854SOL    HW1 9461   3.145   1.751   4.073
 2854SOL    HW2 9462   3.280   1.816   4.138
 2855SOL     OW 9463   1.952   0.955   5.950
 2855SOL    HW1 9464   1.932   0.941   5.853
 2855SOL    HW2 9465   1.872   0.931   6.005
 2856SOL     OW 9466   2.165   2.854   6.112
 2856SOL    HW1 9467   2.093   2.922   6.096
 2856SOL    HW2 9468   2.252   2.888   6.077
 2857SOL     OW 9469   3.135   1.962   1.691
 2857SOL    HW1 9470   3.123   1.919   1.780
 2857SOL    HW2 9471   3.220   2.015   1.692
 2858SOL     OW 9472   6.204   3.488   1.890
 2858SOL    HW1 9473   6.121   3.525   1.931
 2858SOL    HW2 9474   6.280   3.552   1.906
 2859SOL     OW 9475   5.438   2.201   0.744
 2859SOL    HW1 9476   5.398   2.251   0.667
 2859SOL    HW2 9477   5.370   2.194   0.817
 2860SOL     OW 9478   3.703   1.706   0.903
 2860SOL    HW1 9479   3.630   1.774   0.904
 2860SOL    HW2 9480   3.768   1.726   0.976
 2861SOL     OW 9481   4.902   5.244   5.781
 2861SOL    HW1 9482   4.848   5.231   5.865
 2861SOL    HW2 9483   4.870   5.325   5.733
 2862SOL     OW 9484   5.341   1.376   2.885
 2862SOL    HW1 9485   5.423   1.433   2.890
 2862SOL    HW2 9486   5.348   1.313   2.807
 2863SOL     OW 9487   6.002   1.257   6.899
 2863SOL    HW1 9488   5.923   1.308   6.863
 2863SOL    HW2 9489   6.008   1.271   6.998
 2864SOL     OW 9490   3.992   0.164   1.599
 2864SOL    HW1 9491   4.050   0.215   1.535
 2864SOL    HW2 9492   4.018   0.067   1.597
 2865SOL     OW 9493   5.078   4.406   5.498
 2865SOL    HW1 9494   4.987   4.375   5.470
 2865SOL    HW2 9495   5.129   4.437   5.418
 2866SOL     OW 9496   6.080   6.310   0.454
 2866SOL    HW1 9497   6.122   6.286   0.367
 2866SOL    HW2 9498   6.123   6.393   0.490
 2867SOL     OW 9499   5.710   3.943   2.192
 2867SOL    HW1 9500   5.736   3.965   2.098
 2867SOL    HW2 9501   5.714   4.026   2.248
 2868SOL     OW 9502   0.177   3.075   5.387
 2868SOL    HW1 9503   0.179   2.982   5.424
 2868SOL    HW2 9504   0.241   3.082   5.310
 2869SOL     OW 9505   5.739   1.340   3.474
 2869SOL    HW1 9506   5.724   1.256   3.423
 2869SOL    HW2 9507   5.816   1.329   3.536
 2870SOL     OW 9508   6.822   1.395   4.625
 2870SOL    HW1 9509   6.877   1.413   4.707
 2870SOL    HW2 9510   6.836   1.467   4.558
 2871SOL     OW 9511   1.931   1.477   6.897
 2871SOL    HW1 9512   1.908   1.574   6.893
 2871SOL    HW2 9513   1.973   1.456   6.985
 2872SOL     OW 9514   2.693   1.353   3.413
 2872SOL    HW1 9515   2.625   1.368   3.341
 2872SOL    HW2 9516   2.647   1.348   3.501
 2873SOL     OW 9517   1.599   5.032   3.531
 2873SOL    HW1 9518   1.528   5.092   3.570
 2873SOL    HW2 9519   1.565   4.991   3.447
 2874SOL     OW 9520   4.829   5.446   2.617
 2874SOL    HW1 9521   4.929   5.444   2.617
 2874SOL    HW2 9522   4.794   5.356   2.595
 2875SOL     OW 9523   4.519   6.299   6.691
 2875SOL    HW1 9524   4.593   6.238   6.662
 2875SOL    HW2 9525   4.437   6.280   6.637
 2876SOL     OW 9526   0.795   0.009   1.661
 2876SOL    HW1 9527   0.744   6.967   1.614
 2876SOL    HW2 9528   0.818   7.009   1.753
 2877SOL     OW 9529   3.548   2.879   4.983
 2877SOL    HW1 9530   3.497   2.793   4.990
 2877SOL    HW2 9531   3.557   2.919   5.074
 2878SOL     OW 9532   3.713   4.984   4.889
 2878SOL    HW1 9533   3.707   5.083   4.894
 2878SOL    HW2 9534   3.651   4.943   4.956
 2879SOL     OW 9535   4.631   5.308   0.204
 2879SOL    HW1 9536   4.685   5.331   0.286
 2879SOL    HW2 9537   4.602   5.212   0.211
 2880SOL     OW 9538   6.145   6.486   0.759
 2880SOL    HW1 9539   6.143   6.527   0.667
 2880SOL    HW2 9540   6.102   6.549   0.824
 2881SOL     OW 9541   5.536   6.260   1.177
 2881SOL    HW1 9542   5.605   6.322   1.216
 2881SOL    HW2 9543   5.530   6.275   1.078
 2882SOL     OW 9544   0.742   3.616   2.515
 2882SOL    HW1 9545   0.652   3.574   2.506
 2882SOL    HW2 9546   0.744   3.673   2.597
 2883SOL     OW 9547   5.078   6.482   3.899
 2883SOL    HW1 9548   5.019   6.512   3.973
 2883SOL    HW2 9549   5.098   6.385   3.909
 2884SOL     OW 9550   0.535   5.469   3.017
 2884SOL    HW1 9551   0.472   5.470   3.094
 2884SOL    HW2 9552   0.628   5.451   3.050
 2885SOL     OW 9553   7.015   2.768   2.633
 2885SOL    HW1 9554   0.068   2.808   2.673
 2885SOL    HW2 9555   7.002   2.676   2.669
 2886SOL     OW 9556   2.157   3.304   6.768
 2886SOL    HW1 9557   2.210   3.303   6.683
 2886SOL    HW2 9558   2.095   3.382   6.769
 2887SOL     OW 9559   1.920   0.072   5.050
 2887SOL    HW1 9560   1.824   0.072   5.078
 2887SOL    HW2 9561   1.949   7.008   5.029
 2888SOL     OW 9562   0.089   4.765   6.897
 2888SOL    HW1 9563   0.158   4.695   6.876
 2888SOL    HW2 9564   0.028   4.776   6.819
 2889SOL     OW 9565   1.640   0.977   2.527
 2889SOL    HW1 9566   1.581   1.056   2.509
 2889SOL    HW2 9567   1.593   0.894   2.498
 2890SOL     OW 9568   2.757   0.497   1.037
 2890SOL    HW1 9569   2.756   0.571   1.105
 2890SOL    HW2 9570   2.668   0.490   0.993
 2891SOL     OW 9571   2.486   4.516   3.185
 2891SOL    HW1 9572   2.455   4.598   3.233
 2891SOL    HW2 9573   2.500   4.537   3.088
 2892SOL     OW 9574   5.040   4.229   0.481
 2892SOL    HW1 9575   4.958   4.286   0.472
 2892SOL    HW2 9576   5.037   4.155   0.413
 2893SOL     OW 9577   1.029   6.923   5.021
 2893SOL    HW1 9578   1.068   6.987   4.954
 2893SOL    HW2 9579   1.098   6.900   5.089
 2894SOL     OW 9580   3.143   2.443   0.008
 2894SOL    HW1 9581   3.230   2.443   0.057
 2894SOL    HW2 9582   3.122   2.350   7.007
 2895SOL     OW 9583   4.282   3.057   6.238
 2895SOL    HW1 9584   4.333   2.986   6.286
 2895SOL    HW2 9585   4.333   3.085   6.156
 2896SOL     OW 9586   2.829   4.805   6.548
 2896SOL    HW1 9587   2.756   4.862   6.585
 2896SOL    HW2 9588   2.904   4.801   6.614
 2897SOL     OW 9589   2.606   6.399   3.795
 2897SOL    HW1 9590   2.512   6.369   3.781
 2897SOL    HW2 9591   2.668   6.337   3.748
 2898SOL     OW 9592   4.710   4.905   3.068
 2898SOL    HW1 9593   4.625   4.897   3.017
 2898SOL    HW2 9594   4.690   4.943   3.159
 2899SOL     OW 9595   0.076   1.593   6.673
 2899SOL    HW1 9596   7.009   1.584   6.699
 2899SOL    HW2 9597   0.134   1.547   6.740
 2900SOL     OW 9598   1.360   5.140   5.260
 2900SOL    HW1 9599   1.322   5.180   5.343
 2900SOL    HW2 9600   1.421   5.206   5.216
 2901SOL     OW 9601   1.424   6.978   2.964
 2901SOL    HW1 9602   1.510   6.942   2.927
 2901SOL    HW2 9603   1.378   6.906   3.017
 2902SOL     OW 9604   5.753   6.125   0.850
 2902SOL    HW1 9605   5.657   6.150   0.837
 2902SOL    HW2 9606   5.809   6.207   0.852
 2903SOL     OW 9607   3.152   0.041   1.944
 2903SOL    HW1 9608   3.151   0.017   2.041
 2903SOL    HW2 9609   3.062   0.024   1.905
 2904SOL     OW 9610   2.403   3.153   5.361
 2904SOL    HW1 9611   2.423   3.085   5.291
 2904SOL    HW2 9612   2.315   3.132   5.404
 2905SOL     OW 9613   1.028   2.117   2.654
 2905SOL    HW1 9614   0.963   2.066   2.710
 2905SOL    HW2 9615   1.113   2.131   2.706
 2906SOL     OW 9616   5.531   4.966   2.603
 2906SOL    HW1 9617   5.549   4.953   2.506
 2906SOL    HW2 9618   5.601   4.919   2.657
 2907SOL     OW 9619   6.319   0.668   4.671
 2907SOL    HW1 9620   6.253   0.733   4.636
 2907SOL    HW2 9621   6.272   0.590   4.713
 2908SOL     OW 9622   4.093   6.631   4.216
 2908SOL    HW1 9623   4.159   6.641   4.141
 2908SOL    HW2 9624   4.127   6.679   4.297
 2909SOL     OW 9625   0.342   5.637   4.226
 2909SOL    HW1 9626   0.362   5.545   4.259
 2909SOL    HW2 9627   0.366   5.644   4.129
 2910SOL     OW 9628   4.179   6.769   4.435
 2910SOL    HW1 9629   4.258   6.823   4.408
 2910SOL    HW2 9630   4.107   6.830   4.468
 2911SOL     OW 9631   2.543   5.250   3.807
 2911SOL    HW1 9632   2.460   5.195   3.793
 2911SOL    HW2 9633   2.619   5.191   3.833
 2912SOL     OW 9634   3.428   6.002   0.070
 2912SOL    HW1 9635   3.407   6.067   0.143
 2912SOL    HW2 9636   3.488   5.931   0.106
 2913SOL     OW 9637   2.173   4.945   2.512
 2913SOL    HW1 9638   2.089   4.996   2.496
 2913SOL    HW2 9639   2.173   4.907   2.605
 2914SOL     OW 9640   5.864   5.344   6.747
 2914SOL    HW1 9641   5.799   5.323   6.820
 2914SOL    HW2 9642   5.837   5.429   6.701
 2915SOL     OW 9643   4.636   1.845   4.256
 2915SOL    HW1 9644   4.557   1.878   4.204
 2915SOL    HW2 9645   4.608   1.772   4.318
 2916SOL     OW 9646   6.216   5.167   5.863
 2916SOL    HW1 9647   6.142   5.131   5.805
 2916SOL    HW2 9648   6.180   5.239   5.922
 2917SOL     OW 9649   4.285   0.564   2.068
 2917SOL    HW1 9650   4.260   0.641   2.126
 2917SOL    HW2 9651   4.261   0.586   1.973
 2918SOL     OW 9652   0.351   3.065   3.244
 2918SOL    HW1 9653   0.380   3.115   3.325
 2918SOL    HW2 9654   0.294   2.988   3.271
 2919SOL     OW 9655   6.511   0.619   0.422
 2919SOL    HW1 9656   6.574   0.637   0.346
 2919SOL    HW2 9657   6.417   0.625   0.389
 2920SOL     OW 9658   3.761   2.061   2.364
 2920SOL    HW1 9659   3.739   2.134   2.429
 2920SOL    HW2 9660   3.833   2.003   2.402
 2921SOL     OW 9661   0.014   0.461   2.614
 2921SOL    HW1 9662   6.958   0.506   2.641
 2921SOL    HW2 9663   7.023   0.385   2.552
 2922SOL     OW 9664   5.603   6.530   6.965
 2922SOL    HW1 9665   5.672   6.594   6.930
 2922SOL    HW2 9666   5.617   6.517   0.034
 2923SOL     OW 9667   6.928   5.464   1.761
 2923SOL    HW1 9668   6.850   5.445   1.820
 2923SOL    HW2 9669   6.942   5.563   1.755
 2924SOL     OW 9670   7.004   1.811   6.326
 2924SOL    HW1 9671   6.992   1.910   6.316
 2924SOL    HW2 9672   0.012   1.773   6.242
 2925SOL     OW 9673   5.457   0.573   3.095
 2925SOL    HW1 9674   5.440   0.531   3.006
 2925SOL    HW2 9675   5.429   0.669   3.093
 2926SOL     OW 9676   6.962   1.525   5.324
 2926SOL    HW1 9677   6.874   1.573   5.325
 2926SOL    HW2 9678   0.007   1.591   5.318
 2927SOL     OW 9679   1.877   1.894   2.259
 2927SOL    HW1 9680   1.972   1.917   2.280
 2927SOL    HW2 9681   1.822   1.977   2.258
 2928SOL     OW 9682   6.394   2.281   6.257
 2928SOL    HW1 9683   6.329   2.286   6.181
 2928SOL    HW2 9684   6.388   2.364   6.312
 2929SOL     OW 9685   0.854   1.218   5.554
 2929SOL    HW1 9686   0.881   1.194   5.461
 2929SOL    HW2 9687   0.900   1.156   5.619
 2930SOL     OW 9688   4.875   6.227   4.922
 2930SOL    HW1 9689   4.888   6.301   4.987
 2930SOL    HW2 9690   4.777   6.211   4.908
 2931SOL     OW 9691   5.113   6.154   6.508
 2931SOL    HW1 9692   5.064   6.130   6.591
 2931SOL    HW2 9693   5.086   6.246   6.480
 2932SOL     OW 9694   1.622   5.000   1.862
 2932SOL    HW1 9695   1.586   4.990   1.955
 2932SOL    HW2 9696   1.583   4.928   1.804
 2933SOL     OW 9697   5.402   2.609   3.839
 2933SOL    HW1 9698   5.458   2.646   3.765
 2933SOL    HW2 9699   5.306   2.627   3.821
 2934SOL     OW 9700   3.737   1.229   0.477
 2934SOL    HW1 9701   3.790   1.241   0.561
 2934SOL    HW2 9702   3.734   1.132   0.452
 2935SOL     OW 9703   6.294   3.094   1.757
 2935SOL    HW1 9704   6.265   3.185   1.724
 2935SOL    HW2 9705   6.299   3.032   1.679
 2936SOL     OW 9706   5.074   5.637   1.597
 2936SOL    HW1 9707   5.037   5.661   1.508
 2936SOL    HW2 9708   5.148   5.571   1.586
 2937SOL     OW 9709   3.445   4.872   0.779
 2937SOL    HW1 9710   3.403   4.957   0.813
 2937SOL    HW2 9711   3.391   4.838   0.701
 2938SOL     OW 9712   4.604   4.843   5.541
 2938SOL    HW1 9713   4.512   4.814   5.565
 2938SOL    HW2 9714   4.652   4.768   5.496
 2939SOL     OW 9715   0.682   6.559   4.110
 2939SOL    HW1 9716   0.697   6.461   4.123
 2939SOL    HW2 9717   0.706   6.583   4.016
 2940SOL     OW 9718   6.014   0.052   5.300
 2940SOL    HW1 9719   6.082   0.073   5.370
 2940SOL    HW2 9720   6.058   0.052   5.210
 2941SOL     OW 9721   1.993   2.486   5.345
 2941SOL    HW1 9722   2.080   2.535   5.342
 2941SOL    HW2 9723   2.004   2.396   5.302
 2942SOL     OW 9724   2.413   0.737   2.105
 2942SOL    HW1 9725   2.411   0.639   2.086
 2942SOL    HW2 9726   2.322   0.767   2.137
 2943SOL     OW 9727   5.354   3.094   3.261
 2943SOL    HW1 9728   5.359   3.191   3.283
 2943SOL    HW2 9729   5.321   3.082   3.167
 2944SOL     OW 9730   3.056   5.384   5.735
 2944SOL    HW1 9731   3.069   5.350   5.642
 2944SOL    HW2 9732   3.133   5.442   5.761
 2945SOL     OW 9733   3.967   3.563   3.478
 2945SOL    HW1 9734   3.908   3.641   3.461
 2945SOL    HW2 9735   4.021   3.579   3.561
 2946SOL     OW 9736   6.831   5.347   5.669
 2946SOL    HW1 9737   6.833   5.415   5.742
 2946SOL    HW2 9738   6.882   5.266   5.697
 2947SOL     OW 9739   0.901   4.268   0.476
 2947SOL    HW1 9740   0.865   4.180   0.507
 2947SOL    HW2 9741   0.999   4.259   0.456
 2948SOL     OW 9742   6.513   3.876   5.412
 2948SOL    HW1 9743   6.481   3.935   5.486
 2948SOL    HW2 9744   6.611   3.860   5.423
 2949SOL     OW 9745   1.943   6.136   0.962
 2949SOL    HW1 9746   1.969   6.045   0.993
 2949SOL    HW2 9747   1.919   6.133   0.865
 2950SOL     OW 9748   5.591   3.238   4.621
 2950SOL    HW1 9749   5.637   3.162   4.575
 2950SOL    HW2 9750   5.494   3.218   4.628
 2951SOL     OW 9751   6.838   2.754   6.827
 2951SOL    HW1 9752   6.806   2.740   6.733
 2951SOL    HW2 9753   6.835   2.667   6.876
 2952SOL     OW 9754   1.794   5.097   4.632
 2952SOL    HW1 9755   1.744   5.064   4.712
 2952SOL    HW2 9756   1.740   5.168   4.587
 2953SOL     OW 9757   4.978   2.655   2.243
 2953SOL    HW1 9758   4.884   2.680   2.265
 2953SOL    HW2 9759   4.979   2.566   2.198
 2954SOL     OW 9760   1.191   5.525   1.501
 2954SOL    HW1 9761   1.172   5.483   1.412
 2954SOL    HW2 9762   1.260   5.596   1.490
 2955SOL     OW 9763   0.870   3.280   0.485
 2955SOL    HW1 9764   0.932   3.261   0.408
 2955SOL    HW2 9765   0.880   3.376   0.512
 2956SOL     OW 9766   6.689   5.926   2.715
 2956SOL    HW1 9767   6.681   5.890   2.808
 2956SOL    HW2 9768   6.777   5.899   2.676
 2957SOL     OW 9769   6.328   3.269   0.960
 2957SOL    HW1 9770   6.365   3.232   0.875
 2957SOL    HW2 9771   6.341   3.202   1.033
 2958SOL     OW 9772   2.601   4.633   4.899
 2958SOL    HW1 9773   2.623   4.707   4.835
 2958SOL    HW2 9774   2.684   4.607   4.948
 2959SOL     OW 9775   5.006   4.559   0.364
 2959SOL    HW1 9776   4.961   4.481   0.408
 2959SOL    HW2 9777   5.065   4.604   0.431
 2960SOL     OW 9778   2.765   0.930   6.574
 2960SOL    HW1 9779   2.754   0.869   6.652
 2960SOL    HW2 9780   2.717   1.016   6.591
 2961SOL     OW 9781   5.268   2.688   4.501
 2961SOL    HW1 9782   5.268   2.589   4.513
 2961SOL    HW2 9783   5.193   2.728   4.555
 2962SOL     OW 9784   4.502   0.797   4.017
 2962SOL    HW1 9785   4.586   0.743   4.029
 2962SOL    HW2 9786   4.462   0.816   4.107
 2963SOL     OW 9787   1.644   1.899   5.436
 2963SOL    HW1 9788   1.634   1.805   5.469
 2963SOL    HW2 9789   1.714   1.902   5.365
 2964SOL     OW 9790   1.360   0.148   1.723
 2964SOL    HW1 9791   1.454   0.137   1.756
 2964SOL    HW2 9792   1.340   0.078   1.655
 2965SOL     OW 9793   0.091   1.240   5.072
 2965SOL    HW1 9794   0.006   1.291   5.081
 2965SOL    HW2 9795   0.086   1.156   5.125
 2966SOL     OW 9796   5.931   4.645   4.025
 2966SOL    HW1 9797   5.914   4.574   3.957
 2966SOL    HW2 9798   6.019   4.687   4.008
 2967SOL     OW 9799   6.256   2.543   3.886
 2967SOL    HW1 9800   6.219   2.527   3.794
 2967SOL    HW2 9801   6.187   2.587   3.943
 2968SOL     OW 9802   0.753   4.206   5.708
 2968SOL    HW1 9803   0.711   4.213   5.618
 2968SOL    HW2 9804   0.691   4.158   5.770
 2969SOL     OW 9805   5.557   1.149   5.037
 2969SOL    HW1 9806   5.651   1.169   5.065
 2969SOL    HW2 9807   5.552   1.144   4.937
 2970SOL     OW 9808   1.415   4.185   0.104
 2970SOL    HW1 9809   1.440   4.272   0.148
 2970SOL    HW2 9810   1.336   4.146   0.150
 2971SOL     OW 9811   5.225   2.683   5.016
 2971SOL    HW1 9812   5.242   2.586   5.032
 2971SOL    HW2 9813   5.144   2.712   5.067
 2972SOL     OW 9814   6.482   4.919   6.197
 2972SOL    HW1 9815   6.397   4.917   6.249
 2972SOL    HW2 9816   6.464   4.951   6.104
 2973SOL     OW 9817   5.518   1.018   4.464
 2973SOL    HW1 9818   5.608   0.984   4.488
 2973SOL    HW2 9819   5.449   0.948   4.484
 2974SOL     OW 9820   0.016   3.750   3.369
 2974SOL    HW1 9821   0.064   3.696   3.438
 2974SOL    HW2 9822   0.062   3.839   3.359
 2975SOL     OW 9823   0.556   2.211   5.129
 2975SOL    HW1 9824   0.528   2.192   5.035
 2975SOL    HW2 9825   0.578   2.309   5.138
 2976SOL     OW 9826   3.958   1.496   2.686
 2976SOL    HW1 9827   3.868   1.538   2.676
 2976SOL    HW2 9828   3.955   1.402   2.651
 2977SOL     OW 9829   1.909   0.433   4.604
 2977SOL    HW1 9830   1.940   0.403   4.514
 2977SOL    HW2 9831   1.957   0.382   4.675
 2978SOL     OW 9832   4.394   4.813   6.816
 2978SOL    HW1 9833   4.490   4.801   6.791
 2978SOL    HW2 9834   4.374   4.910   6.827
 2979SOL     OW 9835   4.346   6.652   4.101
 2979SOL    HW1 9836   4.364   6.558   4.071
 2979SOL    HW2 9837   4.414   6.679   4.169
 2980SOL     OW 9838   1.712   5.994   3.943
 2980SOL    HW1 9839   1.785   5.940   3.986
 2980SOL    HW2 9840   1.669   5.939   3.871
 2981SOL     OW 9841   0.905   7.021   6.246
 2981SOL    HW1 9842   0.956   0.056   6.303
 2981SOL    HW2 9843   0.808   7.026   6.269
 2982SOL     OW 9844   4.833   6.312   3.101
 2982SOL    HW1 9845   4.781   6.228   3.088
 2982SOL    HW2 9846   4.930   6.291   3.108
 2983SOL     OW 9847   1.111   0.879   4.197
 2983SOL    HW1 9848   1.147   0.804   4.142
 2983SOL    HW2 9849   1.043   0.929   4.144
 2984SOL     OW 9850   4.802   5.887   1.449
 2984SOL    HW1 9851   4.711   5.928   1.447
 2984SOL    HW2 9852   4.863   5.944   1.504
 2985SOL     OW 9853   0.744   2.337   4.394
 2985SOL    HW1 9854   0.811   2.275   4.434
 2985SOL    HW2 9855   0.792   2.413   4.350
 2986SOL     OW 9856   2.051   4.191   6.281
 2986SOL    HW1 9857   2.121   4.176   6.351
 2986SOL    HW2 9858   2.067   4.280   6.238
 2987SOL     OW 9859   5.017   0.814   3.684
 2987SOL    HW1 9860   5.026   0.838   3.587
 2987SOL    HW2 9861   5.107   0.792   3.721
 2988SOL     OW 9862   0.325   6.905   2.617
 2988SOL    HW1 9863   0.380   6.974   2.664
 2988SOL    HW2 9864   0.234   6.902   2.658
 2989SOL     OW 9865   6.356   5.957   0.980
 2989SOL    HW1 9866   6.270   5.912   1.003
 2989SOL    HW2 9867   6.429   5.890   0.975
 2990SOL     OW 9868   4.396   1.177   3.678
 2990SOL    HW1 9869   4.359   1.096   3.724
 2990SOL    HW2 9870   4.427   1.151   3.586
 2991SOL     OW 9871   6.731   3.664   0.489
 2991SOL    HW1 9872   6.777   3.732   0.432
 2991SOL    HW2 9873   6.762   3.572   0.464
 2992SOL     OW 9874   2.151   5.380   5.852
 2992SOL    HW1 9875   2.155   5.289   5.810
 2992SOL    HW2 9876   2.209   5.443   5.800
 2993SOL     OW 9877   1.243   4.698   2.002
 2993SOL    HW1 9878   1.265   4.687   1.905
 2993SOL    HW2 9879   1.180   4.775   2.013
 2994SOL     OW 9880   4.079   1.214   0.555
 2994SOL    HW1 9881   4.058   1.233   0.459
 2994SOL    HW2 9882   3.997   1.231   0.611
 2995SOL     OW 9883   1.082   2.985   6.822
 2995SOL    HW1 9884   1.113   2.905   6.873
 2995SOL    HW2 9885   1.008   2.958   6.759
 2996SOL     OW 9886   3.314   6.242   4.460
 2996SOL    HW1 9887   3.294   6.153   4.499
 2996SOL    HW2 9888   3.293   6.313   4.527
 2997SOL     OW 9889   4.865   6.498   1.943
 2997SOL    HW1 9890   4.876   6.470   2.039
 2997SOL    HW2 9891   4.909   6.587   1.929
 2998SOL     OW 9892   5.078   6.145   5.175
 2998SOL    HW1 9893   4.993   6.130   5.226
 2998SOL    HW2 9894   5.068   6.225   5.117
 2999SOL     OW 9895   3.760   5.986   4.011
 2999SOL    HW1 9896   3.710   5.899   4.008
 2999SOL    HW2 9897   3.785   6.007   4.105
 3000SOL     OW 9898   1.539   3.971   6.239
 3000SOL    HW1 9899   1.574   4.045   6.181
 3000SOL    HW2 9900   1.535   4.001   6.334
 3001SOL     OW 9901   5.726   0.363   6.908
 3001SOL    HW1 9902   5.636   0.397   6.882
 3001SOL    HW2 9903   5.748   0.282   6.854
 3002SOL     OW 9904   4.182   0.577   5.370
 3002SOL    HW1 9905   4.154   0.668   5.401
 3002SOL    HW2 9906   4.236   0.533   5.441
 3003SOL     OW 9907   2.586   6.230   6.930
 3003SOL    HW1 9908   2.489   6.243   6.951
 3003SOL    HW2 9909   2.620   6.307   6.876
 3004SOL     OW 9910   6.670   4.832   3.958
 3004SOL    HW1 9911   6.638   4.837   3.863
 3004SOL    HW2 9912   6.749   4.772   3.963
 3005SOL     OW 9913   3.563   2.954   1.137
 3005SOL    HW1 9914   3.566   2.983   1.233
 3005SOL    HW2 9915   3.475   2.911   1.119
 3006SOL     OW 9916   6.391   2.352   0.363
 3006SOL    HW1 9917   6.475   2.300   0.347
 3006SOL    HW2 9918   6.413   2.449   0.368
 3007SOL     OW 9919   6.200   5.111   2.590
 3007SOL    HW1 9920   6.151   5.136   2.673
 3007SOL    HW2 9921   6.171   5.020   2.560
 3008SOL     OW 9922   3.865   0.398   6.571
 3008SOL    HW1 9923   3.790   0.419   6.507
 3008SOL    HW2 9924   3.901   0.307   6.552
 3009SOL     OW 9925   0.761   6.522   2.343
 3009SOL    HW1 9926   0.843   6.538   2.398
 3009SOL    HW2 9927   0.734   6.426   2.350
 3010SOL     OW 9928   3.894   5.713   3.389
 3010SOL    HW1 9929   3.865   5.795   3.437
 3010SOL    HW2 9930   3.815   5.653   3.375
 3011SOL     OW 9931   5.679   1.153   0.057
 3011SOL    HW1 9932   5.754   1.108   0.009
 3011SOL    HW2 9933   5.632   1.087   0.116
 3012SOL     OW 9934   1.078   3.875   5.088
 3012SOL    HW1 9935   1.028   3.864   5.002
 3012SOL    HW2 9936   1.132   3.793   5.105
 3013SOL     OW 9937   5.274   5.784   3.871
 3013SOL    HW1 9938   5.339   5.847   3.828
 3013SOL    HW2 9939   5.294   5.777   3.969
 3014SOL     OW 9940   4.912   2.535   3.884
 3014SOL    HW1 9941   4.979   2.462   3.866
 3014SOL    HW2 9942   4.947   2.595   3.955
 3015SOL     OW 9943   3.702   2.605   0.807
 3015SOL    HW1 9944   3.700   2.538   0.732
 3015SOL    HW2 9945   3.778   2.668   0.793
 3016SOL     OW 9946   3.471   5.983   4.704
 3016SOL    HW1 9947   3.523   5.907   4.741
 3016SOL    HW2 9948   3.465   5.975   4.605
 3017SOL     OW 9949   1.209   5.387   1.258
 3017SOL    HW1 9950   1.150   5.310   1.235
 3017SOL    HW2 9951   1.284   5.393   1.192
 3018SOL     OW 9952   3.306   6.891   6.268
 3018SOL    HW1 9953   3.236   6.858   6.205
 3018SOL    HW2 9954   3.266   6.961   6.327
 3019SOL     OW 9955   2.512   6.558   0.969
 3019SOL    HW1 9956   2.476   6.563   1.063
 3019SOL    HW2 9957   2.486   6.471   0.928
 3020SOL     OW 9958   3.699   3.888   1.501
 3020SOL    HW1 9959   3.667   3.794   1.508
 3020SOL    HW2 9960   3.682   3.922   1.409
 3021SOL     OW 9961   2.339   1.604   0.475
 3021SOL    HW1 9962   2.325   1.514   0.517
 3021SOL    HW2 9963   2.376   1.667   0.543
 3022SOL     OW 9964   4.287   6.106   2.721
 3022SOL    HW1 9965   4.299   6.195   2.676
 3022SOL    HW2 9966   4.198   6.104   2.768
 3023SOL     OW 9967   3.604   6.501   2.967
 3023SOL    HW1 9968   3.573   6.593   2.945
 3023SOL    HW2 9969   3.565   6.473   3.055
 3024SOL     OW 9970   3.131   0.446   6.557
 3024SOL    HW1 9971   3.171   0.392   6.630
 3024SOL    HW2 9972   3.143   0.398   6.470
 3025SOL     OW 9973   3.508   2.786   0.395
 3025SOL    HW1 9974   3.540   2.860   0.453
 3025SOL    HW2 9975   3.408   2.782   0.397
 3026SOL     OW 9976   1.167   2.980   0.827
 3026SOL    HW1 9977   1.213   3.068   0.814
 3026SOL    HW2 9978   1.068   2.995   0.834
 3027SOL     OW 9979   3.938   1.078   1.653
 3027SOL    HW1 9980   3.984   1.042   1.572
 3027SOL    HW2 9981   3.883   1.157   1.628
 3028SOL     OW 9982   1.426   4.287   6.661
 3028SOL    HW1 9983   1.330   4.264   6.648
 3028SOL    HW2 9984   1.451   4.363   6.600
 3029SOL     OW 9985   0.055   5.189   4.707
 3029SOL    HW1 9986   0.003   5.193   4.793
 3029SOL    HW2 9987   7.023   5.203   4.630
 3030SOL     OW 9988   0.330   2.099   5.581
 3030SOL    HW1 9989   0.390   2.178   5.569
 3030SOL    HW2 9990   0.377   2.016   5.551
 3031SOL     OW 9991   0.558   3.763   0.938
 3031SOL    HW1 9992   0.655   3.746   0.955
 3031SOL    HW2 9993   0.503   3.703   0.997
 3032SOL     OW 9994   5.448   0.561   0.472
 3032SOL    HW1 9995   5.473   0.611   0.555
 3032SOL    HW2 9996   5.471   0.616   0.391
 3033SOL     OW 9997   1.059   2.832   0.622
 3033SOL    HW1 9998   1.129   2.890   0.664
 3033SOL    HW2 9999   1.056   2.850   0.523
 3034SOL     OW10000   2.157   6.155   4.024
 3034SOL    HW110001   2.236   6.141   3.964
 3034SOL    HW210002   2.167   6.242   4.072
 3035SOL     OW10003   0.038   3.091   0.615
 3035SOL    HW110004   0.076   3.183   0.606
 3035SOL    HW210005   6.983   3.084   0.562
 3036SOL     OW10006   1.525   3.388   6.714
 3036SOL    HW110007   1.508   3.458   6.784
 3036SOL    HW210008   1.507   3.298   6.753
 3037SOL     OW10009   6.416   5.879   4.803
 3037SOL    HW110010   6.328   5.860   4.846
 3037SOL    HW210011   6.411   5.966   4.753
 3038SOL     OW10012   5.782   6.617   6.412
 3038SOL    HW110013   5.812   6.711   6.422
 3038SOL    HW210014   5.841   6.570   6.346
 3039SOL     OW10015   6.624   3.849   2.282
 3039SOL    HW110016   6.667   3.825   2.195
 3039SOL    HW210017   6.654   3.784   2.353
 3040SOL     OW10018   4.898   4.213   6.166
 3040SOL    HW110019   4.979   4.197   6.223
 3040SOL    HW210020   4.843   4.130   6.161
 3041SOL     OW10021   2.012   2.396   5.625
 3041SOL    HW110022   1.992   2.411   5.528
 3041SOL    HW210023   2.012   2.484   5.672
 3042SOL     OW10024   4.983   6.339   1.750
 3042SOL    HW110025   4.944   6.401   1.818
 3042SOL    HW210026   5.036   6.392   1.684
 3043SOL     OW10027   0.532   5.342   0.822
 3043SOL    HW110028   0.585   5.344   0.737
 3043SOL    HW210029   0.493   5.433   0.839
 3044SOL     OW10030   3.028   4.672   6.079
 3044SOL    HW110031   2.966   4.602   6.044
 3044SOL    HW210032   2.982   4.722   6.153
 3045SOL     OW10033   4.640   0.407   2.199
 3045SOL    HW110034   4.712   0.428   2.265
 3045SOL    HW210035   4.556   0.454   2.225
 3046SOL     OW10036   1.626   2.327   5.644
 3046SOL    HW110037   1.674   2.339   5.731
 3046SOL    HW210038   1.534   2.292   5.661
 3047SOL     OW10039   5.074   5.772   2.197
 3047SOL    HW110040   5.010   5.805   2.128
 3047SOL    HW210041   5.044   5.682   2.230
 3048SOL     OW10042   3.383   3.244   1.532
 3048SOL    HW110043   3.285   3.242   1.515
 3048SOL    HW210044   3.417   3.337   1.517
 3049SOL     OW10045   1.068   5.944   1.262
 3049SOL    HW110046   1.048   5.922   1.357
 3049SOL    HW210047   1.075   5.859   1.209
 3050SOL     OW10048   3.752   0.572   3.536
 3050SOL    HW110049   3.695   0.530   3.607
 3050SOL    HW210050   3.750   0.516   3.453
 3051SOL     OW10051   2.890   3.710   6.912
 3051SOL    HW110052   2.887   3.611   6.895
 3051SOL    HW210053   2.909   3.726   7.008
 3052SOL     OW10054   4.383   0.847   2.205
 3052SOL    HW110055   4.332   0.905   2.141
 3052SOL    HW210056   4.445   0.905   2.259
 3053SOL     OW10057   6.572   0.568   6.589
 3053SOL    HW110058   6.492   0.563   6.649
 3053SOL    HW210059   6.630   0.489   6.605
 3054SOL     OW10060   0.591   2.916   0.424
 3054SOL    HW110061   0.567   2.918   0.327
 3054SOL    HW210062   0.552   2.834   0.467
 3055SOL     OW10063   4.856   0.128   3.728
 3055SOL    HW110064   4.771   0.180   3.744
 3055SOL    HW210065   4.842   0.063   3.653
 3056SOL     OW10066   0.217   0.326   6.735
 3056SOL    HW110067   0.267   0.319   6.648
 3056SOL    HW210068   0.147   0.397   6.726
 3057SOL     OW10069   4.410   5.561   3.055
 3057SOL    HW110070   4.465   5.576   2.973
 3057SOL    HW210071   4.318   5.596   3.040
 3058SOL     OW10072   6.656   5.806   1.484
 3058SOL    HW110073   6.722   5.766   1.420
 3058SOL    HW210074   6.573   5.751   1.485
 3059SOL     OW10075   1.719   2.743   5.066
 3059SOL    HW110076   1.800   2.799   5.050
 3059SOL    HW210077   1.734   2.685   5.146
 3060SOL     OW10078   0.228   6.107   0.139
 3060SOL    HW110079   0.311   6.052   0.137
 3060SOL    HW210080   0.151   6.052   0.172
 3061SOL     OW10081   6.777   0.910   4.803
 3061SOL    HW110082   6.869   0.929   4.836
 3061SOL    HW210083   6.763   0.811   4.799
 3062SOL     OW10084   1.729   6.830   0.331
 3062SOL    HW110085   1.665   6.894   0.373
 3062SOL    HW210086   1.803   6.882   0.288
 3063SOL     OW10087   2.577   5.226   1.942
 3063SOL    HW110088   2.674   5.206   1.959
 3063SOL    HW210089   2.536   5.152   1.889
 3064SOL     OW10090   6.160   3.314   3.637
 3064SOL    HW110091   6.141   3.229   3.587
 3064SOL    HW210092   6.258   3.324   3.652
 3065SOL     OW10093   1.794   0.533   6.579
 3065SOL    HW110094   1.866   0.497   6.521
 3065SOL    HW210095   1.779   0.629   6.560
 3066SOL     OW10096   5.653   4.678   0.609
 3066SOL    HW110097   5.580   4.619   0.643
 3066SOL    HW210098   5.741   4.647   0.647
 3067SOL     OW10099   3.630   1.431   4.323
 3067SOL    HW110100   3.613   1.377   4.241
 3067SOL    HW210101   3.669   1.519   4.298
 3068SOL     OW10102   5.296   5.956   0.489
 3068SOL    HW110103   5.307   5.856   0.483
 3068SOL    HW210104   5.384   6.000   0.473
 3069SOL     OW10105   6.660   5.877   1.800
 3069SOL    HW110106   6.642   5.886   1.702
 3069SOL    HW210107   6.660   5.968   1.842
 3070SOL     OW10108   1.943   0.948   2.080
 3070SOL    HW110109   1.920   0.874   2.017
 3070SOL    HW210110   1.868   1.014   2.083
 3071SOL     OW10111   6.222   6.512   3.663
 3071SOL    HW110112   6.239   6.502   3.761
 3071SOL    HW210113   6.229   6.608   3.637
 3072SOL     OW10114   0.941   6.099   0.909
 3072SOL    HW110115   0.972   6.010   0.874
 3072SOL    HW210116   0.842   6.106   0.899
 3073SOL     OW10117   0.739   3.434   5.023
 3073SOL    HW110118   0.681   3.368   4.976
 3073SOL    HW210119   0.819   3.455   4.966
 3074SOL     OW10120   5.603   2.886   0.878
 3074SOL    HW110121   5.550   2.824   0.936
 3074SOL    HW210122   5.659   2.832   0.814
 3075SOL     OW10123   1.904   6.290   1.186
 3075SOL    HW110124   1.910   6.242   1.098
 3075SOL    HW210125   1.814   6.334   1.193
 3076SOL     OW10126   6.442   0.854   4.154
 3076SOL    HW110127   6.523   0.835   4.099
 3076SOL    HW210128   6.465   0.845   4.251
 3077SOL     OW10129   5.261   4.865   2.604
 3077SOL    HW110130   5.346   4.827   2.570
 3077SOL    HW210131   5.229   4.938   2.543
 3078SOL     OW10132   1.899   3.570   1.101
 3078SOL    HW110133   1.935   3.662   1.116
 3078SOL    HW210134   1.841   3.544   1.178
 3079SOL     OW10135   1.819   2.795   4.324
 3079SOL    HW110136   1.871   2.784   4.239
 3079SOL    HW210137   1.882   2.811   4.400
 3080SOL     OW10138   5.762   4.602   2.530
 3080SOL    HW110139   5.827   4.604   2.454
 3080SOL    HW210140   5.804   4.555   2.608
 3081SOL     OW10141   0.888   4.494   6.184
 3081SOL    HW110142   0.965   4.451   6.230
 3081SOL    HW210143   0.889   4.470   6.086
 3082SOL     OW10144   3.732   6.799   3.478
 3082SOL    HW110145   3.824   6.832   3.497
 3082SOL    HW210146   3.711   6.721   3.537
 3083SOL     OW10147   4.034   6.518   3.312
 3083SOL    HW110148   3.974   6.588   3.274
 3083SOL    HW210149   3.993   6.428   3.298
 3084SOL     OW10150   4.720   4.650   4.640
 3084SOL    HW110151   4.782   4.584   4.599
 3084SOL    HW210152   4.650   4.602   4.693
 3085SOL     OW10153   0.338   4.599   2.816
 3085SOL    HW110154   0.391   4.614   2.900
 3085SOL    HW210155   0.398   4.564   2.744
 3086SOL     OW10156   4.154   1.639   1.375
 3086SOL    HW110157   4.089   1.563   1.386
 3086SOL    HW210158   4.218   1.639   1.452
 3087SOL     OW10159   0.474   4.787   4.015
 3087SOL    HW110160   0.561   4.738   4.024
 3087SOL    HW210161   0.491   4.879   3.981
 3088SOL     OW10162   2.380   4.911   5.657
 3088SOL    HW110163   2.319   4.982   5.691
 3088SOL    HW210164   2.334   4.822   5.663
 3089SOL     OW10165   0.850   2.767   7.026
 3089SOL    HW110166   0.947   2.754   7.002
 3089SOL    HW210167   0.823   2.860   7.004
 3090SOL     OW10168   1.686   1.737   1.570
 3090SOL    HW110169   1.686   1.782   1.659
 3090SOL    HW210170   1.595   1.744   1.528
 3091SOL     OW10171   2.840   6.258   0.304
 3091SOL    HW110172   2.814   6.161   0.305
 3091SOL    HW210173   2.848   6.289   0.209
 3092SOL     OW10174   5.254   0.374   6.966
 3092SOL    HW110175   5.253   0.472   6.944
 3092SOL    HW210176   5.173   0.352   7.021
 3093SOL     OW10177   5.422   4.996   5.748
 3093SOL    HW110178   5.423   4.896   5.743
 3093SOL    HW210179   5.434   5.024   5.844
 3094SOL     OW10180   3.472   6.945   5.036
 3094SOL    HW110181   3.438   6.852   5.037
 3094SOL    HW210182   3.396   7.009   5.041
 3095SOL     OW10183   2.775   4.928   4.440
 3095SOL    HW110184   2.715   4.848   4.444
 3095SOL    HW210185   2.722   5.010   4.461
 3096SOL     OW10186   0.602   0.562   4.370
 3096SOL    HW110187   0.581   0.602   4.281
 3096SOL    HW210188   0.563   0.619   4.442
 3097SOL     OW10189   0.664   2.725   0.879
 3097SOL    HW110190   0.636   2.644   0.932
 3097SOL    HW210191   0.676   2.699   0.783
 3098SOL     OW10192   2.403   3.608   1.499
 3098SOL    HW110193   2.328   3.625   1.563
 3098SOL    HW210194   2.366   3.583   1.410
 3099SOL     OW10195   7.027   5.986   4.950
 3099SOL    HW110196   0.085   5.985   4.902
 3099SOL    HW210197   0.006   6.040   5.034
 3100SOL     OW10198   6.624   0.331   4.638
 3100SOL    HW110199   6.642   0.296   4.730
 3100SOL    HW210200   6.710   0.342   4.589
 3101SOL     OW10201   4.591   6.023   5.244
 3101SOL    HW110202   4.536   6.070   5.175
 3101SOL    HW210203   4.549   6.033   5.334
 3102SOL     OW10204   1.266   5.002   2.163
 3102SOL    HW110205   1.174   4.975   2.135
 3102SOL    HW210206   1.291   5.088   2.118
 3103SOL     OW10207   3.091   1.749   1.556
 3103SOL    HW110208   2.992   1.736   1.546
 3103SOL    HW210209   3.108   1.837   1.601
 3104SOL     OW10210   6.030   6.963   4.369
 3104SOL    HW110211   5.960   6.991   4.303
 3104SOL    HW210212   6.116   7.010   4.349
 3105SOL     OW10213   6.459   5.439   3.220
 3105SOL    HW110214   6.458   5.379   3.140
 3105SOL    HW210215   6.505   5.392   3.296
 3106SOL     OW10216   6.794   1.428   3.106
 3106SOL    HW110217   6.818   1.525   3.111
 3106SOL    HW210218   6.696   1.419   3.087
 3107SOL     OW10219   3.566   0.243   4.467
 3107SOL    HW110220   3.556   0.175   4.539
 3107SOL    HW210221   3.482   0.298   4.460
 3108SOL     OW10222   1.855   0.698   4.638
 3108SOL    HW110223   1.939   0.752   4.640
 3108SOL    HW210224   1.875   0.602   4.656
 3109SOL     OW10225   5.856   5.992   2.799
 3109SOL    HW110226   5.943   6.040   2.793
 3109SOL    HW210227   5.870   5.894   2.785
 3110SOL     OW10228   1.273   1.690   3.793
 3110SOL    HW110229   1.215   1.615   3.760
 3110SOL    HW210230   1.316   1.663   3.879
 3111SOL     OW10231   6.591   5.616   4.231
 3111SOL    HW110232   6.690   5.634   4.223
 3111SOL    HW210233   6.542   5.702   4.219
 3112SOL     OW10234   4.989   2.721   6.089
 3112SOL    HW110235   4.949   2.660   6.020
 3112SOL    HW210236   5.032   2.667   6.161
 3113SOL     OW10237   1.925   0.115   4.490
 3113SOL    HW110238   1.833   0.151   4.501
 3113SOL    HW210239   1.940   0.039   4.553
 3114SOL     OW10240   4.846   3.407   0.238
 3114SOL    HW110241   4.920   3.420   0.172
 3114SOL    HW210242   4.795   3.324   0.214
 3115SOL     OW10243   4.909   3.492   0.506
 3115SOL    HW110244   4.896   3.436   0.424
 3115SOL    HW210245   4.954   3.578   0.482
 3116SOL     OW10246   0.587   4.027   6.859
 3116SOL    HW110247   0.602   3.931   6.835
 3116SOL    HW210248   0.582   4.081   6.775
 3117SOL     OW10249   4.516   3.742   5.327
 3117SOL    HW110250   4.428   3.750   5.280
 3117SOL    HW210251   4.566   3.664   5.290
 3118SOL     OW10252   6.893   4.626   0.031
 3118SOL    HW110253   6.952   4.646   0.110
 3118SOL    HW210254   6.930   4.547   7.011
 3119SOL     OW10255   1.771   3.856   5.485
 3119SOL    HW110256   1.812   3.821   5.401
 3119SOL    HW210257   1.772   3.786   5.555
 3120SOL     OW10258   2.271   6.327   4.573
 3120SOL    HW110259   2.263   6.425   4.590
 3120SOL    HW210260   2.182   6.283   4.589
 3121SOL     OW10261   0.729   1.359   2.126
 3121SOL    HW110262   0.700   1.399   2.213
 3121SOL    HW210263   0.812   1.404   2.095
 3122SOL     OW10264   3.470   5.798   6.168
 3122SOL    HW110265   3.409   5.750   6.231
 3122SOL    HW210266   3.418   5.862   6.112
 3123SOL     OW10267   3.788   6.422   3.921
 3123SOL    HW110268   3.744   6.351   3.865
 3123SOL    HW210269   3.720   6.489   3.950
 3124SOL     OW10270   3.808   0.571   4.972
 3124SOL    HW110271   3.776   0.480   4.945
 3124SOL    HW210272   3.887   0.561   5.034
 3125SOL     OW10273   5.995   2.132   6.168
 3125SOL    HW110274   5.944   2.093   6.092
 3125SOL    HW210275   6.043   2.214   6.138
 3126SOL     OW10276   4.998   4.616   6.994
 3126SOL    HW110277   5.017   4.617   0.063
 3126SOL    HW210278   4.990   4.710   6.961
 3127SOL     OW10279   0.477   2.547   2.647
 3127SOL    HW110280   0.510   2.477   2.710
 3127SOL    HW210281   0.540   2.555   2.570
 3128SOL     OW10282   1.793   0.242   0.288
 3128SOL    HW110283   1.846   0.234   0.373
 3128SOL    HW210284   1.813   0.165   0.229
 3129SOL     OW10285   0.747   4.444   6.435
 3129SOL    HW110286   0.680   4.398   6.377
 3129SOL    HW210287   0.803   4.506   6.380
 3130SOL     OW10288   2.450   4.499   2.576
 3130SOL    HW110289   2.532   4.554   2.560
 3130SOL    HW210290   2.393   4.545   2.644
 3131SOL     OW10291   0.803   2.919   2.119
 3131SOL    HW110292   0.818   2.976   2.038
 3131SOL    HW210293   0.811   2.822   2.094
 3132SOL     OW10294   5.355   6.120   5.483
 3132SOL    HW110295   5.416   6.073   5.548
 3132SOL    HW210296   5.268   6.070   5.477
 3133SOL     OW10297   2.621   2.105   3.933
 3133SOL    HW110298   2.556   2.144   3.867
 3133SOL    HW210299   2.579   2.103   4.024
 3134SOL     OW10300   5.542   3.603   1.737
 3134SOL    HW110301   5.484   3.664   1.683
 3134SOL    HW210302   5.596   3.658   1.801
 3135SOL     OW10303   4.433   2.162   4.522
 3135SOL    HW110304   4.436   2.063   4.507
 3135SOL    HW210305   4.485   2.185   4.604
 3136SOL     OW10306   6.095   6.306   5.481
 3136SOL    HW110307   6.136   6.242   5.416
 3136SOL    HW210308   6.016   6.350   5.439
 3137SOL     OW10309   5.431   0.664   3.756
 3137SOL    HW110310   5.421   0.760   3.731
 3137SOL    HW210311   5.356   0.611   3.717
 3138SOL     OW10312   6.548   1.686   4.311
 3138SOL    HW110313   6.562   1.588   4.299
 3138SOL    HW210314   6.565   1.711   4.407
 3139SOL     OW10315   5.144   0.066   6.452
 3139SOL    HW110316   5.159   0.146   6.394
 3139SOL    HW210317   5.111   7.020   6.397
 3140SOL     OW10318   6.453   5.750   6.248
 3140SOL    HW110319   6.519   5.825   6.246
 3140SOL    HW210320   6.394   5.755   6.167
 3141SOL     OW10321   0.788   6.635   6.194
 3141SOL    HW110322   0.763   6.629   6.097
 3141SOL    HW210323   0.801   6.732   6.218
 3142SOL     OW10324   4.976   6.532   0.427
 3142SOL    HW110325   4.959   6.494   0.336
 3142SOL    HW210326   4.907   6.497   0.490
 3143SOL     OW10327   6.852   2.452   6.866
 3143SOL    HW110328   6.950   2.470   6.871
 3143SOL    HW210329   6.829   2.419   6.774
 3144SOL     OW10330   2.463   3.793   0.942
 3144SOL    HW110331   2.530   3.734   0.986
 3144SOL    HW210332   2.372   3.750   0.946
 3145SOL     OW10333   2.367   5.532   2.860
 3145SOL    HW110334   2.316   5.615   2.882
 3145SOL    HW210335   2.321   5.453   2.901
 3146SOL     OW10336   0.953   5.871   3.184
 3146SOL    HW110337   1.051   5.853   3.173
 3146SOL    HW210338   0.930   5.872   3.281
 3147SOL     OW10339   4.177   5.402   6.665
 3147SOL    HW110340   4.273   5.403   6.694
 3147SOL    HW210341   4.155   5.314   6.624
 3148SOL     OW10342   4.280   5.576   4.369
 3148SOL    HW110343   4.362   5.560   4.314
 3148SOL    HW210344   4.200   5.539   4.321
 3149SOL     OW10345   3.107   0.146   5.630
 3149SOL    HW110346   3.200   0.137   5.667
 3149SOL    HW210347   3.083   0.243   5.625
 3150SOL     OW10348   5.389   5.996   4.248
 3150SOL    HW110349   5.487   6.001   4.265
 3150SOL    HW210350   5.340   6.002   4.335
 3151SOL     OW10351   4.741   1.662   6.352
 3151SOL    HW110352   4.761   1.668   6.450
 3151SOL    HW210353   4.693   1.744   6.323
 3152SOL     OW10354   1.117   5.171   1.780
 3152SOL    HW110355   1.051   5.103   1.813
 3152SOL    HW210356   1.091   5.262   1.813
 3153SOL     OW10357   6.504   4.508   1.953
 3153SOL    HW110358   6.523   4.440   2.023
 3153SOL    HW210359   6.529   4.472   1.863
 3154SOL     OW10360   6.364   2.003   0.254
 3154SOL    HW110361   6.381   1.905   0.264
 3154SOL    HW210362   6.305   2.035   0.328
 3155SOL     OW10363   0.179   5.480   1.648
 3155SOL    HW110364   0.195   5.416   1.573
 3155SOL    HW210365   0.099   5.450   1.701
 3156SOL     OW10366   4.107   3.387   4.101
 3156SOL    HW110367   4.075   3.299   4.137
 3156SOL    HW210368   4.123   3.379   4.003
 3157SOL     OW10369   1.385   2.828   4.644
 3157SOL    HW110370   1.420   2.917   4.616
 3157SOL    HW210371   1.436   2.796   4.724
 3158SOL     OW10372   4.739   0.377   1.408
 3158SOL    HW110373   4.835   0.404   1.409
 3158SOL    HW210374   4.713   0.348   1.316
 3159SOL     OW10375   4.920   6.449   0.163
 3159SOL    HW110376   4.851   6.409   0.103
 3159SOL    HW210377   4.905   6.547   0.171
 3160SOL     OW10378   6.199   4.902   6.044
 3160SOL    HW110379   6.219   4.979   5.984
 3160SOL    HW210380   6.225   4.925   6.138
 3161SOL     OW10381   1.335   1.506   2.775
 3161SOL    HW110382   1.347   1.412   2.744
 3161SOL    HW210383   1.408   1.528   2.841
 3162SOL     OW10384   0.169   5.339   0.030
 3162SOL    HW110385   0.256   5.387   0.038
 3162SOL    HW210386   0.119   5.347   0.116
 3163SOL     OW10387   3.669   2.856   6.182
 3163SOL    HW110388   3.764   2.840   6.208
 3163SOL    HW210389   3.660   2.946   6.139
 3164SOL     OW10390   5.131   4.232   1.686
 3164SOL    HW110391   5.137   4.325   1.649
 3164SOL    HW210392   5.214   4.181   1.662
 3165SOL     OW10393   1.568   6.658   1.789
 3165SOL    HW110394   1.575   6.757   1.798
 3165SOL    HW210395   1.498   6.636   1.721
 3166SOL     OW10396   5.222   2.863   6.019
 3166SOL    HW110397   5.130   2.827   6.035
 3166SOL    HW210398   5.284   2.787   6.000
 3167SOL     OW10399   6.562   4.719   1.754
 3167SOL    HW110400   6.514   4.730   1.668
 3167SOL    HW210401   6.518   4.647   1.808
 3168SOL     OW10402   5.313   2.778   0.858
 3168SOL    HW110403   5.342   2.689   0.894
 3168SOL    HW210404   5.302   2.842   0.934
 3169SOL     OW10405   0.786   3.338   5.805
 3169SOL    HW110406   0.810   3.282   5.885
 3169SOL    HW210407   0.738   3.420   5.836
 3170SOL     OW10408   3.644   0.157   0.112
 3170SOL    HW110409   3.701   0.207   0.046
 3170SOL    HW210410   3.698   0.137   0.193
 3171SOL     OW10411   6.213   6.825   1.496
 3171SOL    HW110412   6.199   6.891   1.569
 3171SOL    HW210413   6.309   6.824   1.468
 3172SOL     OW10414   6.820   6.371   4.846
 3172SOL    HW110415   6.865   6.307   4.784
 3172SOL    HW210416   6.724   6.346   4.857
 3173SOL     OW10417   2.603   0.907   2.109
 3173SOL    HW110418   2.538   0.833   2.094
 3173SOL    HW210419   2.589   0.945   2.201
 3174SOL     OW10420   2.455   3.245   6.089
 3174SOL    HW110421   2.431   3.153   6.057
 3174SOL    HW210422   2.482   3.301   6.011
 3175SOL     OW10423   0.979   6.450   6.644
 3175SOL    HW110424   0.997   6.479   6.738
 3175SOL    HW210425   0.927   6.522   6.596
 3176SOL     OW10426   1.622   4.616   6.216
 3176SOL    HW110427   1.548   4.609   6.149
 3176SOL    HW210428   1.625   4.531   6.270
 3177SOL     OW10429   5.464   5.189   5.966
 3177SOL    HW110430   5.406   5.216   6.042
 3177SOL    HW210431   5.546   5.144   6.001
 3178SOL     OW10432   0.235   4.155   1.734
 3178SOL    HW110433   0.168   4.222   1.764
 3178SOL    HW210434   0.252   4.089   1.808
 3179SOL     OW10435   1.478   2.313   1.894
 3179SOL    HW110436   1.513   2.355   1.978
 3179SOL    HW210437   1.420   2.235   1.917
 3180SOL     OW10438   4.395   1.079   5.909
 3180SOL    HW110439   4.306   1.047   5.941
 3180SOL    HW210440   4.444   1.122   5.985
 3181SOL     OW10441   0.646   1.047   3.690
 3181SOL    HW110442   0.664   1.069   3.786
 3181SOL    HW210443   0.580   0.971   3.686
 3182SOL     OW10444   0.450   0.227   5.776
 3182SOL    HW110445   0.499   0.141   5.792
 3182SOL    HW210446   0.493   0.278   5.702
 3183SOL     OW10447   4.017   4.693   1.544
 3183SOL    HW110448   4.056   4.618   1.596
 3183SOL    HW210449   3.975   4.658   1.460
 3184SOL     OW10450   2.523   1.819   2.116
 3184SOL    HW110451   2.621   1.827   2.098
 3184SOL    HW210452   2.502   1.861   2.204
 3185SOL     OW10453   0.166   0.234   5.504
 3185SOL    HW110454   0.165   0.277   5.594
 3185SOL    HW210455   0.181   0.304   5.434
 3186SOL     OW10456   3.365   1.311   3.013
 3186SOL    HW110457   3.332   1.296   3.107
 3186SOL    HW210458   3.358   1.408   2.991
 3187SOL     OW10459   4.034   3.990   6.938
 3187SOL    HW110460   3.951   3.994   6.882
 3187SOL    HW210461   4.046   3.898   6.974
 3188SOL     OW10462   3.513   5.942   2.930
 3188SOL    HW110463   3.473   5.991   2.854
 3188SOL    HW210464   3.558   5.859   2.896
 3189SOL     OW10465   1.457   0.914   3.007
 3189SOL    HW110466   1.482   0.825   3.046
 3189SOL    HW210467   1.412   0.900   2.918
 3190SOL     OW10468   1.535   6.408   1.432
 3190SOL    HW110469   1.452   6.378   1.385
 3190SOL    HW210470   1.528   6.505   1.454
 3191SOL     OW10471   3.760   0.829   1.496
 3191SOL    HW110472   3.674   0.779   1.483
 3191SOL    HW210473   3.740   0.926   1.507
 3192SOL     OW10474   0.668   1.717   0.387
 3192SOL    HW110475   0.615   1.795   0.420
 3192SOL    HW210476   0.696   1.661   0.464
 3193SOL     OW10477   4.310   2.262   6.322
 3193SOL    HW110478   4.259   2.201   6.262
 3193SOL    HW210479   4.315   2.224   6.414
 3194SOL     OW10480   1.390   3.490   6.424
 3194SOL    HW110481   1.451   3.420   6.460
 3194SOL    HW210482   1.439   3.549   6.360
 3195SOL     OW10483   1.593   2.423   3.068
 3195SOL    HW110484   1.675   2.371   3.091
 3195SOL    HW210485   1.547   2.452   3.152
 3196SOL     OW10486   0.119   0.019   4.533
 3196SOL    HW110487   0.099   0.083   4.607
 3196SOL    HW210488   0.041   0.016   4.470
 3197SOL     OW10489   1.047   5.390   2.952
 3197SOL    HW110490   1.087   5.314   3.004
 3197SOL    HW210491   1.039   5.470   3.012
 3198SOL     OW10492   6.944   2.095   6.280
 3198SOL    HW110493   6.869   2.128   6.338
 3198SOL    HW210494   7.009   2.169   6.265
 3199SOL     OW10495   4.817   1.678   1.770
 3199SOL    HW110496   4.854   1.672   1.863
 3199SOL    HW210497   4.749   1.752   1.766
 3200SOL     OW10498   0.128   2.700   0.936
 3200SOL    HW110499   0.085   2.614   0.964
 3200SOL    HW210500   0.167   2.745   1.017
 3201SOL     OW10501   5.290   3.721   4.027
 3201SOL    HW110502   5.326   3.630   4.050
 3201SOL    HW210503   5.353   3.791   4.060
 3202SOL     OW10504   1.978   4.360   3.071
 3202SOL    HW110505   2.059   4.320   3.114
 3202SOL    HW210506   1.911   4.288   3.052
 3203SOL     OW10507   6.232   0.903   1.658
 3203SOL    HW110508   6.274   0.869   1.574
 3203SOL    HW210509   6.133   0.905   1.648
 3204SOL     OW10510   5.809   5.493   1.648
 3204SOL    HW110511   5.734   5.547   1.686
 3204SOL    HW210512   5.776   5.444   1.567
 3205SOL     OW10513   6.560   4.261   6.436
 3205SOL    HW110514   6.479   4.256   6.378
 3205SOL    HW210515   6.601   4.170   6.444
 3206SOL     OW10516   0.113   6.778   5.657
 3206SOL    HW110517   0.121   6.701   5.720
 3206SOL    HW210518   0.018   6.789   5.629
 3207SOL     OW10519   0.873   1.275   5.238
 3207SOL    HW110520   0.793   1.302   5.292
 3207SOL    HW210521   0.850   1.274   5.141
 3208SOL     OW10522   4.414   5.712   5.078
 3208SOL    HW110523   4.435   5.632   5.022
 3208SOL    HW210524   4.435   5.693   5.174
 3209SOL     OW10525   2.994   6.570   4.293
 3209SOL    HW110526   2.895   6.556   4.289
 3209SOL    HW210527   3.036   6.525   4.214
 3210SOL     OW10528   0.211   3.846   2.698
 3210SOL    HW110529   0.248   3.937   2.685
 3210SOL    HW210530   0.139   3.848   2.768
 3211SOL     OW10531   2.397   4.356   0.594
 3211SOL    HW110532   2.426   4.448   0.620
 3211SOL    HW210533   2.463   4.317   0.530
 3212SOL     OW10534   4.403   2.439   6.598
 3212SOL    HW110535   4.444   2.497   6.527
 3212SOL    HW210536   4.333   2.490   6.647
 3213SOL     OW10537   5.749   5.638   3.104
 3213SOL    HW110538   5.749   5.738   3.102
 3213SOL    HW210539   5.743   5.606   3.198
 3214SOL     OW10540   4.420   6.094   6.853
 3214SOL    HW110541   4.335   6.115   6.805
 3214SOL    HW210542   4.495   6.143   6.810
 3215SOL     OW10543   6.975   2.549   0.637
 3215SOL    HW110544   6.942   2.464   0.595
 3215SOL    HW210545   6.977   2.539   0.736
 3216SOL     OW10546   5.724   6.194   3.442
 3216SOL    HW110547   5.665   6.126   3.399
 3216SOL    HW210548   5.781   6.238   3.372
 3217SOL     OW10549   1.055   4.552   2.906
 3217SOL    HW110550   0.963   4.572   2.874
 3217SOL    HW210551   1.056   4.549   3.006
 3218SOL     OW10552   3.901   6.720   3.205
 3218SOL    HW110553   3.873   6.808   3.244
 3218SOL    HW210554   3.938   6.734   3.113
 3219SOL     OW10555   0.022   0.373   2.912
 3219SOL    HW110556   0.039   0.291   2.857
 3219SOL    HW210557   0.068   0.451   2.869
 3220SOL     OW10558   0.136   4.559   4.841
 3220SOL    HW110559   0.153   4.520   4.931
 3220SOL    HW210560   0.044   4.598   4.838
 3221SOL     OW10561   2.485   6.259   2.891
 3221SOL    HW110562   2.574   6.280   2.932
 3221SOL    HW210563   2.498   6.234   2.795
 3222SOL     OW10564   5.056   1.818   2.977
 3222SOL    HW110565   5.046   1.730   2.931
 3222SOL    HW210566   4.968   1.864   2.981
 3223SOL     OW10567   2.731   5.199   6.536
 3223SOL    HW110568   2.824   5.188   6.500
 3223SOL    HW210569   2.735   5.252   6.621
 3224SOL     OW10570   4.537   5.523   6.860
 3224SOL    HW110571   4.517   5.506   6.957
 3224SOL    HW210572   4.519   5.619   6.839
 3225SOL     OW10573   4.311   3.253   6.851
 3225SOL    HW110574   4.224   3.268   6.804
 3225SOL    HW210575   4.342   3.339   6.890
 3226SOL     OW10576   2.502   0.776   4.071
 3226SOL    HW110577   2.453   0.692   4.046
 3226SOL    HW210578   2.597   0.770   4.038
 3227SOL     OW10579   3.540   1.878   6.011
 3227SOL    HW110580   3.556   1.960   6.065
 3227SOL    HW210581   3.528   1.903   5.915
 3228SOL     OW10582   6.035   3.215   4.296
 3228SOL    HW110583   6.127   3.252   4.280
 3228SOL    HW210584   6.020   3.137   4.235
 3229SOL     OW10585   3.362   2.220   5.954
 3229SOL    HW110586   3.357   2.159   5.875
 3229SOL    HW210587   3.395   2.310   5.925
 3230SOL     OW10588   0.603   1.032   2.842
 3230SOL    HW110589   0.650   0.977   2.773
 3230SOL    HW210590   0.504   1.014   2.836
 3231SOL     OW10591   4.702   5.629   1.404
 3231SOL    HW110592   4.755   5.709   1.431
 3231SOL    HW210593   4.647   5.650   1.323
 3232SOL     OW10594   3.575   5.281   5.198
 3232SOL    HW110595   3.557   5.187   5.228
 3232SOL    HW210596   3.673   5.290   5.177
 3233SOL     OW10597   0.983   4.035   1.386
 3233SOL    HW110598   1.038   3.977   1.446
 3233SOL    HW210599   0.970   3.990   1.298
 3234SOL     OW10600   0.108   2.213   0.248
 3234SOL    HW110601   0.193   2.254   0.214
 3234SOL    HW210602   0.058   2.281   0.302
 3235SOL     OW10603   5.582   6.742   2.708
 3235SOL    HW110604   5.597   6.728   2.610
 3235SOL    HW210605   5.581   6.653   2.754
 3236SOL     OW10606   1.380   2.719   1.848
 3236SOL    HW110607   1.417   2.810   1.828
 3236SOL    HW210608   1.408   2.691   1.940
 3237SOL     OW10609   4.884   6.438   4.725
 3237SOL    HW110610   4.788   6.456   4.707
 3237SOL    HW210611   4.893   6.360   4.787
 3238SOL     OW10612   0.520   5.605   6.396
 3238SOL    HW110613   0.540   5.593   6.493
 3238SOL    HW210614   0.568   5.687   6.363
 3239SOL     OW10615   6.275   0.488   6.171
 3239SOL    HW110616   6.198   0.443   6.126
 3239SOL    HW210617   6.242   0.570   6.219
 3240SOL     OW10618   0.546   0.177   4.428
 3240SOL    HW110619   0.507   0.267   4.449
 3240SOL    HW210620   0.605   0.148   4.504
 3241SOL     OW10621   5.128   1.186   3.856
 3241SOL    HW110622   5.054   1.244   3.822
 3241SOL    HW210623   5.110   1.161   3.951
 3242SOL     OW10624   3.622   5.975   6.349
 3242SOL    HW110625   3.719   5.980   6.325
 3242SOL    HW210626   3.599   5.882   6.376
 3243SOL     OW10627   4.437   5.486   0.083
 3243SOL    HW110628   4.502   5.420   0.120
 3243SOL    HW210629   4.434   5.566   0.142
 3244SOL     OW10630   4.454   6.150   5.636
 3244SOL    HW110631   4.509   6.067   5.634
 3244SOL    HW210632   4.425   6.173   5.543
 3245SOL     OW10633   3.939   3.035   6.194
 3245SOL    HW110634   3.995   3.039   6.111
 3245SOL    HW210635   3.940   2.942   6.230
 3246SOL     OW10636   6.033   7.019   2.442
 3246SOL    HW110637   6.081   7.013   2.530
 3246SOL    HW210638   5.937   6.996   2.455
 3247SOL     OW10639   0.195   3.631   4.040
 3247SOL    HW110640   0.219   3.684   3.959
 3247SOL    HW210641   0.142   3.551   4.013
 3248SOL     OW10642   6.416   3.479   2.232
 3248SOL    HW110643   6.316   3.481   2.238
 3248SOL    HW210644   6.455   3.510   2.319
 3249SOL     OW10645   3.217   4.820   5.188
 3249SOL    HW110646   3.179   4.839   5.097
 3249SOL    HW210647   3.196   4.896   5.250
 3250SOL     OW10648   4.861   6.890   2.593
 3250SOL    HW110649   4.867   6.878   2.692
 3250SOL    HW210650   4.817   6.810   2.553
 3251SOL     OW10651   3.868   1.719   2.928
 3251SOL    HW110652   3.928   1.675   2.995
 3251SOL    HW210653   3.786   1.753   2.973
 3252SOL     OW10654   3.166   1.165   2.869
 3252SOL    HW110655   3.102   1.217   2.811
 3252SOL    HW210656   3.227   1.229   2.915
 3253SOL     OW10657   4.724   2.833   1.281
 3253SOL    HW110658   4.735   2.866   1.188
 3253SOL    HW210659   4.655   2.888   1.328
 3254SOL     OW10660   4.038   4.905   3.594
 3254SOL    HW110661   4.040   4.951   3.505
 3254SOL    HW210662   4.086   4.962   3.661
 3255SOL     OW10663   4.346   5.706   0.210
 3255SOL    HW110664   4.352   5.740   0.304
 3255SOL    HW210665   4.332   5.783   0.148
 3256SOL     OW10666   5.081   6.606   5.952
 3256SOL    HW110667   5.159   6.668   5.947
 3256SOL    HW210668   5.077   6.552   5.868
 3257SOL     OW10669   1.676   1.784   1.111
 3257SOL    HW110670   1.616   1.729   1.051
 3257SOL    HW210671   1.620   1.852   1.159
 3258SOL     OW10672   4.764   6.840   1.515
 3258SOL    HW110673   4.828   6.763   1.513
 3258SOL    HW210674   4.765   6.881   1.606
 3259SOL     OW10675   4.250   6.213   4.185
 3259SOL    HW110676   4.171   6.177   4.134
 3259SOL    HW210677   4.243   6.185   4.281
 3260SOL     OW10678   1.465   1.276   7.025
 3260SOL    HW110679   1.414   1.273   6.940
 3260SOL    HW210680   1.403   1.267   0.073
 3261SOL     OW10681   4.026   6.957   0.963
 3261SOL    HW110682   3.984   6.906   0.888
 3261SOL    HW210683   3.955   6.984   1.028
 3262SOL     OW10684   3.379   1.741   3.614
 3262SOL    HW110685   3.355   1.644   3.619
 3262SOL    HW210686   3.369   1.773   3.520
 3263SOL     OW10687   4.218   6.873   2.354
 3263SOL    HW110688   4.130   6.869   2.306
 3263SOL    HW210689   4.249   6.780   2.374
 3264SOL     OW10690   0.359   5.533   0.008
 3264SOL    HW110691   0.421   5.512   0.084
 3264SOL    HW210692   0.360   5.632   7.020
 3265SOL     OW10693   4.252   1.883   6.436
 3265SOL    HW110694   4.166   1.873   6.486
 3265SOL    HW210695   4.320   1.926   6.496
 3266SOL     OW10696   0.238   2.655   6.725
 3266SOL    HW110697   0.264   2.752   6.725
 3266SOL    HW210698   0.185   2.635   6.808
 3267SOL     OW10699   3.233   2.096   1.204
 3267SOL    HW110700   3.305   2.055   1.259
 3267SOL    HW210701   3.248   2.195   1.197
 3268SOL     OW10702   1.240   4.057   0.255
 3268SOL    HW110703   1.281   3.970   0.280
 3268SOL    HW210704   1.141   4.054   0.272
 3269SOL     OW10705   4.414   4.539   1.465
 3269SOL    HW110706   4.322   4.515   1.497
 3269SOL    HW210707   4.480   4.475   1.505
 3270SOL     OW10708   0.345   5.216   3.913
 3270SOL    HW110709   0.269   5.265   3.958
 3270SOL    HW210710   0.416   5.196   3.980
 3271SOL     OW10711   6.056   2.360   1.957
 3271SOL    HW110712   6.156   2.369   1.948
 3271SOL    HW210713   6.031   2.264   1.951
 3272SOL     OW10714   3.643   0.488   0.546
 3272SOL    HW110715   3.615   0.576   0.506
 3272SOL    HW210716   3.742   0.476   0.534
 3273SOL     OW10717   0.988   6.313   2.404
 3273SOL    HW110718   0.970   6.280   2.311
 3273SOL    HW210719   0.974   6.239   2.469
 3274SOL     OW10720   2.930   2.081   5.405
 3274SOL    HW110721   2.843   2.034   5.390
 3274SOL    HW210722   2.954   2.076   5.502
 3275SOL     OW10723   1.985   0.412   6.753
 3275SOL    HW110724   2.055   0.483   6.762
 3275SOL    HW210725   1.905   0.450   6.707
 3276SOL     OW10726   3.260   5.474   6.533
 3276SOL    HW110727   3.184   5.413   6.557
 3276SOL    HW210728   3.332   5.467   6.602
 3277SOL     OW10729   6.925   6.336   5.850
 3277SOL    HW110730   6.846   6.300   5.800
 3277SOL    HW210731   6.898   6.419   5.900
 3278SOL     OW10732   1.242   1.165   5.398
 3278SOL    HW110733   1.248   1.112   5.483
 3278SOL    HW210734   1.181   1.118   5.334
 3279SOL     OW10735   0.061   6.752   1.157
 3279SOL    HW110736   7.019   6.788   1.216
 3279SOL    HW210737   0.126   6.825   1.135
 3280SOL     OW10738   2.606   5.147   6.291
 3280SOL    HW110739   2.632   5.051   6.280
 3280SOL    HW210740   2.646   5.183   6.375
 3281SOL     OW10741   2.454   5.496   0.375
 3281SOL    HW110742   2.550   5.485   0.401
 3281SOL    HW210743   2.446   5.494   0.275
 3282SOL     OW10744   2.781   5.659   4.212
 3282SOL    HW110745   2.814   5.738   4.161
 3282SOL    HW210746   2.694   5.681   4.256
 3283SOL     OW10747   3.035   0.775   3.333
 3283SOL    HW110748   2.995   0.799   3.422
 3283SOL    HW210749   3.134   0.779   3.339
 3284SOL     OW10750   0.091   5.732   7.009
 3284SOL    HW110751   0.121   5.671   6.936
 3284SOL    HW210752   0.049   5.679   0.053
 3285SOL     OW10753   0.206   2.550   2.867
 3285SOL    HW110754   0.168   2.501   2.789
 3285SOL    HW210755   0.258   2.487   2.925
 3286SOL     OW10756   3.360   3.705   4.886
 3286SOL    HW110757   3.361   3.787   4.943
 3286SOL    HW210758   3.451   3.663   4.887
 3287SOL     OW10759   1.830   5.268   0.115
 3287SOL    HW110760   1.894   5.193   0.099
 3287SOL    HW210761   1.807   5.312   0.028
 3288SOL     OW10762   0.561   5.973   6.240
 3288SOL    HW110763   0.575   5.916   6.159
 3288SOL    HW210764   0.479   5.943   6.288
 3289SOL     OW10765   0.523   5.715   5.379
 3289SOL    HW110766   0.496   5.636   5.323
 3289SOL    HW210767   0.609   5.695   5.426
 3290SOL     OW10768   0.452   5.589   1.429
 3290SOL    HW110769   0.497   5.541   1.354
 3290SOL    HW210770   0.502   5.673   1.449
 3291SOL     OW10771   1.801   6.446   6.857
 3291SOL    HW110772   1.793   6.351   6.887
 3291SOL    HW210773   1.717   6.473   6.810
 3292SOL     OW10774   6.911   6.727   6.355
 3292SOL    HW110775   6.951   6.665   6.288
 3292SOL    HW210776   6.964   6.725   6.439
 3293SOL     OW10777   0.044   1.067   3.234
 3293SOL    HW110778   0.053   0.993   3.167
 3293SOL    HW210779   0.019   1.028   3.323
 3294SOL     OW10780   6.662   0.341   6.049
 3294SOL    HW110781   6.681   0.243   6.053
 3294SOL    HW210782   6.594   0.364   6.118
 3295SOL     OW10783   2.646   2.497   1.021
 3295SOL    HW110784   2.638   2.503   1.120
 3295SOL    HW210785   2.637   2.401   0.992
 3296SOL     OW10786   2.038   6.945   2.515
 3296SOL    HW110787   2.119   6.893   2.544
 3296SOL    HW210788   2.016   6.922   2.420
 3297SOL     OW10789   3.207   2.568   5.577
 3297SOL    HW110790   3.189   2.587   5.481
 3297SOL    HW210791   3.263   2.485   5.586
 3298SOL     OW10792   6.690   3.256   2.969
 3298SOL    HW110793   6.670   3.251   2.871
 3298SOL    HW210794   6.733   3.344   2.989
 3299SOL     OW10795   1.047   0.287   4.916
 3299SOL    HW110796   1.010   0.355   4.853
 3299SOL    HW210797   1.021   0.312   5.010
 3300SOL     OW10798   6.231   6.757   4.673
 3300SOL    HW110799   6.325   6.769   4.702
 3300SOL    HW210800   6.180   6.842   4.688
 3301SOL     OW10801   0.432   3.656   3.382
 3301SOL    HW110802   0.375   3.581   3.417
 3301SOL    HW210803   0.491   3.690   3.455
 3302SOL     OW10804   1.356   4.821   3.821
 3302SOL    HW110805   1.262   4.796   3.798
 3302SOL    HW210806   1.376   4.791   3.915
 3303SOL     OW10807   4.070   3.156   3.640
 3303SOL    HW110808   4.064   3.081   3.574
 3303SOL    HW210809   3.991   3.215   3.631
 3304SOL     OW10810   1.017   6.252   3.938
 3304SOL    HW110811   0.927   6.222   3.904
 3304SOL    HW210812   1.032   6.347   3.909
 3305SOL     OW10813   1.861   0.998   1.656
 3305SOL    HW110814   1.777   1.040   1.620
 3305SOL    HW210815   1.836   0.925   1.719
 3306SOL     OW10816   2.079   3.849   3.717
 3306SOL    HW110817   2.087   3.750   3.712
 3306SOL    HW210818   2.081   3.879   3.812
 3307SOL     OW10819   6.875   6.223   0.485
 3307SOL    HW110820   6.930   6.200   0.404
 3307SOL    HW210821   6.788   6.174   0.481
 3308SOL     OW10822   4.426   6.143   0.410
 3308SOL    HW110823   4.349   6.156   0.471
 3308SOL    HW210824   4.487   6.073   0.447
 3309SOL     OW10825   1.142   4.919   3.507
 3309SOL    HW110826   1.193   4.969   3.436
 3309SOL    HW210827   1.085   4.983   3.558
 3310SOL     OW10828   0.821   4.638   2.803
 3310SOL    HW110829   0.738   4.658   2.855
 3310SOL    HW210830   0.799   4.573   2.730
 3311SOL     OW10831   3.998   6.559   1.116
 3311SOL    HW110832   4.020   6.518   1.205
 3311SOL    HW210833   4.011   6.492   1.044
 3312SOL     OW10834   3.060   3.999   5.832
 3312SOL    HW110835   2.989   4.057   5.874
 3312SOL    HW210836   3.136   4.056   5.803
 3313SOL     OW10837   1.123   5.213   3.622
 3313SOL    HW110838   1.167   5.184   3.708
 3313SOL    HW210839   1.187   5.268   3.569
 3314SOL     OW10840   1.768   3.368   5.014
 3314SOL    HW110841   1.673   3.354   4.987
 3314SOL    HW210842   1.775   3.454   5.065
 3315SOL     OW10843   6.902   2.433   3.570
 3315SOL    HW110844   6.987   2.420   3.621
 3315SOL    HW210845   6.824   2.413   3.629
 3316SOL     OW10846   4.621   2.111   6.061
 3316SOL    HW110847   4.569   2.040   6.109
 3316SOL    HW210848   4.559   2.165   6.004
 3317SOL     OW10849   4.496   2.872   1.701
 3317SOL    HW110850   4.536   2.909   1.785
 3317SOL    HW210851   4.441   2.943   1.657
 3318SOL     OW10852   2.925   5.869   5.556
 3318SOL    HW110853   2.928   5.931   5.634
 3318SOL    HW210854   2.930   5.774   5.588
 3319SOL     OW10855   0.627   6.468   4.363
 3319SOL    HW110856   0.622   6.522   4.280
 3319SOL    HW210857   0.642   6.372   4.340
 3320SOL     OW10858   5.891   0.937   5.207
 3320SOL    HW110859   5.881   1.029   5.171
 3320SOL    HW210860   5.916   0.942   5.304
 3321SOL     OW10861   3.807   2.997   3.052
 3321SOL    HW110862   3.772   2.951   2.971
 3321SOL    HW210863   3.731   3.021   3.112
 3322SOL     OW10864   3.833   2.184   0.953
 3322SOL    HW110865   3.843   2.125   0.872
 3322SOL    HW210866   3.740   2.176   0.989
 3323SOL     OW10867   2.264   4.308   6.839
 3323SOL    HW110868   2.219   4.236   6.892
 3323SOL    HW210869   2.359   4.315   6.868
 3324SOL     OW10870   0.882   3.573   0.471
 3324SOL    HW110871   0.909   3.638   0.543
 3324SOL    HW210872   0.925   3.599   0.385
 3325SOL     OW10873   1.334   2.496   0.609
 3325SOL    HW110874   1.388   2.555   0.669
 3325SOL    HW210875   1.375   2.405   0.607
 3326SOL     OW10876   6.810   1.722   1.240
 3326SOL    HW110877   6.803   1.821   1.254
 3326SOL    HW210878   6.742   1.694   1.172
 3327SOL     OW10879   2.952   6.905   2.181
 3327SOL    HW110880   2.927   6.838   2.251
 3327SOL    HW210881   2.932   6.869   2.090
 3328SOL     OW10882   5.062   1.025   2.339
 3328SOL    HW110883   5.078   1.121   2.360
 3328SOL    HW210884   4.964   1.010   2.326
 3329SOL     OW10885   4.043   0.800   5.478
 3329SOL    HW110886   3.966   0.754   5.521
 3329SOL    HW210887   4.015   0.837   5.389
 3330SOL     OW10888   5.942   6.756   2.047
 3330SOL    HW110889   5.970   6.723   1.957
 3330SOL    HW210890   5.897   6.682   2.097
 3331SOL     OW10891   2.115   3.545   3.247
 3331SOL    HW110892   2.165   3.616   3.297
 3331SOL    HW210893   2.137   3.455   3.286
 3332SOL     OW10894   4.239   5.436   0.370
 3332SOL    HW110895   4.278   5.523   0.340
 3332SOL    HW210896   4.286   5.405   0.453
 3333SOL     OW10897   3.200   3.579   1.608
 3333SOL    HW110898   3.125   3.643   1.593
 3333SOL    HW210899   3.201   3.549   1.703
 3334SOL     OW10900   2.045   2.208   2.493
 3334SOL    HW110901   2.071   2.156   2.411
 3334SOL    HW210902   1.994   2.289   2.466
 3335SOL     OW10903   3.651   4.426   5.422
 3335SOL    HW110904   3.602   4.513   5.426
 3335SOL    HW210905   3.625   4.377   5.338
 3336SOL     OW10906   3.921   6.796   4.066
 3336SOL    HW110907   3.988   6.841   4.125
 3336SOL    HW210908   3.851   6.753   4.123
 3337SOL     OW10909   3.501   3.826   2.746
 3337SOL    HW110910   3.573   3.821   2.815
 3337SOL    HW210911   3.413   3.804   2.789
 3338SOL     OW10912   1.990   1.515   1.070
 3338SOL    HW110913   2.064   1.524   1.136
 3338SOL    HW210914   2.023   1.538   0.978
 3339SOL     OW10915   2.298   0.745   5.525
 3339SOL    HW110916   2.260   0.659   5.558
 3339SOL    HW210917   2.320   0.804   5.603
 3340SOL     OW10918   4.228   1.192   4.178
 3340SOL    HW110919   4.327   1.205   4.168
 3340SOL    HW210920   4.204   1.098   4.155
 3341SOL     OW10921   2.497   4.883   2.515
 3341SOL    HW110922   2.441   4.934   2.580
 3341SOL    HW210923   2.481   4.917   2.422
 3342SOL     OW10924   6.236   0.365   2.863
 3342SOL    HW110925   6.177   0.412   2.928
 3342SOL    HW210926   6.182   0.335   2.784
 3343SOL     OW10927   4.662   5.377   6.471
 3343SOL    HW110928   4.671   5.290   6.424
 3343SOL    HW210929   4.569   5.388   6.505
 3344SOL     OW10930   0.394   3.159   1.837
 3344SOL    HW110931   0.448   3.088   1.881
 3344SOL    HW210932   0.340   3.207   1.906
 3345SOL     OW10933   0.740   4.385   0.970
 3345SOL    HW110934   0.805   4.349   0.902
 3345SOL    HW210935   0.660   4.423   0.922
 3346SOL     OW10936   2.342   0.896   6.833
 3346SOL    HW110937   2.363   0.866   6.740
 3346SOL    HW210938   2.344   0.818   6.895
 3347SOL     OW10939   0.648   3.359   6.323
 3347SOL    HW110940   0.700   3.312   6.394
 3347SOL    HW210941   0.710   3.415   6.268
 3348SOL     OW10942   3.970   3.808   6.210
 3348SOL    HW110943   4.007   3.764   6.292
 3348SOL    HW210944   4.015   3.771   6.129
 3349SOL     OW10945   2.615   4.731   3.669
 3349SOL    HW110946   2.522   4.700   3.648
 3349SOL    HW210947   2.642   4.696   3.759
 3350SOL     OW10948   0.367   4.030   5.641
 3350SOL    HW110949   0.317   4.043   5.727
 3350SOL    HW210950   0.303   4.034   5.564
 3351SOL     OW10951   5.280   0.755   0.655
 3351SOL    HW110952   5.217   0.813   0.706
 3351SOL    HW210953   5.229   0.689   0.600
 3352SOL     OW10954   5.427   2.645   6.681
 3352SOL    HW110955   5.398   2.558   6.642
 3352SOL    HW210956   5.414   2.644   6.780
 3353SOL     OW10957   2.259   0.753   1.655
 3353SOL    HW110958   2.341   0.811   1.645
 3353SOL    HW210959   2.284   0.669   1.703
 3354SOL     OW10960   4.016   2.780   5.859
 3354SOL    HW110961   3.962   2.864   5.860
 3354SOL    HW210962   4.085   2.784   5.932
 3355SOL     OW10963   2.067   1.229   4.851
 3355SOL    HW110964   1.991   1.274   4.899
 3355SOL    HW210965   2.069   1.260   4.756
 3356SOL     OW10966   1.623   6.654   5.562
 3356SOL    HW110967   1.615   6.619   5.656
 3356SOL    HW210968   1.694   6.603   5.514
 3357SOL     OW10969   3.162   3.292   2.299
 3357SOL    HW110970   3.231   3.358   2.270
 3357SOL    HW210971   3.071   3.326   2.275
 3358SOL     OW10972   6.391   1.127   2.741
 3358SOL    HW110973   6.360   1.071   2.665
 3358SOL    HW210974   6.316   1.139   2.807
 3359SOL     OW10975   6.835   5.674   4.153
 3359SOL    HW110976   6.848   5.598   4.090
 3359SOL    HW210977   6.923   5.701   4.192
 3360SOL     OW10978   0.099   2.825   5.785
 3360SOL    HW110979   0.013   2.789   5.823
 3360SOL    HW210980   0.100   2.924   5.794
 3361SOL     OW10981   0.344   0.707   4.596
 3361SOL    HW110982   0.269   0.770   4.616
 3361SOL    HW210983   0.427   0.738   4.644
 3362SOL     OW10984   3.775   2.025   3.681
 3362SOL    HW110985   3.758   2.069   3.592
 3362SOL    HW210986   3.838   2.082   3.734
 3363SOL     OW10987   5.731   3.386   1.047
 3363SOL    HW110988   5.801   3.448   1.083
 3363SOL    HW210989   5.697   3.327   1.120
 3364SOL     OW10990   2.458   4.577   2.921
 3364SOL    HW110991   2.390   4.648   2.940
 3364SOL    HW210992   2.414   4.500   2.874
 3365SOL     OW10993   1.927   3.318   4.767
 3365SOL    HW110994   1.895   3.367   4.686
 3365SOL    HW210995   1.859   3.325   4.839
 3366SOL     OW10996   6.451   3.316   4.463
 3366SOL    HW110997   6.483   3.225   4.489
 3366SOL    HW210998   6.509   3.351   4.389
 3367SOL     OW10999   3.375   3.480   4.469
 3367SOL    HW111000   3.298   3.489   4.532
 3367SOL    HW211001   3.434   3.405   4.498
 3368SOL     OW11002   1.743   6.034   6.659
 3368SOL    HW111003   1.771   5.967   6.590
 3368SOL    HW211004   1.776   6.005   6.749
 3369SOL     OW11005   4.487   2.160   1.221
 3369SOL    HW111006   4.513   2.202   1.307
 3369SOL    HW211007   4.522   2.215   1.145
 3370SOL     OW11008   0.339   5.655   1.785
 3370SOL    HW111009   0.278   5.588   1.743
 3370SOL    HW211010   0.434   5.623   1.778
 3371SOL     OW11011   2.173   3.096   3.181
 3371SOL    HW111012   2.194   3.024   3.246
 3371SOL    HW211013   2.149   3.180   3.229
 3372SOL     OW11014   6.292   2.947   1.318
 3372SOL    HW111015   6.299   2.953   1.417
 3372SOL    HW211016   6.359   3.008   1.276
 3373SOL     OW11017   0.148   2.150   1.693
 3373SOL    HW111018   0.059   2.152   1.738
 3373SOL    HW211019   0.177   2.055   1.681
 3374SOL     OW11020   0.955   0.243   3.639
 3374SOL    HW111021   0.991   0.169   3.583
 3374SOL    HW211022   1.030   0.286   3.690
 3375SOL     OW11023   6.900   5.090   6.736
 3375SOL    HW111024   6.923   5.009   6.683
 3375SOL    HW211025   6.985   5.136   6.763
 3376SOL     OW11026   2.290   3.594   5.589
 3376SOL    HW111027   2.335   3.526   5.530
 3376SOL    HW211028   2.224   3.548   5.647
 3377SOL     OW11029   5.935   4.785   3.390
 3377SOL    HW111030   5.996   4.819   3.319
 3377SOL    HW211031   5.840   4.796   3.360
 3378SOL     OW11032   1.585   6.530   6.697
 3378SOL    HW111033   1.639   6.613   6.681
 3378SOL    HW211034   1.604   6.463   6.625
 3379SOL     OW11035   0.858   3.729   4.267
 3379SOL    HW111036   0.901   3.662   4.328
 3379SOL    HW211037   0.908   3.816   4.273
 3380SOL     OW11038   3.994   4.037   5.844
 3380SOL    HW111039   4.088   4.040   5.878
 3380SOL    HW211040   3.955   4.130   5.845
 3381SOL     OW11041   1.548   3.037   1.299
 3381SOL    HW111042   1.507   3.072   1.215
 3381SOL    HW211043   1.639   3.076   1.311
 3382SOL     OW11044   6.962   2.503   0.981
 3382SOL    HW111045   6.927   2.422   0.934
 3382SOL    HW211046   6.962   2.487   1.080
 3383SOL     OW11047   4.333   5.065   6.794
 3383SOL    HW111048   4.392   5.133   6.837
 3383SOL    HW211049   4.261   5.112   6.742
 3384SOL     OW11050   3.260   4.146   0.860
 3384SOL    HW111051   3.337   4.084   0.870
 3384SOL    HW211052   3.192   4.127   0.930
 3385SOL     OW11053   0.365   2.327   3.007
 3385SOL    HW111054   0.363   2.229   2.987
 3385SOL    HW211055   0.439   2.346   3.072
 3386SOL     OW11056   6.672   4.711   6.854
 3386SOL    HW111057   6.574   4.724   6.867
 3386SOL    HW211058   6.717   4.703   6.943
 3387SOL     OW11059   6.333   0.625   3.111
 3387SOL    HW111060   6.413   0.685   3.105
 3387SOL    HW211061   6.330   0.582   3.201
 3388SOL     OW11062   5.773   3.215   1.482
 3388SOL    HW111063   5.736   3.308   1.480
 3388SOL    HW211064   5.817   3.199   1.570
 3389SOL     OW11065   6.020   6.045   0.828
 3389SOL    HW111066   6.021   6.030   0.927
 3389SOL    HW211067   5.943   6.103   0.804
 3390SOL     OW11068   3.969   6.790   6.109
 3390SOL    HW111069   3.987   6.888   6.102
 3390SOL    HW211070   3.870   6.775   6.103
 3391SOL     OW11071   5.879   3.163   3.383
 3391SOL    HW111072   5.864   3.262   3.390
 3391SOL    HW211073   5.896   3.126   3.474
 3392SOL     OW11074   4.236   0.094   5.620
 3392SOL    HW111075   4.244   0.013   5.562
 3392SOL    HW211076   4.252   0.176   5.564
 3393SOL     OW11077   4.984   6.920   1.305
 3393SOL    HW111078   4.886   6.920   1.326
 3393SOL    HW211079   5.027   6.840   1.346
 3394SOL     OW11080   3.203   5.373   1.520
 3394SOL    HW111081   3.153   5.456   1.499
 3394SOL    HW211082   3.180   5.342   1.612
 3395SOL     OW11083   3.962   0.256   3.143
 3395SOL    HW111084   3.956   0.347   3.104
 3395SOL    HW211085   4.046   0.248   3.197
 3396SOL     OW11086   4.621   2.148   3.891
 3396SOL    HW111087   4.568   2.078   3.939
 3396SOL    HW211088   4.697   2.178   3.950
 3397SOL     OW11089   2.321   5.574   6.634
 3397SOL    HW111090   2.228   5.580   6.595
 3397SOL    HW211091   2.364   5.490   6.602
 3398SOL     OW11092   6.791   2.076   5.195
 3398SOL    HW111093   6.806   1.996   5.137
 3398SOL    HW211094   6.761   2.153   5.139
 3399SOL     OW11095   0.310   4.828   3.470
 3399SOL    HW111096   0.303   4.927   3.475
 3399SOL    HW211097   0.257   4.787   3.545
 3400SOL     OW11098   5.628   1.998   5.416
 3400SOL    HW111099   5.556   2.066   5.431
 3400SOL    HW211100   5.595   1.929   5.351
 3401SOL     OW11101   6.602   3.856   5.937
 3401SOL    HW111102   6.563   3.789   5.874
 3401SOL    HW211103   6.689   3.889   5.901
 3402SOL     OW11104   0.024   5.154   1.254
 3402SOL    HW111105   0.075   5.125   1.335
 3402SOL    HW211106   6.979   5.214   1.282
 3403SOL     OW11107   4.735   6.613   6.670
 3403SOL    HW111108   4.770   6.683   6.608
 3403SOL    HW211109   4.646   6.640   6.705
 3404SOL     OW11110   5.181   3.237   5.272
 3404SOL    HW111111   5.250   3.181   5.317
 3404SOL    HW211112   5.217   3.329   5.258
 3405SOL     OW11113   5.199   6.310   5.683
 3405SOL    HW111114   5.241   6.328   5.594
 3405SOL    HW211115   5.268   6.277   5.747
 3406SOL     OW11116   2.192   3.834   2.103
 3406SOL    HW111117   2.186   3.916   2.047
 3406SOL    HW211118   2.191   3.753   2.044
 3407SOL     OW11119   1.885   3.747   0.228
 3407SOL    HW111120   1.894   3.846   0.226
 3407SOL    HW211121   1.931   3.711   0.309
 3408SOL     OW11122   5.025   2.176   3.617
 3408SOL    HW111123   4.994   2.095   3.668
 3408SOL    HW211124   4.987   2.173   3.524
 3409SOL     OW11125   4.438   0.918   0.486
 3409SOL    HW111126   4.415   1.008   0.522
 3409SOL    HW211127   4.357   0.860   0.485
 3410SOL     OW11128   5.504   6.902   2.041
 3410SOL    HW111129   5.448   6.950   2.109
 3410SOL    HW211130   5.503   6.804   2.060
 3411SOL     OW11131   6.573   1.905   0.612
 3411SOL    HW111132   6.502   1.874   0.675
 3411SOL    HW211133   6.643   1.955   0.663
 3412SOL     OW11134   5.195   2.992   1.553
 3412SOL    HW111135   5.295   2.989   1.553
 3412SOL    HW211136   5.164   3.086   1.539
 3413SOL     OW11137   0.071   2.314   6.228
 3413SOL    HW111138   0.064   2.400   6.178
 3413SOL    HW211139   0.145   2.321   6.296
 3414SOL     OW11140   4.012   3.032   0.939
 3414SOL    HW111141   4.044   3.090   0.865
 3414SOL    HW211142   3.983   2.944   0.902
 3415SOL     OW11143   2.476   2.605   4.563
 3415SOL    HW111144   2.529   2.604   4.647
 3415SOL    HW211145   2.397   2.666   4.575
 3416SOL     OW11146   6.315   6.740   6.817
 3416SOL    HW111147   6.267   6.659   6.782
 3416SOL    HW211148   6.371   6.780   6.744
 3417SOL     OW11149   6.715   0.167   3.034
 3417SOL    HW111150   6.810   0.183   3.060
 3417SOL    HW211151   6.673   0.105   3.100
 3418SOL     OW11152   4.717   4.933   2.258
 3418SOL    HW111153   4.632   4.887   2.286
 3418SOL    HW211154   4.742   5.001   2.326
 3419SOL     OW11155   2.952   5.757   6.356
 3419SOL    HW111156   2.991   5.849   6.355
 3419SOL    HW211157   2.986   5.708   6.436
 3420SOL     OW11158   4.677   2.555   3.758
 3420SOL    HW111159   4.766   2.541   3.802
 3420SOL    HW211160   4.613   2.485   3.790
 3421SOL     OW11161   5.920   2.175   3.629
 3421SOL    HW111162   5.935   2.138   3.538
 3421SOL    HW211163   5.985   2.135   3.693
 3422SOL     OW11164   2.203   6.670   1.142
 3422SOL    HW111165   2.132   6.604   1.120
 3422SOL    HW211166   2.245   6.703   1.057
 3423SOL     OW11167   0.987   4.395   5.579
 3423SOL    HW111168   0.921   4.470   5.573
 3423SOL    HW211169   0.941   4.313   5.612
 3424SOL     OW11170   4.654   0.120   1.484
 3424SOL    HW111171   4.694   0.207   1.456
 3424SOL    HW211172   4.722   0.067   1.535
 3425SOL     OW11173   5.559   4.418   1.239
 3425SOL    HW111174   5.654   4.393   1.221
 3425SOL    HW211175   5.551   4.451   1.334
 3426SOL     OW11176   5.413   3.740   0.358
 3426SOL    HW111177   5.470   3.815   0.393
 3426SOL    HW211178   5.388   3.759   0.263
 3427SOL     OW11179   1.310   1.933   0.620
 3427SOL    HW111180   1.388   1.942   0.559
 3427SOL    HW211181   1.263   1.847   0.601
 3428SOL     OW11182   5.140   5.962   5.480
 3428SOL    HW111183   5.108   5.889   5.421
 3428SOL    HW211184   5.095   5.956   5.569
 3429SOL     OW11185   7.002   0.325   1.263
 3429SOL    HW111186   7.026   0.359   1.354
 3429SOL    HW211187   0.054   0.325   1.204
 3430SOL     OW11188   2.270   4.659   5.647
 3430SOL    HW111189   2.348   4.602   5.619
 3430SOL    HW211190   2.221   4.613   5.721
 3431SOL     OW11191   2.551   5.824   2.798
 3431SOL    HW111192   2.572   5.733   2.833
 3431SOL    HW211193   2.551   5.821   2.698
 3432SOL     OW11194   2.546   4.212   0.400
 3432SOL    HW111195   2.636   4.256   0.401
 3432SOL    HW211196   2.552   4.124   0.448
 3433SOL     OW11197   2.478   1.445   6.138
 3433SOL    HW111198   2.436   1.446   6.047
 3433SOL    HW211199   2.418   1.397   6.202
 3434SOL     OW11200   2.966   2.136   1.582
 3434SOL    HW111201   3.026   2.057   1.594
 3434SOL    HW211202   3.018   2.220   1.595
 3435SOL     OW11203   2.015   0.481   0.485
 3435SOL    HW111204   1.940   0.546   0.475
 3435SOL    HW211205   2.091   0.524   0.533
 3436SOL     OW11206   3.565   5.647   1.157
 3436SOL    HW111207   3.636   5.615   1.095
 3436SOL    HW211208   3.542   5.742   1.134
 3437SOL     OW11209   1.433   6.542   6.205
 3437SOL    HW111210   1.356   6.573   6.148
 3437SOL    HW211211   1.398   6.484   6.278
 3438SOL     OW11212   1.200   3.961   1.046
 3438SOL    HW111213   1.272   4.002   0.990
 3438SOL    HW211214   1.111   3.979   1.005
 3439SOL     OW11215   2.222   5.764   2.921
 3439SOL    HW111216   2.279   5.830   2.971
 3439SOL    HW211217   2.179   5.810   2.843
 3440SOL     OW11218   3.906   3.520   4.272
 3440SOL    HW111219   3.989   3.471   4.247
 3440SOL    HW211220   3.921   3.618   4.259
 3441SOL     OW11221   5.396   5.652   5.975
 3441SOL    HW111222   5.383   5.700   5.888
 3441SOL    HW211223   5.484   5.604   5.973
 3442SOL     OW11224   3.279   2.870   1.661
 3442SOL    HW111225   3.353   2.931   1.687
 3442SOL    HW211226   3.243   2.897   1.571
 3443SOL     OW11227   2.419   5.875   2.483
 3443SOL    HW111228   2.507   5.852   2.440
 3443SOL    HW211229   2.378   5.953   2.436
 3444SOL     OW11230   5.636   4.174   1.497
 3444SOL    HW111231   5.578   4.212   1.424
 3444SOL    HW211232   5.724   4.222   1.498
 3445SOL     OW11233   6.192   4.722   3.945
 3445SOL    HW111234   6.246   4.765   4.017
 3445SOL    HW211235   6.210   4.768   3.858
 3446SOL     OW11236   5.074   1.044   1.338
 3446SOL    HW111237   5.164   1.064   1.375
 3446SOL    HW211238   5.008   1.112   1.370
 3447SOL     OW11239   4.947   1.140   0.492
 3447SOL    HW111240   4.964   1.237   0.513
 3447SOL    HW211241   4.864   1.110   0.539
 3448SOL     OW11242   1.673   6.318   4.884
 3448SOL    HW111243   1.707   6.408   4.856
 3448SOL    HW211244   1.599   6.290   4.824
 3449SOL     OW11245   6.698   4.366   5.329
 3449SOL    HW111246   6.639   4.338   5.253
 3449SOL    HW211247   6.749   4.286   5.361
 3450SOL     OW11248   1.483   6.717   0.108
 3450SOL    HW111249   1.514   6.704   0.014
 3450SOL    HW211250   1.543   6.666   0.170
 3451SOL     OW11251   1.979   5.971   0.240
 3451SOL    HW111252   2.003   6.023   0.322
 3451SOL    HW211253   2.012   6.020   0.159
 3452SOL     OW11254   5.093   0.443   5.619
 3452SOL    HW111255   5.094   0.344   5.628
 3452SOL    HW211256   5.114   0.468   5.525
 3453SOL     OW11257   4.816   6.436   5.529
 3453SOL    HW111258   4.808   6.531   5.561
 3453SOL    HW211259   4.884   6.431   5.456
 3454SOL     OW11260   0.935   2.128   2.406
 3454SOL    HW111261   0.984   2.130   2.493
 3454SOL    HW211262   0.939   2.036   2.367
 3455SOL     OW11263   1.562   3.337   5.451
 3455SOL    HW111264   1.481   3.376   5.408
 3455SOL    HW211265   1.600   3.403   5.516
 3456SOL     OW11266   5.028   4.543   2.502
 3456SOL    HW111267   4.986   4.560   2.413
 3456SOL    HW211268   4.994   4.456   2.539
 3457SOL     OW11269   3.905   5.624   5.341
 3457SOL    HW111270   3.885   5.721   5.353
 3457SOL    HW211271   4.002   5.613   5.318
 3458SOL     OW11272   4.404   1.862   3.054
 3458SOL    HW111273   4.470   1.816   2.994
 3458SOL    HW211274   4.377   1.799   3.128
 3459SOL     OW11275   4.240   0.606   3.322
 3459SOL    HW111276   4.262   0.547   3.244
 3459SOL    HW211277   4.185   0.683   3.290
 3460SOL     OW11278   3.826   1.887   5.882
 3460SOL    HW111279   3.747   1.893   5.821
 3460SOL    HW211280   3.825   1.965   5.945
 3461SOL     OW11281   5.266   4.669   6.672
 3461SOL    HW111282   5.285   4.693   6.577
 3461SOL    HW211283   5.352   4.659   6.721
 3462SOL     OW11284   2.559   3.239   6.572
 3462SOL    HW111285   2.475   3.288   6.593
 3462SOL    HW211286   2.619   3.297   6.517
 3463SOL     OW11287   6.278   4.239   1.269
 3463SOL    HW111288   6.336   4.317   1.294
 3463SOL    HW211289   6.310   4.157   1.317
 3464SOL     OW11290   0.080   4.946   6.153
 3464SOL    HW111291   0.153   4.909   6.096
 3464SOL    HW211292   7.021   4.925   6.112
 3465SOL     OW11293   1.867   0.326   1.876
 3465SOL    HW111294   1.937   0.338   1.806
 3465SOL    HW211295   1.780   0.304   1.832
 3466SOL     OW11296   6.486   4.018   5.126
 3466SOL    HW111297   6.417   3.965   5.174
 3466SOL    HW211298   6.517   3.968   5.045
 3467SOL     OW11299   1.816   2.393   6.419
 3467SOL    HW111300   1.904   2.424   6.384
 3467SOL    HW211301   1.745   2.410   6.351
 3468SOL     OW11302   3.405   0.174   4.152
 3468SOL    HW111303   3.449   0.086   4.136
 3468SOL    HW211304   3.465   0.247   4.118
 3469SOL     OW11305   5.939   2.413   3.374
 3469SOL    HW111306   5.856   2.374   3.413
 3469SOL    HW211307   6.018   2.357   3.401
 3470SOL     OW11308   0.436   5.707   0.738
 3470SOL    HW111309   0.472   5.783   0.792
 3470SOL    HW211310   0.503   5.681   0.669
 3471SOL     OW11311   3.990   5.928   4.787
 3471SOL    HW111312   4.084   5.905   4.813
 3471SOL    HW211313   3.930   5.921   4.867
 3472SOL     OW11314   3.185   0.639   4.658
 3472SOL    HW111315   3.098   0.589   4.649
 3472SOL    HW211316   3.188   0.713   4.591
 3473SOL     OW11317   5.878   0.826   6.182
 3473SOL    HW111318   5.905   0.765   6.257
 3473SOL    HW211319   5.817   0.777   6.120
 3474SOL     OW11320   3.894   5.168   1.870
 3474SOL    HW111321   3.854   5.083   1.904
 3474SOL    HW211322   3.958   5.147   1.796
 3475SOL     OW11323   1.406   5.570   4.167
 3475SOL    HW111324   1.402   5.622   4.252
 3475SOL    HW211325   1.488   5.597   4.116
 3476SOL     OW11326   4.355   0.542   4.358
 3476SOL    HW111327   4.352   0.546   4.258
 3476SOL    HW211328   4.442   0.505   4.388
 3477SOL     OW11329   3.806   6.254   1.286
 3477SOL    HW111330   3.806   6.156   1.265
 3477SOL    HW211331   3.888   6.277   1.338
 3478SOL     OW11332   3.782   5.280   6.535
 3478SOL    HW111333   3.753   5.319   6.448
 3478SOL    HW211334   3.858   5.333   6.572
 3479SOL     OW11335   0.816   0.466   1.491
 3479SOL    HW111336   0.907   0.424   1.491
 3479SOL    HW211337   0.754   0.410   1.547
 3480SOL     OW11338   0.310   1.117   3.252
 3480SOL    HW111339   0.213   1.110   3.279
 3480SOL    HW211340   0.367   1.113   3.334
 3481SOL     OW11341   2.439   6.801   6.619
 3481SOL    HW111342   2.448   6.779   6.716
 3481SOL    HW211343   2.411   6.896   6.609
 3482SOL     OW11344   0.012   2.189   0.957
 3482SOL    HW111345   6.993   2.128   0.894
 3482SOL    HW211346   0.074   2.248   0.904
 3483SOL     OW11347   1.985   0.398   1.310
 3483SOL    HW111348   1.937   0.459   1.247
 3483SOL    HW211349   2.052   0.450   1.363
 3484SOL     OW11350   3.704   2.911   3.791
 3484SOL    HW111351   3.680   3.008   3.790
 3484SOL    HW211352   3.667   2.867   3.873
 3485SOL     OW11353   1.207   3.142   5.333
 3485SOL    HW111354   1.219   3.044   5.352
 3485SOL    HW211355   1.218   3.158   5.235
 3486SOL     OW11356   4.597   1.866   1.750
 3486SOL    HW111357   4.620   1.906   1.662
 3486SOL    HW211358   4.517   1.913   1.788
 3487SOL     OW11359   5.957   1.769   6.371
 3487SOL    HW111360   5.915   1.731   6.453
 3487SOL    HW211361   6.014   1.847   6.395
 3488SOL     OW11362   5.932   3.475   3.634
 3488SOL    HW111363   6.009   3.422   3.600
 3488SOL    HW211364   5.857   3.472   3.567
 3489SOL     OW11365   3.549   0.326   1.335
 3489SOL    HW111366   3.480   0.333   1.407
 3489SOL    HW211367   3.506   0.339   1.246
 3490SOL     OW11368   4.466   3.666   0.272
 3490SOL    HW111369   4.562   3.678   0.297
 3490SOL    HW211370   4.449   3.571   0.247
 3491SOL     OW11371   0.223   3.310   5.603
 3491SOL    HW111372   0.287   3.387   5.606
 3491SOL    HW211373   0.206   3.285   5.508
 3492SOL     OW11374   0.101   4.585   6.645
 3492SOL    HW111375   0.020   4.526   6.646
 3492SOL    HW211376   0.159   4.563   6.723
 3493SOL     OW11377   6.729   4.541   1.045
 3493SOL    HW111378   6.678   4.618   1.084
 3493SOL    HW211379   6.666   4.469   1.017
 3494SOL     OW11380   3.293   0.256   1.478
 3494SOL    HW111381   3.277   0.276   1.575
 3494SOL    HW211382   3.212   0.282   1.425
 3495SOL     OW11383   4.556   5.166   1.624
 3495SOL    HW111384   4.503   5.089   1.590
 3495SOL    HW211385   4.527   5.250   1.577
 3496SOL     OW11386   1.912   2.702   0.499
 3496SOL    HW111387   1.872   2.628   0.445
 3496SOL    HW211388   1.978   2.752   0.442
 3497SOL     OW11389   4.458   0.546   3.846
 3497SOL    HW111390   4.408   0.511   3.925
 3497SOL    HW211391   4.510   0.627   3.873
 3498SOL     OW11392   2.532   1.580   1.596
 3498SOL    HW111393   2.536   1.604   1.693
 3498SOL    HW211394   2.471   1.643   1.549
 3499SOL     OW11395   6.782   2.828   4.911
 3499SOL    HW111396   6.769   2.791   5.003
 3499SOL    HW211397   6.737   2.768   4.844
 3500SOL     OW11398   6.387   4.699   6.785
 3500SOL    HW111399   6.386   4.599   6.776
 3500SOL    HW211400   6.389   4.740   6.694
 3501SOL     OW11401   1.934   4.609   4.768
 3501SOL    HW111402   2.003   4.677   4.795
 3501SOL    HW211403   1.940   4.529   4.828
 3502SOL     OW11404   0.776   1.939   0.862
 3502SOL    HW111405   0.753   1.915   0.767
 3502SOL    HW211406   0.713   2.009   0.894
 3503SOL     OW11407   5.015   5.690   5.555
 3503SOL    HW111408   5.049   5.699   5.462
 3503SOL    HW211409   5.078   5.633   5.608
 3504SOL     OW11410   2.593   3.294   1.438
 3504SOL    HW111411   2.566   3.231   1.511
 3504SOL    HW211412   2.551   3.383   1.453
 3505SOL     OW11413   5.375   5.773   5.720
 3505SOL    HW111414   5.426   5.713   5.658
 3505SOL    HW211415   5.413   5.865   5.718
 3506SOL     OW11416   4.782   5.309   3.401
 3506SOL    HW111417   4.832   5.223   3.392
 3506SOL    HW211418   4.722   5.321   3.322
 3507SOL     OW11419   1.038   0.091   6.468
 3507SOL    HW111420   1.111   0.158   6.453
 3507SOL    HW211421   1.037   0.063   6.564
 3508SOL     OW11422   5.321   3.757   0.088
 3508SOL    HW111423   5.304   3.846   0.045
 3508SOL    HW211424   5.275   3.685   0.035
 3509SOL     OW11425   6.572   6.162   6.654
 3509SOL    HW111426   6.559   6.069   6.690
 3509SOL    HW211427   6.555   6.228   6.727
 3510SOL     OW11428   2.227   2.142   1.911
 3510SOL    HW111429   2.165   2.207   1.955
 3510SOL    HW211430   2.294   2.193   1.857
 3511SOL     OW11431   0.387   3.012   6.935
 3511SOL    HW111432   0.438   2.959   6.867
 3511SOL    HW211433   0.299   3.041   6.896
 3512SOL     OW11434   2.579   2.753   0.600
 3512SOL    HW111435   2.616   2.667   0.565
 3512SOL    HW211436   2.651   2.801   0.651
 3513SOL     OW11437   6.326   3.990   1.383
 3513SOL    HW111438   6.421   3.972   1.357
 3513SOL    HW211439   6.313   3.972   1.480
 3514SOL     OW11440   0.835   6.602   1.159
 3514SOL    HW111441   0.801   6.594   1.065
 3514SOL    HW211442   0.810   6.692   1.195
 3515SOL     OW11443   2.890   6.331   3.288
 3515SOL    HW111444   2.937   6.251   3.325
 3515SOL    HW211445   2.817   6.359   3.350
 3516SOL     OW11446   3.039   1.105   0.662
 3516SOL    HW111447   2.946   1.109   0.627
 3516SOL    HW211448   3.038   1.105   0.762
 3517SOL     OW11449   0.874   1.482   6.556
 3517SOL    HW111450   0.793   1.477   6.498
 3517SOL    HW211451   0.884   1.576   6.590
 3518SOL     OW11452   4.548   3.377   6.024
 3518SOL    HW111453   4.491   3.459   6.017
 3518SOL    HW211454   4.594   3.377   6.113
 3519SOL     OW11455   2.256   6.689   6.432
 3519SOL    HW111456   2.230   6.766   6.373
 3519SOL    HW211457   2.314   6.722   6.506
 3520SOL     OW11458   3.728   5.572   0.956
 3520SOL    HW111459   3.760   5.477   0.949
 3520SOL    HW211460   3.738   5.616   0.867
 3521SOL     OW11461   5.626   2.025   1.587
 3521SOL    HW111462   5.564   1.967   1.535
 3521SOL    HW211463   5.662   2.097   1.527
 3522SOL     OW11464   3.392   5.166   2.582
 3522SOL    HW111465   3.435   5.082   2.550
 3522SOL    HW211466   3.332   5.146   2.660
 3523SOL     OW11467   2.912   4.838   4.804
 3523SOL    HW111468   2.894   4.760   4.865
 3523SOL    HW211469   2.829   4.861   4.754
 3524SOL     OW11470   2.817   0.009   0.685
 3524SOL    HW111471   2.782   0.045   0.598
 3524SOL    HW211472   2.829   0.085   0.750
 3525SOL     OW11473   0.606   3.048   2.282
 3525SOL    HW111474   0.611   3.020   2.378
 3525SOL    HW211475   0.662   2.986   2.226
 3526SOL     OW11476   1.191   0.631   2.670
 3526SOL    HW111477   1.099   0.671   2.671
 3526SOL    HW211478   1.198   0.566   2.595
 3527SOL     OW11479   5.433   3.095   6.373
 3527SOL    HW111480   5.422   3.065   6.278
 3527SOL    HW211481   5.458   3.191   6.375
 3528SOL     OW11482   0.390   6.418   3.384
 3528SOL    HW111483   0.485   6.437   3.359
 3528SOL    HW211484   0.379   6.424   3.483
 3529SOL     OW11485   4.312   6.769   5.651
 3529SOL    HW111486   4.253   6.796   5.727
 3529SOL    HW211487   4.407   6.766   5.683
 3530SOL     OW11488   2.747   5.472   2.647
 3530SOL    HW111489   2.774   5.396   2.705
 3530SOL    HW211490   2.827   5.526   2.622
 3531SOL     OW11491   6.272   4.706   0.692
 3531SOL    HW111492   6.292   4.616   0.654
 3531SOL    HW211493   6.196   4.698   0.756
 3532SOL     OW11494   2.550   0.309   6.689
 3532SOL    HW111495   2.505   0.221   6.702
 3532SOL    HW211496   2.644   0.304   6.722
 3533SOL     OW11497   1.203   1.513   3.379
 3533SOL    HW111498   1.184   1.415   3.379
 3533SOL    HW211499   1.231   1.543   3.288
 3534SOL     OW11500   5.100   1.202   4.831
 3534SOL    HW111501   5.051   1.190   4.917
 3534SOL    HW211502   5.162   1.124   4.818
 3535SOL     OW11503   5.675   5.262   6.289
 3535SOL    HW111504   5.682   5.181   6.231
 3535SOL    HW211505   5.592   5.312   6.264
 3536SOL     OW11506   1.761   3.390   3.320
 3536SOL    HW111507   1.788   3.341   3.237
 3536SOL    HW211508   1.741   3.486   3.296
 3537SOL     OW11509   2.017   5.757   0.870
 3537SOL    HW111510   2.096   5.699   0.851
 3537SOL    HW211511   2.014   5.779   0.967
 3538SOL     OW11512   2.645   0.426   3.265
 3538SOL    HW111513   2.595   0.355   3.216
 3538SOL    HW211514   2.676   0.495   3.200
 3539SOL     OW11515   5.028   4.788   6.562
 3539SOL    HW111516   4.939   4.775   6.604
 3539SOL    HW211517   5.094   4.725   6.603
 3540SOL     OW11518   3.166   3.406   6.719
 3540SOL    HW111519   3.196   3.311   6.723
 3540SOL    HW211520   3.085   3.412   6.659
 3541SOL     OW11521   2.987   2.366   1.074
 3541SOL    HW111522   2.948   2.352   1.165
 3541SOL    HW211523   2.928   2.323   1.006
 3542SOL     OW11524   5.484   2.194   5.973
 3542SOL    HW111525   5.550   2.230   6.040
 3542SOL    HW211526   5.533   2.148   5.899
 3543SOL     OW11527   1.989   2.623   3.102
 3543SOL    HW111528   2.063   2.690   3.095
 3543SOL    HW211529   2.004   2.565   3.181
 3544SOL     OW11530   2.808   4.348   6.218
 3544SOL    HW111531   2.717   4.383   6.242
 3544SOL    HW211532   2.877   4.388   6.278
 3545SOL     OW11533   3.422   7.012   1.385
 3545SOL    HW111534   3.358   6.989   1.312
 3545SOL    HW211535   3.395   0.068   1.428
 3546SOL     OW11536   6.565   3.704   3.113
 3546SOL    HW111537   6.632   3.777   3.126
 3546SOL    HW211538   6.527   3.676   3.201
 3547SOL     OW11539   0.006   3.483   5.615
 3547SOL    HW111540   6.969   3.481   5.690
 3547SOL    HW211541   0.050   3.394   5.608
 3548SOL     OW11542   5.505   1.161   5.568
 3548SOL    HW111543   5.423   1.124   5.524
 3548SOL    HW211544   5.551   1.088   5.619
 3549SOL     OW11545   2.765   5.452   6.816
 3549SOL    HW111546   2.738   5.457   6.912
 3549SOL    HW211547   2.697   5.501   6.761
 3550SOL     OW11548   5.003   1.408   5.147
 3550SOL    HW111549   5.034   1.498   5.177
 3550SOL    HW211550   5.044   1.338   5.205
 3551SOL     OW11551   4.152   2.050   4.843
 3551SOL    HW111552   4.061   2.040   4.802
 3551SOL    HW211553   4.201   2.125   4.798
 3552SOL     OW11554   0.098   6.188   2.574
 3552SOL    HW111555   0.198   6.181   2.573
 3552SOL    HW211556   0.068   6.223   2.663
 3553SOL     OW11557   4.008   5.052   6.269
 3553SOL    HW111558   3.992   5.084   6.362
 3553SOL    HW211559   3.921   5.030   6.226
 3554SOL     OW11560   4.353   3.559   1.724
 3554SOL    HW111561   4.266   3.516   1.699
 3554SOL    HW211562   4.335   3.642   1.777
 3555SOL     OW11563   2.325   2.348   4.027
 3555SOL    HW111564   2.349   2.272   4.088
 3555SOL    HW211565   2.399   2.415   4.027
 3556SOL     OW11566   4.315   1.096   5.622
 3556SOL    HW111567   4.311   1.097   5.722
 3556SOL    HW211568   4.334   1.003   5.591
 3557SOL     OW11569   6.654   1.671   1.549
 3557SOL    HW111570   6.566   1.653   1.593
 3557SOL    HW211571   6.644   1.658   1.450
 3558SOL     OW11572   3.199   6.972   1.253
 3558SOL    HW111573   3.160   6.984   1.162
 3558SOL    HW211574   3.125   6.961   1.320
 3559SOL     OW11575   4.397   6.636   4.588
 3559SOL    HW111576   4.357   6.569   4.526
 3559SOL    HW211577   4.349   6.723   4.578
 3560SOL     OW11578   1.726   5.856   4.973
 3560SOL    HW111579   1.796   5.784   4.968
 3560SOL    HW211580   1.643   5.825   4.928
 3561SOL     OW11581   5.081   4.278   5.194
 3561SOL    HW111582   5.153   4.209   5.191
 3561SOL    HW211583   5.122   4.368   5.210
 3562SOL     OW11584   2.490   1.603   5.148
 3562SOL    HW111585   2.578   1.602   5.194
 3562SOL    HW211586   2.431   1.673   5.190
 3563SOL     OW11587   5.677   2.359   5.715
 3563SOL    HW111588   5.767   2.397   5.698
 3563SOL    HW211589   5.662   2.279   5.657
 3564SOL     OW11590   7.004   4.603   2.561
 3564SOL    HW111591   7.015   4.701   2.577
 3564SOL    HW211592   6.906   4.581   2.556
 3565SOL     OW11593   3.445   6.079   3.524
 3565SOL    HW111594   3.533   6.058   3.481
 3565SOL    HW211595   3.383   6.002   3.512
 3566SOL     OW11596   6.925   1.287   5.453
 3566SOL    HW111597   6.827   1.267   5.461
 3566SOL    HW211598   6.937   1.369   5.398
 3567SOL     OW11599   0.268   4.535   6.850
 3567SOL    HW111600   0.267   4.435   6.855
 3567SOL    HW211601   0.362   4.568   6.857
 3568SOL     OW11602   6.050   3.766   6.366
 3568SOL    HW111603   6.134   3.791   6.318
 3568SOL    HW211604   6.070   3.695   6.434
 3569SOL     OW11605   2.484   2.422   5.260
 3569SOL    HW111606   2.565   2.381   5.219
 3569SOL    HW211607   2.511   2.487   5.331
 3570SOL     OW11608   6.475   1.435   4.200
 3570SOL    HW111609   6.573   1.416   4.187
 3570SOL    HW211610   6.438   1.373   4.269
 3571SOL     OW11611   6.228   5.822   6.400
 3571SOL    HW111612   6.178   5.744   6.436
 3571SOL    HW211613   6.316   5.792   6.365
 3572SOL     OW11614   5.594   3.864   4.554
 3572SOL    HW111615   5.677   3.849   4.606
 3572SOL    HW211616   5.608   3.938   4.488
 3573SOL     OW11617   1.437   3.723   3.373
 3573SOL    HW111618   1.470   3.712   3.467
 3573SOL    HW211619   1.489   3.796   3.328
 3574SOL     OW11620   0.153   4.130   0.410
 3574SOL    HW111621   0.202   4.213   0.384
 3574SOL    HW211622   0.157   4.118   0.509
 3575SOL     OW11623   6.297   5.413   2.794
 3575SOL    HW111624   6.212   5.372   2.761
 3575SOL    HW211625   6.277   5.472   2.872
 3576SOL     OW11626   0.260   1.566   6.218
 3576SOL    HW111627   0.251   1.602   6.311
 3576SOL    HW211628   0.211   1.625   6.154
 3577SOL     OW11629   0.837   2.719   6.350
 3577SOL    HW111630   0.903   2.793   6.364
 3577SOL    HW211631   0.883   2.631   6.358
 3578SOL     OW11632   3.228   4.340   6.730
 3578SOL    HW111633   3.170   4.259   6.736
 3578SOL    HW211634   3.308   4.329   6.789
 3579SOL     OW11635   6.934   3.275   4.712
 3579SOL    HW111636   6.945   3.248   4.616
 3579SOL    HW211637   7.015   3.247   4.763
 3580SOL     OW11638   6.306   1.722   2.041
 3580SOL    HW111639   6.274   1.790   1.975
 3580SOL    HW211640   6.306   1.762   2.133
 3581SOL     OW11641   6.915   0.420   2.248
 3581SOL    HW111642   6.876   0.498   2.197
 3581SOL    HW211643   6.842   0.356   2.272
 3582SOL     OW11644   0.708   0.500   5.994
 3582SOL    HW111645   0.706   0.599   6.006
 3582SOL    HW211646   0.775   0.461   6.058
 3583SOL     OW11647   1.166   4.530   0.075
 3583SOL    HW111648   1.247   4.541   0.134
 3583SOL    HW211649   1.090   4.496   0.129
 3584SOL     OW11650   5.462   6.343   6.334
 3584SOL    HW111651   5.423   6.280   6.401
 3584SOL    HW211652   5.521   6.293   6.271
 3585SOL     OW11653   3.774   4.908   4.631
 3585SOL    HW111654   3.770   4.808   4.639
 3585SOL    HW211655   3.742   4.950   4.715
 3586SOL     OW11656   6.579   3.146   5.735
 3586SOL    HW111657   6.614   3.201   5.811
 3586SOL    HW211658   6.635   3.162   5.653
 3587SOL     OW11659   3.478   6.757   0.411
 3587SOL    HW111660   3.479   6.719   0.504
 3587SOL    HW211661   3.472   6.682   0.345
 3588SOL     OW11662   1.879   2.154   5.578
 3588SOL    HW111663   1.912   2.248   5.591
 3588SOL    HW211664   1.779   2.153   5.589
 3589SOL     OW11665   3.037   0.736   5.041
 3589SOL    HW111666   2.990   0.663   4.992
 3589SOL    HW211667   3.045   0.816   4.983
 3590SOL     OW11668   1.513   5.435   6.070
 3590SOL    HW111669   1.566   5.488   6.004
 3590SOL    HW211670   1.572   5.368   6.114
 3591SOL     OW11671   5.597   2.995   5.539
 3591SOL    HW111672   5.550   2.925   5.593
 3591SOL    HW211673   5.609   3.078   5.595
 3592SOL     OW11674   5.182   3.181   2.665
 3592SOL    HW111675   5.266   3.135   2.692
 3592SOL    HW211676   5.204   3.272   2.629
 3593SOL     OW11677   2.171   6.843   4.233
 3593SOL    HW111678   2.169   6.924   4.291
 3593SOL    HW211679   2.150   6.761   4.287
 3594SOL     OW11680   2.250   0.997   3.351
 3594SOL    HW111681   2.193   1.075   3.321
 3594SOL    HW211682   2.214   0.913   3.310
 3595SOL     OW11683   2.316   6.234   5.840
 3595SOL    HW111684   2.235   6.199   5.887
 3595SOL    HW211685   2.398   6.194   5.880
 3596SOL     OW11686   6.332   0.922   2.542
 3596SOL    HW111687   6.279   0.959   2.466
 3596SOL    HW211688   6.426   0.906   2.512
 3597SOL     OW11689   3.964   6.394   4.461
 3597SOL    HW111690   3.968   6.380   4.362
 3597SOL    HW211691   3.983   6.309   4.508
 3598SOL     OW11692   0.811   0.090   5.823
 3598SOL    HW111693   0.831   0.187   5.832
 3598SOL    HW211694   0.717   0.072   5.853
 3599SOL     OW11695   6.742   2.290   4.992
 3599SOL    HW111696   6.813   2.298   4.922
 3599SOL    HW211697   6.666   2.350   4.969
 3600SOL     OW11698   6.007   3.104   1.633
 3600SOL    HW111699   6.058   3.185   1.662
 3600SOL    HW211700   6.040   3.075   1.543
 3601SOL     OW11701   0.419   3.709   0.432
 3601SOL    HW111702   0.468   3.776   0.376
 3601SOL    HW211703   0.471   3.624   0.435
 3602SOL     OW11704   1.779   0.815   0.199
 3602SOL    HW111705   1.821   0.753   0.132
 3602SOL    HW211706   1.681   0.793   0.208
 3603SOL     OW11707   3.780   4.923   4.116
 3603SOL    HW111708   3.742   4.934   4.208
 3603SOL    HW211709   3.880   4.916   4.122
 3604SOL     OW11710   6.833   2.496   2.574
 3604SOL    HW111711   6.819   2.440   2.656
 3604SOL    HW211712   6.872   2.440   2.501
 3605SOL     OW11713   5.753   4.147   6.490
 3605SOL    HW111714   5.837   4.180   6.448
 3605SOL    HW211715   5.686   4.221   6.495
 3606SOL     OW11716   6.852   4.477   5.827
 3606SOL    HW111717   6.827   4.482   5.730
 3606SOL    HW211718   6.780   4.519   5.882
 3607SOL     OW11719   5.329   1.078   0.698
 3607SOL    HW111720   5.389   1.081   0.619
 3607SOL    HW211721   5.284   0.988   0.702
 3608SOL     OW11722   0.556   1.746   1.509
 3608SOL    HW111723   0.480   1.684   1.526
 3608SOL    HW211724   0.521   1.838   1.491
 3609SOL     OW11725   6.580   0.598   4.643
 3609SOL    HW111726   6.572   0.499   4.651
 3609SOL    HW211727   6.490   0.640   4.659
 3610SOL     OW11728   0.590   6.762   5.239
 3610SOL    HW111729   0.616   6.841   5.294
 3610SOL    HW211730   0.598   6.786   5.142
 3611SOL     OW11731   3.671   5.376   5.506
 3611SOL    HW111732   3.753   5.343   5.553
 3611SOL    HW211733   3.696   5.416   5.418
 3612SOL     OW11734   1.242   6.272   6.658
 3612SOL    HW111735   1.226   6.242   6.752
 3612SOL    HW211736   1.156   6.272   6.607
 3613SOL     OW11737   4.640   5.220   0.636
 3613SOL    HW111738   4.550   5.230   0.678
 3613SOL    HW211739   4.705   5.186   0.705
 3614SOL     OW11740   3.877   3.327   3.547
 3614SOL    HW111741   3.825   3.289   3.471
 3614SOL    HW211742   3.922   3.412   3.517
 3615SOL     OW11743   5.804   5.291   5.732
 3615SOL    HW111744   5.861   5.210   5.744
 3615SOL    HW211745   5.717   5.265   5.691
 3616SOL     OW11746   6.539   2.007   6.540
 3616SOL    HW111747   6.590   2.093   6.539
 3616SOL    HW211748   6.495   1.994   6.451
 3617SOL     OW11749   6.081   2.294   6.749
 3617SOL    HW111750   6.162   2.280   6.692
 3617SOL    HW211751   6.003   2.247   6.709
 3618SOL     OW11752   1.440   1.585   5.582
 3618SOL    HW111753   1.539   1.567   5.581
 3618SOL    HW211754   1.421   1.659   5.646
 3619SOL     OW11755   6.194   2.338   4.125
 3619SOL    HW111756   6.120   2.297   4.178
 3619SOL    HW211757   6.281   2.323   4.173
 3620SOL     OW11758   5.859   0.153   5.699
 3620SOL    HW111759   5.953   0.119   5.690
 3620SOL    HW211760   5.831   0.147   5.795
 3621SOL     OW11761   3.055   3.023   5.823
 3621SOL    HW111762   3.132   3.086   5.808
 3621SOL    HW211763   3.058   2.949   5.756
 3622SOL     OW11764   0.774   1.145   3.017
 3622SOL    HW111765   0.709   1.096   2.959
 3622SOL    HW211766   0.734   1.158   3.108
 3623SOL     OW11767   5.979   4.999   4.003
 3623SOL    HW111768   5.900   4.949   3.969
 3623SOL    HW211769   5.966   5.020   4.100
 3624SOL     OW11770   2.192   6.582   3.351
 3624SOL    HW111771   2.219   6.594   3.256
 3624SOL    HW211772   2.272   6.556   3.406
 3625SOL     OW11773   6.331   3.399   5.843
 3625SOL    HW111774   6.243   3.440   5.867
 3625SOL    HW211775   6.342   3.313   5.893
 3626SOL     OW11776   2.063   3.541   4.972
 3626SOL    HW111777   2.080   3.443   4.986
 3626SOL    HW211778   2.122   3.594   5.033
 3627SOL     OW11779   3.994   3.834   3.608
 3627SOL    HW111780   4.007   3.765   3.680
 3627SOL    HW211781   3.929   3.903   3.640
 3628SOL     OW11782   2.602   5.961   1.953
 3628SOL    HW111783   2.521   5.919   1.913
 3628SOL    HW211784   2.606   5.940   2.050
 3629SOL     OW11785   6.277   2.150   5.034
 3629SOL    HW111786   6.216   2.168   5.111
 3629SOL    HW211787   6.263   2.057   5.001
 3630SOL     OW11788   5.424   2.164   4.260
 3630SOL    HW111789   5.512   2.130   4.226
 3630SOL    HW211790   5.378   2.214   4.186
 3631SOL     OW11791   2.324   0.162   4.924
 3631SOL    HW111792   2.397   0.215   4.881
 3631SOL    HW211793   2.301   0.084   4.866
 3632SOL     OW11794   5.436   0.982   0.950
 3632SOL    HW111795   5.397   1.046   0.884
 3632SOL    HW211796   5.363   0.944   1.006
 3633SOL     OW11797   2.976   2.372   5.658
 3633SOL    HW111798   2.954   2.275   5.653
 3633SOL    HW211799   3.058   2.390   5.604
 3634SOL     OW11800   0.548   6.591   4.605
 3634SOL    HW111801   0.575   6.543   4.522
 3634SOL    HW211802   0.502   6.676   4.581
 3635SOL     OW11803   3.243   1.446   5.326
 3635SOL    HW111804   3.320   1.384   5.308
 3635SOL    HW211805   3.182   1.447   5.246
 3636SOL     OW11806   0.074   6.142   5.826
 3636SOL    HW111807   0.138   6.173   5.896
 3636SOL    HW211808   7.023   6.202   5.826
 3637SOL     OW11809   6.253   1.951   0.995
 3637SOL    HW111810   6.233   2.044   1.027
 3637SOL    HW211811   6.184   1.888   1.031
 3638SOL     OW11812   6.484   4.661   4.093
 3638SOL    HW111813   6.531   4.740   4.055
 3638SOL    HW211814   6.529   4.633   4.178
 3639SOL     OW11815   3.695   3.548   1.150
 3639SOL    HW111816   3.757   3.471   1.162
 3639SOL    HW211817   3.748   3.632   1.137
 3640SOL     OW11818   3.588   5.955   6.891
 3640SOL    HW111819   3.664   5.900   6.926
 3640SOL    HW211820   3.537   5.994   6.968
 3641SOL     OW11821   3.683   1.802   4.755
 3641SOL    HW111822   3.652   1.884   4.803
 3641SOL    HW211823   3.647   1.801   4.662
 3642SOL     OW11824   4.843   1.127   5.916
 3642SOL    HW111825   4.926   1.073   5.903
 3642SOL    HW211826   4.779   1.109   5.842
 3643SOL     OW11827   3.292   5.703   4.595
 3643SOL    HW111828   3.207   5.651   4.583
 3643SOL    HW211829   3.310   5.715   4.693
 3644SOL     OW11830   6.951   1.342   1.239
 3644SOL    HW111831   6.959   1.429   1.289
 3644SOL    HW211832   6.922   1.270   1.302
 3645SOL     OW11833   5.636   1.628   4.069
 3645SOL    HW111834   5.570   1.694   4.104
 3645SOL    HW211835   5.654   1.558   4.138
 3646SOL     OW11836   6.726   4.492   5.580
 3646SOL    HW111837   6.739   4.589   5.559
 3646SOL    HW211838   6.741   4.438   5.498
 3647SOL     OW11839   1.969   3.255   7.021
 3647SOL    HW111840   1.992   3.167   0.035
 3647SOL    HW211841   2.006   3.330   0.047
 3648SOL     OW11842   4.093   5.512   2.976
 3648SOL    HW111843   4.024   5.445   2.947
 3648SOL    HW211844   4.114   5.573   2.900
 3649SOL     OW11845   4.091   3.159   0.708
 3649SOL    HW111846   4.026   3.191   0.639
 3649SOL    HW211847   4.154   3.094   0.666
 3650SOL     OW11848   6.916   5.938   0.650
 3650SOL    HW111849   6.921   6.013   0.717
 3650SOL    HW211850   6.827   5.893   0.657
 3651SOL     OW11851   0.850   6.127   2.207
 3651SOL    HW111852   0.801   6.197   2.155
 3651SOL    HW211853   0.805   6.039   2.194
 3652SOL     OW11854   4.942   6.650   3.415
 3652SOL    HW111855   4.869   6.679   3.478
 3652SOL    HW211856   4.955   6.552   3.423
 3653SOL     OW11857   6.300   1.213   3.200
 3653SOL    HW111858   6.315   1.114   3.206
 3653SOL    HW211859   6.246   1.233   3.118
 3654SOL     OW11860   2.109   6.530   0.527
 3654SOL    HW111861   2.023   6.536   0.578
 3654SOL    HW211862   2.180   6.491   0.586
 3655SOL     OW11863   1.247   6.866   3.906
 3655SOL    HW111864   1.215   6.911   3.989
 3655SOL    HW211865   1.334   6.820   3.925
 3656SOL     OW11866   1.413   2.266   1.310
 3656SOL    HW111867   1.442   2.327   1.384
 3656SOL    HW211868   1.409   2.317   1.224
 3657SOL     OW11869   4.516   5.889   6.419
 3657SOL    HW111870   4.603   5.936   6.424
 3657SOL    HW211871   4.526   5.806   6.364
 3658SOL     OW11872   1.135   5.797   5.215
 3658SOL    HW111873   1.165   5.712   5.258
 3658SOL    HW211874   1.211   5.837   5.164
 3659SOL     OW11875   2.608   4.369   6.796
 3659SOL    HW111876   2.618   4.414   6.707
 3659SOL    HW211877   2.572   4.435   6.862
 3660SOL     OW11878   4.847   6.254   2.152
 3660SOL    HW111879   4.773   6.191   2.176
 3660SOL    HW211880   4.912   6.207   2.092
 3661SOL     OW11881   4.876   2.214   6.552
 3661SOL    HW111882   4.848   2.150   6.480
 3661SOL    HW211883   4.939   2.281   6.515
 3662SOL     OW11884   3.789   7.021   4.799
 3662SOL    HW111885   3.710   7.012   4.738
 3662SOL    HW211886   3.767   0.054   4.873
 3663SOL     OW11887   1.267   1.292   0.197
 3663SOL    HW111888   1.230   1.199   0.204
 3663SOL    HW211889   1.236   1.346   0.275
 3664SOL     OW11890   5.346   1.531   0.879
 3664SOL    HW111891   5.288   1.605   0.847
 3664SOL    HW211892   5.368   1.545   0.975
 3665SOL     OW11893   0.281   5.811   5.413
 3665SOL    HW111894   0.275   5.905   5.446
 3665SOL    HW211895   0.376   5.788   5.393
 3666SOL     OW11896   1.865   4.466   3.690
 3666SOL    HW111897   1.869   4.436   3.595
 3666SOL    HW211898   1.883   4.388   3.750
 3667SOL     OW11899   6.097   0.381   0.310
 3667SOL    HW111900   6.111   0.366   0.212
 3667SOL    HW211901   6.015   0.331   0.339
 3668SOL     OW11902   1.597   7.005   2.350
 3668SOL    HW111903   1.659   0.041   2.308
 3668SOL    HW211904   1.627   6.986   2.443
 3669SOL     OW11905   5.859   1.634   4.307
 3669SOL    HW111906   5.835   1.723   4.269
 3669SOL    HW211907   5.954   1.613   4.286
 3670SOL     OW11908   2.356   5.679   0.574
 3670SOL    HW111909   2.275   5.728   0.544
 3670SOL    HW211910   2.389   5.620   0.500
 3671SOL     OW11911   6.334   0.506   3.363
 3671SOL    HW111912   6.270   0.543   3.431
 3671SOL    HW211913   6.423   0.491   3.407
 3672SOL     OW11914   6.037   1.686   0.627
 3672SOL    HW111915   5.982   1.683   0.710
 3672SOL    HW211916   6.000   1.756   0.566
 3673SOL     OW11917   3.934   1.078   6.355
 3673SOL    HW111918   3.881   1.163   6.364
 3673SOL    HW211919   3.992   1.067   6.436
 3674SOL     OW11920   0.459   6.693   6.343
 3674SOL    HW111921   0.480   6.622   6.411
 3674SOL    HW211922   0.463   6.653   6.251
 3675SOL     OW11923   1.737   2.620   5.304
 3675SOL    HW111924   1.832   2.596   5.325
 3675SOL    HW211925   1.704   2.688   5.370
 3676SOL     OW11926   3.989   5.244   4.156
 3676SOL    HW111927   4.021   5.208   4.069
 3676SOL    HW211928   3.889   5.244   4.158
 3677SOL     OW11929   0.974   5.896   2.733
 3677SOL    HW111930   1.004   5.976   2.682
 3677SOL    HW211931   1.044   5.825   2.730
 3678SOL     OW11932   0.708   3.086   3.770
 3678SOL    HW111933   0.799   3.088   3.729
 3678SOL    HW211934   0.699   3.004   3.827
 3679SOL     OW11935   0.284   1.017   2.583
 3679SOL    HW111936   0.331   0.969   2.658
 3679SOL    HW211937   0.195   0.974   2.567
 3680SOL     OW11938   6.156   3.084   3.874
 3680SOL    HW111939   6.079   3.148   3.877
 3680SOL    HW211940   6.209   3.091   3.958
 3681SOL     OW11941   0.722   0.785   6.013
 3681SOL    HW111942   0.644   0.808   6.070
 3681SOL    HW211943   0.804   0.780   6.069
 3682SOL     OW11944   5.943   2.436   5.567
 3682SOL    HW111945   5.915   2.519   5.519
 3682SOL    HW211946   6.041   2.421   5.554
 3683SOL     OW11947   6.744   0.529   5.040
 3683SOL    HW111948   6.739   0.433   5.067
 3683SOL    HW211949   6.662   0.552   4.987
 3684SOL     OW11950   1.624   2.752   1.295
 3684SOL    HW111951   1.652   2.747   1.391
 3684SOL    HW211952   1.567   2.833   1.281
 3685SOL     OW11953   6.331   6.264   5.773
 3685SOL    HW111954   6.231   6.260   5.772
 3685SOL    HW211955   6.364   6.242   5.865
 3686SOL     OW11956   6.086   4.940   3.171
 3686SOL    HW111957   6.045   5.020   3.128
 3686SOL    HW211958   6.135   4.886   3.102
 3687SOL     OW11959   3.315   6.235   5.730
 3687SOL    HW111960   3.311   6.175   5.649
 3687SOL    HW211961   3.284   6.327   5.705
 3688SOL     OW11962   0.944   4.058   0.099
 3688SOL    HW111963   0.966   4.021   0.190
 3688SOL    HW211964   1.027   4.091   0.055
 3689SOL     OW11965   0.870   0.632   5.336
 3689SOL    HW111966   0.842   0.699   5.405
 3689SOL    HW211967   0.897   0.679   5.252
 3690SOL     OW11968   4.485   0.548   6.296
 3690SOL    HW111969   4.489   0.632   6.241
 3690SOL    HW211970   4.569   0.496   6.284
 3691SOL     OW11971   2.661   2.793   6.697
 3691SOL    HW111972   2.666   2.704   6.650
 3691SOL    HW211973   2.602   2.855   6.644
 3692SOL     OW11974   0.994   5.646   4.601
 3692SOL    HW111975   0.900   5.678   4.612
 3692SOL    HW211976   1.038   5.642   4.691
 3693SOL     OW11977   1.723   2.934   2.920
 3693SOL    HW111978   1.812   2.962   2.885
 3693SOL    HW211979   1.727   2.838   2.947
 3694SOL     OW11980   0.615   5.209   3.720
 3694SOL    HW111981   0.702   5.185   3.677
 3694SOL    HW211982   0.615   5.306   3.742
 3695SOL     OW11983   0.195   1.930   2.396
 3695SOL    HW111984   0.187   1.872   2.477
 3695SOL    HW211985   0.269   1.896   2.338
 3696SOL     OW11986   4.548   6.400   5.450
 3696SOL    HW111987   4.575   6.474   5.389
 3696SOL    HW211988   4.628   6.368   5.502
 3697SOL     OW11989   6.752   6.438   3.242
 3697SOL    HW111990   6.822   6.400   3.302
 3697SOL    HW211991   6.664   6.438   3.288
 3698SOL     OW11992   3.695   0.228   5.821
 3698SOL    HW111993   3.656   0.172   5.748
 3698SOL    HW211994   3.664   0.323   5.811
 3699SOL     OW11995   6.797   3.874   3.118
 3699SOL    HW111996   6.776   3.963   3.158
 3699SOL    HW211997   6.894   3.855   3.128
 3700SOL     OW11998   6.090   0.590   3.497
 3700SOL    HW111999   6.042   0.507   3.467
 3700SOL    HW212000   6.024   0.658   3.529
 3701SOL     OW12001   0.395   0.907   3.987
 3701SOL    HW112002   0.343   0.988   3.960
 3701SOL    HW212003   0.475   0.935   4.039
 3702SOL     OW12004   4.412   0.358   1.806
 3702SOL    HW112005   4.500   0.363   1.759
 3702SOL    HW212006   4.405   0.434   1.871
 3703SOL     OW12007   4.192   4.016   5.651
 3703SOL    HW112008   4.268   4.041   5.710
 3703SOL    HW212009   4.116   3.982   5.706
 3704SOL     OW12010   2.776   0.878   1.879
 3704SOL    HW112011   2.791   0.975   1.864
 3704SOL    HW212012   2.714   0.865   1.957
 3705SOL     OW12013   4.925   6.837   4.138
 3705SOL    HW112014   4.832   6.859   4.109
 3705SOL    HW212015   4.990   6.898   4.091
 3706SOL     OW12016   1.413   2.456   4.448
 3706SOL    HW112017   1.325   2.502   4.458
 3706SOL    HW212018   1.484   2.524   4.429
 3707SOL     OW12019   5.610   3.297   5.389
 3707SOL    HW112020   5.513   3.271   5.391
 3707SOL    HW212021   5.623   3.368   5.320
 3708SOL     OW12022   5.883   6.921   6.514
 3708SOL    HW112023   5.904   6.953   6.607
 3708SOL    HW212024   5.807   6.974   6.478
 3709SOL     OW12025   3.552   1.123   6.473
 3709SOL    HW112026   3.494   1.048   6.439
 3709SOL    HW212027   3.518   1.154   6.562
 3710SOL     OW12028   6.726   5.786   0.266
 3710SOL    HW112029   6.705   5.855   0.197
 3710SOL    HW212030   6.704   5.821   0.357
 3711SOL     OW12031   0.510   5.685   2.589
 3711SOL    HW112032   0.416   5.699   2.618
 3711SOL    HW212033   0.569   5.754   2.630
 3712SOL     OW12034   6.939   6.459   6.630
 3712SOL    HW112035   6.929   6.410   6.716
 3712SOL    HW212036   6.871   6.425   6.564
 3713SOL     OW12037   2.143   6.450   4.927
 3713SOL    HW112038   2.215   6.483   4.989
 3713SOL    HW212039   2.140   6.350   4.931
 3714SOL     OW12040   5.274   6.140   4.868
 3714SOL    HW112041   5.276   6.213   4.801
 3714SOL    HW212042   5.357   6.084   4.859
 3715SOL     OW12043   5.852   4.364   5.057
 3715SOL    HW112044   5.879   4.302   5.131
 3715SOL    HW212045   5.873   4.322   4.969
 3716SOL     OW12046   0.141   6.394   4.294
 3716SOL    HW112047   0.096   6.318   4.248
 3716SOL    HW212048   0.083   6.475   4.290
 3717SOL     OW12049   6.036   5.638   0.469
 3717SOL    HW112050   5.958   5.683   0.424
 3717SOL    HW212051   6.033   5.656   0.567
 3718SOL     OW12052   1.982   6.387   6.296
 3718SOL    HW112053   1.900   6.439   6.272
 3718SOL    HW212054   1.955   6.297   6.329
 3719SOL     OW12055   4.590   4.388   1.145
 3719SOL    HW112056   4.665   4.448   1.171
 3719SOL    HW212057   4.566   4.329   1.222
 3720SOL     OW12058   6.502   2.613   0.041
 3720SOL    HW112059   6.531   2.517   0.044
 3720SOL    HW212060   6.451   2.629   6.986
 3721SOL     OW12061   5.397   4.834   0.396
 3721SOL    HW112062   5.318   4.883   0.359
 3721SOL    HW212063   5.468   4.901   0.420
 3722SOL     OW12064   6.708   6.535   2.316
 3722SOL    HW112065   6.694   6.480   2.398
 3722SOL    HW212066   6.621   6.542   2.266
 3723SOL     OW12067   5.794   6.789   1.695
 3723SOL    HW112068   5.760   6.833   1.778
 3723SOL    HW212069   5.891   6.766   1.707
 3724SOL     OW12070   1.951   4.960   6.805
 3724SOL    HW112071   1.914   5.031   6.745
 3724SOL    HW212072   1.889   4.882   6.806
 3725SOL     OW12073   5.625   5.880   6.962
 3725SOL    HW112074   5.633   5.914   6.868
 3725SOL    HW212075   5.561   5.937   7.013
 3726SOL     OW12076   6.647   4.076   1.301
 3726SOL    HW112077   6.637   4.081   1.201
 3726SOL    HW212078   6.682   3.987   1.327
 3727SOL     OW12079   0.298   3.457   6.098
 3727SOL    HW112080   0.301   3.557   6.108
 3727SOL    HW212081   0.208   3.430   6.064
 3728SOL     OW12082   1.734   3.313   0.254
 3728SOL    HW112083   1.665   3.286   0.188
 3728SOL    HW212084   1.791   3.386   0.215
 3729SOL     OW12085   0.581   2.418   3.179
 3729SOL    HW112086   0.636   2.341   3.209
 3729SOL    HW212087   0.628   2.467   3.105
 3730SOL     OW12088   2.643   6.046   0.352
 3730SOL    HW112089   2.626   5.987   0.273
 3730SOL    HW212090   2.570   6.034   0.419
 3731SOL     OW12091   4.582   1.463   0.540
 3731SOL    HW112092   4.528   1.379   0.545
 3731SOL    HW212093   4.526   1.537   0.503
 3732SOL     OW12094   2.155   3.147   5.848
 3732SOL    HW112095   2.081   3.155   5.914
 3732SOL    HW212096   2.118   3.145   5.755
 3733SOL     OW12097   2.005   3.871   1.686
 3733SOL    HW112098   2.088   3.827   1.719
 3733SOL    HW212099   1.972   3.936   1.754
 3734SOL     OW12100   4.272   1.553   1.601
 3734SOL    HW112101   4.335   1.566   1.678
 3734SOL    HW212102   4.306   1.480   1.543
 3735SOL     OW12103   0.782   1.913   2.759
 3735SOL    HW112104   0.796   1.887   2.855
 3735SOL    HW212105   0.825   1.845   2.700
 3736SOL     OW12106   6.818   3.146   0.815
 3736SOL    HW112107   6.890   3.176   0.877
 3736SOL    HW212108   6.859   3.103   0.734
 3737SOL     OW12109   4.805   0.179   3.362
 3737SOL    HW112110   4.882   0.198   3.302
 3737SOL    HW212111   4.833   0.115   3.434
 3738SOL     OW12112   6.172   5.762   3.174
 3738SOL    HW112113   6.244   5.822   3.207
 3738SOL    HW212114   6.199   5.724   3.085
 3739SOL     OW12115   1.897   3.901   2.739
 3739SOL    HW112116   1.993   3.902   2.712
 3739SOL    HW212117   1.869   3.993   2.765
 3740SOL     OW12118   4.399   0.676   6.847
 3740SOL    HW112119   4.302   0.690   6.864
 3740SOL    HW212120   4.411   0.624   6.762
 3741SOL     OW12121   4.458   3.982   1.276
 3741SOL    HW112122   4.485   4.069   1.316
 3741SOL    HW212123   4.402   3.998   1.195
 3742SOL     OW12124   2.502   1.990   5.521
 3742SOL    HW112125   2.558   2.039   5.588
 3742SOL    HW212126   2.418   2.041   5.504
 3743SOL     OW12127   6.285   5.056   0.888
 3743SOL    HW112128   6.277   5.025   0.794
 3743SOL    HW212129   6.332   5.144   0.891
 3744SOL     OW12130   0.821   5.762   4.344
 3744SOL    HW112131   0.815   5.662   4.335
 3744SOL    HW212132   0.729   5.798   4.363
 3745SOL     OW12133   3.288   5.509   2.929
 3745SOL    HW112134   3.230   5.444   2.979
 3745SOL    HW212135   3.240   5.596   2.919
 3746SOL     OW12136   4.308   1.326   1.427
 3746SOL    HW112137   4.324   1.228   1.437
 3746SOL    HW212138   4.312   1.350   1.330
 3747SOL     OW12139   2.954   6.498   6.336
 3747SOL    HW112140   3.043   6.497   6.381
 3747SOL    HW212141   2.906   6.583   6.358
 3748SOL     OW12142   5.708   1.285   1.857
 3748SOL    HW112143   5.742   1.350   1.789
 3748SOL    HW212144   5.662   1.335   1.930
 3749SOL     OW12145   1.761   6.667   4.338
 3749SOL    HW112146   1.704   6.605   4.284
 3749SOL    HW212147   1.796   6.618   4.418
 3750SOL     OW12148   1.611   3.838   0.221
 3750SOL    HW112149   1.695   3.788   0.201
 3750SOL    HW212150   1.611   3.867   0.317
 3751SOL     OW12151   0.023   3.888   2.892
 3751SOL    HW112152   6.957   3.899   2.865
 3751SOL    HW212153   0.033   3.806   2.947
 3752SOL     OW12154   5.437   0.816   5.894
 3752SOL    HW112155   5.480   0.727   5.907
 3752SOL    HW212156   5.391   0.818   5.805
 3753SOL     OW12157   6.066   0.559   4.532
 3753SOL    HW112158   6.106   0.467   4.532
 3753SOL    HW212159   5.996   0.565   4.603
 3754SOL     OW12160   2.033   0.601   2.228
 3754SOL    HW112161   1.965   0.628   2.296
 3754SOL    HW212162   2.087   0.681   2.203
 3755SOL     OW12163   3.298   5.080   4.882
 3755SOL    HW112164   3.343   5.037   4.804
 3755SOL    HW212165   3.237   5.014   4.926
 3756SOL     OW12166   3.024   5.806   6.966
 3756SOL    HW112167   2.953   5.745   6.999
 3756SOL    HW212168   3.065   5.855   0.014
 3757SOL     OW12169   6.540   4.987   1.916
 3757SOL    HW112170   6.633   4.973   1.883
 3757SOL    HW212171   6.476   4.939   1.856
 3758SOL     OW12172   2.091   1.013   4.173
 3758SOL    HW112173   1.994   1.015   4.198
 3758SOL    HW212174   2.104   1.063   4.088
 3759SOL     OW12175   5.296   0.892   4.539
 3759SOL    HW112176   5.247   0.978   4.553
 3759SOL    HW212177   5.250   0.820   4.591
 3760SOL     OW12178   0.168   0.495   3.727
 3760SOL    HW112179   0.224   0.542   3.795
 3760SOL    HW212180   0.078   0.541   3.722
 3761SOL     OW12181   5.976   1.590   4.662
 3761SOL    HW112182   6.064   1.635   4.650
 3761SOL    HW212183   5.917   1.609   4.584
 3762SOL     OW12184   1.755   3.771   2.559
 3762SOL    HW112185   1.817   3.802   2.630
 3762SOL    HW212186   1.794   3.791   2.469
 3763SOL     OW12187   0.166   3.806   0.422
 3763SOL    HW112188   0.243   3.744   0.437
 3763SOL    HW212189   0.191   3.876   0.355
 3764SOL     OW12190   1.810   7.022   2.990
 3764SOL    HW112191   1.739   6.989   3.053
 3764SOL    HW212192   1.900   7.005   3.029
 3765SOL     OW12193   6.262   1.712   1.544
 3765SOL    HW112194   6.287   1.807   1.524
 3765SOL    HW212195   6.305   1.684   1.630
 3766SOL     OW12196   2.000   2.713   4.112
 3766SOL    HW112197   1.950   2.685   4.030
 3766SOL    HW212198   2.020   2.633   4.168
 3767SOL     OW12199   3.062   4.168   6.174
 3767SOL    HW112200   2.985   4.220   6.138
 3767SOL    HW212201   3.068   4.180   6.273
 3768SOL     OW12202   1.369   0.293   4.292
 3768SOL    HW112203   1.446   0.357   4.295
 3768SOL    HW212204   1.284   0.341   4.310
 3769SOL     OW12205   5.806   5.533   4.960
 3769SOL    HW112206   5.901   5.554   4.986
 3769SOL    HW212207   5.743   5.583   5.018
 3770SOL     OW12208   1.048   1.028   0.079
 3770SOL    HW112209   1.030   1.009   0.175
 3770SOL    HW212210   0.962   1.042   0.031
 3771SOL     OW12211   0.036   4.992   0.809
 3771SOL    HW112212   0.083   5.049   0.742
 3771SOL    HW212213   6.997   5.047   0.857
 3772SOL     OW12214   1.026   6.528   0.283
 3772SOL    HW112215   1.077   6.460   0.336
 3772SOL    HW212216   1.090   6.584   0.231
 3773SOL     OW12217   5.571   4.126   5.622
 3773SOL    HW112218   5.530   4.127   5.531
 3773SOL    HW212219   5.611   4.036   5.640
 3774SOL     OW12220   5.611   5.712   1.880
 3774SOL    HW112221   5.594   5.701   1.782
 3774SOL    HW212222   5.524   5.725   1.928
 3775SOL     OW12223   4.082   5.229   3.136
 3775SOL    HW112224   4.013   5.300   3.126
 3775SOL    HW212225   4.097   5.184   3.048
 3776SOL     OW12226   3.918   2.752   6.249
 3776SOL    HW112227   3.948   2.702   6.331
 3776SOL    HW212228   3.979   2.730   6.173
 3777SOL     OW12229   3.099   6.404   3.817
 3777SOL    HW112230   3.173   6.353   3.773
 3777SOL    HW212231   3.031   6.429   3.748
 3778SOL     OW12232   3.210   6.027   4.579
 3778SOL    HW112233   3.133   5.979   4.537
 3778SOL    HW212234   3.280   5.960   4.606
 3779SOL     OW12235   0.249   5.156   0.956
 3779SOL    HW112236   0.208   5.077   1.001
 3779SOL    HW212237   0.329   5.126   0.903
 3780SOL     OW12238   0.133   2.093   2.123
 3780SOL    HW112239   0.182   2.090   2.210
 3780SOL    HW212240   0.114   2.188   2.097
 3781SOL     OW12241   1.303   6.500   5.262
 3781SOL    HW112242   1.271   6.530   5.352
 3781SOL    HW212243   1.331   6.580   5.208
 3782SOL     OW12244   4.042   6.256   2.501
 3782SOL    HW112245   4.018   6.235   2.406
 3782SOL    HW212246   3.965   6.234   2.560
 3783SOL     OW12247   5.471   4.723   5.665
 3783SOL    HW112248   5.498   4.722   5.761
 3783SOL    HW212249   5.414   4.644   5.645
 3784SOL     OW12250   5.417   2.355   2.113
 3784SOL    HW112251   5.339   2.360   2.051
 3784SOL    HW212252   5.395   2.402   2.198
 3785SOL     OW12253   0.501   3.380   5.235
 3785SOL    HW112254   0.573   3.375   5.166
 3785SOL    HW212255   0.504   3.298   5.293
 3786SOL     OW12256   2.329   2.280   3.500
 3786SOL    HW112257   2.328   2.373   3.463
 3786SOL    HW212258   2.259   2.225   3.454
 3787SOL     OW12259   4.063   0.516   2.977
 3787SOL    HW112260   4.079   0.579   2.901
 3787SOL    HW212261   4.149   0.470   3.000
 3788SOL     OW12262   0.079   3.914   4.667
 3788SOL    HW112263   0.099   3.851   4.743
 3788SOL    HW212264   0.093   4.008   4.698
 3789SOL     OW12265   0.748   2.689   3.004
 3789SOL    HW112266   0.755   2.598   2.963
 3789SOL    HW212267   0.651   2.710   3.020
 3790SOL     OW12268   1.248   6.019   0.179
 3790SOL    HW112269   1.205   6.104   0.209
 3790SOL    HW212270   1.347   6.026   0.191
 3791SOL     OW12271   5.321   1.699   5.913
 3791SOL    HW112272   5.349   1.690   5.818
 3791SOL    HW212273   5.401   1.688   5.972
 3792SOL     OW12274   0.775   0.813   4.473
 3792SOL    HW112275   0.855   0.867   4.448
 3792SOL    HW212276   0.801   0.717   4.485
 3793SOL     OW12277   6.068   5.830   1.071
 3793SOL    HW112278   5.996   5.780   1.022
 3793SOL    HW212279   6.124   5.765   1.122
 3794SOL     OW12280   1.784   3.275   0.988
 3794SOL    HW112281   1.731   3.345   1.036
 3794SOL    HW212282   1.744   3.259   0.898
 3795SOL     OW12283   3.060   5.969   0.881
 3795SOL    HW112284   3.131   5.989   0.814
 3795SOL    HW212285   2.973   5.954   0.834
 3796SOL     OW12286   4.280   2.452   1.198
 3796SOL    HW112287   4.360   2.436   1.140
 3796SOL    HW212288   4.197   2.439   1.145
 3797SOL     OW12289   1.349   3.826   2.485
 3797SOL    HW112290   1.373   3.877   2.568
 3797SOL    HW212291   1.377   3.730   2.495
 3798SOL     OW12292   2.354   6.902   3.106
 3798SOL    HW112293   2.346   6.916   3.007
 3798SOL    HW212294   2.450   6.904   3.133
 3799SOL     OW12295   6.279   2.481   2.974
 3799SOL    HW112296   6.226   2.512   3.054
 3799SOL    HW212297   6.303   2.560   2.918
 3800SOL     OW12298   5.162   1.460   3.080
 3800SOL    HW112299   5.203   1.456   2.988
 3800SOL    HW212300   5.063   1.477   3.072
 3801SOL     OW12301   5.231   6.775   1.884
 3801SOL    HW112302   5.298   6.840   1.849
 3801SOL    HW212303   5.261   6.740   1.972
 3802SOL     OW12304   0.415   1.541   2.224
 3802SOL    HW112305   0.465   1.477   2.284
 3802SOL    HW212306   0.468   1.557   2.141
 3803SOL     OW12307   3.176   4.046   3.431
 3803SOL    HW112308   3.235   4.052   3.351
 3803SOL    HW212309   3.232   4.054   3.514
 3804SOL     OW12310   3.717   0.936   4.428
 3804SOL    HW112311   3.786   0.994   4.472
 3804SOL    HW212312   3.650   0.994   4.382
 3805SOL     OW12313   2.759   2.698   0.850
 3805SOL    HW112314   2.717   2.788   0.841
 3805SOL    HW212315   2.694   2.635   0.894
 3806SOL     OW12316   4.295   4.464   6.397
 3806SOL    HW112317   4.237   4.389   6.430
 3806SOL    HW212318   4.383   4.461   6.445
 3807SOL     OW12319   1.619   5.164   4.110
 3807SOL    HW112320   1.719   5.166   4.121
 3807SOL    HW212321   1.597   5.118   4.024
 3808SOL     OW12322   5.124   0.540   5.864
 3808SOL    HW112323   5.068   0.622   5.868
 3808SOL    HW212324   5.127   0.505   5.770
 3809SOL     OW12325   6.385   1.933   1.372
 3809SOL    HW112326   6.479   1.968   1.368
 3809SOL    HW212327   6.323   2.002   1.335
 3810SOL     OW12328   6.706   2.465   3.053
 3810SOL    HW112329   6.748   2.416   3.130
 3810SOL    HW212330   6.658   2.545   3.087
 3811SOL     OW12331   0.246   5.738   4.472
 3811SOL    HW112332   0.310   5.703   4.404
 3811SOL    HW212333   0.279   5.716   4.564
 3812SOL     OW12334   3.443   5.786   6.700
 3812SOL    HW112335   3.365   5.740   6.742
 3812SOL    HW212336   3.489   5.843   6.768
 3813SOL     OW12337   5.956   3.945   1.113
 3813SOL    HW112338   5.996   3.869   1.164
 3813SOL    HW212339   5.966   3.929   1.015
 3814SOL     OW12340   0.035   0.082   3.937
 3814SOL    HW112341   0.003   7.016   3.936
 3814SOL    HW212342   0.032   0.119   3.844
 3815SOL     OW12343   5.293   2.942   0.644
 3815SOL    HW112344   5.341   3.027   0.661
 3815SOL    HW212345   5.309   2.878   0.720
 3816SOL     OW12346   0.284   7.011   5.063
 3816SOL    HW112347   0.266   6.913   5.075
 3816SOL    HW212348   0.348   7.024   4.988
 3817SOL     OW12349   4.868   3.093   2.494
 3817SOL    HW112350   4.890   3.164   2.428
 3817SOL    HW212351   4.812   3.131   2.567
 3818SOL     OW12352   0.183   0.405   1.041
 3818SOL    HW112353   0.200   0.502   1.060
 3818SOL    HW212354   0.248   0.373   0.973
 3819SOL     OW12355   6.438   4.187   2.918
 3819SOL    HW112356   6.431   4.106   2.975
 3819SOL    HW212357   6.515   4.243   2.948
 3820SOL     OW12358   5.781   6.736   3.497
 3820SOL    HW112359   5.735   6.650   3.476
 3820SOL    HW212360   5.779   6.751   3.596
 3821SOL     OW12361   0.857   0.225   0.620
 3821SOL    HW112362   0.867   0.324   0.613
 3821SOL    HW212363   0.789   0.202   0.689
 3822SOL     OW12364   3.439   0.061   6.938
 3822SOL    HW112365   3.471   0.125   6.869
 3822SOL    HW212366   3.473   0.088   7.028
 3823SOL     OW12367   4.720   4.744   6.604
 3823SOL    HW112368   4.696   4.829   6.649
 3823SOL    HW212369   4.722   4.758   6.505
 3824SOL     OW12370   0.849   2.652   0.360
 3824SOL    HW112371   0.808   2.741   0.339
 3824SOL    HW212372   0.947   2.655   0.342
 3825SOL     OW12373   1.450   4.223   1.163
 3825SOL    HW112374   1.361   4.220   1.208
 3825SOL    HW212375   1.453   4.301   1.101
 3826SOL     OW12376   6.944   3.902   2.509
 3826SOL    HW112377   6.931   3.806   2.486
 3826SOL    HW212378   6.910   3.919   2.602
 3827SOL     OW12379   1.073   0.745   1.349
 3827SOL    HW112380   1.123   0.832   1.340
 3827SOL    HW212381   1.062   0.723   1.446
 3828SOL     OW12382   3.671   4.238   4.964
 3828SOL    HW112383   3.648   4.150   5.006
 3828SOL    HW212384   3.731   4.222   4.886
 3829SOL     OW12385   0.807   5.076   2.253
 3829SOL    HW112386   0.758   5.081   2.340
 3829SOL    HW212387   0.806   5.166   2.209
 3830SOL     OW12388   0.453   0.609   5.471
 3830SOL    HW112389   0.462   0.700   5.430
 3830SOL    HW212390   0.418   0.619   5.565
 3831SOL     OW12391   4.131   2.240   2.798
 3831SOL    HW112392   4.082   2.182   2.862
 3831SOL    HW212393   4.068   2.306   2.757
 3832SOL     OW12394   0.188   0.507   1.494
 3832SOL    HW112395   0.275   0.522   1.541
 3832SOL    HW212396   0.137   0.593   1.489
 3833SOL     OW12397   2.122   6.475   6.559
 3833SOL    HW112398   2.176   6.547   6.515
 3833SOL    HW212399   2.045   6.451   6.501
 3834SOL     OW12400   4.023   4.242   1.178
 3834SOL    HW112401   4.012   4.158   1.125
 3834SOL    HW212402   4.033   4.320   1.116
 3835SOL     OW12403   3.855   5.889   5.353
 3835SOL    HW112404   3.813   5.959   5.296
 3835SOL    HW212405   3.940   5.925   5.392
 3836SOL     OW12406   0.336   5.018   5.674
 3836SOL    HW112407   0.317   4.923   5.651
 3836SOL    HW212408   0.423   5.024   5.722
 3837SOL     OW12409   4.270   5.129   5.215
 3837SOL    HW112410   4.276   5.147   5.116
 3837SOL    HW212411   4.307   5.207   5.265
 3838SOL     OW12412   1.951   1.088   3.172
 3838SOL    HW112413   1.877   1.027   3.144
 3838SOL    HW212414   1.967   1.157   3.101
 3839SOL     OW12415   4.221   0.807   2.821
 3839SOL    HW112416   4.148   0.762   2.769
 3839SOL    HW212417   4.285   0.738   2.856
 3840SOL     OW12418   2.622   1.822   6.158
 3840SOL    HW112419   2.569   1.898   6.194
 3840SOL    HW212420   2.590   1.800   6.065
 3841SOL     OW12421   0.854   4.336   3.895
 3841SOL    HW112422   0.942   4.383   3.886
 3841SOL    HW212423   0.832   4.325   3.992
 3842SOL     OW12424   2.535   2.512   4.037
 3842SOL    HW112425   2.526   2.554   4.127
 3842SOL    HW212426   2.611   2.446   4.039
 3843SOL     OW12427   5.481   3.488   0.942
 3843SOL    HW112428   5.496   3.585   0.922
 3843SOL    HW212429   5.569   3.443   0.955
 3844SOL     OW12430   1.352   4.630   6.928
 3844SOL    HW112431   1.307   4.679   6.853
 3844SOL    HW212432   1.283   4.583   6.983
 3845SOL     OW12433   2.374   5.908   7.018
 3845SOL    HW112434   2.373   5.999   6.977
 3845SOL    HW212435   2.440   5.850   6.969
 3846SOL     OW12436   0.457   3.286   4.590
 3846SOL    HW112437   0.448   3.359   4.658
 3846SOL    HW212438   0.545   3.293   4.545
 3847SOL     OW12439   5.429   2.010   3.990
 3847SOL    HW112440   5.349   2.063   4.020
 3847SOL    HW212441   5.480   2.063   3.923
 3848SOL     OW12442   4.894   3.450   2.765
 3848SOL    HW112443   4.985   3.481   2.737
 3848SOL    HW212444   4.841   3.527   2.800
 3849SOL     OW12445   0.807   6.902   6.496
 3849SOL    HW112446   0.786   6.925   6.591
 3849SOL    HW212447   0.892   6.946   6.469
 3850SOL     OW12448   3.292   2.875   1.147
 3850SOL    HW112449   3.247   2.896   1.234
 3850SOL    HW212450   3.227   2.883   1.072
 3851SOL     OW12451   6.785   5.100   3.855
 3851SOL    HW112452   6.798   5.174   3.788
 3851SOL    HW212453   6.700   5.051   3.833
 3852SOL     OW12454   3.425   6.767   4.541
 3852SOL    HW112455   3.452   6.791   4.447
 3852SOL    HW212456   3.341   6.712   4.538
 3853SOL     OW12457   1.462   2.028   3.342
 3853SOL    HW112458   1.516   1.969   3.402
 3853SOL    HW212459   1.512   2.043   3.256
 3854SOL     OW12460   1.118   3.219   3.194
 3854SOL    HW112461   1.153   3.176   3.110
 3854SOL    HW212462   1.190   3.276   3.234
 3855SOL     OW12463   4.081   6.402   0.159
 3855SOL    HW112464   4.033   6.451   0.232
 3855SOL    HW212465   4.056   6.441   0.071
 3856SOL     OW12466   0.493   1.665   5.784
 3856SOL    HW112467   0.470   1.575   5.821
 3856SOL    HW212468   0.459   1.672   5.691
 3857SOL     OW12469   1.305   6.385   5.794
 3857SOL    HW112470   1.399   6.396   5.826
 3857SOL    HW212471   1.305   6.349   5.701
 3858SOL     OW12472   3.345   1.578   5.651
 3858SOL    HW112473   3.258   1.588   5.602
 3858SOL    HW212474   3.421   1.592   5.588
 3859SOL     OW12475   6.221   1.032   1.103
 3859SOL    HW112476   6.139   1.007   1.052
 3859SOL    HW212477   6.255   1.120   1.071
 3860SOL     OW12478   1.800   0.987   4.241
 3860SOL    HW112479   1.795   1.079   4.204
 3860SOL    HW212480   1.753   0.983   4.329
 3861SOL     OW12481   4.717   6.372   2.780
 3861SOL    HW112482   4.774   6.324   2.847
 3861SOL    HW212483   4.713   6.469   2.803
 3862SOL     OW12484   1.002   0.616   4.461
 3862SOL    HW112485   1.068   0.691   4.455
 3862SOL    HW212486   0.969   0.593   4.370
 3863SOL     OW12487   5.817   1.414   6.720
 3863SOL    HW112488   5.827   1.374   6.629
 3863SOL    HW212489   5.728   1.390   6.758
 3864SOL     OW12490   2.488   0.665   5.305
 3864SOL    HW112491   2.494   0.741   5.240
 3864SOL    HW212492   2.436   0.695   5.386
 3865SOL     OW12493   4.067   1.627   1.019
 3865SOL    HW112494   4.028   1.539   0.991
 3865SOL    HW212495   4.166   1.624   1.010
 3866SOL     OW12496   3.663   1.317   6.732
 3866SOL    HW112497   3.712   1.232   6.748
 3866SOL    HW212498   3.726   1.394   6.738
 3867SOL     OW12499   1.343   4.012   3.477
 3867SOL    HW112500   1.256   3.997   3.429
 3867SOL    HW212501   1.379   4.102   3.452
 3868SOL     OW12502   4.162   0.275   7.024
 3868SOL    HW112503   4.163   0.176   7.014
 3868SOL    HW212504   4.248   0.313   6.989
 3869SOL     OW12505   6.441   3.070   3.578
 3869SOL    HW112506   6.431   3.016   3.662
 3869SOL    HW212507   6.459   3.165   3.602
 3870SOL     OW12508   6.581   6.701   1.585
 3870SOL    HW112509   6.616   6.682   1.493
 3870SOL    HW212510   6.566   6.615   1.633
 3871SOL     OW12511   3.502   0.179   3.048
 3871SOL    HW112512   3.466   0.260   3.094
 3871SOL    HW212513   3.449   0.163   2.964
 3872SOL     OW12514   2.928   3.458   4.449
 3872SOL    HW112515   2.942   3.418   4.358
 3872SOL    HW212516   2.931   3.558   4.442
 3873SOL     OW12517   5.476   4.490   0.705
 3873SOL    HW112518   5.402   4.430   0.675
 3873SOL    HW212519   5.498   4.472   0.801
 3874SOL     OW12520   4.195   0.919   0.680
 3874SOL    HW112521   4.183   0.849   0.609
 3874SOL    HW212522   4.221   1.006   0.637
 3875SOL     OW12523   2.088   2.686   3.469
 3875SOL    HW112524   1.990   2.699   3.454
 3875SOL    HW212525   2.114   2.728   3.556
 3876SOL     OW12526   3.532   5.345   1.370
 3876SOL    HW112527   3.468   5.410   1.329
 3876SOL    HW212528   3.530   5.260   1.319
 3877SOL     OW12529   6.695   2.416   1.247
 3877SOL    HW112530   6.794   2.420   1.235
 3877SOL    HW212531   6.664   2.321   1.243
 3878SOL     OW12532   4.711   6.275   4.390
 3878SOL    HW112533   4.700   6.205   4.461
 3878SOL    HW212534   4.806   6.278   4.360
 3879SOL     OW12535   5.750   5.468   0.880
 3879SOL    HW112536   5.830   5.408   0.874
 3879SOL    HW212537   5.780   5.563   0.882
 3880SOL     OW12538   5.133   4.020   4.702
 3880SOL    HW112539   5.078   4.016   4.785
 3880SOL    HW212540   5.225   3.984   4.721
 3881SOL     OW12541   1.299   3.686   2.026
 3881SOL    HW112542   1.305   3.612   1.959
 3881SOL    HW212543   1.371   3.753   2.008
 3882SOL     OW12544   0.148   1.166   6.378
 3882SOL    HW112545   0.212   1.191   6.450
 3882SOL    HW212546   0.105   1.249   6.342
 3883SOL     OW12547   4.159   1.311   2.109
 3883SOL    HW112548   4.088   1.292   2.041
 3883SOL    HW212549   4.138   1.396   2.156
 3884SOL     OW12550   0.579   6.010   2.381
 3884SOL    HW112551   0.639   5.960   2.444
 3884SOL    HW212552   0.585   5.970   2.290
 3885SOL     OW12553   6.681   5.516   2.779
 3885SOL    HW112554   6.716   5.452   2.847
 3885SOL    HW212555   6.756   5.571   2.743
 3886SOL     OW12556   4.378   5.679   5.370
 3886SOL    HW112557   4.428   5.636   5.445
 3886SOL    HW212558   4.348   5.770   5.399
 3887SOL     OW12559   0.704   6.981   0.239
 3887SOL    HW112560   0.728   7.005   0.145
 3887SOL    HW212561   0.644   6.901   0.239
 3888SOL     OW12562   6.841   6.949   5.128
 3888SOL    HW112563   6.833   6.972   5.225
 3888SOL    HW212564   6.817   6.853   5.114
 3889SOL     OW12565   6.867   3.442   0.356
 3889SOL    HW112566   6.945   3.432   0.296
 3889SOL    HW212567   6.788   3.473   0.303
 3890SOL     OW12568   6.239   4.530   3.308
 3890SOL    HW112569   6.171   4.467   3.269
 3890SOL    HW212570   6.283   4.581   3.234
 3891SOL     OW12571   5.210   3.732   4.589
 3891SOL    HW112572   5.276   3.707   4.660
 3891SOL    HW212573   5.163   3.816   4.616
 3892SOL     OW12574   0.475   2.467   1.211
 3892SOL    HW112575   0.558   2.507   1.173
 3892SOL    HW212576   0.432   2.532   1.273
 3893SOL     OW12577   4.311   3.301   0.448
 3893SOL    HW112578   4.324   3.376   0.513
 3893SOL    HW212579   4.219   3.264   0.458
 3894SOL     OW12580   4.711   1.356   6.967
 3894SOL    HW112581   4.717   1.301   6.883
 3894SOL    HW212582   4.742   1.301   0.015
 3895SOL     OW12583   0.855   0.349   5.797
 3895SOL    HW112584   0.790   0.418   5.829
 3895SOL    HW212585   0.873   0.363   5.699
 3896SOL     OW12586   0.649   1.417   5.968
 3896SOL    HW112587   0.713   1.356   6.014
 3896SOL    HW212588   0.680   1.434   5.874
 3897SOL     OW12589   3.675   5.148   2.657
 3897SOL    HW112590   3.649   5.208   2.582
 3897SOL    HW212591   3.608   5.154   2.730
 3898SOL     OW12592   2.686   2.730   5.890
 3898SOL    HW112593   2.746   2.710   5.813
 3898SOL    HW212594   2.718   2.813   5.936
 3899SOL     OW12595   4.740   6.939   5.458
 3899SOL    HW112596   4.766   0.001   5.428
 3899SOL    HW212597   4.641   6.933   5.465
 3900SOL     OW12598   4.844   3.068   3.694
 3900SOL    HW112599   4.846   3.168   3.687
 3900SOL    HW212600   4.879   3.028   3.609
 3901SOL     OW12601   3.149   0.569   6.247
 3901SOL    HW112602   3.183   0.475   6.248
 3901SOL    HW212603   3.190   0.620   6.322
 3902SOL     OW12604   6.099   2.741   1.723
 3902SOL    HW112605   6.002   2.729   1.701
 3902SOL    HW212606   6.108   2.770   1.818
 3903SOL     OW12607   3.710   5.782   0.410
 3903SOL    HW112608   3.677   5.695   0.446
 3903SOL    HW212609   3.700   5.853   0.481
 3904SOL     OW12610   2.114   1.509   6.131
 3904SOL    HW112611   2.166   1.465   6.058
 3904SOL    HW212612   2.178   1.542   6.201
 3905SOL     OW12613   6.908   7.005   6.657
 3905SOL    HW112614   6.925   0.059   6.604
 3905SOL    HW212615   6.889   7.029   6.752
 3906SOL     OW12616   5.796   6.042   5.591
 3906SOL    HW112617   5.739   5.996   5.523
 3906SOL    HW212618   5.889   6.004   5.588
 3907SOL     OW12619   5.737   1.081   3.361
 3907SOL    HW112620   5.821   1.071   3.308
 3907SOL    HW212621   5.664   1.027   3.318
 3908SOL     OW12622   0.854   2.358   0.131
 3908SOL    HW112623   0.921   2.304   0.080
 3908SOL    HW212624   0.789   2.296   0.176
 3909SOL     OW12625   6.360   5.924   5.501
 3909SOL    HW112626   6.369   5.894   5.596
 3909SOL    HW212627   6.381   5.848   5.440
 3910SOL     OW12628   3.273   3.850   2.884
 3910SOL    HW112629   3.197   3.867   2.822
 3910SOL    HW212630   3.243   3.792   2.960
 3911SOL     OW12631   5.107   1.664   5.211
 3911SOL    HW112632   5.177   1.689   5.145
 3911SOL    HW212633   5.017   1.692   5.178
 3912SOL     OW12634   5.365   0.956   5.436
 3912SOL    HW112635   5.293   0.909   5.385
 3912SOL    HW212636   5.451   0.906   5.426
 3913SOL     OW12637   2.754   6.277   6.435
 3913SOL    HW112638   2.775   6.199   6.376
 3913SOL    HW212639   2.831   6.341   6.433
 3914SOL     OW12640   2.707   0.842   1.473
 3914SOL    HW112641   2.683   0.934   1.441
 3914SOL    HW212642   2.738   0.787   1.395
 3915SOL     OW12643   4.797   5.509   1.632
 3915SOL    HW112644   4.770   5.534   1.539
 3915SOL    HW212645   4.895   5.524   1.643
 3916SOL     OW12646   1.346   0.415   4.041
 3916SOL    HW112647   1.414   0.392   3.971
 3916SOL    HW212648   1.347   0.346   4.113
 3917SOL     OW12649   6.900   6.310   6.864
 3917SOL    HW112650   6.808   6.269   6.861
 3917SOL    HW212651   6.907   6.371   6.942
 3918SOL     OW12652   5.440   6.207   1.539
 3918SOL    HW112653   5.349   6.214   1.581
 3918SOL    HW212654   5.439   6.255   1.451
 3919SOL     OW12655   3.632   6.539   6.893
 3919SOL    HW112656   3.573   6.462   6.870
 3919SOL    HW212657   3.587   6.624   6.865
 3920SOL     OW12658   3.389   3.220   0.823
 3920SOL    HW112659   3.424   3.270   0.744
 3920SOL    HW212660   3.451   3.231   0.900
 3921SOL     OW12661   0.355   3.704   1.670
 3921SOL    HW112662   0.280   3.676   1.610
 3921SOL    HW212663   0.369   3.803   1.662
 3922SOL     OW12664   6.523   3.270   1.677
 3922SOL    HW112665   6.619   3.248   1.697
 3922SOL    HW212666   6.464   3.218   1.738
 3923SOL     OW12667   6.718   0.539   7.002
 3923SOL    HW112668   6.714   0.630   6.961
 3923SOL    HW212669   6.759   0.475   6.937
 3924SOL     OW12670   6.320   4.783   3.477
 3924SOL    HW112671   6.295   4.695   3.435
 3924SOL    HW212672   6.371   4.838   3.411
 3925SOL     OW12673   2.871   5.144   1.280
 3925SOL    HW112674   2.969   5.160   1.285
 3925SOL    HW212675   2.841   5.087   1.356
 3926SOL     OW12676   6.797   5.355   2.978
 3926SOL    HW112677   6.866   5.401   3.034
 3926SOL    HW212678   6.769   5.269   3.022
 3927SOL     OW12679   6.524   2.634   3.978
 3927SOL    HW112680   6.434   2.599   3.954
 3927SOL    HW212681   6.514   2.723   4.023
 3928SOL     OW12682   3.934   6.023   6.300
 3928SOL    HW112683   4.003   5.952   6.306
 3928SOL    HW212684   3.970   6.101   6.250
 3929SOL     OW12685   7.006   0.691   5.443
 3929SOL    HW112686   7.009   0.741   5.357
 3929SOL    HW212687   0.028   0.742   5.513
 3930SOL     OW12688   2.649   1.810   3.602
 3930SOL    HW112689   2.715   1.884   3.614
 3930SOL    HW212690   2.588   1.806   3.682
 3931SOL     OW12691   1.460   0.607   1.778
 3931SOL    HW112692   1.368   0.570   1.767
 3931SOL    HW212693   1.463   0.700   1.741
 3932SOL     OW12694   1.627   4.710   3.368
 3932SOL    HW112695   1.628   4.639   3.437
 3932SOL    HW212696   1.678   4.680   3.288
 3933SOL     OW12697   2.385   6.333   0.165
 3933SOL    HW112698   2.348   6.292   0.249
 3933SOL    HW212699   2.466   6.387   0.187
 3934SOL     OW12700   6.745   1.198   0.150
 3934SOL    HW112701   6.779   1.261   0.220
 3934SOL    HW212702   6.648   1.217   0.133
 3935SOL     OW12703   2.860   6.345   0.046
 3935SOL    HW112704   2.783   6.359   7.013
 3935SOL    HW212705   2.880   6.429   0.095
 3936SOL     OW12706   7.020   5.294   5.468
 3936SOL    HW112707   6.949   5.354   5.506
 3936SOL    HW212708   0.054   5.348   5.413
 3937SOL     OW12709   6.916   2.140   3.573
 3937SOL    HW112710   6.903   2.046   3.604
 3937SOL    HW212711   6.906   2.202   3.652
 3938SOL     OW12712   0.650   1.658   3.748
 3938SOL    HW112713   0.645   1.715   3.830
 3938SOL    HW212714   0.726   1.690   3.691
 3939SOL     OW12715   2.456   2.436   2.544
 3939SOL    HW112716   2.494   2.362   2.488
 3939SOL    HW212717   2.400   2.496   2.488
 3940SOL     OW12718   5.034   4.874   0.999
 3940SOL    HW112719   5.060   4.956   1.049
 3940SOL    HW212720   5.110   4.810   0.998
 3941SOL     OW12721   5.064   3.016   5.620
 3941SOL    HW112722   5.038   3.012   5.716
 3941SOL    HW212723   5.040   3.106   5.583
 3942SOL     OW12724   0.693   6.883   6.744
 3942SOL    HW112725   0.613   6.926   6.703
 3942SOL    HW212726   0.664   6.810   6.806
 3943SOL     OW12727   0.145   3.486   2.971
 3943SOL    HW112728   0.175   3.415   3.034
 3943SOL    HW212729   0.080   3.448   2.906
 3944SOL     OW12730   4.598   2.655   5.086
 3944SOL    HW112731   4.546   2.672   5.169
 3944SOL    HW212732   4.575   2.564   5.051
 3945SOL     OW12733   0.277   1.781   0.473
 3945SOL    HW112734   0.212   1.855   0.458
 3945SOL    HW212735   0.350   1.786   0.405
 3946SOL     OW12736   5.605   5.613   5.644
 3946SOL    HW112737   5.683   5.647   5.695
 3946SOL    HW212738   5.584   5.520   5.673
 3947SOL     OW12739   5.500   6.168   0.819
 3947SOL    HW112740   5.498   6.234   0.744
 3947SOL    HW212741   5.420   6.108   0.813
 3948SOL     OW12742   1.460   5.491   2.354
 3948SOL    HW112743   1.372   5.466   2.394
 3948SOL    HW212744   1.449   5.575   2.301
 3949SOL     OW12745   4.566   0.577   3.129
 3949SOL    HW112746   4.578   0.582   3.228
 3949SOL    HW212747   4.656   0.569   3.086
 3950SOL     OW12748   2.106   3.951   0.692
 3950SOL    HW112749   2.072   4.031   0.741
 3950SOL    HW212750   2.030   3.905   0.647
 3951SOL     OW12751   5.327   0.091   1.053
 3951SOL    HW112752   5.384   0.171   1.071
 3951SOL    HW212753   5.232   0.120   1.039
 3952SOL     OW12754   6.347   2.774   2.546
 3952SOL    HW112755   6.345   2.701   2.477
 3952SOL    HW212756   6.266   2.769   2.604
 3953SOL     OW12757   3.796   4.850   1.639
 3953SOL    HW112758   3.882   4.802   1.623
 3953SOL    HW212759   3.795   4.935   1.585
 3954SOL     OW12760   4.277   5.193   4.920
 3954SOL    HW112761   4.306   5.210   4.825
 3954SOL    HW212762   4.202   5.127   4.920
 3955SOL     OW12763   3.080   5.746   6.603
 3955SOL    HW112764   3.090   5.834   6.649
 3955SOL    HW212765   3.091   5.672   6.670
 3956SOL     OW12766   0.607   0.866   3.099
 3956SOL    HW112767   0.590   0.877   3.197
 3956SOL    HW212768   0.556   0.935   3.049
 3957SOL     OW12769   5.099   6.132   4.293
 3957SOL    HW112770   5.146   6.146   4.206
 3957SOL    HW212771   5.063   6.039   4.298
 3958SOL     OW12772   6.017   1.278   4.839
 3958SOL    HW112773   6.105   1.299   4.797
 3958SOL    HW212774   5.947   1.336   4.798
 3959SOL     OW12775   4.074   0.227   0.745
 3959SOL    HW112776   4.143   0.212   0.816
 3959SOL    HW212777   4.119   0.257   0.661
 3960SOL     OW12778   5.096   1.947   6.389
 3960SOL    HW112779   4.999   1.969   6.375
 3960SOL    HW212780   5.152   2.008   6.333
 3961SOL     OW12781   5.592   1.629   2.750
 3961SOL    HW112782   5.525   1.687   2.797
 3961SOL    HW212783   5.659   1.686   2.703
 3962SOL     OW12784   3.058   3.961   0.369
 3962SOL    HW112785   3.077   4.058   0.357
 3962SOL    HW212786   3.135   3.908   0.334
 3963SOL     OW12787   5.058   5.189   3.693
 3963SOL    HW112788   4.986   5.150   3.751
 3963SOL    HW212789   5.017   5.255   3.630
 3964SOL     OW12790   4.685   5.053   4.016
 3964SOL    HW112791   4.716   5.141   4.051
 3964SOL    HW212792   4.637   5.003   4.089
 3965SOL     OW12793   4.746   2.583   4.706
 3965SOL    HW112794   4.740   2.669   4.758
 3965SOL    HW212795   4.828   2.533   4.734
 3966SOL     OW12796   5.009   6.425   6.417
 3966SOL    HW112797   5.055   6.491   6.475
 3966SOL    HW212798   4.978   6.470   6.333
 3967SOL     OW12799   2.133   3.449   2.751
 3967SOL    HW112800   2.182   3.375   2.797
 3967SOL    HW212801   2.120   3.526   2.814
 3968SOL     OW12802   4.710   0.372   1.127
 3968SOL    HW112803   4.734   0.374   1.030
 3968SOL    HW212804   4.628   0.316   1.140
 3969SOL     OW12805   1.581   4.426   2.431
 3969SOL    HW112806   1.620   4.465   2.347
 3969SOL    HW212807   1.616   4.333   2.443
 3970SOL     OW12808   5.987   6.206   3.255
 3970SOL    HW112809   5.965   6.291   3.302
 3970SOL    HW212810   5.980   6.220   3.156
 3971SOL     OW12811   3.235   5.445   3.336
 3971SOL    HW112812   3.266   5.536   3.364
 3971SOL    HW212813   3.288   5.375   3.384
 3972SOL     OW12814   1.416   4.109   0.868
 3972SOL    HW112815   1.472   4.132   0.947
 3972SOL    HW212816   1.364   4.189   0.839
 3973SOL     OW12817   1.560   5.403   6.456
 3973SOL    HW112818   1.624   5.477   6.434
 3973SOL    HW212819   1.469   5.426   6.422
 3974SOL     OW12820   2.125   0.370   5.320
 3974SOL    HW112821   2.150   0.301   5.252
 3974SOL    HW212822   2.029   0.357   5.347
 3975SOL     OW12823   5.153   1.180   5.312
 3975SOL    HW112824   5.155   1.250   5.384
 3975SOL    HW212825   5.197   1.097   5.345
 3976SOL     OW12826   1.328   5.744   1.437
 3976SOL    HW112827   1.385   5.746   1.519
 3976SOL    HW212828   1.364   5.809   1.370
 3977SOL     OW12829   2.406   3.807   5.669
 3977SOL    HW112830   2.388   3.729   5.610
 3977SOL    HW212831   2.406   3.778   5.764
 3978SOL     OW12832   5.885   5.066   4.782
 3978SOL    HW112833   5.976   5.049   4.822
 3978SOL    HW212834   5.824   4.990   4.805
 3979SOL     OW12835   3.014   0.368   0.262
 3979SOL    HW112836   2.975   0.460   0.267
 3979SOL    HW212837   3.051   0.342   0.351
 3980SOL     OW12838   5.516   6.091   0.459
 3980SOL    HW112839   5.513   6.185   0.426
 3980SOL    HW212840   5.611   6.062   0.470
 3981SOL     OW12841   3.472   0.322   0.646
 3981SOL    HW112842   3.417   0.289   0.570
 3981SOL    HW212843   3.544   0.382   0.612
 3982SOL     OW12844   2.299   6.955   3.368
 3982SOL    HW112845   2.316   6.925   3.274
 3982SOL    HW212846   2.362   0.000   3.391
 3983SOL     OW12847   5.143   4.800   4.223
 3983SOL    HW112848   5.205   4.729   4.192
 3983SOL    HW212849   5.067   4.808   4.158
 3984SOL     OW12850   6.596   1.361   2.835
 3984SOL    HW112851   6.616   1.290   2.767
 3984SOL    HW212852   6.552   1.319   2.915
 3985SOL     OW12853   2.915   4.402   6.603
 3985SOL    HW112854   2.845   4.363   6.662
 3985SOL    HW212855   2.880   4.487   6.562
 3986SOL     OW12856   4.949   1.782   2.356
 3986SOL    HW112857   5.047   1.769   2.340
 3986SOL    HW212858   4.901   1.695   2.341
 3987SOL     OW12859   3.737   5.198   3.483
 3987SOL    HW112860   3.828   5.236   3.465
 3987SOL    HW212861   3.745   5.112   3.532
 3988SOL     OW12862   3.622   4.463   6.566
 3988SOL    HW112863   3.546   4.527   6.555
 3988SOL    HW212864   3.601   4.378   6.517
 3989SOL     OW12865   6.762   2.997   6.823
 3989SOL    HW112866   6.744   3.031   6.916
 3989SOL    HW212867   6.790   2.901   6.828
 3990SOL     OW12868   4.561   2.093   2.945
 3990SOL    HW112869   4.574   2.143   3.030
 3990SOL    HW212870   4.502   2.014   2.962
 3991SOL     OW12871   6.162   0.804   2.744
 3991SOL    HW112872   6.206   0.849   2.666
 3991SOL    HW212873   6.231   0.784   2.814
 3992SOL     OW12874   3.140   1.487   0.182
 3992SOL    HW112875   3.151   1.410   0.244
 3992SOL    HW212876   3.143   1.454   0.087
 3993SOL     OW12877   1.469   1.947   2.344
 3993SOL    HW112878   1.488   1.850   2.327
 3993SOL    HW212879   1.377   1.969   2.314
 3994SOL     OW12880   1.798   0.169   5.944
 3994SOL    HW112881   1.794   0.224   6.027
 3994SOL    HW212882   1.883   0.117   5.942
 3995SOL     OW12883   2.637   3.374   5.857
 3995SOL    HW112884   2.676   3.451   5.806
 3995SOL    HW212885   2.709   3.307   5.877
 3996SOL     OW12886   0.884   6.920   4.553
 3996SOL    HW112887   0.975   6.962   4.554
 3996SOL    HW212888   0.888   6.830   4.596
 3997SOL     OW12889   5.266   1.611   3.503
 3997SOL    HW112890   5.362   1.584   3.494
 3997SOL    HW212891   5.250   1.695   3.451
 3998SOL     OW12892   4.336   1.439   3.559
 3998SOL    HW112893   4.347   1.361   3.620
 3998SOL    HW212894   4.310   1.408   3.468
 3999SOL     OW12895   5.306   3.394   4.016
 3999SOL    HW112896   5.211   3.401   4.044
 3999SOL    HW212897   5.365   3.435   4.086
 4000SOL     OW12898   3.385   6.667   3.195
 4000SOL    HW112899   3.469   6.653   3.247
 4000SOL    HW212900   3.407   6.700   3.104
 4001SOL     OW12901   2.425   1.560   3.432
 4001SOL    HW112902   2.440   1.638   3.372
 4001SOL    HW212903   2.400   1.480   3.378
 4002SOL     OW12904   3.237   4.141   0.153
 4002SOL    HW112905   3.247   4.166   0.249
 4002SOL    HW212906   3.326   4.114   0.116
 4003SOL     OW12907   3.814   0.152   4.295
 4003SOL    HW112908   3.729   0.194   4.328
 4003SOL    HW212909   3.862   0.217   4.236
 4004SOL     OW12910   5.181   1.727   3.854
 4004SOL    HW112911   5.148   1.650   3.799
 4004SOL    HW212912   5.259   1.769   3.808
 4005SOL     OW12913   5.043   5.257   7.013
 4005SOL    HW112914   5.094   5.296   0.061
 4005SOL    HW212915   4.982   5.185   0.016
 4006SOL     OW12916   4.848   5.694   2.707
 4006SOL    HW112917   4.904   5.704   2.789
 4006SOL    HW212918   4.824   5.598   2.694
 4007SOL     OW12919   0.117   2.859   7.029
 4007SOL    HW112920   0.131   2.927   6.957
 4007SOL    HW212921   0.137   2.768   6.994
 4008SOL     OW12922   3.004   1.913   4.071
 4008SOL    HW112923   2.992   2.009   4.046
 4008SOL    HW212924   2.915   1.868   4.080
 4009SOL     OW12925   4.276   3.311   1.499
 4009SOL    HW112926   4.340   3.265   1.561
 4009SOL    HW212927   4.322   3.388   1.454
 4010SOL     OW12928   2.294   3.583   1.250
 4010SOL    HW112929   2.371   3.631   1.208
 4010SOL    HW212930   2.216   3.644   1.255
 4011SOL     OW12931   0.659   1.353   1.760
 4011SOL    HW112932   0.646   1.303   1.846
 4011SOL    HW212933   0.590   1.324   1.694
 4012SOL     OW12934   6.238   4.808   1.921
 4012SOL    HW112935   6.242   4.745   1.844
 4012SOL    HW212936   6.280   4.766   2.001
 4013SOL     OW12937   2.967   1.449   5.181
 4013SOL    HW112938   2.922   1.484   5.099
 4013SOL    HW212939   2.983   1.524   5.245
 4014SOL     OW12940   5.275   6.363   2.501
 4014SOL    HW112941   5.301   6.456   2.527
 4014SOL    HW212942   5.312   6.298   2.567
 4015SOL     OW12943   4.999   4.909   6.307
 4015SOL    HW112944   5.002   4.876   6.402
 4015SOL    HW212945   5.029   4.836   6.246
 4016SOL     OW12946   2.540   6.046   5.887
 4016SOL    HW112947   2.549   5.956   5.929
 4016SOL    HW212948   2.563   6.040   5.790
 4017SOL     OW12949   0.198   6.166   0.634
 4017SOL    HW112950   0.143   6.223   0.574
 4017SOL    HW212951   0.187   6.197   0.729
 4018SOL     OW12952   3.812   6.189   2.616
 4018SOL    HW112953   3.871   6.172   2.694
 4018SOL    HW212954   3.724   6.224   2.647
 4019SOL     OW12955   5.228   4.442   3.546
 4019SOL    HW112956   5.279   4.516   3.502
 4019SOL    HW212957   5.161   4.481   3.610
 4020SOL     OW12958   4.809   1.640   5.218
 4020SOL    HW112959   4.840   1.553   5.181
 4020SOL    HW212960   4.776   1.626   5.312
 4021SOL     OW12961   4.001   4.978   5.743
 4021SOL    HW112962   3.912   4.964   5.785
 4021SOL    HW212963   4.058   4.897   5.758
 4022SOL     OW12964   4.843   1.660   6.623
 4022SOL    HW112965   4.903   1.711   6.685
 4022SOL    HW212966   4.777   1.607   6.676
 4023SOL     OW12967   6.380   1.649   4.749
 4023SOL    HW112968   6.301   1.691   4.703
 4023SOL    HW212969   6.453   1.635   4.683
 4024SOL     OW12970   3.422   6.656   3.622
 4024SOL    HW112971   3.389   6.750   3.629
 4024SOL    HW212972   3.521   6.657   3.606
 4025SOL     OW12973   0.327   4.111   2.750
 4025SOL    HW112974   0.373   4.169   2.683
 4025SOL    HW212975   0.395   4.067   2.808
 4026SOL     OW12976   5.590   5.787   4.075
 4026SOL    HW112977   5.576   5.719   4.148
 4026SOL    HW212978   5.642   5.745   4.000
 4027SOL     OW12979   3.577   4.294   1.837
 4027SOL    HW112980   3.477   4.296   1.844
 4027SOL    HW212981   3.610   4.378   1.795
 4028SOL     OW12982   1.869   2.016   4.298
 4028SOL    HW112983   1.822   2.082   4.357
 4028SOL    HW212984   1.857   1.924   4.336
 4029SOL     OW12985   2.842   4.153   5.949
 4029SOL    HW112986   2.791   4.139   6.034
 4029SOL    HW212987   2.778   4.164   5.873
 4030SOL     OW12988   0.916   2.519   5.562
 4030SOL    HW112989   0.841   2.580   5.538
 4030SOL    HW212990   0.906   2.433   5.513
 4031SOL     OW12991   4.859   5.558   3.732
 4031SOL    HW112992   4.879   5.555   3.830
 4031SOL    HW212993   4.775   5.508   3.713
 4032SOL     OW12994   6.407   6.409   4.058
 4032SOL    HW112995   6.343   6.472   4.014
 4032SOL    HW212996   6.497   6.416   4.015
 4033SOL     OW12997   3.225   3.606   4.671
 4033SOL    HW112998   3.290   3.641   4.739
 4033SOL    HW212999   3.182   3.683   4.624
 4034SOL     OW13000   6.115   1.213   4.544
 4034SOL    HW113001   6.177   1.267   4.601
 4034SOL    HW213002   6.079   1.270   4.470
 4035SOL     OW13003   0.529   4.621   6.900
 4035SOL    HW113004   0.609   4.571   6.866
 4035SOL    HW213005   0.536   4.632   7.000
 4036SOL     OW13006   6.071   6.164   2.746
 4036SOL    HW113007   6.022   6.218   2.678
 4036SOL    HW213008   6.169   6.186   2.742
 4037SOL     OW13009   1.317   3.611   6.059
 4037SOL    HW113010   1.345   3.604   5.964
 4037SOL    HW213011   1.246   3.681   6.068
 4038SOL     OW13012   4.922   4.345   2.862
 4038SOL    HW113013   4.983   4.411   2.906
 4038SOL    HW213014   4.889   4.280   2.931
 4039SOL     OW13015   5.304   5.874   0.136
 4039SOL    HW113016   5.205   5.887   0.148
 4039SOL    HW213017   5.351   5.961   0.147
 4040SOL     OW13018   3.099   0.448   1.153
 4040SOL    HW113019   3.065   0.388   1.080
 4040SOL    HW213020   3.073   0.410   1.242
 4041SOL     OW13021   0.848   6.126   3.018
 4041SOL    HW113022   0.921   6.165   2.961
 4041SOL    HW213023   0.880   6.040   3.059
 4042SOL     OW13024   6.072   5.307   2.325
 4042SOL    HW113025   6.128   5.285   2.405
 4042SOL    HW213026   6.109   5.260   2.245
 4043SOL     OW13027   4.698   1.940   2.271
 4043SOL    HW113028   4.778   1.913   2.325
 4043SOL    HW213029   4.649   2.013   2.318
 4044SOL     OW13030   6.091   0.436   3.086
 4044SOL    HW113031   6.052   0.389   3.164
 4044SOL    HW213032   6.151   0.509   3.118
 4045SOL     OW13033   2.410   4.788   6.783
 4045SOL    HW113034   2.360   4.872   6.806
 4045SOL    HW213035   2.387   4.716   6.848
 4046SOL     OW13036   0.792   1.968   1.905
 4046SOL    HW113037   0.711   1.989   1.959
 4046SOL    HW213038   0.793   2.026   1.823
 4047SOL     OW13039   2.779   3.584   1.703
 4047SOL    HW113040   2.689   3.573   1.661
 4047SOL    HW213041   2.785   3.528   1.785
 4048SOL     OW13042   5.452   0.858   1.351
 4048SOL    HW113043   5.456   0.893   1.445
 4048SOL    HW213044   5.493   0.925   1.289
 4049SOL     OW13045   6.050   6.901   5.709
 4049SOL    HW113046   5.994   6.848   5.645
 4049SOL    HW213047   6.089   6.980   5.662
 4050SOL     OW13048   1.816   6.304   0.206
 4050SOL    HW113049   1.760   6.383   0.232
 4050SOL    HW213050   1.897   6.300   0.266
 4051SOL     OW13051   2.911   4.911   0.449
 4051SOL    HW113052   2.885   4.844   0.380
 4051SOL    HW213053   2.980   4.972   0.412
 4052SOL     OW13054   0.713   0.376   0.140
 4052SOL    HW113055   0.666   0.309   0.083
 4052SOL    HW213056   0.726   0.339   0.232
 4053SOL     OW13057   3.368   5.133   3.969
 4053SOL    HW113058   3.430   5.056   3.980
 4053SOL    HW213059   3.405   5.197   3.901
 4054SOL     OW13060   3.291   2.602   0.735
 4054SOL    HW113061   3.265   2.572   0.827
 4054SOL    HW213062   3.357   2.677   0.742
 4055SOL     OW13063   2.959   2.705   6.032
 4055SOL    HW113064   2.965   2.727   5.935
 4055SOL    HW213065   2.965   2.605   6.044
 4056SOL     OW13066   3.748   2.969   6.707
 4056SOL    HW113067   3.812   2.972   6.631
 4056SOL    HW213068   3.654   2.964   6.672
 4057SOL     OW13069   5.004   3.428   0.015
 4057SOL    HW113070   4.991   3.344   6.992
 4057SOL    HW213071   5.091   3.470   7.018
 4058SOL     OW13072   2.500   1.098   4.988
 4058SOL    HW113073   2.510   1.022   5.053
 4058SOL    HW213074   2.428   1.160   5.021
 4059SOL     OW13075   2.108   1.961   4.674
 4059SOL    HW113076   2.148   1.879   4.632
 4059SOL    HW213077   2.010   1.946   4.690
 4060SOL     OW13078   4.041   4.869   4.139
 4060SOL    HW113079   4.066   4.792   4.080
 4060SOL    HW213080   4.120   4.928   4.154
 4061SOL     OW13081   3.674   4.502   1.662
 4061SOL    HW113082   3.634   4.568   1.726
 4061SOL    HW213083   3.654   4.530   1.568
 4062SOL     OW13084   3.227   1.195   2.402
 4062SOL    HW113085   3.259   1.232   2.489
 4062SOL    HW213086   3.203   1.099   2.413
 4063SOL     OW13087   3.142   5.504   6.040
 4063SOL    HW113088   3.104   5.592   6.068
 4063SOL    HW213089   3.069   5.444   6.007
 4064SOL     OW13090   0.839   0.327   2.813
 4064SOL    HW113091   0.890   0.403   2.854
 4064SOL    HW213092   0.778   0.362   2.743
 4065SOL     OW13093   6.827   6.622   1.032
 4065SOL    HW113094   6.916   6.667   1.030
 4065SOL    HW213095   6.839   6.523   1.043
 4066SOL     OW13096   5.579   3.822   1.900
 4066SOL    HW113097   5.624   3.872   1.826
 4066SOL    HW213098   5.498   3.873   1.930
 4067SOL     OW13099   5.676   1.502   2.961
 4067SOL    HW113100   5.651   1.548   2.875
 4067SOL    HW213101   5.737   1.425   2.941
 4068SOL     OW13102   5.615   0.680   4.435
 4068SOL    HW113103   5.694   0.695   4.494
 4068SOL    HW213104   5.573   0.592   4.458
 4069SOL     OW13105   5.370   5.015   0.704
 4069SOL    HW113106   5.448   4.984   0.649
 4069SOL    HW213107   5.392   5.102   0.747
 4070SOL     OW13108   2.161   4.190   3.170
 4070SOL    HW113109   2.181   4.137   3.087
 4070SOL    HW213110   2.242   4.240   3.198
 4071SOL     OW13111   1.622   0.451   4.286
 4071SOL    HW113112   1.667   0.536   4.314
 4071SOL    HW213113   1.682   0.401   4.223
 4072SOL     OW13114   1.311   0.142   4.618
 4072SOL    HW113115   1.411   0.143   4.624
 4072SOL    HW213116   1.278   0.233   4.593
 4073SOL     OW13117   2.558   5.453   6.353
 4073SOL    HW113118   2.620   5.532   6.352
 4073SOL    HW213119   2.586   5.387   6.283
 4074SOL     OW13120   1.077   2.776   1.018
 4074SOL    HW113121   1.071   2.845   0.945
 4074SOL    HW213122   0.992   2.723   1.020
 4075SOL     OW13123   4.500   1.355   3.133
 4075SOL    HW113124   4.417   1.342   3.187
 4075SOL    HW213125   4.578   1.372   3.194
 4076SOL     OW13126   2.180   3.324   4.689
 4076SOL    HW113127   2.179   3.357   4.595
 4076SOL    HW213128   2.086   3.308   4.719
 4077SOL     OW13129   3.818   0.749   6.980
 4077SOL    HW113130   3.779   0.813   0.017
 4077SOL    HW213131   3.781   0.657   6.997
 4078SOL     OW13132   6.018   4.115   1.326
 4078SOL    HW113133   5.978   4.069   1.246
 4078SOL    HW213134   6.104   4.157   1.299
 4079SOL     OW13135   0.897   1.122   3.587
 4079SOL    HW113136   0.891   1.063   3.506
 4079SOL    HW213137   0.821   1.102   3.648
 4080SOL     OW13138   3.432   3.512   1.483
 4080SOL    HW113139   3.414   3.497   1.386
 4080SOL    HW213140   3.350   3.548   1.527
 4081SOL     OW13141   2.003   1.545   5.221
 4081SOL    HW113142   2.008   1.615   5.292
 4081SOL    HW213143   2.051   1.463   5.252
 4082SOL     OW13144   0.975   2.728   4.836
 4082SOL    HW113145   1.038   2.665   4.881
 4082SOL    HW213146   1.018   2.818   4.827
 4083SOL     OW13147   5.701   4.833   3.253
 4083SOL    HW113148   5.713   4.932   3.259
 4083SOL    HW213149   5.604   4.811   3.256
 4084SOL     OW13150   4.674   1.880   3.563
 4084SOL    HW113151   4.691   1.959   3.621
 4084SOL    HW213152   4.625   1.908   3.481
 4085SOL     OW13153   2.786   5.607   2.013
 4085SOL    HW113154   2.803   5.702   1.990
 4085SOL    HW213155   2.865   5.551   1.986
 4086SOL     OW13156   6.597   5.798   6.479
 4086SOL    HW113157   6.564   5.721   6.423
 4086SOL    HW213158   6.672   5.843   6.432
 4087SOL     OW13159   2.416   6.853   2.475
 4087SOL    HW113160   2.497   6.889   2.521
 4087SOL    HW213161   2.383   6.772   2.523
 4088SOL     OW13162   0.226   1.318   5.479
 4088SOL    HW113163   0.254   1.349   5.388
 4088SOL    HW213164   0.153   1.251   5.471
 4089SOL     OW13165   0.162   6.462   3.679
 4089SOL    HW113166   0.064   6.465   3.656
 4089SOL    HW213167   0.174   6.475   3.777
 4090SOL     OW13168   2.146   6.990   5.374
 4090SOL    HW113169   2.232   6.978   5.324
 4090SOL    HW213170   2.101   0.044   5.344
 4091SOL     OW13171   2.123   5.521   1.190
 4091SOL    HW113172   2.133   5.422   1.178
 4091SOL    HW213173   2.033   5.541   1.229
 4092SOL     OW13174   4.904   3.304   4.416
 4092SOL    HW113175   4.852   3.371   4.363
 4092SOL    HW213176   4.923   3.341   4.507
 4093SOL     OW13177   5.212   5.651   2.824
 4093SOL    HW113178   5.139   5.609   2.877
 4093SOL    HW213179   5.260   5.580   2.771
 4094SOL     OW13180   0.117   5.587   6.791
 4094SOL    HW113181   0.182   5.512   6.779
 4094SOL    HW213182   0.041   5.576   6.727
 4095SOL     OW13183   0.412   4.555   0.212
 4095SOL    HW113184   0.425   4.619   0.288
 4095SOL    HW213185   0.316   4.554   0.185
 4096SOL     OW13186   1.691   1.788   6.705
 4096SOL    HW113187   1.694   1.883   6.673
 4096SOL    HW213188   1.640   1.784   6.791
 4097SOL     OW13189   0.219   4.617   5.309
 4097SOL    HW113190   0.242   4.710   5.280
 4097SOL    HW213191   0.256   4.600   5.400
 4098SOL     OW13192   2.422   5.245   2.953
 4098SOL    HW113193   2.504   5.259   2.899
 4098SOL    HW213194   2.447   5.207   3.042
 4099SOL     OW13195   4.450   4.520   5.784
 4099SOL    HW113196   4.497   4.552   5.867
 4099SOL    HW213197   4.394   4.441   5.806
 4100SOL     OW13198   1.757   0.665   3.721
 4100SOL    HW113199   1.815   0.723   3.664
 4100SOL    HW213200   1.771   0.689   3.817
 4101SOL     OW13201   6.260   0.624   0.323
 4101SOL    HW113202   6.180   0.567   0.341
 4101SOL    HW213203   6.300   0.599   0.235
 4102SOL     OW13204   1.885   0.600   0.017
 4102SOL    HW113205   1.924   0.619   6.956
 4102SOL    HW213206   1.786   0.587   0.009
 4103SOL     OW13207   1.366   6.949   1.967
 4103SOL    HW113208   1.460   6.928   1.940
 4103SOL    HW213209   1.353   6.922   2.063
 4104SOL     OW13210   0.211   5.663   3.644
 4104SOL    HW113211   0.212   5.723   3.564
 4104SOL    HW213212   0.294   5.676   3.697
 4105SOL     OW13213   4.544   1.304   0.835
 4105SOL    HW113214   4.580   1.366   0.766
 4105SOL    HW213215   4.617   1.276   0.897
 4106SOL     OW13216   0.040   1.916   3.827
 4106SOL    HW113217   0.122   1.973   3.820
 4106SOL    HW213218   0.066   1.823   3.852
 4107SOL     OW13219   0.451   6.330   6.273
 4107SOL    HW113220   0.464   6.388   6.353
 4107SOL    HW213221   0.526   6.346   6.208
 4108SOL     OW13222   0.103   5.324   4.022
 4108SOL    HW113223   0.025   5.263   4.034
 4108SOL    HW213224   0.070   5.417   4.008
 4109SOL     OW13225   6.081   5.821   3.473
 4109SOL    HW113226   6.100   5.920   3.472
 4109SOL    HW213227   6.065   5.790   3.379
 4110SOL     OW13228   5.068   3.743   0.273
 4110SOL    HW113229   5.127   3.692   0.335
 4110SOL    HW213230   5.107   3.742   0.181
 4111SOL     OW13231   0.017   3.930   5.439
 4111SOL    HW113232   0.003   3.892   5.348
 4111SOL    HW213233   0.063   4.018   5.432
 4112SOL     OW13234   4.563   0.095   4.948
 4112SOL    HW113235   4.467   0.068   4.958
 4112SOL    HW213236   4.572   0.154   4.868
 4113SOL     OW13237   4.734   4.289   4.821
 4113SOL    HW113238   4.768   4.262   4.911
 4113SOL    HW213239   4.798   4.258   4.750
 4114SOL     OW13240   6.512   1.368   3.128
 4114SOL    HW113241   6.492   1.462   3.155
 4114SOL    HW213242   6.437   1.308   3.156
 4115SOL     OW13243   3.043   4.851   3.703
 4115SOL    HW113244   2.960   4.876   3.754
 4115SOL    HW213245   3.087   4.773   3.747
 4116SOL     OW13246   5.619   2.689   3.311
 4116SOL    HW113247   5.656   2.657   3.224
 4116SOL    HW213248   5.529   2.648   3.326
 4117SOL     OW13249   1.105   2.756   2.177
 4117SOL    HW113250   1.036   2.689   2.201
 4117SOL    HW213251   1.192   2.709   2.158
 4118SOL     OW13252   6.979   6.172   6.278
 4118SOL    HW113253   6.900   6.189   6.219
 4118SOL    HW213254   6.957   6.195   6.372
 4119SOL     OW13255   1.977   1.333   3.007
 4119SOL    HW113256   1.897   1.388   2.981
 4119SOL    HW213257   2.050   1.347   2.939
 4120SOL     OW13258   1.844   1.117   6.434
 4120SOL    HW113259   1.891   1.127   6.522
 4120SOL    HW213260   1.878   1.186   6.370
 4121SOL     OW13261   6.839   6.873   2.262
 4121SOL    HW113262   6.742   6.876   2.285
 4121SOL    HW213263   6.878   6.787   2.294
 4122SOL     OW13264   0.694   4.953   4.274
 4122SOL    HW113265   0.721   4.858   4.288
 4122SOL    HW213266   0.771   5.004   4.236
 4123SOL     OW13267   3.749   4.888   2.693
 4123SOL    HW113268   3.668   4.834   2.671
 4123SOL    HW213269   3.729   4.985   2.677
 4124SOL     OW13270   6.492   6.020   0.737
 4124SOL    HW113271   6.450   6.015   0.646
 4124SOL    HW213272   6.420   6.026   0.806
 4125SOL     OW13273   5.367   2.044   1.704
 4125SOL    HW113274   5.415   2.128   1.677
 4125SOL    HW213275   5.429   1.966   1.691
 4126SOL     OW13276   1.185   2.429   1.838
 4126SOL    HW113277   1.215   2.515   1.797
 4126SOL    HW213278   1.217   2.353   1.782
 4127SOL     OW13279   3.827   2.133   4.029
 4127SOL    HW113280   3.873   2.166   4.111
 4127SOL    HW213281   3.748   2.077   4.054
 4128SOL     OW13282   0.433   3.399   1.306
 4128SOL    HW113283   0.468   3.461   1.376
 4128SOL    HW213284   0.505   3.334   1.280
 4129SOL     OW13285   2.682   3.184   0.707
 4129SOL    HW113286   2.759   3.245   0.724
 4129SOL    HW213287   2.689   3.146   0.615
 4130SOL     OW13288   6.048   3.083   1.154
 4130SOL    HW113289   6.098   3.025   1.218
 4130SOL    HW213290   5.953   3.092   1.183
 4131SOL     OW13291   4.777   0.497   1.987
 4131SOL    HW113292   4.712   0.449   2.046
 4131SOL    HW213293   4.867   0.454   1.993
 4132SOL     OW13294   6.486   3.843   4.779
 4132SOL    HW113295   6.451   3.935   4.799
 4132SOL    HW213296   6.516   3.800   4.863
 4133SOL     OW13297   6.068   6.750   1.773
 4133SOL    HW113298   6.122   6.833   1.764
 4133SOL    HW213299   6.129   6.671   1.782
 4134SOL     OW13300   2.315   3.088   1.347
 4134SOL    HW113301   2.387   3.100   1.278
 4134SOL    HW213302   2.268   3.001   1.331
 4135SOL     OW13303   0.056   1.433   2.644
 4135SOL    HW113304   0.142   1.468   2.681
 4135SOL    HW213305   0.068   1.338   2.615
 4136SOL     OW13306   1.063   4.299   2.039
 4136SOL    HW113307   1.108   4.377   1.995
 4136SOL    HW213308   0.964   4.308   2.029
 4137SOL     OW13309   1.601   2.904   0.451
 4137SOL    HW113310   1.650   2.864   0.529
 4137SOL    HW213311   1.547   2.833   0.406
 4138SOL     OW13312   4.174   6.193   1.159
 4138SOL    HW113313   4.208   6.261   1.094
 4138SOL    HW213314   4.163   6.235   1.249
 4139SOL     OW13315   1.554   1.777   3.147
 4139SOL    HW113316   1.636   1.737   3.188
 4139SOL    HW213317   1.570   1.874   3.130
 4140SOL     OW13318   2.473   2.674   4.275
 4140SOL    HW113319   2.385   2.712   4.247
 4140SOL    HW213320   2.474   2.662   4.374
 4141SOL     OW13321   4.132   0.039   6.857
 4141SOL    HW113322   4.175   6.983   6.887
 4141SOL    HW213323   4.146   0.049   6.758
 4142SOL     OW13324   6.822   4.234   2.861
 4142SOL    HW113325   6.919   4.214   2.875
 4142SOL    HW213326   6.799   4.321   2.904
 4143SOL     OW13327   5.955   3.347   0.653
 4143SOL    HW113328   5.916   3.271   0.602
 4143SOL    HW213329   6.012   3.312   0.728
 4144SOL     OW13330   5.897   1.927   0.565
 4144SOL    HW113331   5.913   1.959   0.471
 4144SOL    HW213332   5.813   1.872   0.567
 4145SOL     OW13333   0.246   6.519   0.587
 4145SOL    HW113334   0.274   6.442   0.645
 4145SOL    HW213335   0.153   6.505   0.555
 4146SOL     OW13336   5.657   6.459   3.314
 4146SOL    HW113337   5.670   6.385   3.247
 4146SOL    HW213338   5.561   6.461   3.342
 4147SOL     OW13339   4.521   4.109   5.286
 4147SOL    HW113340   4.436   4.062   5.312
 4147SOL    HW213341   4.586   4.042   5.251
 4148SOL     OW13342   2.751   0.729   5.548
 4148SOL    HW113343   2.693   0.807   5.522
 4148SOL    HW213344   2.698   0.664   5.602
 4149SOL     OW13345   2.069   2.944   0.781
 4149SOL    HW113346   2.019   2.986   0.857
 4149SOL    HW213347   2.130   2.874   0.817
 4150SOL     OW13348   6.171   2.355   6.089
 4150SOL    HW113349   6.164   2.352   5.990
 4150SOL    HW213350   6.138   2.444   6.122
 4151SOL     OW13351   2.260   6.971   4.753
 4151SOL    HW113352   2.277   6.911   4.831
 4151SOL    HW213353   2.166   6.959   4.722
 4152SOL     OW13354   3.118   5.682   1.911
 4152SOL    HW113355   3.103   5.692   2.009
 4152SOL    HW213356   3.212   5.710   1.889
 4153SOL     OW13357   6.821   5.108   1.607
 4153SOL    HW113358   6.894   5.174   1.589
 4153SOL    HW213359   6.754   5.112   1.533
 4154SOL     OW13360   0.865   5.771   4.893
 4154SOL    HW113361   0.958   5.736   4.899
 4154SOL    HW213362   0.856   5.852   4.952
 4155SOL     OW13363   0.967   1.975   1.420
 4155SOL    HW113364   1.008   2.052   1.371
 4155SOL    HW213365   0.937   1.906   1.354
 4156SOL     OW13366   6.817   4.654   5.105
 4156SOL    HW113367   6.764   4.641   5.189
 4156SOL    HW213368   6.767   4.713   5.042
 4157SOL     OW13369   6.708   6.603   1.909
 4157SOL    HW113370   6.744   6.543   1.980
 4157SOL    HW213371   6.741   6.696   1.925
 4158SOL     OW13372   1.887   2.380   1.808
 4158SOL    HW113373   1.951   2.455   1.824
 4158SOL    HW213374   1.898   2.311   1.879
 4159SOL     OW13375   3.073   1.378   3.104
 4159SOL    HW113376   3.024   1.347   3.186
 4159SOL    HW213377   3.043   1.325   3.025
 4160SOL     OW13378   6.626   0.082   0.109
 4160SOL    HW113379   6.604   7.014   0.118
 4160SOL    HW213380   6.564   0.125   0.044
 4161SOL     OW13381   2.186   1.847   1.346
 4161SOL    HW113382   2.175   1.945   1.363
 4161SOL    HW213383   2.099   1.808   1.314
 4162SOL     OW13384   6.400   5.992   1.269
 4162SOL    HW113385   6.445   5.954   1.188
 4162SOL    HW213386   6.352   5.919   1.318
 4163SOL     OW13387   4.255   6.803   1.176
 4163SOL    HW113388   4.242   6.760   1.087
 4163SOL    HW213389   4.329   6.869   1.171
 4164SOL     OW13390   0.010   6.473   4.981
 4164SOL    HW113391   6.942   6.455   4.979
 4164SOL    HW213392   0.057   6.399   5.028
 4165SOL     OW13393   3.749   1.468   5.723
 4165SOL    HW113394   3.706   1.379   5.742
 4165SOL    HW213395   3.833   1.454   5.671
 4166SOL     OW13396   5.697   0.364   2.927
 4166SOL    HW113397   5.776   0.424   2.918
 4166SOL    HW213398   5.613   0.418   2.917
 4167SOL     OW13399   3.109   4.916   5.907
 4167SOL    HW113400   3.140   4.832   5.952
 4167SOL    HW213401   3.185   4.958   5.858
 4168SOL     OW13402   6.885   4.710   0.440
 4168SOL    HW113403   6.952   4.637   0.427
 4168SOL    HW213404   6.897   4.751   0.530
 4169SOL     OW13405   5.232   4.020   5.157
 4169SOL    HW113406   5.237   3.937   5.101
 4169SOL    HW213407   5.301   4.086   5.126
 4170SOL     OW13408   4.813   2.921   4.639
 4170SOL    HW113409   4.814   2.998   4.702
 4170SOL    HW213410   4.776   2.841   4.685
 4171SOL     OW13411   1.405   3.882   1.290
 4171SOL    HW113412   1.492   3.901   1.243
 4171SOL    HW213413   1.330   3.885   1.224
 4172SOL     OW13414   3.489   3.675   0.944
 4172SOL    HW113415   3.409   3.619   0.923
 4172SOL    HW213416   3.561   3.616   0.980
 4173SOL     OW13417   4.467   2.818   5.410
 4173SOL    HW113418   4.426   2.737   5.367
 4173SOL    HW213419   4.499   2.795   5.501
 4174SOL     OW13420   4.843   0.385   4.396
 4174SOL    HW113421   4.868   0.462   4.454
 4174SOL    HW213422   4.925   0.342   4.359
 4175SOL     OW13423   1.749   4.483   6.627
 4175SOL    HW113424   1.840   4.470   6.589
 4175SOL    HW213425   1.749   4.459   6.724
 4176SOL     OW13426   5.321   6.564   0.192
 4176SOL    HW113427   5.352   6.497   0.260
 4176SOL    HW213428   5.327   6.525   0.101
 4177SOL     OW13429   4.809   4.843   4.823
 4177SOL    HW113430   4.903   4.826   4.855
 4177SOL    HW213431   4.781   4.768   4.763
 4178SOL     OW13432   3.722   6.140   2.347
 4178SOL    HW113433   3.755   6.144   2.441
 4178SOL    HW213434   3.741   6.226   2.301
 4179SOL     OW13435   5.261   3.308   4.646
 4179SOL    HW113436   5.198   3.335   4.573
 4179SOL    HW213437   5.221   3.331   4.735
 4180SOL     OW13438   6.020   3.599   0.623
 4180SOL    HW113439   5.967   3.515   0.625
 4180SOL    HW213440   6.009   3.648   0.710
 4181SOL     OW13441   5.431   0.424   5.768
 4181SOL    HW113442   5.467   0.388   5.682
 4181SOL    HW213443   5.393   0.515   5.753
 4182SOL     OW13444   0.822   5.822   4.032
 4182SOL    HW113445   0.843   5.762   4.109
 4182SOL    HW213446   0.782   5.907   4.066
 4183SOL     OW13447   2.229   1.081   1.868
 4183SOL    HW113448   2.177   1.040   1.793
 4183SOL    HW213449   2.324   1.092   1.839
 4184SOL     OW13450   3.713   0.170   2.292
 4184SOL    HW113451   3.639   0.117   2.251
 4184SOL    HW213452   3.704   0.266   2.266
 4185SOL     OW13453   0.417   3.566   3.835
 4185SOL    HW113454   0.479   3.611   3.771
 4185SOL    HW213455   0.383   3.481   3.795
 4186SOL     OW13456   2.139   5.783   6.869
 4186SOL    HW113457   2.221   5.840   6.869
 4186SOL    HW213458   2.140   5.725   6.951
 4187SOL     OW13459   2.314   3.318   7.011
 4187SOL    HW113460   2.263   3.296   6.927
 4187SOL    HW213461   2.400   3.362   6.987
 4188SOL     OW13462   5.607   0.824   5.519
 4188SOL    HW113463   5.661   0.899   5.558
 4188SOL    HW213464   5.653   0.787   5.439
 4189SOL     OW13465   5.014   5.386   3.511
 4189SOL    HW113466   4.918   5.367   3.494
 4189SOL    HW213467   5.022   5.454   3.585
 4190SOL     OW13468   7.006   6.211   0.849
 4190SOL    HW113469   6.995   6.241   0.754
 4190SOL    HW213470   6.965   6.278   0.910
 4191SOL     OW13471   4.809   3.709   6.126
 4191SOL    HW113472   4.779   3.686   6.218
 4191SOL    HW213473   4.790   3.806   6.107
 4192SOL     OW13474   1.035   1.375   2.302
 4192SOL    HW113475   1.001   1.352   2.393
 4192SOL    HW213476   1.066   1.470   2.301
 4193SOL     OW13477   5.738   0.719   0.203
 4193SOL    HW113478   5.763   0.690   0.295
 4193SOL    HW213479   5.820   0.751   0.155
 4194SOL     OW13480   3.845   0.706   5.611
 4194SOL    HW113481   3.874   0.623   5.660
 4194SOL    HW213482   3.836   0.686   5.514
 4195SOL     OW13483   4.598   6.607   1.873
 4195SOL    HW113484   4.673   6.541   1.863
 4195SOL    HW213485   4.512   6.558   1.887
 4196SOL     OW13486   6.771   2.927   3.536
 4196SOL    HW113487   6.816   2.848   3.494
 4196SOL    HW213488   6.813   3.011   3.502
 4197SOL     OW13489   4.028   6.178   5.705
 4197SOL    HW113490   4.059   6.243   5.775
 4197SOL    HW213491   3.930   6.189   5.691
 4198SOL     OW13492   6.609   0.421   2.306
 4198SOL    HW113493   6.634   0.500   2.250
 4198SOL    HW213494   6.512   0.401   2.293
 4199SOL     OW13495   1.555   3.706   6.229
 4199SOL    HW113496   1.469   3.692   6.179
 4199SOL    HW213497   1.574   3.803   6.236
 4200SOL     OW13498   3.487   1.072   5.277
 4200SOL    HW113499   3.501   1.122   5.362
 4200SOL    HW213500   3.428   1.124   5.217
 4201SOL     OW13501   6.232   6.797   3.607
 4201SOL    HW113502   6.314   6.806   3.550
 4201SOL    HW213503   6.198   6.888   3.631
 4202SOL     OW13504   3.695   5.441   6.336
 4202SOL    HW113505   3.606   5.397   6.345
 4202SOL    HW213506   3.725   5.439   6.240
 4203SOL     OW13507   4.954   4.776   0.562
 4203SOL    HW113508   4.997   4.866   0.572
 4203SOL    HW213509   5.024   4.706   0.558
 4204SOL     OW13510   3.839   3.358   5.751
 4204SOL    HW113511   3.766   3.332   5.815
 4204SOL    HW213512   3.813   3.442   5.704
 4205SOL     OW13513   3.735   5.587   5.110
 4205SOL    HW113514   3.798   5.591   5.188
 4205SOL    HW213515   3.778   5.534   5.036
 4206SOL     OW13516   0.787   1.275   4.960
 4206SOL    HW113517   0.716   1.205   4.964
 4206SOL    HW213518   0.857   1.248   4.893
 4207SOL     OW13519   1.735   2.386   1.400
 4207SOL    HW113520   1.646   2.395   1.445
 4207SOL    HW213521   1.741   2.297   1.354
 4208SOL     OW13522   1.295   4.610   5.306
 4208SOL    HW113523   1.357   4.687   5.290
 4208SOL    HW213524   1.317   4.536   5.242
 4209SOL     OW13525   6.731   5.786   2.957
 4209SOL    HW113526   6.772   5.702   2.921
 4209SOL    HW213527   6.636   5.768   2.983
 4210SOL     OW13528   3.879   3.160   4.517
 4210SOL    HW113529   3.861   3.255   4.491
 4210SOL    HW213530   3.792   3.112   4.529
 4211SOL     OW13531   3.454   1.925   5.190
 4211SOL    HW113532   3.411   1.847   5.236
 4211SOL    HW213533   3.551   1.930   5.214
 4212SOL     OW13534   6.993   1.236   3.875
 4212SOL    HW113535   6.981   1.198   3.784
 4212SOL    HW213536   6.993   1.336   3.870
 4213SOL     OW13537   2.908   0.946   3.142
 4213SOL    HW113538   2.970   1.024   3.159
 4213SOL    HW213539   2.939   0.867   3.195
 4214SOL     OW13540   0.699   5.631   4.595
 4214SOL    HW113541   0.707   5.562   4.523
 4214SOL    HW213542   0.674   5.587   4.681
 4215SOL     OW13543   5.237   6.610   5.313
 4215SOL    HW113544   5.256   6.703   5.343
 4215SOL    HW213545   5.308   6.549   5.347
 4216SOL     OW13546   1.480   0.756   2.498
 4216SOL    HW113547   1.531   0.669   2.501
 4216SOL    HW213548   1.421   0.763   2.579
 4217SOL     OW13549   1.124   0.036   1.932
 4217SOL    HW113550   1.210   7.014   1.936
 4217SOL    HW213551   1.127   0.100   1.856
 4218SOL     OW13552   3.377   0.990   1.240
 4218SOL    HW113553   3.291   0.976   1.289
 4218SOL    HW213554   3.391   0.916   1.174
 4219SOL     OW13555   4.618   6.453   4.574
 4219SOL    HW113556   4.538   6.503   4.541
 4219SOL    HW213557   4.656   6.399   4.499
 4220SOL     OW13558   5.424   2.326   1.696
 4220SOL    HW113559   5.338   2.296   1.654
 4220SOL    HW213560   5.407   2.408   1.751
 4221SOL     OW13561   6.401   4.849   0.088
 4221SOL    HW113562   6.401   4.875   0.184
 4221SOL    HW213563   6.392   4.749   0.081
 4222SOL     OW13564   5.294   1.858   3.409
 4222SOL    HW113565   5.344   1.941   3.433
 4222SOL    HW213566   5.301   1.841   3.310
 4223SOL     OW13567   4.026   3.992   1.046
 4223SOL    HW113568   4.116   3.956   1.070
 4223SOL    HW213569   4.001   3.959   0.955
 4224SOL     OW13570   5.585   4.436   5.157
 4224SOL    HW113571   5.545   4.433   5.249
 4224SOL    HW213572   5.685   4.431   5.164
 4225SOL     OW13573   1.524   2.043   5.644
 4225SOL    HW113574   1.466   2.108   5.595
 4225SOL    HW213575   1.567   1.981   5.578
 4226SOL     OW13576   1.159   6.078   4.561
 4226SOL    HW113577   1.237   6.118   4.514
 4226SOL    HW213578   1.123   6.002   4.507
 4227SOL     OW13579   5.031   6.161   1.979
 4227SOL    HW113580   5.084   6.217   2.044
 4227SOL    HW213581   5.009   6.216   1.899
 4228SOL     OW13582   0.679   6.328   5.057
 4228SOL    HW113583   0.680   6.277   4.971
 4228SOL    HW213584   0.764   6.381   5.065
 4229SOL     OW13585   4.984   6.032   5.721
 4229SOL    HW113586   4.910   5.967   5.735
 4229SOL    HW213587   4.994   6.090   5.802
 4230SOL     OW13588   0.987   6.774   3.008
 4230SOL    HW113589   1.051   6.772   2.932
 4230SOL    HW213590   0.974   6.869   3.038
 4231SOL     OW13591   5.004   0.731   5.567
 4231SOL    HW113592   4.977   0.638   5.592
 4231SOL    HW213593   4.923   0.790   5.566
 4232SOL     OW13594   2.229   5.853   3.608
 4232SOL    HW113595   2.148   5.856   3.667
 4232SOL    HW213596   2.292   5.782   3.640
 4233SOL     OW13597   0.612   0.086   4.135
 4233SOL    HW113598   0.563   0.059   4.218
 4233SOL    HW213599   0.708   0.102   4.157
 4234SOL     OW13600   1.775   5.529   5.392
 4234SOL    HW113601   1.701   5.519   5.459
 4234SOL    HW213602   1.824   5.615   5.409
 4235SOL     OW13603   6.516   4.862   5.559
 4235SOL    HW113604   6.549   4.795   5.492
 4235SOL    HW213605   6.425   4.834   5.592
 4236SOL     OW13606   0.603   4.779   2.065
 4236SOL    HW113607   0.541   4.763   1.988
 4236SOL    HW213608   0.586   4.870   2.103
 4237SOL     OW13609   6.347   4.122   4.562
 4237SOL    HW113610   6.303   4.211   4.575
 4237SOL    HW213611   6.291   4.066   4.501
 4238SOL     OW13612   1.171   0.894   3.340
 4238SOL    HW113613   1.164   0.841   3.255
 4238SOL    HW213614   1.102   0.861   3.405
 4239SOL     OW13615   4.220   1.241   2.363
 4239SOL    HW113616   4.210   1.226   2.264
 4239SOL    HW213617   4.293   1.308   2.379
 4240SOL     OW13618   1.975   5.067   0.024
 4240SOL    HW113619   1.981   5.030   6.960
 4240SOL    HW213620   1.952   4.994   0.088
 4241SOL     OW13621   6.098   1.643   0.302
 4241SOL    HW113622   6.114   1.683   0.212
 4241SOL    HW213623   6.041   1.705   0.357
 4242SOL     OW13624   2.211   2.453   3.808
 4242SOL    HW113625   2.260   2.383   3.859
 4242SOL    HW213626   2.271   2.531   3.792
 4243SOL     OW13627   4.725   1.599   2.490
 4243SOL    HW113628   4.644   1.607   2.548
 4243SOL    HW213629   4.802   1.644   2.534
 4244SOL     OW13630   3.514   3.630   1.889
 4244SOL    HW113631   3.429   3.675   1.918
 4244SOL    HW213632   3.504   3.531   1.897
 4245SOL     OW13633   6.495   1.892   6.808
 4245SOL    HW113634   6.563   1.839   6.859
 4245SOL    HW213635   6.527   1.906   6.714
 4246SOL     OW13636   6.233   4.113   3.239
 4246SOL    HW113637   6.208   4.155   3.326
 4246SOL    HW213638   6.227   4.182   3.166
 4247SOL     OW13639   0.729   6.299   4.114
 4247SOL    HW113640   0.754   6.223   4.173
 4247SOL    HW213641   0.746   6.274   4.018
 4248SOL     OW13642   2.492   1.944   4.524
 4248SOL    HW113643   2.440   1.874   4.573
 4248SOL    HW213644   2.474   1.936   4.426
 4249SOL     OW13645   6.531   2.968   5.164
 4249SOL    HW113646   6.589   2.953   5.245
 4249SOL    HW213647   6.443   2.923   5.178
 4250SOL     OW13648   6.679   4.420   3.041
 4250SOL    HW113649   6.776   4.424   3.065
 4250SOL    HW213650   6.624   4.438   3.123
 4251SOL     OW13651   5.916   4.986   0.166
 4251SOL    HW113652   5.961   5.028   0.244
 4251SOL    HW213653   5.832   4.941   0.195
 4252SOL     OW13654   6.561   6.272   4.844
 4252SOL    HW113655   6.497   6.221   4.786
 4252SOL    HW213656   6.577   6.220   4.928
 4253SOL     OW13657   2.886   0.406   2.294
 4253SOL    HW113658   2.861   0.500   2.271
 4253SOL    HW213659   2.973   0.406   2.342
 4254SOL     OW13660   1.031   3.146   1.606
 4254SOL    HW113661   0.977   3.187   1.679
 4254SOL    HW213662   1.041   3.211   1.531
 4255SOL     OW13663   6.202   2.292   3.415
 4255SOL    HW113664   6.297   2.323   3.420
 4255SOL    HW213665   6.200   2.192   3.414
 4256SOL     OW13666   1.044   6.418   0.874
 4256SOL    HW113667   1.134   6.375   0.867
 4256SOL    HW213668   0.981   6.373   0.811
 4257SOL     OW13669   3.593   0.619   5.228
 4257SOL    HW113670   3.585   0.607   5.129
 4257SOL    HW213671   3.540   0.699   5.256
 4258SOL     OW13672   6.099   7.020   1.662
 4258SOL    HW113673   6.100   0.048   1.744
 4258SOL    HW213674   6.005   7.015   1.627
 4259SOL     OW13675   2.689   0.753   6.769
 4259SOL    HW113676   2.769   0.722   6.821
 4259SOL    HW213677   2.614   0.688   6.780
 4260SOL     OW13678   4.944   5.739   4.071
 4260SOL    HW113679   4.851   5.733   4.035
 4260SOL    HW213680   5.001   5.667   4.031
 4261SOL     OW13681   2.412   0.156   2.065
 4261SOL    HW113682   2.427   0.245   2.109
 4261SOL    HW213683   2.393   0.087   2.134
 4262SOL     OW13684   1.250   4.922   5.438
 4262SOL    HW113685   1.346   4.916   5.409
 4262SOL    HW213686   1.230   5.016   5.467
 4263SOL     OW13687   2.742   6.558   4.302
 4263SOL    HW113688   2.696   6.510   4.227
 4263SOL    HW213689   2.674   6.610   4.355
 4264SOL     OW13690   6.936   1.689   2.133
 4264SOL    HW113691   6.936   1.664   2.229
 4264SOL    HW213692   7.018   1.652   2.088
 4265SOL     OW13693   5.993   1.883   6.965
 4265SOL    HW113694   5.987   1.970   7.014
 4265SOL    HW213695   6.089   1.862   6.944
 4266SOL     OW13696   2.203   5.457   0.449
 4266SOL    HW113697   2.164   5.541   0.413
 4266SOL    HW213698   2.302   5.456   0.433
 4267SOL     OW13699   2.110   3.949   5.015
 4267SOL    HW113700   2.103   3.856   5.053
 4267SOL    HW213701   2.202   3.984   5.032
 4268SOL     OW13702   1.692   6.578   0.278
 4268SOL    HW113703   1.686   6.673   0.308
 4268SOL    HW213704   1.767   6.568   0.213
 4269SOL     OW13705   1.979   1.254   0.432
 4269SOL    HW113706   2.005   1.347   0.407
 4269SOL    HW213707   1.911   1.219   0.368
 4270SOL     OW13708   3.214   3.060   3.786
 4270SOL    HW113709   3.203   3.157   3.805
 4270SOL    HW213710   3.292   3.047   3.724
 4271SOL     OW13711   0.208   0.372   5.735
 4271SOL    HW113712   0.297   0.328   5.742
 4271SOL    HW213713   0.147   0.337   5.806
 4272SOL     OW13714   0.555   5.000   4.527
 4272SOL    HW113715   0.574   4.945   4.608
 4272SOL    HW213716   0.598   4.959   4.447
 4273SOL     OW13717   4.917   6.507   4.153
 4273SOL    HW113718   4.945   6.469   4.242
 4273SOL    HW213719   4.899   6.605   4.162
 4274SOL     OW13720   0.401   6.722   2.905
 4274SOL    HW113721   0.436   6.701   2.813
 4274SOL    HW213722   0.433   6.653   2.969
 4275SOL     OW13723   0.128   1.779   6.062
 4275SOL    HW113724   0.188   1.822   5.995
 4275SOL    HW213725   0.080   1.702   6.020
 4276SOL     OW13726   1.353   5.141   2.908
 4276SOL    HW113727   1.413   5.204   2.859
 4276SOL    HW213728   1.321   5.070   2.845
 4277SOL     OW13729   6.882   4.680   3.993
 4277SOL    HW113730   6.896   4.671   4.092
 4277SOL    HW213731   6.967   4.713   3.951
 4278SOL     OW13732   6.980   0.885   5.184
 4278SOL    HW113733   7.000   0.894   5.086
 4278SOL    HW213734   7.003   0.970   5.231
 4279SOL     OW13735   3.688   6.531   5.340
 4279SOL    HW113736   3.708   6.458   5.405
 4279SOL    HW213737   3.658   6.613   5.390
 4280SOL     OW13738   4.999   1.435   5.793
 4280SOL    HW113739   5.008   1.534   5.792
 4280SOL    HW213740   4.928   1.409   5.858
 4281SOL     OW13741   2.200   4.962   4.473
 4281SOL    HW113742   2.105   4.978   4.447
 4281SOL    HW213743   2.252   4.934   4.392
 4282SOL     OW13744   2.263   2.072   0.052
 4282SOL    HW113745   2.207   2.076   0.134
 4282SOL    HW213746   2.305   2.161   0.036
 4283SOL     OW13747   2.047   0.309   4.044
 4283SOL    HW113748   2.036   0.405   4.018
 4283SOL    HW213749   2.021   0.251   3.968
 4284SOL     OW13750   5.370   6.087   2.271
 4284SOL    HW113751   5.423   6.171   2.264
 4284SOL    HW213752   5.274   6.109   2.284
 4285SOL     OW13753   0.594   6.937   6.339
 4285SOL    HW113754   0.670   6.943   6.403
 4285SOL    HW213755   0.528   6.870   6.372
 4286SOL     OW13756   4.865   5.615   6.910
 4286SOL    HW113757   4.895   5.606   6.815
 4286SOL    HW213758   4.814   5.534   6.937
 4287SOL     OW13759   6.150   0.563   5.920
 4287SOL    HW113760   6.224   0.577   5.985
 4287SOL    HW213761   6.114   0.651   5.890
 4288SOL     OW13762   0.472   5.853   3.724
 4288SOL    HW113763   0.561   5.876   3.761
 4288SOL    HW213764   0.431   5.933   3.681
 4289SOL     OW13765   5.848   2.999   1.328
 4289SOL    HW113766   5.912   2.937   1.373
 4289SOL    HW213767   5.813   3.065   1.395
 4290SOL     OW13768   2.238   6.164   1.034
 4290SOL    HW113769   2.227   6.086   1.096
 4290SOL    HW213770   2.151   6.213   1.026
 4291SOL     OW13771   4.608   3.446   1.701
 4291SOL    HW113772   4.656   3.521   1.748
 4291SOL    HW213773   4.510   3.461   1.707
 4292SOL     OW13774   6.183   4.513   5.756
 4292SOL    HW113775   6.186   4.571   5.837
 4292SOL    HW213776   6.094   4.468   5.751
 4293SOL     OW13777   6.848   4.143   6.670
 4293SOL    HW113778   6.880   4.071   6.731
 4293SOL    HW213779   6.791   4.103   6.598
 4294SOL     OW13780   4.337   3.009   0.439
 4294SOL    HW113781   4.415   2.957   0.406
 4294SOL    HW213782   4.358   3.107   0.436
 4295SOL     OW13783   3.781   6.655   4.960
 4295SOL    HW113784   3.727   6.575   4.933
 4295SOL    HW213785   3.742   6.737   4.918
 4296SOL     OW13786   2.861   1.734   0.287
 4296SOL    HW113787   2.906   1.817   0.254
 4296SOL    HW213788   2.887   1.657   0.229
 4297SOL     OW13789   5.381   0.098   5.541
 4297SOL    HW113790   5.480   0.085   5.535
 4297SOL    HW213791   5.349   0.151   5.463
 4298SOL     OW13792   1.766   5.622   6.720
 4298SOL    HW113793   1.666   5.613   6.720
 4298SOL    HW213794   1.792   5.707   6.675
 4299SOL     OW13795   1.083   2.605   6.642
 4299SOL    HW113796   1.041   2.524   6.684
 4299SOL    HW213797   1.159   2.636   6.698
 4300SOL     OW13798   2.896   1.588   6.515
 4300SOL    HW113799   2.939   1.589   6.425
 4300SOL    HW213800   2.810   1.639   6.511
 4301SOL     OW13801   2.717   1.399   0.418
 4301SOL    HW113802   2.729   1.450   0.503
 4301SOL    HW213803   2.644   1.332   0.430
 4302SOL     OW13804   1.018   6.297   5.546
 4302SOL    HW113805   0.949   6.288   5.618
 4302SOL    HW213806   1.064   6.209   5.533
 4303SOL     OW13807   5.979   4.588   3.578
 4303SOL    HW113808   5.955   4.497   3.543
 4303SOL    HW213809   5.979   4.654   3.504
 4304SOL     OW13810   3.154   3.762   4.098
 4304SOL    HW113811   3.076   3.706   4.068
 4304SOL    HW213812   3.158   3.762   4.198
 4305SOL     OW13813   6.326   1.803   3.927
 4305SOL    HW113814   6.345   1.706   3.945
 4305SOL    HW213815   6.394   1.859   3.973
 4306SOL     OW13816   7.029   3.746   6.518
 4306SOL    HW113817   6.951   3.719   6.574
 4306SOL    HW213818   0.026   3.670   6.458
 4307SOL     OW13819   4.859   4.505   5.758
 4307SOL    HW113820   4.883   4.488   5.853
 4307SOL    HW213821   4.840   4.603   5.745
 4308SOL     OW13822   5.510   5.682   6.301
 4308SOL    HW113823   5.465   5.742   6.366
 4308SOL    HW213824   5.525   5.731   6.215
 4309SOL     OW13825   0.573   6.766   0.172
 4309SOL    HW113826   0.648   6.702   0.154
 4309SOL    HW213827   0.489   6.733   0.130
 4310SOL     OW13828   1.772   2.402   3.768
 4310SOL    HW113829   1.686   2.413   3.817
 4310SOL    HW213830   1.848   2.432   3.826
 4311SOL     OW13831   1.305   5.373   3.136
 4311SOL    HW113832   1.370   5.436   3.178
 4311SOL    HW213833   1.349   5.324   3.061
 4312SOL     OW13834   1.587   5.498   1.383
 4312SOL    HW113835   1.517   5.434   1.350
 4312SOL    HW213836   1.604   5.483   1.480
 4313SOL     OW13837   5.335   1.532   2.092
 4313SOL    HW113838   5.336   1.514   2.191
 4313SOL    HW213839   5.323   1.630   2.076
 4314SOL     OW13840   5.232   2.849   3.495
 4314SOL    HW113841   5.216   2.810   3.586
 4314SOL    HW213842   5.325   2.887   3.491
 4315SOL     OW13843   1.881   0.664   2.435
 4315SOL    HW113844   1.906   0.602   2.510
 4315SOL    HW213845   1.781   0.672   2.432
 4316SOL     OW13846   5.239   0.057   1.362
 4316SOL    HW113847   5.280   0.089   1.276
 4316SOL    HW213848   5.155   0.007   1.342
 4317SOL     OW13849   3.191   1.217   4.694
 4317SOL    HW113850   3.289   1.221   4.710
 4317SOL    HW213851   3.152   1.144   4.751
 4318SOL     OW13852   1.051   3.562   3.486
 4318SOL    HW113853   0.996   3.486   3.522
 4318SOL    HW213854   1.004   3.648   3.504
 4319SOL     OW13855   2.771   3.113   0.442
 4319SOL    HW113856   2.800   3.207   0.425
 4319SOL    HW213857   2.839   3.050   0.405
 4320SOL     OW13858   1.457   5.966   1.339
 4320SOL    HW113859   1.393   6.042   1.349
 4320SOL    HW213860   1.496   5.968   1.247
 4321SOL     OW13861   6.430   0.624   4.382
 4321SOL    HW113862   6.488   0.608   4.303
 4321SOL    HW213863   6.486   0.627   4.465
 4322SOL     OW13864   6.228   1.322   6.753
 4322SOL    HW113865   6.143   1.287   6.794
 4322SOL    HW213866   6.304   1.263   6.780
 4323SOL     OW13867   5.882   3.320   2.130
 4323SOL    HW113868   5.834   3.258   2.192
 4323SOL    HW213869   5.825   3.400   2.112
 4324SOL     OW13870   5.517   4.931   7.010
 4324SOL    HW113871   5.441   4.992   0.002
 4324SOL    HW213872   5.490   4.867   6.937
 4325SOL     OW13873   0.837   0.955   6.617
 4325SOL    HW113874   0.890   1.030   6.658
 4325SOL    HW213875   0.899   0.895   6.566
 4326SOL     OW13876   6.753   2.984   5.361
 4326SOL    HW113877   6.813   2.935   5.424
 4326SOL    HW213878   6.809   3.037   5.297
 4327SOL     OW13879   6.039   5.351   2.683
 4327SOL    HW113880   5.941   5.330   2.679
 4327SOL    HW213881   6.057   5.438   2.636
 4328SOL     OW13882   4.674   4.580   6.114
 4328SOL    HW113883   4.700   4.626   6.199
 4328SOL    HW213884   4.601   4.630   6.069
 4329SOL     OW13885   2.980   1.879   6.211
 4329SOL    HW113886   3.032   1.803   6.252
 4329SOL    HW213887   2.888   1.846   6.186
 4330SOL     OW13888   3.115   0.566   5.256
 4330SOL    HW113889   3.080   0.590   5.346
 4330SOL    HW213890   3.091   0.638   5.191
 4331SOL     OW13891   4.861   3.414   1.479
 4331SOL    HW113892   4.891   3.448   1.568
 4331SOL    HW213893   4.768   3.377   1.487
 4332SOL     OW13894   5.609   4.233   2.339
 4332SOL    HW113895   5.574   4.282   2.259
 4332SOL    HW213896   5.536   4.223   2.407
 4333SOL     OW13897   4.468   1.674   5.088
 4333SOL    HW113898   4.533   1.685   5.013
 4333SOL    HW213899   4.452   1.577   5.104
 4334SOL     OW13900   2.773   1.908   2.180
 4334SOL    HW113901   2.830   1.864   2.110
 4334SOL    HW213902   2.755   2.002   2.154
 4335SOL     OW13903   2.975   3.790   3.069
 4335SOL    HW113904   3.066   3.764   3.101
 4335SOL    HW213905   2.916   3.807   3.147
 4336SOL     OW13906   0.874   7.021   5.500
 4336SOL    HW113907   0.941   6.950   5.479
 4336SOL    HW213908   0.885   0.067   5.436
 4337SOL     OW13909   1.361   4.609   0.259
 4337SOL    HW113910   1.368   4.699   0.302
 4337SOL    HW213911   1.447   4.560   0.269
 4338SOL     OW13912   4.808   5.887   4.751
 4338SOL    HW113913   4.791   5.843   4.839
 4338SOL    HW213914   4.899   5.928   4.750
 4339SOL     OW13915   5.594   3.254   5.656
 4339SOL    HW113916   5.632   3.274   5.565
 4339SOL    HW213917   5.527   3.324   5.680
 4340SOL     OW13918   5.825   3.934   3.074
 4340SOL    HW113919   5.758   3.868   3.108
 4340SOL    HW213920   5.916   3.911   3.111
 4341SOL     OW13921   1.216   4.442   1.848
 4341SOL    HW113922   1.278   4.366   1.830
 4341SOL    HW213923   1.255   4.526   1.810
 4342SOL     OW13924   6.542   2.890   4.115
 4342SOL    HW113925   6.466   2.954   4.104
 4342SOL    HW213926   6.625   2.940   4.140
 4343SOL     OW13927   2.615   6.619   6.478
 4343SOL    HW113928   2.556   6.549   6.438
 4343SOL    HW213929   2.558   6.690   6.519
 4344SOL     OW13930   1.993   5.043   3.155
 4344SOL    HW113931   1.915   4.983   3.173
 4344SOL    HW213932   2.001   5.111   3.228
 4345SOL     OW13933   1.834   2.935   5.697
 4345SOL    HW113934   1.836   2.878   5.779
 4345SOL    HW213935   1.862   2.880   5.618
 4346SOL     OW13936   2.131   3.195   1.520
 4346SOL    HW113937   2.060   3.126   1.508
 4346SOL    HW213938   2.210   3.172   1.465
 4347SOL     OW13939   6.698   0.992   1.523
 4347SOL    HW113940   6.717   0.919   1.588
 4347SOL    HW213941   6.623   1.049   1.558
 4348SOL     OW13942   0.212   3.232   2.587
 4348SOL    HW113943   0.309   3.255   2.598
 4348SOL    HW213944   0.174   3.204   2.675
 4349SOL     OW13945   6.933   1.802   2.923
 4349SOL    HW113946   6.920   1.773   2.828
 4349SOL    HW213947   6.997   1.739   2.968
 4350SOL     OW13948   4.882   1.964   4.143
 4350SOL    HW113949   4.817   1.911   4.198
 4350SOL    HW213950   4.843   2.054   4.123
 4351SOL     OW13951   2.089   6.397   0.835
 4351SOL    HW113952   2.110   6.316   0.780
 4351SOL    HW213953   2.029   6.458   0.783
 4352SOL     OW13954   0.817   2.089   1.671
 4352SOL    HW113955   0.868   2.034   1.604
 4352SOL    HW213956   0.849   2.184   1.668
 4353SOL     OW13957   2.949   4.922   0.749
 4353SOL    HW113958   2.885   4.873   0.808
 4353SOL    HW213959   2.964   4.870   0.665
 4354SOL     OW13960   1.968   6.323   5.906
 4354SOL    HW113961   2.025   6.284   5.979
 4354SOL    HW213962   1.979   6.423   5.905
 4355SOL     OW13963   3.499   0.038   2.176
 4355SOL    HW113964   3.450   0.005   2.256
 4355SOL    HW213965   3.498   6.997   2.105
 4356SOL     OW13966   4.745   4.015   1.866
 4356SOL    HW113967   4.841   3.990   1.863
 4356SOL    HW213968   4.709   4.025   1.773
 4357SOL     OW13969   6.341   6.984   6.968
 4357SOL    HW113970   6.308   6.926   6.894
 4357SOL    HW213971   6.413   6.936   7.019
 4358SOL     OW13972   6.613   6.166   0.454
 4358SOL    HW113973   6.604   6.211   0.365
 4358SOL    HW213974   6.538   6.101   0.466
 4359SOL     OW13975   1.401   1.899   5.021
 4359SOL    HW113976   1.453   1.941   5.095
 4359SOL    HW213977   1.451   1.820   4.985
 4360SOL     OW13978   1.793   3.228   3.109
 4360SOL    HW113979   1.699   3.249   3.082
 4360SOL    HW213980   1.844   3.195   3.029
 4361SOL     OW13981   2.939   2.690   1.720
 4361SOL    HW113982   2.939   2.607   1.777
 4361SOL    HW213983   2.954   2.665   1.625
 4362SOL     OW13984   6.176   4.041   5.288
 4362SOL    HW113985   6.191   3.943   5.300
 4362SOL    HW213986   6.209   4.090   5.368
 4363SOL     OW13987   4.970   2.194   5.763
 4363SOL    HW113988   4.971   2.155   5.855
 4363SOL    HW213989   5.064   2.208   5.733
 4364SOL     OW13990   2.917   3.758   5.364
 4364SOL    HW113991   3.003   3.713   5.341
 4364SOL    HW213992   2.881   3.805   5.283
 4365SOL     OW13993   2.616   1.201   1.963
 4365SOL    HW113994   2.619   1.293   2.003
 4365SOL    HW213995   2.560   1.141   2.020
 4366SOL     OW13996   5.689   0.042   0.691
 4366SOL    HW113997   5.602   0.049   0.641
 4366SOL    HW213998   5.672   0.049   0.789
 4367SOL     OW13999   1.006   4.817   5.382
 4367SOL    HW114000   1.091   4.849   5.425
 4367SOL    HW214001   1.022   4.803   5.284
 4368SOL     OW14002   3.795   5.321   0.958
 4368SOL    HW114003   3.842   5.294   0.874
 4368SOL    HW214004   3.782   5.240   1.016
 4369SOL     OW14005   4.560   5.782   2.773
 4369SOL    HW114006   4.654   5.758   2.748
 4369SOL    HW214007   4.557   5.878   2.803
 4370SOL     OW14008   5.097   4.501   3.043
 4370SOL    HW114009   5.057   4.551   3.121
 4370SOL    HW214010   5.155   4.427   3.077
 4371SOL     OW14011   6.400   0.278   1.308
 4371SOL    HW114012   6.370   0.213   1.377
 4371SOL    HW214013   6.347   0.363   1.316
 4372SOL     OW14014   4.439   1.430   2.397
 4372SOL    HW114015   4.404   1.467   2.483
 4372SOL    HW214016   4.449   1.505   2.331
 4373SOL     OW14017   0.203   3.324   6.791
 4373SOL    HW114018   0.141   3.388   6.745
 4373SOL    HW214019   0.254   3.372   6.862
 4374SOL     OW14020   1.114   1.658   1.766
 4374SOL    HW114021   1.031   1.687   1.814
 4374SOL    HW214022   1.143   1.729   1.702
 4375SOL     OW14023   2.884   0.152   4.038
 4375SOL    HW114024   2.922   0.237   4.002
 4375SOL    HW214025   2.864   0.163   4.135
 4376SOL     OW14026   7.008   6.990   2.113
 4376SOL    HW114027   6.939   6.929   2.152
 4376SOL    HW214028   6.963   0.041   2.074
 4377SOL     OW14029   5.981   3.906   0.831
 4377SOL    HW114030   5.907   3.885   0.768
 4377SOL    HW214031   6.035   3.824   0.848
 4378SOL     OW14032   1.669   1.082   2.902
 4378SOL    HW114033   1.612   1.013   2.946
 4378SOL    HW214034   1.752   1.040   2.867
 4379SOL     OW14035   2.831   1.582   4.159
 4379SOL    HW114036   2.775   1.566   4.079
 4379SOL    HW214037   2.782   1.641   4.223
 4380SOL     OW14038   0.963   0.393   1.826
 4380SOL    HW114039   0.885   0.344   1.787
 4380SOL    HW214040   0.944   0.491   1.826
 4381SOL     OW14041   1.746   5.419   4.853
 4381SOL    HW114042   1.769   5.353   4.924
 4381SOL    HW214043   1.663   5.468   4.878
 4382SOL     OW14044   6.699   3.291   5.912
 4382SOL    HW114045   6.698   3.267   6.009
 4382SOL    HW214046   6.789   3.328   5.888
 4383SOL     OW14047   6.345   4.269   6.234
 4383SOL    HW114048   6.323   4.345   6.171
 4383SOL    HW214049   6.339   4.183   6.184
 4384SOL     OW14050   6.280   0.824   3.519
 4384SOL    HW114051   6.225   0.906   3.532
 4384SOL    HW214052   6.222   0.750   3.484
 4385SOL     OW14053   4.518   2.413   4.999
 4385SOL    HW114054   4.426   2.445   4.974
 4385SOL    HW214055   4.510   2.348   5.075
 4386SOL     OW14056   1.448   3.732   5.112
 4386SOL    HW114057   1.359   3.688   5.112
 4386SOL    HW214058   1.448   3.807   5.178
 4387SOL     OW14059   6.446   2.669   1.606
 4387SOL    HW114060   6.517   2.652   1.538
 4387SOL    HW214061   6.479   2.643   1.697
 4388SOL     OW14062   4.891   2.126   6.036
 4388SOL    HW114063   4.914   2.220   6.063
 4388SOL    HW214064   4.792   2.114   6.041
 4389SOL     OW14065   6.616   3.551   1.190
 4389SOL    HW114066   6.555   3.535   1.112
 4389SOL    HW214067   6.683   3.478   1.194
 4390SOL     OW14068   4.606   6.739   1.065
 4390SOL    HW114069   4.575   6.742   1.160
 4390SOL    HW214070   4.649   6.826   1.041
 4391SOL     OW14071   2.938   4.808   6.299
 4391SOL    HW114072   2.916   4.826   6.395
 4391SOL    HW214073   2.868   4.850   6.241
 4392SOL     OW14074   0.896   1.856   4.518
 4392SOL    HW114075   0.851   1.887   4.601
 4392SOL    HW214076   0.964   1.786   4.541
 4393SOL     OW14077   6.094   0.666   1.980
 4393SOL    HW114078   6.075   0.620   1.893
 4393SOL    HW214079   6.134   0.601   2.044
 4394SOL     OW14080   1.061   6.569   1.596
 4394SOL    HW114081   1.057   6.597   1.500
 4394SOL    HW214082   0.969   6.575   1.635
 4395SOL     OW14083   1.552   0.349   1.468
 4395SOL    HW114084   1.606   0.379   1.547
 4395SOL    HW214085   1.511   0.429   1.423
 4396SOL     OW14086   1.557   1.708   3.640
 4396SOL    HW114087   1.632   1.648   3.611
 4396SOL    HW214088   1.506   1.664   3.714
 4397SOL     OW14089   1.878   3.061   4.523
 4397SOL    HW114090   1.824   2.992   4.572
 4397SOL    HW214091   1.842   3.152   4.544
 4398SOL     OW14092   1.856   3.890   6.258
 4398SOL    HW114093   1.821   3.945   6.333
 4398SOL    HW214094   1.841   3.793   6.278
 4399SOL     OW14095   2.238   6.119   1.893
 4399SOL    HW114096   2.301   6.054   1.852
 4399SOL    HW214097   2.210   6.086   1.983
 4400SOL     OW14098   2.421   6.872   3.756
 4400SOL    HW114099   2.348   6.807   3.733
 4400SOL    HW214100   2.503   6.822   3.783
 4401SOL     OW14101   3.996   6.482   5.081
 4401SOL    HW114102   3.928   6.545   5.043
 4401SOL    HW214103   3.969   6.456   5.173
 4402SOL     OW14104   0.695   0.625   2.242
 4402SOL    HW114105   0.612   0.573   2.221
 4402SOL    HW214106   0.673   0.722   2.250
 4403SOL     OW14107   1.075   6.178   1.150
 4403SOL    HW114108   1.038   6.159   1.059
 4403SOL    HW214109   1.073   6.095   1.205
 4404SOL     OW14110   1.334   5.798   5.591
 4404SOL    HW114111   1.428   5.802   5.557
 4404SOL    HW214112   1.323   5.864   5.665
 4405SOL     OW14113   2.493   4.960   3.050
 4405SOL    HW114114   2.416   4.896   3.050
 4405SOL    HW214115   2.575   4.912   3.018
 4406SOL     OW14116   6.759   3.334   1.256
 4406SOL    HW114117   6.809   3.376   1.333
 4406SOL    HW214118   6.760   3.235   1.267
 4407SOL     OW14119   0.152   5.404   0.900
 4407SOL    HW114120   0.242   5.445   0.908
 4407SOL    HW214121   0.159   5.304   0.904
 4408SOL     OW14122   3.029   6.142   6.965
 4408SOL    HW114123   3.003   6.216   7.027
 4408SOL    HW214124   2.962   6.069   6.971
 4409SOL     OW14125   4.137   0.944   1.446
 4409SOL    HW114126   4.075   0.866   1.458
 4409SOL    HW214127   4.206   0.921   1.377
 4410SOL     OW14128   0.111   5.945   0.498
 4410SOL    HW114129   0.019   5.932   0.536
 4410SOL    HW214130   0.157   6.019   0.547
 4411SOL     OW14131   3.761   4.933   5.561
 4411SOL    HW114132   3.666   4.913   5.585
 4411SOL    HW214133   3.782   5.028   5.585
 4412SOL     OW14134   4.967   6.362   4.375
 4412SOL    HW114135   5.020   6.419   4.437
 4412SOL    HW214136   5.023   6.285   4.344
 4413SOL     OW14137   4.419   6.385   4.044
 4413SOL    HW114138   4.514   6.393   4.074
 4413SOL    HW214139   4.370   6.322   4.104
 4414SOL     OW14140   4.391   5.660   1.808
 4414SOL    HW114141   4.488   5.683   1.822
 4414SOL    HW214142   4.373   5.568   1.841
 4415SOL     OW14143   3.722   3.839   0.797
 4415SOL    HW114144   3.813   3.856   0.835
 4415SOL    HW214145   3.688   3.750   0.829
 4416SOL     OW14146   3.935   1.413   3.897
 4416SOL    HW114147   4.017   1.424   3.952
 4416SOL    HW214148   3.861   1.468   3.936
 4417SOL     OW14149   6.311   3.079   4.115
 4417SOL    HW114150   6.271   2.995   4.151
 4417SOL    HW214151   6.284   3.156   4.174
 4418SOL     OW14152   6.214   2.021   2.149
 4418SOL    HW114153   6.228   2.081   2.228
 4418SOL    HW214154   6.140   1.957   2.170
 4419SOL     OW14155   6.375   6.479   6.035
 4419SOL    HW114156   6.361   6.526   5.948
 4419SOL    HW214157   6.294   6.489   6.092
 4420SOL     OW14158   3.271   1.782   1.241
 4420SOL    HW114159   3.200   1.805   1.308
 4420SOL    HW214160   3.355   1.830   1.264
 4421SOL     OW14161   1.471   2.838   5.550
 4421SOL    HW114162   1.542   2.772   5.576
 4421SOL    HW214163   1.515   2.919   5.510
 4422SOL     OW14164   1.027   5.089   0.026
 4422SOL    HW114165   0.991   5.131   0.110
 4422SOL    HW214166   1.042   4.991   0.043
 4423SOL     OW14167   6.639   4.591   5.944
 4423SOL    HW114168   6.678   4.671   5.897
 4423SOL    HW214169   6.567   4.621   6.006
 4424SOL     OW14170   5.287   5.770   4.145
 4424SOL    HW114171   5.354   5.843   4.158
 4424SOL    HW214172   5.197   5.810   4.127
 4425SOL     OW14173   1.748   5.644   0.848
 4425SOL    HW114174   1.765   5.555   0.805
 4425SOL    HW214175   1.834   5.683   0.880
 4426SOL     OW14176   0.975   0.593   4.185
 4426SOL    HW114177   0.912   0.608   4.109
 4426SOL    HW214178   1.068   0.619   4.158
 4427SOL     OW14179   3.981   6.168   2.825
 4427SOL    HW114180   4.042   6.245   2.844
 4427SOL    HW214181   3.998   6.095   2.892
 4428SOL     OW14182   4.981   0.858   4.826
 4428SOL    HW114183   5.077   0.884   4.835
 4428SOL    HW214184   4.942   0.905   4.746
 4429SOL     OW14185   3.102   6.698   3.058
 4429SOL    HW114186   3.155   6.628   3.106
 4429SOL    HW214187   3.005   6.677   3.064
 4430SOL     OW14188   5.830   5.248   4.559
 4430SOL    HW114189   5.865   5.180   4.623
 4430SOL    HW214190   5.735   5.271   4.583
 4431SOL     OW14191   3.545   0.472   3.739
 4431SOL    HW114192   3.467   0.533   3.755
 4431SOL    HW214193   3.565   0.421   3.822
 4432SOL     OW14194   2.277   3.254   6.310
 4432SOL    HW114195   2.220   3.313   6.253
 4432SOL    HW214196   2.366   3.240   6.266
 4433SOL     OW14197   0.425   2.392   4.179
 4433SOL    HW114198   0.489   2.423   4.108
 4433SOL    HW214199   0.433   2.293   4.189
 4434SOL     OW14200   5.797   1.493   1.734
 4434SOL    HW114201   5.712   1.540   1.759
 4434SOL    HW214202   5.875   1.555   1.746
 4435SOL     OW14203   4.011   3.903   0.801
 4435SOL    HW114204   4.020   3.833   0.730
 4435SOL    HW214205   4.017   3.993   0.760
 4436SOL     OW14206   3.823   1.835   1.467
 4436SOL    HW114207   3.786   1.850   1.376
 4436SOL    HW214208   3.882   1.913   1.492
 4437SOL     OW14209   0.476   3.302   2.616
 4437SOL    HW114210   0.441   3.363   2.687
 4437SOL    HW214211   0.551   3.247   2.653
 4438SOL     OW14212   4.702   0.249   5.688
 4438SOL    HW114213   4.633   0.257   5.617
 4438SOL    HW214214   4.788   0.218   5.647
 4439SOL     OW14215   1.094   5.146   3.043
 4439SOL    HW114216   1.020   5.090   3.007
 4439SOL    HW214217   1.167   5.154   2.975
 4440SOL     OW14218   3.047   4.241   1.024
 4440SOL    HW114219   3.083   4.161   1.072
 4440SOL    HW214220   2.969   4.214   0.968
 4441SOL     OW14221   0.456   1.808   0.666
 4441SOL    HW114222   0.392   1.816   0.590
 4441SOL    HW214223   0.469   1.712   0.689
 4442SOL     OW14224   1.095   5.323   5.830
 4442SOL    HW114225   1.179   5.347   5.782
 4442SOL    HW214226   1.019   5.319   5.765
 4443SOL     OW14227   0.823   4.876   6.412
 4443SOL    HW114228   0.839   4.823   6.495
 4443SOL    HW214229   0.780   4.818   6.343
 4444SOL     OW14230   4.461   3.933   0.285
 4444SOL    HW114231   4.484   3.945   0.382
 4444SOL    HW214232   4.469   3.837   0.260
 4445SOL     OW14233   1.327   5.242   0.031
 4445SOL    HW114234   1.394   5.315   0.018
 4445SOL    HW214235   1.242   5.281   0.068
 4446SOL     OW14236   5.435   1.820   0.457
 4446SOL    HW114237   5.348   1.827   0.507
 4446SOL    HW214238   5.434   1.737   0.402
 4447SOL     OW14239   6.040   4.816   5.468
 4447SOL    HW114240   5.951   4.773   5.450
 4447SOL    HW214241   6.071   4.864   5.387
 4448SOL     OW14242   2.972   6.999   1.079
 4448SOL    HW114243   3.018   0.052   1.047
 4448SOL    HW214244   2.885   7.024   1.120
 4449SOL     OW14245   4.458   1.096   6.529
 4449SOL    HW114246   4.492   1.049   6.611
 4449SOL    HW214247   4.403   1.175   6.556
 4450SOL     OW14248   3.313   1.680   0.207
 4450SOL    HW114249   3.325   1.728   0.294
 4450SOL    HW214250   3.248   1.605   0.220
 4451SOL     OW14251   4.604   4.728   4.147
 4451SOL    HW114252   4.656   4.794   4.200
 4451SOL    HW214253   4.611   4.751   4.049
 4452SOL     OW14254   5.948   5.897   4.415
 4452SOL    HW114255   5.942   5.818   4.355
 4452SOL    HW214256   5.995   5.972   4.368
 4453SOL     OW14257   1.073   2.880   1.841
 4453SOL    HW114258   1.103   2.839   1.926
 4453SOL    HW214259   0.973   2.878   1.835
 4454SOL     OW14260   0.461   1.498   6.607
 4454SOL    HW114261   0.540   1.488   6.546
 4454SOL    HW214262   0.446   1.412   6.656
 4455SOL     OW14263   5.880   5.716   5.137
 4455SOL    HW114264   5.784   5.699   5.158
 4455SOL    HW214265   5.889   5.751   5.044
 4456SOL     OW14266   2.331   6.078   3.815
 4456SOL    HW114267   2.360   6.008   3.880
 4456SOL    HW214268   2.305   6.035   3.729
 4457SOL     OW14269   1.888   2.326   4.964
 4457SOL    HW114270   1.958   2.282   4.908
 4457SOL    HW214271   1.874   2.273   5.048
 4458SOL     OW14272   1.918   3.401   1.451
 4458SOL    HW114273   1.883   3.468   1.516
 4458SOL    HW214274   2.015   3.384   1.469
 4459SOL     OW14275   2.097   1.622   4.277
 4459SOL    HW114276   2.110   1.676   4.194
 4459SOL    HW214277   2.160   1.544   4.277
 4460SOL     OW14278   0.487   3.608   4.475
 4460SOL    HW114279   0.426   3.556   4.416
 4460SOL    HW214280   0.582   3.590   4.449
 4461SOL     OW14281   1.691   0.735   1.255
 4461SOL    HW114282   1.605   0.685   1.259
 4461SOL    HW214283   1.689   0.799   1.178
 4462SOL     OW14284   6.003   4.000   2.358
 4462SOL    HW114285   5.940   3.924   2.371
 4462SOL    HW214286   5.952   4.084   2.339
 4463SOL     OW14287   5.046   1.434   1.030
 4463SOL    HW114288   5.134   1.403   1.064
 4463SOL    HW214289   4.987   1.458   1.108
 4464SOL     OW14290   0.783   5.336   0.143
 4464SOL    HW114291   0.834   5.335   0.057
 4464SOL    HW214292   0.846   5.354   0.219
 4465SOL     OW14293   2.739   5.452   0.331
 4465SOL    HW114294   2.750   5.530   0.392
 4465SOL    HW214295   2.758   5.481   0.236
 4466SOL     OW14296   1.926   2.032   3.322
 4466SOL    HW114297   1.875   2.022   3.408
 4466SOL    HW214298   1.902   1.958   3.260
 4467SOL     OW14299   2.875   5.863   4.027
 4467SOL    HW114300   2.963   5.834   3.990
 4467SOL    HW214301   2.874   5.962   4.036
 4468SOL     OW14302   1.200   3.756   0.624
 4468SOL    HW114303   1.220   3.852   0.604
 4468SOL    HW214304   1.185   3.744   0.722
 4469SOL     OW14305   2.444   0.736   1.193
 4469SOL    HW114306   2.435   0.812   1.258
 4469SOL    HW214307   2.520   0.754   1.131
 4470SOL     OW14308   0.567   0.978   2.069
 4470SOL    HW114309   0.478   0.934   2.080
 4470SOL    HW214310   0.640   0.913   2.090
 4471SOL     OW14311   2.290   2.894   6.693
 4471SOL    HW114312   2.265   2.799   6.679
 4471SOL    HW214313   2.329   2.905   6.785
 4472SOL     OW14314   1.231   2.566   1.081
 4472SOL    HW114315   1.315   2.587   1.130
 4472SOL    HW214316   1.191   2.650   1.045
 4473SOL     OW14317   6.310   2.871   3.778
 4473SOL    HW114318   6.406   2.866   3.807
 4473SOL    HW214319   6.278   2.965   3.785
 4474SOL     OW14320   2.917   0.486   1.677
 4474SOL    HW114321   2.831   0.461   1.632
 4474SOL    HW214322   2.925   0.585   1.681
 4475SOL     OW14323   1.031   3.783   2.057
 4475SOL    HW114324   1.125   3.765   2.030
 4475SOL    HW214325   0.984   3.697   2.075
 4476SOL     OW14326   5.754   1.042   4.261
 4476SOL    HW114327   5.749   0.985   4.343
 4476SOL    HW214328   5.663   1.081   4.242
 4477SOL     OW14329   1.830   0.328   5.431
 4477SOL    HW114330   1.795   0.340   5.524
 4477SOL    HW214331   1.758   0.290   5.373
 4478SOL     OW14332   1.055   0.372   1.459
 4478SOL    HW114333   1.065   0.469   1.477
 4478SOL    HW214334   1.143   0.326   1.472
 4479SOL     OW14335   1.182   1.532   0.050
 4479SOL    HW114336   1.259   1.506   0.108
 4479SOL    HW214337   1.116   1.584   0.105
 4480SOL     OW14338   0.849   4.384   4.508
 4480SOL    HW114339   0.772   4.323   4.490
 4480SOL    HW214340   0.849   4.410   4.605
 4481SOL     OW14341   2.369   5.622   5.236
 4481SOL    HW114342   2.283   5.581   5.269
 4481SOL    HW214343   2.434   5.626   5.312
 4482SOL     OW14344   2.570   3.840   6.097
 4482SOL    HW114345   2.660   3.816   6.059
 4482SOL    HW214346   2.571   3.935   6.128
 4483SOL     OW14347   0.418   2.512   1.810
 4483SOL    HW114348   0.404   2.414   1.825
 4483SOL    HW214349   0.400   2.534   1.714
 4484SOL     OW14350   2.540   3.062   0.293
 4484SOL    HW114351   2.630   3.066   0.336
 4484SOL    HW214352   2.514   3.153   0.261
 4485SOL     OW14353   4.835   2.417   5.095
 4485SOL    HW114354   4.818   2.389   5.190
 4485SOL    HW214355   4.756   2.394   5.039
 4486SOL     OW14356   5.674   5.023   5.650
 4486SOL    HW114357   5.734   4.943   5.642
 4486SOL    HW214358   5.580   4.992   5.666
 4487SOL     OW14359   1.825   2.800   6.679
 4487SOL    HW114360   1.905   2.824   6.624
 4487SOL    HW214361   1.778   2.884   6.707
 4488SOL     OW14362   1.205   3.624   3.839
 4488SOL    HW114363   1.124   3.654   3.789
 4488SOL    HW214364   1.250   3.549   3.790
 4489SOL     OW14365   5.024   5.289   5.300
 4489SOL    HW114366   5.048   5.205   5.250
 4489SOL    HW214367   4.943   5.273   5.355
 4490SOL     OW14368   5.612   2.127   1.218
 4490SOL    HW114369   5.698   2.176   1.233
 4490SOL    HW214370   5.536   2.192   1.219
 4491SOL     OW14371   0.681   3.607   3.195
 4491SOL    HW114372   0.606   3.541   3.192
 4491SOL    HW214373   0.671   3.666   3.276
 4492SOL     OW14374   5.908   1.120   1.534
 4492SOL    HW114375   5.918   1.140   1.631
 4492SOL    HW214376   5.840   1.048   1.521
 4493SOL     OW14377   5.584   6.587   4.653
 4493SOL    HW114378   5.635   6.503   4.634
 4493SOL    HW214379   5.518   6.570   4.725
 4494SOL     OW14380   0.942   1.097   5.776
 4494SOL    HW114381   0.869   1.029   5.782
 4494SOL    HW214382   1.001   1.089   5.856
 4495SOL     OW14383   3.579   6.312   2.724
 4495SOL    HW114384   3.533   6.227   2.753
 4495SOL    HW214385   3.590   6.372   2.803
 4496SOL     OW14386   4.679   6.080   6.698
 4496SOL    HW114387   4.697   5.982   6.684
 4496SOL    HW214388   4.743   6.133   6.643
 4497SOL     OW14389   4.079   2.198   0.253
 4497SOL    HW114390   4.021   2.275   0.228
 4497SOL    HW214391   4.079   2.131   0.180
 4498SOL     OW14392   6.849   5.238   6.248
 4498SOL    HW114393   6.816   5.144   6.239
 4498SOL    HW214394   6.871   5.257   6.343
 4499SOL     OW14395   6.446   1.611   3.199
 4499SOL    HW114396   6.368   1.667   3.226
 4499SOL    HW214397   6.510   1.666   3.147
 4500SOL     OW14398   4.244   4.799   6.543
 4500SOL    HW114399   4.205   4.709   6.563
 4500SOL    HW214400   4.323   4.815   6.603
 4501SOL     OW14401   5.954   2.342   2.389
 4501SOL    HW114402   6.036   2.350   2.333
 4501SOL    HW214403   5.941   2.246   2.416
 4502SOL     OW14404   0.831   3.828   6.986
 4502SOL    HW114405   0.772   3.812   6.906
 4502SOL    HW214406   0.840   3.927   7.001
 4503SOL     OW14407   2.928   0.231   2.076
 4503SOL    HW114408   3.027   0.213   2.072
 4503SOL    HW214409   2.910   0.294   2.152
 4504SOL     OW14410   6.810   1.964   3.948
 4504SOL    HW114411   6.792   1.882   4.002
 4504SOL    HW214412   6.905   1.962   3.915
 4505SOL     OW14413   6.835   4.356   2.335
 4505SOL    HW114414   6.899   4.308   2.396
 4505SOL    HW214415   6.785   4.425   2.386
 4506SOL     OW14416   5.421   3.155   3.927
 4506SOL    HW114417   5.400   3.115   4.016
 4506SOL    HW214418   5.368   3.240   3.916
 4507SOL     OW14419   6.700   3.360   3.362
 4507SOL    HW114420   6.663   3.307   3.286
 4507SOL    HW214421   6.641   3.440   3.377
 4508SOL     OW14422   1.168   4.298   0.380
 4508SOL    HW114423   1.198   4.224   0.320
 4508SOL    HW214424   1.244   4.329   0.436
 4509SOL     OW14425   5.175   2.029   2.543
 4509SOL    HW114426   5.095   2.082   2.573
 4509SOL    HW214427   5.174   2.022   2.443
 4510SOL     OW14428   4.333   1.620   4.168
 4510SOL    HW114429   4.297   1.688   4.231
 4510SOL    HW214430   4.262   1.593   4.103
 4511SOL     OW14431   0.133   3.466   1.194
 4511SOL    HW114432   0.050   3.489   1.142
 4511SOL    HW214433   0.158   3.371   1.176
 4512SOL     OW14434   2.928   2.424   6.071
 4512SOL    HW114435   2.879   2.369   6.003
 4512SOL    HW214436   2.955   2.364   6.147
 4513SOL     OW14437   0.585   5.987   6.608
 4513SOL    HW114438   0.487   5.974   6.619
 4513SOL    HW214439   0.602   6.049   6.532
 4514SOL     OW14440   3.465   3.209   6.720
 4514SOL    HW114441   3.453   3.110   6.706
 4514SOL    HW214442   3.550   3.225   6.770
 4515SOL     OW14443   5.475   1.169   4.775
 4515SOL    HW114444   5.481   1.167   4.675
 4515SOL    HW214445   5.436   1.256   4.805
 4516SOL     OW14446   3.086   0.993   5.683
 4516SOL    HW114447   2.994   0.960   5.707
 4516SOL    HW214448   3.140   1.003   5.767
 4517SOL     OW14449   4.574   6.975   6.659
 4517SOL    HW114450   4.545   0.011   6.728
 4517SOL    HW214451   4.654   7.009   6.610
 4518SOL     OW14452   1.241   6.899   1.117
 4518SOL    HW114453   1.282   6.950   1.042
 4518SOL    HW214454   1.218   6.807   1.086
 4519SOL     OW14455   5.092   6.857   0.156
 4519SOL    HW114456   5.037   6.808   0.088
 4519SOL    HW214457   5.189   6.833   0.144
 4520SOL     OW14458   4.141   5.976   5.390
 4520SOL    HW114459   4.127   5.966   5.291
 4520SOL    HW214460   4.217   6.038   5.407
 4521SOL     OW14461   4.878   1.549   4.628
 4521SOL    HW114462   4.962   1.518   4.673
 4521SOL    HW214463   4.902   1.608   4.551
 4522SOL     OW14464   5.859   3.688   3.833
 4522SOL    HW114465   5.866   3.608   3.773
 4522SOL    HW214466   5.859   3.658   3.928
 4523SOL     OW14467   0.881   3.895   6.635
 4523SOL    HW114468   0.949   3.893   6.708
 4523SOL    HW214469   0.868   3.989   6.604
 4524SOL     OW14470   0.240   4.179   2.291
 4524SOL    HW114471   0.296   4.211   2.366
 4524SOL    HW214472   0.182   4.103   2.322
 4525SOL     OW14473   2.137   2.230   5.814
 4525SOL    HW114474   2.057   2.282   5.785
 4525SOL    HW214475   2.218   2.263   5.766
 4526SOL     OW14476   0.159   0.696   6.241
 4526SOL    HW114477   0.142   0.664   6.148
 4526SOL    HW214478   0.242   0.653   6.276
 4527SOL     OW14479   6.802   6.969   2.792
 4527SOL    HW114480   6.799   7.018   2.879
 4527SOL    HW214481   6.710   6.944   2.763
 4528SOL     OW14482   4.044   0.588   6.379
 4528SOL    HW114483   3.962   0.584   6.436
 4528SOL    HW214484   4.051   0.679   6.339
 4529SOL     OW14485   2.649   1.222   6.380
 4529SOL    HW114486   2.568   1.219   6.321
 4529SOL    HW214487   2.730   1.197   6.326
 4530SOL     OW14488   2.298   6.103   4.749
 4530SOL    HW114489   2.323   6.171   4.680
 4530SOL    HW214490   2.202   6.117   4.775
 4531SOL     OW14491   1.549   4.054   6.506
 4531SOL    HW114492   1.645   4.042   6.531
 4531SOL    HW214493   1.509   4.126   6.563
 4532SOL     OW14494   4.829   0.699   2.539
 4532SOL    HW114495   4.817   0.650   2.452
 4532SOL    HW214496   4.742   0.743   2.564
 4533SOL     OW14497   1.471   1.242   2.756
 4533SOL    HW114498   1.372   1.231   2.744
 4533SOL    HW214499   1.506   1.164   2.809
 4534SOL     OW14500   4.464   1.959   5.145
 4534SOL    HW114501   4.450   1.865   5.115
 4534SOL    HW214502   4.507   1.958   5.236
 4535SOL     OW14503   3.448   1.459   1.216
 4535SOL    HW114504   3.455   1.532   1.284
 4535SOL    HW214505   3.466   1.496   1.125
 4536SOL     OW14506   2.510   1.753   5.637
 4536SOL    HW114507   2.586   1.697   5.605
 4536SOL    HW214508   2.506   1.837   5.584
 4537SOL     OW14509   3.674   4.046   3.392
 4537SOL    HW114510   3.624   4.005   3.469
 4537SOL    HW214511   3.731   4.120   3.427
 4538SOL     OW14512   0.987   2.344   1.631
 4538SOL    HW114513   1.075   2.296   1.631
 4538SOL    HW214514   0.951   2.347   1.724
 4539SOL     OW14515   2.876   5.292   4.767
 4539SOL    HW114516   2.851   5.334   4.680
 4539SOL    HW214517   2.810   5.319   4.837
 4540SOL     OW14518   0.940   0.653   0.788
 4540SOL    HW114519   1.026   0.603   0.790
 4540SOL    HW214520   0.957   0.750   0.774
 4541SOL     OW14521   4.477   1.942   6.585
 4541SOL    HW114522   4.483   1.904   6.678
 4541SOL    HW214523   4.522   2.031   6.583
 4542SOL     OW14524   6.669   2.766   1.203
 4542SOL    HW114525   6.758   2.779   1.160
 4542SOL    HW214526   6.682   2.740   1.299
 4543SOL     OW14527   4.217   2.129   0.844
 4543SOL    HW114528   4.302   2.094   0.805
 4543SOL    HW214529   4.208   2.099   0.938
 4544SOL     OW14530   4.799   4.572   1.176
 4544SOL    HW114531   4.863   4.536   1.244
 4544SOL    HW214532   4.847   4.584   1.089
 4545SOL     OW14533   0.582   4.327   5.206
 4545SOL    HW114534   0.681   4.308   5.204
 4545SOL    HW214535   0.549   4.339   5.113
 4546SOL     OW14536   3.132   0.683   5.998
 4546SOL    HW114537   3.128   0.647   6.092
 4546SOL    HW214538   3.173   0.614   5.938
 4547SOL     OW14539   6.465   0.410   6.963
 4547SOL    HW114540   6.544   0.463   6.995
 4547SOL    HW214541   6.495   0.320   6.933
 4548SOL     OW14542   2.397   2.659   3.165
 4548SOL    HW114543   2.385   2.614   3.076
 4548SOL    HW214544   2.374   2.756   3.157
 4549SOL     OW14545   4.909   4.310   2.586
 4549SOL    HW114546   4.813   4.334   2.574
 4549SOL    HW214547   4.931   4.306   2.683
 4550SOL     OW14548   0.666   4.552   3.229
 4550SOL    HW114549   0.757   4.513   3.243
 4550SOL    HW214550   0.641   4.607   3.308
 4551SOL     OW14551   1.034   4.187   4.976
 4551SOL    HW114552   0.945   4.174   4.932
 4551SOL    HW214553   1.041   4.128   5.057
 4552SOL     OW14554   5.975   1.700   1.810
 4552SOL    HW114555   6.069   1.731   1.823
 4552SOL    HW214556   5.921   1.774   1.770
 4553SOL     OW14557   5.214   4.525   6.905
 4553SOL    HW114558   5.135   4.561   6.954
 4553SOL    HW214559   5.220   4.568   6.814
 4554SOL     OW14560   0.249   6.274   0.966
 4554SOL    HW114561   0.208   6.188   0.999
 4554SOL    HW214562   0.223   6.349   1.027
 4555SOL     OW14563   1.015   0.791   6.458
 4555SOL    HW114564   1.049   0.697   6.447
 4555SOL    HW214565   1.071   0.853   6.404
 4556SOL     OW14566   6.143   3.145   5.804
 4556SOL    HW114567   6.065   3.109   5.752
 4556SOL    HW214568   6.139   3.245   5.805
 4557SOL     OW14569   6.168   5.060   4.967
 4557SOL    HW114570   6.142   5.096   5.057
 4557SOL    HW214571   6.263   5.030   4.970
 4558SOL     OW14572   6.728   3.140   4.926
 4558SOL    HW114573   6.799   3.171   4.862
 4558SOL    HW214574   6.729   3.040   4.930
 4559SOL     OW14575   0.191   3.085   2.834
 4559SOL    HW114576   0.188   2.993   2.797
 4559SOL    HW214577   0.112   3.100   2.893
 4560SOL     OW14578   6.278   4.007   2.307
 4560SOL    HW114579   6.185   4.031   2.335
 4560SOL    HW214580   6.276   3.921   2.257
 4561SOL     OW14581   3.360   2.145   3.926
 4561SOL    HW114582   3.433   2.212   3.911
 4561SOL    HW214583   3.361   2.078   3.851
 4562SOL     OW14584   2.280   6.168   0.723
 4562SOL    HW114585   2.282   6.083   0.776
 4562SOL    HW214586   2.324   6.241   0.775
 4563SOL     OW14587   6.846   3.512   1.432
 4563SOL    HW114588   6.806   3.593   1.474
 4563SOL    HW214589   6.914   3.473   1.494
 4564SOL     OW14590   6.886   4.481   1.862
 4564SOL    HW114591   6.958   4.448   1.801
 4564SOL    HW214592   6.883   4.581   1.858
 4565SOL     OW14593   1.620   0.687   4.795
 4565SOL    HW114594   1.631   0.612   4.861
 4565SOL    HW214595   1.702   0.696   4.740
 4566SOL     OW14596   0.558   3.999   1.310
 4566SOL    HW114597   0.483   4.027   1.371
 4566SOL    HW214598   0.523   3.933   1.244
 4567SOL     OW14599   6.852   0.359   6.859
 4567SOL    HW114600   6.844   0.283   6.794
 4567SOL    HW214601   6.943   0.401   6.852
 4568SOL     OW14602   0.660   4.184   4.627
 4568SOL    HW114603   0.709   4.115   4.574
 4568SOL    HW214604   0.566   4.153   4.644
 4569SOL     OW14605   3.374   1.037   2.734
 4569SOL    HW114606   3.443   1.070   2.798
 4569SOL    HW214607   3.286   1.082   2.754
 4570SOL     OW14608   6.335   5.792   1.909
 4570SOL    HW114609   6.325   5.737   1.826
 4570SOL    HW214610   6.406   5.753   1.967
 4571SOL     OW14611   4.798   2.748   6.291
 4571SOL    HW114612   4.848   2.765   6.206
 4571SOL    HW214613   4.828   2.813   6.360
 4572SOL     OW14614   2.383   2.290   6.635
 4572SOL    HW114615   2.394   2.251   6.544
 4572SOL    HW214616   2.391   2.218   6.704
 4573SOL     OW14617   0.913   6.456   0.618
 4573SOL    HW114618   0.943   6.389   0.550
 4573SOL    HW214619   0.815   6.475   0.605
 4574SOL     OW14620   6.265   4.240   6.666
 4574SOL    HW114621   6.355   4.281   6.651
 4574SOL    HW214622   6.253   4.221   6.764
 4575SOL     OW14623   6.180   1.116   4.242
 4575SOL    HW114624   6.101   1.163   4.282
 4575SOL    HW214625   6.253   1.109   4.311
 4576SOL     OW14626   2.868   4.962   5.139
 4576SOL    HW114627   2.785   4.984   5.190
 4576SOL    HW214628   2.854   4.878   5.086
 4577SOL     OW14629   0.898   2.416   2.622
 4577SOL    HW114630   0.934   2.333   2.665
 4577SOL    HW214631   0.863   2.478   2.692
 4578SOL     OW14632   0.246   0.647   3.263
 4578SOL    HW114633   0.172   0.586   3.292
 4578SOL    HW214634   0.270   0.628   3.168
 4579SOL     OW14635   4.797   0.695   1.765
 4579SOL    HW114636   4.795   0.633   1.843
 4579SOL    HW214637   4.753   0.781   1.790
 4580SOL     OW14638   5.352   4.130   0.312
 4580SOL    HW114639   5.395   4.103   0.226
 4580SOL    HW214640   5.385   4.220   0.339
 4581SOL     OW14641   2.921   6.712   2.416
 4581SOL    HW114642   2.917   6.612   2.427
 4581SOL    HW214643   2.828   6.748   2.404
 4582SOL     OW14644   4.916   0.555   2.946
 4582SOL    HW114645   4.889   0.464   2.916
 4582SOL    HW214646   4.884   0.623   2.880
 4583SOL     OW14647   2.063   1.159   6.127
 4583SOL    HW114648   2.044   1.104   6.046
 4583SOL    HW214649   2.000   1.237   6.129
 4584SOL     OW14650   1.947   7.024   5.662
 4584SOL    HW114651   1.995   0.082   5.671
 4584SOL    HW214652   1.967   6.967   5.742
 4585SOL     OW14653   1.756   3.738   3.649
 4585SOL    HW114654   1.661   3.731   3.679
 4585SOL    HW214655   1.815   3.694   3.717
 4586SOL     OW14656   4.794   4.340   0.456
 4586SOL    HW114657   4.709   4.362   0.410
 4586SOL    HW214658   4.775   4.302   0.547
 4587SOL     OW14659   3.115   3.608   4.946
 4587SOL    HW114660   3.041   3.671   4.969
 4587SOL    HW214661   3.200   3.659   4.935
 4588SOL     OW14662   3.176   3.351   5.742
 4588SOL    HW114663   3.225   3.427   5.698
 4588SOL    HW214664   3.238   3.274   5.753
 4589SOL     OW14665   5.872   5.494   2.025
 4589SOL    HW114666   5.894   5.587   1.997
 4589SOL    HW214667   5.796   5.460   1.969
 4590SOL     OW14668   3.579   5.763   2.167
 4590SOL    HW114669   3.530   5.676   2.159
 4590SOL    HW214670   3.523   5.837   2.129
 4591SOL     OW14671   2.580   0.932   5.535
 4591SOL    HW114672   2.510   0.913   5.603
 4591SOL    HW214673   2.560   1.019   5.490
 4592SOL     OW14674   2.835   1.563   3.552
 4592SOL    HW114675   2.778   1.504   3.495
 4592SOL    HW214676   2.783   1.645   3.576
 4593SOL     OW14677   6.967   5.923   2.653
 4593SOL    HW114678   6.986   5.966   2.565
 4593SOL    HW214679   7.029   5.960   2.722
 4594SOL     OW14680   2.617   6.910   3.067
 4594SOL    HW114681   2.709   6.947   3.052
 4594SOL    HW214682   2.589   6.857   2.987
 4595SOL     OW14683   4.770   2.200   5.596
 4595SOL    HW114684   4.853   2.197   5.652
 4595SOL    HW214685   4.690   2.195   5.656
 4596SOL     OW14686   0.360   0.879   1.851
 4596SOL    HW114687   0.376   0.905   1.946
 4596SOL    HW214688   0.263   0.858   1.838
 4597SOL     OW14689   2.224   4.985   6.817
 4597SOL    HW114690   2.250   5.031   6.902
 4597SOL    HW214691   2.128   4.955   6.824
 4598SOL     OW14692   2.162   5.237   0.133
 4598SOL    HW114693   2.131   5.282   0.216
 4598SOL    HW214694   2.094   5.171   0.102
 4599SOL     OW14695   1.764   3.112   1.916
 4599SOL    HW114696   1.682   3.106   1.859
 4599SOL    HW214697   1.820   3.189   1.885
 4600SOL     OW14698   0.070   6.807   6.024
 4600SOL    HW114699   0.118   6.812   6.112
 4600SOL    HW214700   0.075   6.895   5.978
 4601SOL     OW14701   1.098   0.948   4.717
 4601SOL    HW114702   1.061   0.957   4.625
 4601SOL    HW214703   1.126   0.853   4.733
 4602SOL     OW14704   2.883   0.078   6.069
 4602SOL    HW114705   2.858   0.164   6.025
 4602SOL    HW214706   2.815   0.008   6.047
 4603SOL     OW14707   4.035   6.182   1.438
 4603SOL    HW114708   4.023   6.087   1.466
 4603SOL    HW214709   4.108   6.224   1.492
 4604SOL     OW14710   4.804   6.681   5.623
 4604SOL    HW114711   4.781   6.748   5.552
 4604SOL    HW214712   4.890   6.707   5.667
 4605SOL     OW14713   2.076   0.311   1.684
 4605SOL    HW114714   2.146   0.240   1.669
 4605SOL    HW214715   2.108   0.397   1.646
 4606SOL     OW14716   0.519   6.696   2.651
 4606SOL    HW114717   0.460   6.773   2.627
 4606SOL    HW214718   0.475   6.611   2.624
 4607SOL     OW14719   2.179   3.815   3.382
 4607SOL    HW114720   2.109   3.856   3.441
 4607SOL    HW214721   2.180   3.863   3.294
 4608SOL     OW14722   0.314   3.478   4.257
 4608SOL    HW114723   0.288   3.556   4.199
 4608SOL    HW214724   0.325   3.397   4.200
 4609SOL     OW14725   4.783   5.778   6.623
 4609SOL    HW114726   4.839   5.842   6.571
 4609SOL    HW214727   4.817   5.685   6.611
 4610SOL     OW14728   5.457   2.010   0.035
 4610SOL    HW114729   5.516   1.994   6.985
 4610SOL    HW214730   5.366   2.038   0.003
 4611SOL     OW14731   0.400   0.823   5.967
 4611SOL    HW114732   0.313   0.855   5.928
 4611SOL    HW214733   0.427   0.883   6.042
 4612SOL     OW14734   2.373   6.070   2.263
 4612SOL    HW114735   2.467   6.039   2.278
 4612SOL    HW214736   2.375   6.155   2.209
 4613SOL     OW14737   1.804   4.722   2.785
 4613SOL    HW114738   1.778   4.627   2.799
 4613SOL    HW214739   1.724   4.774   2.754
 4614SOL     OW14740   6.238   3.529   3.889
 4614SOL    HW114741   6.296   3.452   3.915
 4614SOL    HW214742   6.273   3.571   3.806
 4615SOL     OW14743   1.087   0.621   1.597
 4615SOL    HW114744   1.182   0.615   1.628
 4615SOL    HW214745   1.025   0.618   1.676
 4616SOL     OW14746   6.498   2.454   5.045
 4616SOL    HW114747   6.484   2.364   5.005
 4616SOL    HW214748   6.500   2.523   4.973
 4617SOL     OW14749   0.835   2.675   2.010
 4617SOL    HW114750   0.900   2.673   1.935
 4617SOL    HW214751   0.846   2.594   2.067
 4618SOL     OW14752   2.675   3.637   5.442
 4618SOL    HW114753   2.760   3.672   5.403
 4618SOL    HW214754   2.694   3.598   5.532
 4619SOL     OW14755   3.150   6.075   3.803
 4619SOL    HW114756   3.224   6.141   3.786
 4619SOL    HW214757   3.189   5.988   3.834
 4620SOL     OW14758   0.600   5.536   1.151
 4620SOL    HW114759   0.651   5.601   1.207
 4620SOL    HW214760   0.645   5.447   1.153
 4621SOL     OW14761   5.123   0.494   1.904
 4621SOL    HW114762   5.108   0.512   1.807
 4621SOL    HW214763   5.117   0.395   1.920
 4622SOL     OW14764   4.203   5.123   0.862
 4622SOL    HW114765   4.112   5.165   0.865
 4622SOL    HW214766   4.258   5.158   0.938
 4623SOL     OW14767   3.754   5.375   1.536
 4623SOL    HW114768   3.823   5.439   1.502
 4623SOL    HW214769   3.675   5.375   1.475
 4624SOL     OW14770   3.896   1.370   3.441
 4624SOL    HW114771   3.874   1.331   3.530
 4624SOL    HW214772   3.956   1.449   3.453
 4625SOL     OW14773   2.352   5.857   1.854
 4625SOL    HW114774   2.383   5.808   1.772
 4625SOL    HW214775   2.282   5.802   1.900
 4626SOL     OW14776   4.142   3.814   1.816
 4626SOL    HW114777   4.055   3.825   1.770
 4626SOL    HW214778   4.129   3.820   1.915
 4627SOL     OW14779   0.248   5.912   4.802
 4627SOL    HW114780   0.239   5.813   4.814
 4627SOL    HW214781   0.341   5.932   4.770
 4628SOL     OW14782   4.404   4.637   3.216
 4628SOL    HW114783   4.383   4.586   3.133
 4628SOL    HW214784   4.502   4.630   3.235
 4629SOL     OW14785   2.303   5.865   6.344
 4629SOL    HW114786   2.325   5.774   6.310
 4629SOL    HW214787   2.319   5.932   6.273
 4630SOL     OW14788   1.319   5.276   2.079
 4630SOL    HW114789   1.411   5.316   2.073
 4630SOL    HW214790   1.260   5.319   2.011
 4631SOL     OW14791   0.786   0.400   3.840
 4631SOL    HW114792   0.724   0.336   3.885
 4631SOL    HW214793   0.838   0.353   3.769
 4632SOL     OW14794   2.640   5.560   2.882
 4632SOL    HW114795   2.695   5.546   2.799
 4632SOL    HW214796   2.546   5.530   2.865
 4633SOL     OW14797   4.721   1.387   4.339
 4633SOL    HW114798   4.686   1.375   4.246
 4633SOL    HW214799   4.673   1.325   4.400
 4634SOL     OW14800   2.936   3.820   4.935
 4634SOL    HW114801   2.932   3.879   5.015
 4634SOL    HW214802   2.852   3.766   4.929
 4635SOL     OW14803   4.231   5.332   1.196
 4635SOL    HW114804   4.318   5.287   1.175
 4635SOL    HW214805   4.169   5.266   1.238
 4636SOL     OW14806   1.628   5.231   0.492
 4636SOL    HW114807   1.691   5.253   0.566
 4636SOL    HW214808   1.678   5.229   0.405
 4637SOL     OW14809   1.264   6.624   1.003
 4637SOL    HW114810   1.301   6.532   0.988
 4637SOL    HW214811   1.180   6.636   0.950
 4638SOL     OW14812   3.401   5.421   6.758
 4638SOL    HW114813   3.386   5.509   6.804
 4638SOL    HW214814   3.488   5.381   6.790
 4639SOL     OW14815   2.742   2.249   0.073
 4639SOL    HW114816   2.778   2.286   7.017
 4639SOL    HW214817   2.812   2.254   0.144
 4640SOL     OW14818   6.012   2.832   5.280
 4640SOL    HW114819   5.937   2.892   5.308
 4640SOL    HW214820   5.990   2.791   5.191
 4641SOL     OW14821   2.201   6.883   3.966
 4641SOL    HW114822   2.175   6.847   4.056
 4641SOL    HW214823   2.143   6.842   3.896
 4642SOL     OW14824   2.029   1.281   3.748
 4642SOL    HW114825   2.062   1.337   3.672
 4642SOL    HW214826   1.998   1.341   3.822
 4643SOL     OW14827   6.590   2.158   0.295
 4643SOL    HW114828   6.671   2.107   0.268
 4643SOL    HW214829   6.508   2.108   0.267
 4644SOL     OW14830   0.102   0.967   6.180
 4644SOL    HW114831   0.127   0.881   6.223
 4644SOL    HW214832   0.121   1.043   6.243
 4645SOL     OW14833   1.758   0.754   4.004
 4645SOL    HW114834   1.666   0.740   4.040
 4645SOL    HW214835   1.784   0.850   4.014
 4646SOL     OW14836   2.449   5.409   4.438
 4646SOL    HW114837   2.418   5.319   4.471
 4646SOL    HW214838   2.450   5.474   4.514
 4647SOL     OW14839   1.946   6.467   3.143
 4647SOL    HW114840   1.916   6.498   3.053
 4647SOL    HW214841   1.973   6.546   3.198
 4648SOL     OW14842   2.990   0.963   3.912
 4648SOL    HW114843   2.930   0.886   3.933
 4648SOL    HW214844   3.043   0.987   3.993
 4649SOL     OW14845   5.943   0.967   1.097
 4649SOL    HW114846   5.853   0.934   1.069
 4649SOL    HW214847   5.932   1.047   1.155
 4650SOL     OW14848   4.678   5.859   1.132
 4650SOL    HW114849   4.646   5.770   1.164
 4650SOL    HW214850   4.601   5.923   1.129
 4651SOL     OW14851   5.904   3.819   6.134
 4651SOL    HW114852   5.846   3.892   6.171
 4651SOL    HW214853   5.968   3.788   6.204
 4652SOL     OW14854   6.972   5.803   3.938
 4652SOL    HW114855   0.036   5.775   3.958
 4652SOL    HW214856   6.911   5.773   4.011
 4653SOL     OW14857   4.681   5.651   0.316
 4653SOL    HW114858   4.642   5.565   0.350
 4653SOL    HW214859   4.768   5.668   0.361
 4654SOL     OW14860   6.772   6.659   5.136
 4654SOL    HW114861   6.805   6.646   5.042
 4654SOL    HW214862   6.835   6.614   5.199
 4655SOL     OW14863   5.551   3.322   1.787
 4655SOL    HW114864   5.539   3.301   1.690
 4655SOL    HW214865   5.535   3.420   1.802
 4656SOL     OW14866   0.578   0.680   1.308
 4656SOL    HW114867   0.489   0.666   1.264
 4656SOL    HW214868   0.595   0.778   1.319
 4657SOL     OW14869   5.539   6.649   1.644
 4657SOL    HW114870   5.477   6.687   1.576
 4657SOL    HW214871   5.609   6.717   1.667
 4658SOL     OW14872   2.608   2.852   5.586
 4658SOL    HW114873   2.614   2.915   5.664
 4658SOL    HW214874   2.623   2.758   5.618
 4659SOL     OW14875   3.518   4.253   1.450
 4659SOL    HW114876   3.603   4.206   1.474
 4659SOL    HW214877   3.485   4.220   1.362
 4660SOL     OW14878   1.538   6.934   4.127
 4660SOL    HW114879   1.493   6.858   4.080
 4660SOL    HW214880   1.623   6.901   4.169
 4661SOL     OW14881   2.677   4.193   5.710
 4661SOL    HW114882   2.603   4.239   5.661
 4661SOL    HW214883   2.683   4.098   5.679
 4662SOL     OW14884   3.071   0.115   5.364
 4662SOL    HW114885   3.009   0.193   5.353
 4662SOL    HW214886   3.079   0.091   5.460
 4663SOL     OW14887   1.077   6.562   6.922
 4663SOL    HW114888   1.104   6.605   7.008
 4663SOL    HW214889   1.151   6.570   6.856
 4664SOL     OW14890   6.867   6.606   0.711
 4664SOL    HW114891   6.812   6.685   0.683
 4664SOL    HW214892   6.948   6.638   0.759
 4665SOL     OW14893   1.878   0.954   5.677
 4665SOL    HW114894   1.847   1.045   5.650
 4665SOL    HW214895   1.946   0.921   5.612
 4666SOL     OW14896   2.044   2.338   0.045
 4666SOL    HW114897   2.140   2.326   0.018
 4666SOL    HW214898   1.988   2.270   7.027
 4667SOL     OW14899   6.706   4.005   1.665
 4667SOL    HW114900   6.664   4.063   1.594
 4667SOL    HW214901   6.805   4.016   1.662
 4668SOL     OW14902   4.198   2.053   5.111
 4668SOL    HW114903   4.281   1.998   5.115
 4668SOL    HW214904   4.168   2.062   5.016
 4669SOL     OW14905   5.039   0.377   0.132
 4669SOL    HW114906   4.952   0.415   0.160
 4669SOL    HW214907   5.039   0.278   0.148
 4670SOL     OW14908   1.122   3.093   0.039
 4670SOL    HW114909   1.205   3.058   0.082
 4670SOL    HW214910   1.130   3.086   6.969
 4671SOL     OW14911   0.819   3.394   0.086
 4671SOL    HW114912   0.762   3.354   0.015
 4671SOL    HW214913   0.894   3.445   0.044
 4672SOL     OW14914   4.478   4.725   5.991
 4672SOL    HW114915   4.430   4.693   6.073
 4672SOL    HW214916   4.474   4.825   5.986
 4673SOL     OW14917   5.137   0.658   6.939
 4673SOL    HW114918   5.109   0.629   0.001
 4673SOL    HW214919   5.080   0.735   6.911
 4674SOL     OW14920   6.835   1.332   0.371
 4674SOL    HW114921   6.897   1.395   0.324
 4674SOL    HW214922   6.889   1.263   0.420
 4675SOL     OW14923   3.709   6.795   6.504
 4675SOL    HW114924   3.694   6.845   6.419
 4675SOL    HW214925   3.640   6.822   6.572
 4676SOL     OW14926   0.812   6.465   4.626
 4676SOL    HW114927   0.892   6.525   4.618
 4676SOL    HW214928   0.730   6.522   4.641
 4677SOL     OW14929   3.086   6.998   0.148
 4677SOL    HW114930   3.154   0.028   0.192
 4677SOL    HW214931   3.021   0.024   0.098
 4678SOL     OW14932   2.013   5.505   1.796
 4678SOL    HW114933   2.095   5.542   1.839
 4678SOL    HW214934   2.024   5.507   1.697
 4679SOL     OW14935   2.726   1.550   6.111
 4679SOL    HW114936   2.691   1.638   6.080
 4679SOL    HW214937   2.651   1.493   6.143
 4680SOL     OW14938   2.282   5.293   1.439
 4680SOL    HW114939   2.305   5.209   1.488
 4680SOL    HW214940   2.248   5.271   1.348
 4681SOL     OW14941   6.948   6.194   4.670
 4681SOL    HW114942   6.945   6.100   4.635
 4681SOL    HW214943   6.902   6.255   4.606
 4682SOL     OW14944   4.225   5.683   6.792
 4682SOL    HW114945   4.279   5.709   6.712
 4682SOL    HW214946   4.128   5.681   6.768
 4683SOL     OW14947   5.807   3.851   2.599
 4683SOL    HW114948   5.870   3.837   2.676
 4683SOL    HW214949   5.834   3.793   2.522
 4684SOL     OW14950   1.257   2.161   4.039
 4684SOL    HW114951   1.290   2.083   4.092
 4684SOL    HW214952   1.260   2.243   4.096
 4685SOL     OW14953   6.428   5.326   4.771
 4685SOL    HW114954   6.434   5.415   4.726
 4685SOL    HW214955   6.519   5.284   4.772
 4686SOL     OW14956   5.162   5.380   0.203
 4686SOL    HW114957   5.167   5.477   0.179
 4686SOL    HW214958   5.254   5.347   0.227
 4687SOL     OW14959   6.706   3.990   4.652
 4687SOL    HW114960   6.621   3.936   4.658
 4687SOL    HW214961   6.706   4.060   4.722
 4688SOL     OW14962   0.452   3.505   6.433
 4688SOL    HW114963   0.514   3.431   6.409
 4688SOL    HW214964   0.365   3.467   6.464
 4689SOL     OW14965   6.153   0.070   5.555
 4689SOL    HW114966   6.236   0.015   5.555
 4689SOL    HW214967   6.177   0.167   5.552
 4690SOL     OW14968   1.279   1.052   6.619
 4690SOL    HW114969   1.187   1.076   6.653
 4690SOL    HW214970   1.292   1.091   6.528
 4691SOL     OW14971   2.863   4.143   0.841
 4691SOL    HW114972   2.779   4.094   0.865
 4691SOL    HW214973   2.872   4.146   0.741
 4692SOL     OW14974   0.158   5.130   2.847
 4692SOL    HW114975   0.222   5.201   2.817
 4692SOL    HW214976   0.199   5.040   2.830
 4693SOL     OW14977   0.295   1.591   4.481
 4693SOL    HW114978   0.383   1.559   4.448
 4693SOL    HW214979   0.274   1.680   4.439
 4694SOL     OW14980   3.164   0.636   0.096
 4694SOL    HW114981   3.198   0.716   0.047
 4694SOL    HW214982   3.087   0.663   0.155
 4695SOL     OW14983   3.947   3.197   1.601
 4695SOL    HW114984   3.943   3.164   1.506
 4695SOL    HW214985   3.999   3.132   1.656
 4696SOL     OW14986   1.144   3.820   6.088
 4696SOL    HW114987   1.044   3.824   6.090
 4696SOL    HW214988   1.181   3.845   6.177
 4697SOL     OW14989   1.760   3.329   0.686
 4697SOL    HW114990   1.831   3.338   0.616
 4697SOL    HW214991   1.694   3.261   0.657
 4698SOL     OW14992   5.272   4.452   1.950
 4698SOL    HW114993   5.277   4.470   1.852
 4698SOL    HW214994   5.199   4.507   1.991
 4699SOL     OW14995   0.197   6.868   2.130
 4699SOL    HW114996   0.203   6.836   2.224
 4699SOL    HW214997   0.112   6.919   2.116
 4700SOL     OW14998   5.147   2.255   1.506
 4700SOL    HW114999   5.119   2.349   1.525
 4700SOL    HW215000   5.087   2.191   1.555
 4701SOL     OW15001   0.908   1.693   6.909
 4701SOL    HW115002   0.856   1.622   6.863
 4701SOL    HW215003   0.911   1.675   7.007
 4702SOL     OW15004   4.450   3.946   6.911
 4702SOL    HW115005   4.394   3.955   6.829
 4702SOL    HW215006   4.529   4.007   6.905
 4703SOL     OW15007   1.019   1.743   2.952
 4703SOL    HW115008   1.020   1.799   3.035
 4703SOL    HW215009   1.102   1.760   2.899
 4704SOL     OW15010   0.006   5.750   1.126
 4704SOL    HW115011   0.002   5.831   1.067
 4704SOL    HW215012   0.087   5.755   1.184
 4705SOL     OW15013   3.601   2.885   4.025
 4705SOL    HW115014   3.589   2.800   4.076
 4705SOL    HW215015   3.515   2.936   4.025
 4706SOL     OW15016   3.808   5.860   6.584
 4706SOL    HW115017   3.808   5.959   6.601
 4706SOL    HW215018   3.715   5.829   6.567
 4707SOL     OW15019   1.927   5.781   1.126
 4707SOL    HW115020   1.924   5.871   1.169
 4707SOL    HW215021   1.855   5.723   1.163
 4708SOL     OW15022   2.981   2.785   0.694
 4708SOL    HW115023   2.990   2.750   0.601
 4708SOL    HW215024   2.895   2.753   0.734
 4709SOL     OW15025   3.846   5.253   5.153
 4709SOL    HW115026   3.838   5.157   5.180
 4709SOL    HW215027   3.902   5.302   5.221
 4710SOL     OW15028   4.624   1.435   6.639
 4710SOL    HW115029   4.525   1.439   6.625
 4710SOL    HW215030   4.651   1.341   6.657
 4711SOL     OW15031   3.593   0.293   2.683
 4711SOL    HW115032   3.500   0.309   2.649
 4711SOL    HW215033   3.604   0.338   2.772
 4712SOL     OW15034   2.311   4.624   0.990
 4712SOL    HW115035   2.403   4.601   1.021
 4712SOL    HW215036   2.251   4.544   1.002
 4713SOL     OW15037   3.355   4.695   1.452
 4713SOL    HW115038   3.260   4.707   1.422
 4713SOL    HW215039   3.356   4.667   1.548
 4714SOL     OW15040   1.826   1.315   0.918
 4714SOL    HW115041   1.882   1.266   0.852
 4714SOL    HW215042   1.883   1.380   0.968
 4715SOL     OW15043   6.736   3.265   2.407
 4715SOL    HW115044   6.812   3.328   2.419
 4715SOL    HW215045   6.717   3.255   2.309
 4716SOL     OW15046   3.838   4.666   6.497
 4716SOL    HW115047   3.910   4.607   6.463
 4716SOL    HW215048   3.759   4.610   6.525
 4717SOL     OW15049   1.152   6.120   2.163
 4717SOL    HW115050   1.052   6.121   2.158
 4717SOL    HW215051   1.185   6.210   2.192
 4718SOL     OW15052   5.083   1.678   6.456
 4718SOL    HW115053   5.005   1.624   6.488
 4718SOL    HW215054   5.066   1.775   6.474
 4719SOL     OW15055   5.128   3.899   3.140
 4719SOL    HW115056   5.159   3.845   3.218
 4719SOL    HW215057   5.115   3.839   3.061
 4720SOL     OW15058   2.160   6.661   5.814
 4720SOL    HW115059   2.210   6.666   5.900
 4720SOL    HW215060   2.062   6.657   5.832
 4721SOL     OW15061   0.590   2.196   0.957
 4721SOL    HW115062   0.567   2.267   1.022
 4721SOL    HW215063   0.511   2.135   0.945
 4722SOL     OW15064   1.550   6.393   0.410
 4722SOL    HW115065   1.624   6.378   0.477
 4722SOL    HW215066   1.578   6.465   0.346
 4723SOL     OW15067   2.148   6.179   6.061
 4723SOL    HW115068   2.195   6.091   6.068
 4723SOL    HW215069   2.179   6.239   6.134
 4724SOL     OW15070   4.100   6.525   2.568
 4724SOL    HW115071   4.174   6.579   2.529
 4724SOL    HW215072   4.093   6.438   2.519
 4725SOL     OW15073   5.170   6.391   3.159
 4725SOL    HW115074   5.109   6.381   3.237
 4725SOL    HW215075   5.195   6.487   3.149
 4726SOL     OW15076   1.178   4.073   6.539
 4726SOL    HW115077   1.092   4.124   6.537
 4726SOL    HW215078   1.170   3.996   6.603
 4727SOL     OW15079   6.646   5.492   0.250
 4727SOL    HW115080   6.687   5.583   0.248
 4727SOL    HW215081   6.718   5.422   0.251
 4728SOL     OW15082   6.165   1.444   0.665
 4728SOL    HW115083   6.139   1.414   0.756
 4728SOL    HW215084   6.132   1.538   0.650
 4729SOL     OW15085   1.575   0.510   2.559
 4729SOL    HW115086   1.606   0.428   2.512
 4729SOL    HW215087   1.539   0.485   2.649
 4730SOL     OW15088   2.540   6.206   5.189
 4730SOL    HW115089   2.623   6.250   5.224
 4730SOL    HW215090   2.479   6.183   5.265
 4731SOL     OW15091   5.833   0.674   5.186
 4731SOL    HW115092   5.845   0.768   5.217
 4731SOL    HW215093   5.905   0.616   5.225
 4732SOL     OW15094   6.800   3.728   6.715
 4732SOL    HW115095   6.763   3.707   6.624
 4732SOL    HW215096   6.775   3.654   6.778
 4733SOL     OW15097   0.442   3.735   2.806
 4733SOL    HW115098   0.367   3.792   2.774
 4733SOL    HW215099   0.411   3.641   2.817
 4734SOL     OW15100   5.468   2.968   6.744
 4734SOL    HW115101   5.395   2.991   6.808
 4734SOL    HW215102   5.549   2.937   6.794
 4735SOL     OW15103   1.121   4.095   3.921
 4735SOL    HW115104   1.032   4.134   3.900
 4735SOL    HW215105   1.108   4.003   3.958
 4736SOL     OW15106   6.973   1.019   6.471
 4736SOL    HW115107   0.031   1.067   6.463
 4736SOL    HW215108   6.913   1.047   6.396
 4737SOL     OW15109   2.521   4.542   1.845
 4737SOL    HW115110   2.603   4.564   1.897
 4737SOL    HW215111   2.461   4.483   1.900
 4738SOL     OW15112   6.709   6.189   1.617
 4738SOL    HW115113   6.765   6.269   1.593
 4738SOL    HW215114   6.745   6.108   1.570
 4739SOL     OW15115   4.131   0.543   2.400
 4739SOL    HW115116   4.158   0.477   2.329
 4739SOL    HW215117   4.089   0.495   2.476
 4740SOL     OW15118   0.464   1.541   2.696
 4740SOL    HW115119   0.554   1.547   2.740
 4740SOL    HW215120   0.454   1.618   2.633
 4741SOL     OW15121   3.975   2.490   1.478
 4741SOL    HW115122   4.074   2.506   1.474
 4741SOL    HW215123   3.941   2.511   1.569
 4742SOL     OW15124   2.429   6.752   0.227
 4742SOL    HW115125   2.487   6.670   0.223
 4742SOL    HW215126   2.356   6.737   0.293
 4743SOL     OW15127   2.045   3.887   2.338
 4743SOL    HW115128   2.109   3.874   2.263
 4743SOL    HW215129   1.953   3.861   2.309
 4744SOL     OW15130   1.635   5.914   0.867
 4744SOL    HW115131   1.657   5.817   0.862
 4744SOL    HW215132   1.615   5.949   0.775
 4745SOL     OW15133   2.574   3.611   0.386
 4745SOL    HW115134   2.511   3.624   0.463
 4745SOL    HW215135   2.522   3.603   0.301
 4746SOL     OW15136   4.375   5.045   4.461
 4746SOL    HW115137   4.421   4.980   4.522
 4746SOL    HW215138   4.310   4.996   4.403
 4747SOL     OW15139   1.416   3.148   0.814
 4747SOL    HW115140   1.474   3.128   0.735
 4747SOL    HW215141   1.417   3.246   0.832
 4748SOL     OW15142   1.903   6.383   2.141
 4748SOL    HW115143   1.881   6.442   2.218
 4748SOL    HW215144   1.938   6.438   2.065
 4749SOL     OW15145   2.262   6.760   0.440
 4749SOL    HW115146   2.208   6.683   0.472
 4749SOL    HW215147   2.219   6.846   0.470
 4750SOL     OW15148   6.129   3.765   5.086
 4750SOL    HW115149   6.045   3.745   5.135
 4750SOL    HW215150   6.207   3.752   5.147
 4751SOL     OW15151   4.633   1.416   2.116
 4751SOL    HW115152   4.587   1.447   2.198
 4751SOL    HW215153   4.571   1.358   2.062
 4752SOL     OW15154   4.908   1.981   0.172
 4752SOL    HW115155   4.934   1.914   0.103
 4752SOL    HW215156   4.871   1.934   0.252
 4753SOL     OW15157   1.765   6.633   4.838
 4753SOL    HW115158   1.796   6.600   4.927
 4753SOL    HW215159   1.841   6.626   4.772
 4754SOL     OW15160   4.373   3.993   6.289
 4754SOL    HW115161   4.286   4.004   6.338
 4754SOL    HW215162   4.384   4.067   6.223
 4755SOL     OW15163   1.247   0.434   1.756
 4755SOL    HW115164   1.276   0.341   1.736
 4755SOL    HW215165   1.151   0.434   1.785
 4756SOL     OW15166   6.570   4.568   0.366
 4756SOL    HW115167   6.619   4.555   0.279
 4756SOL    HW215168   6.629   4.619   0.429
 4757SOL     OW15169   1.311   2.999   1.452
 4757SOL    HW115170   1.269   2.915   1.417
 4757SOL    HW215171   1.397   3.016   1.404
 4758SOL     OW15172   1.524   0.107   3.371
 4758SOL    HW115173   1.473   0.172   3.314
 4758SOL    HW215174   1.606   0.150   3.406
 4759SOL     OW15175   0.965   5.092   0.300
 4759SOL    HW115176   0.938   5.175   0.349
 4759SOL    HW215177   0.925   5.012   0.345
 4760SOL     OW15178   1.194   0.155   0.745
 4760SOL    HW115179   1.212   0.246   0.708
 4760SOL    HW215180   1.123   0.111   0.691
 4761SOL     OW15181   0.072   6.698   0.817
 4761SOL    HW115182   0.114   6.774   0.768
 4761SOL    HW215183   0.143   6.630   0.839
 4762SOL     OW15184   2.011   5.593   2.320
 4762SOL    HW115185   2.039   5.497   2.311
 4762SOL    HW215186   1.911   5.597   2.328
 4763SOL     OW15187   4.915   5.868   1.965
 4763SOL    HW115188   4.917   5.790   1.902
 4763SOL    HW215189   4.951   5.949   1.918
 4764SOL     OW15190   4.839   3.559   5.346
 4764SOL    HW115191   4.804   3.509   5.426
 4764SOL    HW215192   4.773   3.552   5.271
 4765SOL     OW15193   3.006   1.731   4.974
 4765SOL    HW115194   2.952   1.648   4.964
 4765SOL    HW215195   2.962   1.806   4.925
 4766SOL     OW15196   5.830   6.797   4.488
 4766SOL    HW115197   5.897   6.866   4.461
 4766SOL    HW215198   5.827   6.724   4.420
 4767SOL     OW15199   2.496   5.367   5.203
 4767SOL    HW115200   2.498   5.467   5.204
 4767SOL    HW215201   2.573   5.332   5.257
 4768SOL     OW15202   4.683   2.804   6.572
 4768SOL    HW115203   4.643   2.752   6.647
 4768SOL    HW215204   4.780   2.781   6.563
 4769SOL     OW15205   3.465   5.942   1.425
 4769SOL    HW115206   3.487   5.929   1.328
 4769SOL    HW215207   3.473   6.039   1.449
 4770SOL     OW15208   6.386   2.040   5.386
 4770SOL    HW115209   6.446   2.110   5.347
 4770SOL    HW215210   6.423   2.011   5.474
 4771SOL     OW15211   2.403   0.241   5.575
 4771SOL    HW115212   2.466   0.186   5.521
 4771SOL    HW215213   2.357   0.183   5.643
 4772SOL     OW15214   2.970   5.293   0.868
 4772SOL    HW115215   2.884   5.339   0.847
 4772SOL    HW215216   3.018   5.343   0.940
 4773SOL     OW15217   2.655   5.655   4.864
 4773SOL    HW115218   2.750   5.630   4.886
 4773SOL    HW215219   2.616   5.707   4.940
 4774SOL     OW15220   1.831   4.083   0.350
 4774SOL    HW115221   1.747   4.053   0.395
 4774SOL    HW215222   1.895   4.118   0.418
 4775SOL     OW15223   5.381   6.299   4.522
 4775SOL    HW115224   5.436   6.278   4.603
 4775SOL    HW215225   5.343   6.215   4.484
 4776SOL     OW15226   1.151   0.583   5.558
 4776SOL    HW115227   1.221   0.515   5.580
 4776SOL    HW215228   1.067   0.537   5.530
 4777SOL     OW15229   1.002   5.547   0.629
 4777SOL    HW115230   0.944   5.543   0.710
 4777SOL    HW215231   1.098   5.547   0.657
 4778SOL     OW15232   0.821   2.580   4.288
 4778SOL    HW115233   0.846   2.615   4.198
 4778SOL    HW215234   0.733   2.618   4.316
 4779SOL     OW15235   6.193   0.839   4.047
 4779SOL    HW115236   6.273   0.847   4.107
 4779SOL    HW215237   6.206   0.897   3.967
 4780SOL     OW15238   5.465   2.456   5.542
 4780SOL    HW115239   5.405   2.422   5.615
 4780SOL    HW215240   5.526   2.526   5.579
 4781SOL     OW15241   2.094   5.872   2.686
 4781SOL    HW115242   2.157   5.950   2.690
 4781SOL    HW215243   2.070   5.854   2.591
 4782SOL     OW15244   5.265   5.416   5.908
 4782SOL    HW115245   5.297   5.510   5.922
 4782SOL    HW215246   5.332   5.367   5.852
 4783SOL     OW15247   5.473   3.757   0.882
 4783SOL    HW115248   5.420   3.823   0.829
 4783SOL    HW215249   5.569   3.785   0.884
 4784SOL     OW15250   5.757   2.579   6.541
 4784SOL    HW115251   5.684   2.585   6.609
 4784SOL    HW215252   5.826   2.512   6.571
 4785SOL     OW15253   0.446   6.011   3.252
 4785SOL    HW115254   0.535   6.049   3.277
 4785SOL    HW215255   0.423   5.936   3.313
 4786SOL     OW15256   2.698   0.002   1.138
 4786SOL    HW115257   2.625   0.059   1.100
 4786SOL    HW215258   2.693   6.940   1.098
 4787SOL     OW15259   4.080   1.958   4.116
 4787SOL    HW115260   4.094   1.892   4.042
 4787SOL    HW215261   4.082   2.051   4.079
 4788SOL     OW15262   6.342   6.029   0.026
 4788SOL    HW115263   6.309   6.046   6.963
 4788SOL    HW215264   6.343   5.930   0.043
 4789SOL     OW15265   5.099   1.109   1.837
 4789SOL    HW115266   5.122   1.164   1.917
 4789SOL    HW215267   5.061   1.021   1.867
 4790SOL     OW15268   5.427   1.521   5.297
 4790SOL    HW115269   5.398   1.450   5.232
 4790SOL    HW215270   5.366   1.520   5.376
 4791SOL     OW15271   0.264   2.846   1.133
 4791SOL    HW115272   0.313   2.925   1.096
 4791SOL    HW215273   0.190   2.877   1.191
 4792SOL     OW15274   2.002   4.218   4.545
 4792SOL    HW115275   1.968   4.312   4.547
 4792SOL    HW215276   1.945   4.164   4.484
 4793SOL     OW15277   1.365   3.973   5.975
 4793SOL    HW115278   1.283   3.939   6.020
 4793SOL    HW215279   1.430   4.006   6.043
 4794SOL     OW15280   4.825   0.433   3.946
 4794SOL    HW115281   4.879   0.474   3.873
 4794SOL    HW215282   4.881   0.366   3.995
 4795SOL     OW15283   0.724   1.070   3.956
 4795SOL    HW115284   0.819   1.095   3.973
 4795SOL    HW215285   0.688   1.021   4.036
 4796SOL     OW15286   3.542   1.158   6.112
 4796SOL    HW115287   3.527   1.084   6.178
 4796SOL    HW215288   3.604   1.126   6.040
 4797SOL     OW15289   0.440   5.424   4.401
 4797SOL    HW115290   0.387   5.420   4.486
 4797SOL    HW215291   0.537   5.417   4.423
 4798SOL     OW15292   5.254   5.267   6.836
 4798SOL    HW115293   5.159   5.276   6.865
 4798SOL    HW215294   5.260   5.202   6.760
 4799SOL     OW15295   3.359   2.470   6.255
 4799SOL    HW115296   3.350   2.526   6.173
 4799SOL    HW215297   3.437   2.409   6.247
 4800SOL     OW15298   1.987   4.948   0.267
 4800SOL    HW115299   1.922   4.895   0.321
 4800SOL    HW215300   2.069   4.893   0.250
 4801SOL     OW15301   4.918   2.477   1.395
 4801SOL    HW115302   4.899   2.402   1.458
 4801SOL    HW215303   4.965   2.551   1.444
 4802SOL     OW15304   0.298   6.012   2.451
 4802SOL    HW115305   0.235   5.940   2.424
 4802SOL    HW215306   0.387   5.998   2.407
 4803SOL     OW15307   5.667   4.888   0.203
 4803SOL    HW115308   5.700   4.793   0.209
 4803SOL    HW215309   5.593   4.893   0.136
 4804SOL     OW15310   4.896   1.891   0.532
 4804SOL    HW115311   4.877   1.825   0.459
 4804SOL    HW215312   4.865   1.854   0.620
 4805SOL     OW15313   6.627   2.148   1.369
 4805SOL    HW115314   6.698   2.155   1.439
 4805SOL    HW215315   6.544   2.193   1.401
 4806SOL     OW15316   1.473   3.241   3.078
 4806SOL    HW115317   1.380   3.210   3.055
 4806SOL    HW215318   1.467   3.325   3.133
 4807SOL     OW15319   0.895   3.570   6.303
 4807SOL    HW115320   0.879   3.659   6.260
 4807SOL    HW215321   0.924   3.583   6.397
 4808SOL     OW15322   3.825   5.995   1.114
 4808SOL    HW115323   3.865   5.903   1.115
 4808SOL    HW215324   3.890   6.059   1.074
 4809SOL     OW15325   3.489   4.907   1.554
 4809SOL    HW115326   3.422   4.978   1.532
 4809SOL    HW215327   3.478   4.830   1.491
 4810SOL     OW15328   0.715   4.148   3.555
 4810SOL    HW115329   0.682   4.242   3.546
 4810SOL    HW215330   0.682   4.109   3.641
 4811SOL     OW15331   3.439   4.140   4.745
 4811SOL    HW115332   3.489   4.210   4.796
 4811SOL    HW215333   3.494   4.109   4.668
 4812SOL     OW15334   0.440   6.401   1.964
 4812SOL    HW115335   0.380   6.415   2.043
 4812SOL    HW215336   0.422   6.471   1.895
 4813SOL     OW15337   6.308   1.573   0.112
 4813SOL    HW115338   6.264   1.487   0.137
 4813SOL    HW215339   6.273   1.604   0.024
 4814SOL     OW15340   6.652   4.361   1.764
 4814SOL    HW115341   6.716   4.378   1.839
 4814SOL    HW215342   6.701   4.318   1.688
 4815SOL     OW15343   5.730   5.229   2.470
 4815SOL    HW115344   5.715   5.164   2.395
 4815SOL    HW215345   5.736   5.321   2.432
 4816SOL     OW15346   1.633   6.565   2.051
 4816SOL    HW115347   1.691   6.642   2.074
 4816SOL    HW215348   1.595   6.577   1.959
 4817SOL     OW15349   3.493   1.165   1.515
 4817SOL    HW115350   3.492   1.066   1.532
 4817SOL    HW215351   3.401   1.202   1.527
 4818SOL     OW15352   2.541   0.283   4.825
 4818SOL    HW115353   2.535   0.322   4.733
 4818SOL    HW215354   2.617   0.326   4.875
 4819SOL     OW15355   2.597   1.837   1.121
 4819SOL    HW115356   2.575   1.918   1.175
 4819SOL    HW215357   2.562   1.756   1.167
 4820SOL     OW15358   0.182   3.724   2.077
 4820SOL    HW115359   0.200   3.753   2.171
 4820SOL    HW215360   0.161   3.626   2.076
 4821SOL     OW15361   6.618   5.718   2.000
 4821SOL    HW115362   6.628   5.768   1.913
 4821SOL    HW215363   6.611   5.784   2.075
 4822SOL     OW15364   1.804   3.811   4.037
 4822SOL    HW115365   1.887   3.868   4.036
 4822SOL    HW215366   1.723   3.870   4.039
 4823SOL     OW15367   1.086   0.036   4.489
 4823SOL    HW115368   1.107   0.032   4.392
 4823SOL    HW215369   1.168   0.057   4.541
 4824SOL     OW15370   5.272   2.441   2.993
 4824SOL    HW115371   5.344   2.449   2.925
 4824SOL    HW215372   5.191   2.492   2.963
 4825SOL     OW15373   1.631   3.284   4.560
 4825SOL    HW115374   1.543   3.317   4.525
 4825SOL    HW215375   1.695   3.360   4.567
 4826SOL     OW15376   0.155   6.333   0.298
 4826SOL    HW115377   0.173   6.237   0.275
 4826SOL    HW215378   0.239   6.386   0.288
 4827SOL     OW15379   4.718   1.339   1.070
 4827SOL    HW115380   4.735   1.417   1.131
 4827SOL    HW215381   4.765   1.258   1.105
 4828SOL     OW15382   5.657   3.465   1.538
 4828SOL    HW115383   5.642   3.495   1.632
 4828SOL    HW215384   5.688   3.542   1.482
 4829SOL     OW15385   3.239   0.334   6.332
 4829SOL    HW115386   3.304   0.357   6.260
 4829SOL    HW215387   3.241   0.235   6.348
 4830SOL     OW15388   5.017   5.985   3.334
 4830SOL    HW115389   4.948   5.978   3.406
 4830SOL    HW215390   5.101   5.940   3.363
 4831SOL     OW15391   6.560   4.917   5.198
 4831SOL    HW115392   6.648   4.962   5.184
 4831SOL    HW215393   6.575   4.822   5.226
 4832SOL     OW15394   3.481   2.926   5.767
 4832SOL    HW115395   3.501   2.853   5.832
 4832SOL    HW215396   3.552   2.927   5.696
 4833SOL     OW15397   4.717   1.375   3.306
 4833SOL    HW115398   4.734   1.458   3.359
 4833SOL    HW215399   4.682   1.304   3.366
 4834SOL     OW15400   4.107   0.858   0.929
 4834SOL    HW115401   4.064   0.768   0.934
 4834SOL    HW215402   4.115   0.887   0.833
 4835SOL     OW15403   1.952   0.113   6.619
 4835SOL    HW115404   1.907   0.046   6.678
 4835SOL    HW215405   1.893   0.193   6.608
 4836SOL     OW15406   4.976   1.666   4.175
 4836SOL    HW115407   4.937   1.751   4.138
 4836SOL    HW215408   4.972   1.668   4.275
 4837SOL     OW15409   3.028   3.241   1.222
 4837SOL    HW115410   3.123   3.230   1.193
 4837SOL    HW215411   2.987   3.151   1.236
 4838SOL     OW15412   3.789   4.898   2.298
 4838SOL    HW115413   3.749   4.842   2.225
 4838SOL    HW215414   3.889   4.892   2.293
 4839SOL     OW15415   0.157   4.976   5.153
 4839SOL    HW115416   0.187   5.062   5.111
 4839SOL    HW215417   0.100   4.926   5.088
 4840SOL     OW15418   5.656   6.531   0.194
 4840SOL    HW115419   5.609   6.475   0.263
 4840SOL    HW215420   5.754   6.529   0.211
 4841SOL     OW15421   3.305   5.856   1.649
 4841SOL    HW115422   3.337   5.891   1.561
 4841SOL    HW215423   3.225   5.908   1.679
 4842SOL     OW15424   3.697   5.288   2.055
 4842SOL    HW115425   3.758   5.267   1.979
 4842SOL    HW215426   3.723   5.374   2.098
 4843SOL     OW15427   0.014   3.676   0.002
 4843SOL    HW115428   0.027   3.604   0.069
 4843SOL    HW215429   6.971   3.649   6.967
 4844SOL     OW15430   6.924   4.064   0.047
 4844SOL    HW115431   6.991   4.006   0.094
 4844SOL    HW215432   6.878   4.011   7.006
 4845SOL     OW15433   6.293   5.801   4.375
 4845SOL    HW115434   6.245   5.714   4.382
 4845SOL    HW215435   6.383   5.793   4.419
 4846SOL     OW15436   0.759   3.449   0.994
 4846SOL    HW115437   0.740   3.540   0.957
 4846SOL    HW215438   0.727   3.379   0.930
 4847SOL     OW15439   3.551   1.953   5.736
 4847SOL    HW115440   3.495   2.031   5.710
 4847SOL    HW215441   3.586   1.908   5.653
 4848SOL     OW15442   1.812   1.587   3.606
 4848SOL    HW115443   1.847   1.529   3.533
 4848SOL    HW215444   1.885   1.603   3.673
 4849SOL     OW15445   1.693   6.791   6.699
 4849SOL    HW115446   1.774   6.804   6.757
 4849SOL    HW215447   1.660   6.880   6.667
 4850SOL     OW15448   3.540   0.864   2.142
 4850SOL    HW115449   3.555   0.792   2.209
 4850SOL    HW215450   3.548   0.953   2.187
 4851SOL     OW15451   4.368   6.490   5.671
 4851SOL    HW115452   4.451   6.463   5.622
 4851SOL    HW215453   4.364   6.590   5.677
 4852SOL     OW15454   1.629   0.549   6.951
 4852SOL    HW115455   1.609   0.497   6.868
 4852SOL    HW215456   1.565   0.625   6.958
 4853SOL     OW15457   3.515   1.661   2.556
 4853SOL    HW115458   3.594   1.649   2.615
 4853SOL    HW215459   3.445   1.594   2.581
 4854SOL     OW15460   4.707   6.044   2.277
 4854SOL    HW115461   4.648   5.964   2.284
 4854SOL    HW215462   4.730   6.078   2.368
 4855SOL     OW15463   5.740   1.857   2.112
 4855SOL    HW115464   5.663   1.838   2.051
 4855SOL    HW215465   5.705   1.899   2.196
 4856SOL     OW15466   2.913   4.802   3.449
 4856SOL    HW115467   2.941   4.805   3.545
 4856SOL    HW215468   2.833   4.743   3.440
 4857SOL     OW15469   1.122   1.577   5.548
 4857SOL    HW115470   1.220   1.595   5.540
 4857SOL    HW215471   1.100   1.492   5.500
 4858SOL     OW15472   1.744   1.721   4.037
 4858SOL    HW115473   1.702   1.657   3.973
 4858SOL    HW215474   1.819   1.769   3.992
 4859SOL     OW15475   1.511   5.683   4.434
 4859SOL    HW115476   1.495   5.765   4.488
 4859SOL    HW215477   1.531   5.606   4.494
 4860SOL     OW15478   4.094   5.293   2.032
 4860SOL    HW115479   4.023   5.239   1.987
 4860SOL    HW215480   4.141   5.235   2.100
 4861SOL     OW15481   5.392   5.514   6.922
 4861SOL    HW115482   5.380   5.563   6.835
 4861SOL    HW215483   5.330   5.436   6.925
 4862SOL     OW15484   2.191   5.281   3.992
 4862SOL    HW115485   2.239   5.230   3.921
 4862SOL    HW215486   2.122   5.340   3.949
 4863SOL     OW15487   5.863   4.623   0.784
 4863SOL    HW115488   5.817   4.646   0.870
 4863SOL    HW215489   5.935   4.555   0.802
 4864SOL     OW15490   3.456   1.165   3.735
 4864SOL    HW115491   3.552   1.141   3.750
 4864SOL    HW215492   3.411   1.178   3.824
 4865SOL     OW15493   2.447   0.387   5.258
 4865SOL    HW115494   2.348   0.372   5.265
 4865SOL    HW215495   2.467   0.483   5.278
 4866SOL     OW15496   6.341   3.912   1.123
 4866SOL    HW115497   6.302   3.836   1.071
 4866SOL    HW215498   6.294   3.920   1.211
 4867SOL     OW15499   4.384   5.476   2.387
 4867SOL    HW115500   4.374   5.534   2.306
 4867SOL    HW215501   4.476   5.486   2.424
 4868SOL     OW15502   6.861   4.895   2.118
 4868SOL    HW115503   6.877   4.941   2.031
 4868SOL    HW215504   6.833   4.801   2.101
 4869SOL     OW15505   1.380   1.679   0.798
 4869SOL    HW115506   1.303   1.618   0.783
 4869SOL    HW215507   1.392   1.694   0.896
 4870SOL     OW15508   0.720   6.307   2.051
 4870SOL    HW115509   0.640   6.349   2.008
 4870SOL    HW215510   0.803   6.336   2.004
 4871SOL     OW15511   1.153   0.693   4.743
 4871SOL    HW115512   1.237   0.699   4.689
 4871SOL    HW215513   1.129   0.597   4.757
 4872SOL     OW15514   6.570   6.782   3.033
 4872SOL    HW115515   6.511   6.858   3.007
 4872SOL    HW215516   6.601   6.734   2.951
 4873SOL     OW15517   6.723   5.293   4.757
 4873SOL    HW115518   6.753   5.270   4.664
 4873SOL    HW215519   6.761   5.382   4.783
 4874SOL     OW15520   4.910   2.118   2.634
 4874SOL    HW115521   4.839   2.066   2.681
 4874SOL    HW215522   4.868   2.190   2.578
 4875SOL     OW15523   5.347   0.107   6.937
 4875SOL    HW115524   5.436   0.095   6.981
 4875SOL    HW215525   5.311   0.197   6.960
 4876SOL     OW15526   0.181   1.315   3.645
 4876SOL    HW115527   0.168   1.411   3.621
 4876SOL    HW215528   0.278   1.296   3.654
 4877SOL     OW15529   0.213   2.152   5.238
 4877SOL    HW115530   0.138   2.141   5.303
 4877SOL    HW215531   0.241   2.248   5.235
 4878SOL     OW15532   6.861   1.800   1.898
 4878SOL    HW115533   6.905   1.771   1.984
 4878SOL    HW215534   6.764   1.778   1.902
 4879SOL     OW15535   4.752   1.755   2.019
 4879SOL    HW115536   4.670   1.731   1.967
 4879SOL    HW215537   4.737   1.737   2.116
 4880SOL     OW15538   6.489   3.855   0.312
 4880SOL    HW115539   6.533   3.777   0.357
 4880SOL    HW215540   6.407   3.824   0.265
 4881SOL     OW15541   1.735   2.076   0.748
 4881SOL    HW115542   1.701   1.983   0.758
 4881SOL    HW215543   1.782   2.085   0.661
 4882SOL     OW15544   4.195   2.321   5.463
 4882SOL    HW115545   4.245   2.257   5.521
 4882SOL    HW215546   4.127   2.369   5.518
 4883SOL     OW15547   5.133   3.857   1.661
 4883SOL    HW115548   5.045   3.818   1.632
 4883SOL    HW215549   5.117   3.921   1.736
 4884SOL     OW15550   3.075   5.425   0.592
 4884SOL    HW115551   3.127   5.387   0.516
 4884SOL    HW215552   3.013   5.355   0.628
 4885SOL     OW15553   2.354   4.362   1.982
 4885SOL    HW115554   2.409   4.279   1.994
 4885SOL    HW215555   2.265   4.336   1.944
 4886SOL     OW15556   3.000   6.941   1.423
 4886SOL    HW115557   2.924   6.877   1.437
 4886SOL    HW215558   3.028   6.979   1.511
 4887SOL     OW15559   1.036   6.287   1.524
 4887SOL    HW115560   1.008   6.285   1.428
 4887SOL    HW215561   1.050   6.382   1.552
 4888SOL     OW15562   2.406   6.872   2.837
 4888SOL    HW115563   2.376   6.831   2.751
 4888SOL    HW215564   2.449   6.960   2.818
 4889SOL     OW15565   6.626   1.782   5.103
 4889SOL    HW115566   6.655   1.855   5.041
 4889SOL    HW215567   6.527   1.781   5.109
 4890SOL     OW15568   0.893   2.217   5.429
 4890SOL    HW115569   0.950   2.136   5.440
 4890SOL    HW215570   0.804   2.191   5.391
 4891SOL     OW15571   2.637   4.958   6.672
 4891SOL    HW115572   2.660   5.029   6.606
 4891SOL    HW215573   2.537   4.946   6.674
 4892SOL     OW15574   5.419   6.018   1.915
 4892SOL    HW115575   5.378   6.107   1.896
 4892SOL    HW215576   5.510   6.031   1.953
 4893SOL     OW15577   6.925   3.448   2.307
 4893SOL    HW115578   6.888   3.436   2.215
 4893SOL    HW215579   6.991   3.375   2.327
 4894SOL     OW15580   3.131   0.024   2.389
 4894SOL    HW115581   3.055   7.013   2.339
 4894SOL    HW215582   3.217   7.013   2.359
 4895SOL     OW15583   0.737   5.059   3.393
 4895SOL    HW115584   0.769   4.967   3.371
 4895SOL    HW215585   0.797   5.126   3.350
 4896SOL     OW15586   2.401   5.005   2.771
 4896SOL    HW115587   2.388   5.046   2.862
 4896SOL    HW215588   2.369   4.911   2.772
 4897SOL     OW15589   1.666   6.015   5.374
 4897SOL    HW115590   1.673   6.042   5.278
 4897SOL    HW215591   1.646   6.095   5.430
 4898SOL     OW15592   3.909   1.182   5.327
 4898SOL    HW115593   3.981   1.112   5.324
 4898SOL    HW215594   3.824   1.140   5.358
 4899SOL     OW15595   5.911   5.043   2.583
 4899SOL    HW115596   5.859   5.124   2.557
 4899SOL    HW215597   5.861   4.993   2.654
 4900SOL     OW15598   4.345   6.284   5.853
 4900SOL    HW115599   4.266   6.341   5.831
 4900SOL    HW215600   4.393   6.259   5.769
 4901SOL     OW15601   1.874   1.830   4.789
 4901SOL    HW115602   1.879   1.778   4.874
 4901SOL    HW215603   1.830   1.774   4.719
 4902SOL     OW15604   1.723   0.472   6.294
 4902SOL    HW115605   1.637   0.485   6.246
 4902SOL    HW215606   1.751   0.559   6.335
 4903SOL     OW15607   4.545   5.639   1.185
 4903SOL    HW115608   4.541   5.585   1.102
 4903SOL    HW215609   4.458   5.686   1.200
 4904SOL     OW15610   1.893   0.907   5.346
 4904SOL    HW115611   1.905   0.824   5.291
 4904SOL    HW215612   1.801   0.910   5.383
 4905SOL     OW15613   2.460   0.296   3.120
 4905SOL    HW115614   2.426   0.380   3.077
 4905SOL    HW215615   2.388   0.254   3.175
 4906SOL     OW15616   4.864   2.790   5.329
 4906SOL    HW115617   4.841   2.886   5.316
 4906SOL    HW215618   4.942   2.782   5.391
 4907SOL     OW15619   4.924   1.635   0.900
 4907SOL    HW115620   4.850   1.603   0.842
 4907SOL    HW215621   4.959   1.559   0.955
 4908SOL     OW15622   4.905   0.196   0.674
 4908SOL    HW115623   4.807   0.180   0.671
 4908SOL    HW215624   4.953   0.119   0.632
 4909SOL     OW15625   6.744   4.463   3.880
 4909SOL    HW115626   6.781   4.538   3.933
 4909SOL    HW215627   6.644   4.471   3.875
 4910SOL     OW15628   5.935   1.009   4.068
 4910SOL    HW115629   6.032   1.018   4.091
 4910SOL    HW215630   5.880   1.030   4.149
 4911SOL     OW15631   1.742   2.993   3.276
 4911SOL    HW115632   1.783   3.069   3.226
 4911SOL    HW215633   1.675   2.946   3.219
 4912SOL     OW15634   5.194   2.184   5.442
 4912SOL    HW115635   5.138   2.102   5.450
 4912SOL    HW215636   5.136   2.260   5.412
 4913SOL     OW15637   5.598   3.134   5.944
 4913SOL    HW115638   5.639   3.214   5.988
 4913SOL    HW215639   5.506   3.120   5.979
 4914SOL     OW15640   4.324   0.476   5.560
 4914SOL    HW115641   4.421   0.472   5.535
 4914SOL    HW215642   4.315   0.468   5.659
 4915SOL     OW15643   2.842   6.286   5.441
 4915SOL    HW115644   2.784   6.359   5.403
 4915SOL    HW215645   2.849   6.297   5.540
 4916SOL     OW15646   6.746   0.653   4.354
 4916SOL    HW115647   6.777   0.671   4.447
 4916SOL    HW215648   6.789   0.718   4.291
 4917SOL     OW15649   3.924   5.679   1.111
 4917SOL    HW115650   3.867   5.626   1.048
 4917SOL    HW215651   3.875   5.691   1.197
 4918SOL     OW15652   6.503   5.951   2.069
 4918SOL    HW115653   6.451   5.980   1.989
 4918SOL    HW215654   6.529   6.032   2.122
 4919SOL     OW15655   3.406   2.895   2.248
 4919SOL    HW115656   3.435   2.982   2.209
 4919SOL    HW215657   3.315   2.906   2.289
 4920SOL     OW15658   5.450   0.374   5.136
 4920SOL    HW115659   5.410   0.288   5.167
 4920SOL    HW215660   5.471   0.368   5.038
 4921SOL     OW15661   1.345   5.213   0.338
 4921SOL    HW115662   1.390   5.294   0.374
 4921SOL    HW215663   1.328   5.225   0.240
 4922SOL     OW15664   3.355   2.202   5.274
 4922SOL    HW115665   3.339   2.105   5.253
 4922SOL    HW215666   3.280   2.256   5.238
 4923SOL     OW15667   2.636   2.118   2.924
 4923SOL    HW115668   2.677   2.204   2.955
 4923SOL    HW215669   2.630   2.119   2.824
 4924SOL     OW15670   2.207   2.134   5.135
 4924SOL    HW115671   2.193   2.066   5.062
 4924SOL    HW215672   2.191   2.225   5.098
 4925SOL     OW15673   4.395   0.346   2.854
 4925SOL    HW115674   4.483   0.317   2.892
 4925SOL    HW215675   4.359   0.274   2.794
 4926SOL     OW15676   5.700   1.761   1.404
 4926SOL    HW115677   5.617   1.816   1.401
 4926SOL    HW215678   5.679   1.670   1.438
 4927SOL     OW15679   3.059   2.950   6.095
 4927SOL    HW115680   3.069   3.002   6.009
 4927SOL    HW215681   3.031   2.856   6.074
 4928SOL     OW15682   1.244   0.955   6.957
 4928SOL    HW115683   1.205   0.898   6.884
 4928SOL    HW215684   1.172   0.979   7.022
 4929SOL     OW15685   6.971   6.946   3.536
 4929SOL    HW115686   6.957   0.003   3.584
 4929SOL    HW215687   6.882   6.908   3.509
 4930SOL     OW15688   6.467   6.788   2.193
 4930SOL    HW115689   6.497   6.803   2.287
 4930SOL    HW215690   6.370   6.810   2.185
 4931SOL     OW15691   6.224   6.364   1.567
 4931SOL    HW115692   6.182   6.362   1.476
 4931SOL    HW215693   6.306   6.308   1.567
 4932SOL     OW15694   3.508   3.898   3.751
 4932SOL    HW115695   3.432   3.915   3.688
 4932SOL    HW215696   3.479   3.833   3.821
 4933SOL     OW15697   2.321   6.337   3.794
 4933SOL    HW115698   2.236   6.373   3.832
 4933SOL    HW215699   2.319   6.237   3.798
 4934SOL     OW15700   3.683   6.092   3.071
 4934SOL    HW115701   3.775   6.108   3.035
 4934SOL    HW215702   3.628   6.045   3.002
 4935SOL     OW15703   1.672   1.999   0.020
 4935SOL    HW115704   1.654   2.012   0.118
 4935SOL    HW215705   1.624   2.069   6.997
 4936SOL     OW15706   2.337   4.700   0.719
 4936SOL    HW115707   2.405   4.770   0.743
 4936SOL    HW215708   2.315   4.646   0.799
 4937SOL     OW15709   5.372   3.234   4.948
 4937SOL    HW115710   5.371   3.134   4.944
 4937SOL    HW215711   5.466   3.267   4.945
 4938SOL     OW15712   3.273   5.601   5.733
 4938SOL    HW115713   3.275   5.563   5.641
 4938SOL    HW215714   3.363   5.587   5.776
 4939SOL     OW15715   5.230   2.412   5.115
 4939SOL    HW115716   5.189   2.427   5.205
 4939SOL    HW215717   5.257   2.316   5.106
 4940SOL     OW15718   1.399   0.765   4.674
 4940SOL    HW115719   1.425   0.823   4.597
 4940SOL    HW215720   1.481   0.741   4.726
 4941SOL     OW15721   3.926   1.717   6.957
 4941SOL    HW115722   4.021   1.728   6.927
 4941SOL    HW215723   3.870   1.792   6.921
 4942SOL     OW15724   4.996   3.464   5.052
 4942SOL    HW115725   4.991   3.445   5.150
 4942SOL    HW215726   4.938   3.542   5.029
 4943SOL     OW15727   4.484   2.435   0.298
 4943SOL    HW115728   4.462   2.338   0.309
 4943SOL    HW215729   4.480   2.459   0.202
 4944SOL     OW15730   2.350   4.328   2.873
 4944SOL    HW115731   2.425   4.274   2.836
 4944SOL    HW215732   2.264   4.302   2.829
 4945SOL     OW15733   1.489   0.332   3.851
 4945SOL    HW115734   1.535   0.251   3.887
 4945SOL    HW215735   1.512   0.344   3.755
 4946SOL     OW15736   0.990   3.130   1.260
 4946SOL    HW115737   0.993   3.230   1.257
 4946SOL    HW215738   0.933   3.100   1.337
 4947SOL     OW15739   1.093   0.057   0.469
 4947SOL    HW115740   1.043   7.004   0.443
 4947SOL    HW215741   1.028   0.127   0.498
 4948SOL     OW15742   2.805   0.798   2.721
 4948SOL    HW115743   2.723   0.749   2.753
 4948SOL    HW215744   2.804   0.890   2.758
 4949SOL     OW15745   4.477   0.723   5.878
 4949SOL    HW115746   4.409   0.715   5.806
 4949SOL    HW215747   4.524   0.636   5.890
 4950SOL     OW15748   2.967   6.135   4.017
 4950SOL    HW115749   3.043   6.162   4.076
 4950SOL    HW215750   2.997   6.135   3.921
 4951SOL     OW15751   4.570   1.673   4.489
 4951SOL    HW115752   4.655   1.628   4.516
 4951SOL    HW215753   4.498   1.604   4.479
 4952SOL     OW15754   0.210   6.138   4.662
 4952SOL    HW115755   0.114   6.149   4.636
 4952SOL    HW215756   0.221   6.051   4.711
 4953SOL     OW15757   2.507   5.500   1.406
 4953SOL    HW115758   2.569   5.457   1.472
 4953SOL    HW215759   2.425   5.445   1.396
 4954SOL     OW15760   4.587   4.621   0.544
 4954SOL    HW115761   4.617   4.683   0.617
 4954SOL    HW215762   4.653   4.621   0.470
 4955SOL     OW15763   1.789   6.205   7.005
 4955SOL    HW115764   1.741   6.120   7.026
 4955SOL    HW215765   1.794   6.262   0.058
 4956SOL     OW15766   4.145   0.027   5.847
 4956SOL    HW115767   4.189   0.067   5.766
 4956SOL    HW215768   4.108   6.967   5.824
 4957SOL     OW15769   0.023   1.296   4.333
 4957SOL    HW115770   0.058   1.340   4.415
 4957SOL    HW215771   0.027   1.359   4.255
 4958SOL     OW15772   0.681   6.617   5.952
 4958SOL    HW115773   0.733   6.694   5.914
 4958SOL    HW215774   0.706   6.533   5.903
 4959SOL     OW15775   1.163   0.475   6.795
 4959SOL    HW115776   1.069   0.444   6.811
 4959SOL    HW215777   1.222   0.443   6.868
 4960SOL     OW15778   3.722   6.696   4.257
 4960SOL    HW115779   3.661   6.619   4.236
 4960SOL    HW215780   3.668   6.770   4.298
 4961SOL     OW15781   5.559   0.474   4.750
 4961SOL    HW115782   5.533   0.570   4.753
 4961SOL    HW215783   5.500   0.426   4.684
 4962SOL     OW15784   5.765   2.750   1.979
 4962SOL    HW115785   5.705   2.728   2.057
 4962SOL    HW215786   5.709   2.770   1.899
 4963SOL     OW15787   0.515   5.857   1.487
 4963SOL    HW115788   0.429   5.829   1.532
 4963SOL    HW215789   0.557   5.931   1.540
 4964SOL     OW15790   3.589   5.745   3.567
 4964SOL    HW115791   3.637   5.817   3.517
 4964SOL    HW215792   3.596   5.659   3.516
 4965SOL     OW15793   0.454   0.006   4.847
 4965SOL    HW115794   0.499   6.983   4.776
 4965SOL    HW215795   0.418   0.091   4.808
 4966SOL     OW15796   2.981   5.858   4.453
 4966SOL    HW115797   2.882   5.868   4.456
 4966SOL    HW215798   3.005   5.772   4.407
 4967SOL     OW15799   4.098   2.612   6.451
 4967SOL    HW115800   4.090   2.516   6.478
 4967SOL    HW215801   4.127   2.667   6.530
 4968SOL     OW15802   4.984   2.993   3.465
 4968SOL    HW115803   4.979   2.975   3.366
 4968SOL    HW215804   5.075   2.970   3.498
 4969SOL     OW15805   1.462   1.178   2.057
 4969SOL    HW115806   1.462   1.101   1.993
 4969SOL    HW215807   1.403   1.251   2.020
 4970SOL     OW15808   1.153   2.124   5.011
 4970SOL    HW115809   1.110   2.127   5.101
 4970SOL    HW215810   1.247   2.157   5.017
 4971SOL     OW15811   6.404   6.090   3.367
 4971SOL    HW115812   6.414   6.121   3.462
 4971SOL    HW215813   6.308   6.096   3.339
 4972SOL     OW15814   2.203   3.726   0.814
 4972SOL    HW115815   2.126   3.663   0.829
 4972SOL    HW215816   2.173   3.802   0.757
 4973SOL     OW15817   6.036   6.223   1.788
 4973SOL    HW115818   6.090   6.306   1.783
 4973SOL    HW215819   6.017   6.200   1.883
 4974SOL     OW15820   5.775   5.852   2.451
 4974SOL    HW115821   5.784   5.752   2.454
 4974SOL    HW215822   5.681   5.878   2.472
 4975SOL     OW15823   5.838   5.701   0.987
 4975SOL    HW115824   5.785   5.755   0.922
 4975SOL    HW215825   5.781   5.677   1.066
 4976SOL     OW15826   3.360   0.432   4.544
 4976SOL    HW115827   3.314   0.511   4.583
 4976SOL    HW215828   3.311   0.401   4.463
 4977SOL     OW15829   4.677   3.711   1.051
 4977SOL    HW115830   4.672   3.726   1.149
 4977SOL    HW215831   4.588   3.730   1.009
 4978SOL     OW15832   6.017   4.035   5.693
 4978SOL    HW115833   6.035   4.015   5.597
 4978SOL    HW215834   5.927   4.077   5.703
 4979SOL     OW15835   0.300   1.569   4.756
 4979SOL    HW115836   0.220   1.515   4.785
 4979SOL    HW215837   0.295   1.587   4.658
 4980SOL     OW15838   3.460   5.569   2.527
 4980SOL    HW115839   3.485   5.506   2.453
 4980SOL    HW215840   3.479   5.527   2.615
 4981SOL     OW15841   4.608   0.000   5.800
 4981SOL    HW115842   4.524   0.022   5.849
 4981SOL    HW215843   4.639   0.082   5.750
 4982SOL     OW15844   1.913   1.737   6.846
 4982SOL    HW115845   1.821   1.747   6.809
 4982SOL    HW215846   1.978   1.782   6.785
 4983SOL     OW15847   5.529   2.872   4.252
 4983SOL    HW115848   5.470   2.794   4.234
 4983SOL    HW215849   5.473   2.949   4.283
 4984SOL     OW15850   5.341   3.622   4.829
 4984SOL    HW115851   5.274   3.553   4.859
 4984SOL    HW215852   5.427   3.577   4.806
 4985SOL     OW15853   5.602   5.235   3.835
 4985SOL    HW115854   5.551   5.287   3.767
 4985SOL    HW215855   5.688   5.202   3.795
 4986SOL     OW15856   6.074   4.292   2.543
 4986SOL    HW115857   6.039   4.199   2.547
 4986SOL    HW215858   6.166   4.295   2.583
 4987SOL     OW15859   0.335   3.118   0.995
 4987SOL    HW115860   0.296   3.198   0.951
 4987SOL    HW215861   0.403   3.076   0.935
 4988SOL     OW15862   0.069   1.910   4.148
 4988SOL    HW115863   0.115   1.846   4.088
 4988SOL    HW215864   0.085   2.004   4.116
 4989SOL     OW15865   5.910   1.390   1.070
 4989SOL    HW115866   5.898   1.325   1.144
 4989SOL    HW215867   5.830   1.450   1.065
 4990SOL     OW15868   0.682   2.663   5.475
 4990SOL    HW115869   0.624   2.689   5.398
 4990SOL    HW215870   0.669   2.727   5.551
 4991SOL     OW15871   0.677   3.523   4.284
 4991SOL    HW115872   0.616   3.546   4.208
 4991SOL    HW215873   0.771   3.547   4.259
 4992SOL     OW15874   3.563   0.494   4.721
 4992SOL    HW115875   3.508   0.432   4.664
 4992SOL    HW215876   3.560   0.586   4.682
 4993SOL     OW15877   3.064   5.576   3.861
 4993SOL    HW115878   2.999   5.612   3.793
 4993SOL    HW215879   3.151   5.555   3.816
 4994SOL     OW15880   1.057   6.720   2.602
 4994SOL    HW115881   0.958   6.734   2.593
 4994SOL    HW215882   1.085   6.642   2.546
 4995SOL     OW15883   6.735   3.209   6.163
 4995SOL    HW115884   6.736   3.262   6.247
 4995SOL    HW215885   6.697   3.118   6.181
 4996SOL     OW15886   0.185   1.878   1.671
 4996SOL    HW115887   0.195   1.859   1.769
 4996SOL    HW215888   0.237   1.811   1.619
 4997SOL     OW15889   6.482   2.063   2.901
 4997SOL    HW115890   6.460   2.140   2.960
 4997SOL    HW215891   6.571   2.078   2.858
 4998SOL     OW15892   1.871   4.996   5.191
 4998SOL    HW115893   1.921   4.910   5.202
 4998SOL    HW215894   1.781   4.989   5.235
 4999SOL     OW15895   4.907   5.267   1.143
 4999SOL    HW115896   4.875   5.362   1.141
 4999SOL    HW215897   4.980   5.255   1.076
 5000SOL     OW15898   0.868   0.472   4.854
 5000SOL    HW115899   0.824   0.511   4.935
 5000SOL    HW215900   0.817   0.496   4.772
 5001SOL     OW15901   2.239   3.950   6.139
 5001SOL    HW115902   2.164   4.011   6.166
 5001SOL    HW215903   2.244   3.946   6.039
 5002SOL     OW15904   2.130   1.600   2.598
 5002SOL    HW115905   2.049   1.619   2.543
 5002SOL    HW215906   2.121   1.642   2.688
 5003SOL     OW15907   0.148   6.675   2.912
 5003SOL    HW115908   0.241   6.695   2.883
 5003SOL    HW215909   0.149   6.620   2.995
 5004SOL     OW15910   2.357   5.613   6.218
 5004SOL    HW115911   2.415   5.554   6.274
 5004SOL    HW215912   2.288   5.557   6.171
 5005SOL     OW15913   3.788   2.569   0.536
 5005SOL    HW115914   3.703   2.520   0.519
 5005SOL    HW215915   3.845   2.565   0.454
 5006SOL     OW15916   5.712   6.769   5.267
 5006SOL    HW115917   5.726   6.705   5.192
 5006SOL    HW215918   5.742   6.860   5.239
 5007SOL     OW15919   3.970   0.816   6.242
 5007SOL    HW115920   3.922   0.897   6.277
 5007SOL    HW215921   3.907   0.738   6.239
 5008SOL     OW15922   6.341   1.250   3.510
 5008SOL    HW115923   6.333   1.222   3.414
 5008SOL    HW215924   6.299   1.340   3.521
 5009SOL     OW15925   0.966   5.728   1.442
 5009SOL    HW115926   0.959   5.816   1.489
 5009SOL    HW215927   1.045   5.678   1.477
 5010SOL     OW15928   3.945   4.015   4.180
 5010SOL    HW115929   4.018   3.966   4.132
 5010SOL    HW215930   3.949   3.996   4.278
 5011SOL     OW15931   1.701   3.506   2.028
 5011SOL    HW115932   1.728   3.427   1.973
 5011SOL    HW215933   1.766   3.517   2.104
 5012SOL     OW15934   6.774   2.922   5.804
 5012SOL    HW115935   6.689   2.975   5.805
 5012SOL    HW215936   6.794   2.891   5.897
 5013SOL     OW15937   4.259   0.800   6.485
 5013SOL    HW115938   4.294   0.838   6.399
 5013SOL    HW215939   4.329   0.742   6.526
 5014SOL     OW15940   5.970   5.777   0.716
 5014SOL    HW115941   5.882   5.795   0.758
 5014SOL    HW215942   6.032   5.854   0.733
 5015SOL     OW15943   4.485   2.152   3.438
 5015SOL    HW115944   4.574   2.164   3.482
 5015SOL    HW215945   4.436   2.239   3.437
 5016SOL     OW15946   1.813   0.607   2.741
 5016SOL    HW115947   1.837   0.515   2.708
 5016SOL    HW215948   1.717   0.608   2.768
 5017SOL     OW15949   2.475   1.945   0.364
 5017SOL    HW115950   2.461   1.959   0.462
 5017SOL    HW215951   2.408   1.879   0.330
 5018SOL     OW15952   0.130   4.406   2.449
 5018SOL    HW115953   0.104   4.316   2.484
 5018SOL    HW215954   0.063   4.474   2.478
 5019SOL     OW15955   2.798   3.721   0.491
 5019SOL    HW115956   2.774   3.805   0.540
 5019SOL    HW215957   2.714   3.676   0.459
 5020SOL     OW15958   5.257   5.498   6.294
 5020SOL    HW115959   5.255   5.595   6.319
 5020SOL    HW215960   5.327   5.483   6.225
 5021SOL     OW15961   1.691   4.870   5.823
 5021SOL    HW115962   1.659   4.776   5.818
 5021SOL    HW215963   1.779   4.877   5.776
 5022SOL     OW15964   1.853   6.139   0.639
 5022SOL    HW115965   1.879   6.043   0.629
 5022SOL    HW215966   1.893   6.192   0.564
 5023SOL     OW15967   6.368   3.042   0.698
 5023SOL    HW115968   6.405   3.130   0.669
 5023SOL    HW215969   6.269   3.042   0.684
 5024SOL     OW15970   6.760   3.734   3.414
 5024SOL    HW115971   6.718   3.824   3.405
 5024SOL    HW215972   6.857   3.740   3.391
 5025SOL     OW15973   4.912   1.294   2.902
 5025SOL    HW115974   4.896   1.359   2.976
 5025SOL    HW215975   4.883   1.203   2.932
 5026SOL     OW15976   6.093   5.510   4.987
 5026SOL    HW115977   6.149   5.591   4.969
 5026SOL    HW215978   6.122   5.435   4.927
 5027SOL     OW15979   0.433   6.462   3.058
 5027SOL    HW115980   0.533   6.468   3.066
 5027SOL    HW215981   0.408   6.369   3.032
 5028SOL     OW15982   0.455   6.247   1.654
 5028SOL    HW115983   0.520   6.175   1.630
 5028SOL    HW215984   0.465   6.269   1.752
 5029SOL     OW15985   6.664   2.624   1.781
 5029SOL    HW115986   6.661   2.655   1.876
 5029SOL    HW215987   6.691   2.700   1.722
 5030SOL     OW15988   6.526   0.160   6.851
 5030SOL    HW115989   6.531   0.166   6.751
 5030SOL    HW215990   6.460   0.088   6.876
 5031SOL     OW15991   5.863   1.348   3.977
 5031SOL    HW115992   5.781   1.298   4.006
 5031SOL    HW215993   5.928   1.284   3.936
 5032SOL     OW15994   1.782   5.360   0.699
 5032SOL    HW115995   1.876   5.362   0.665
 5032SOL    HW215996   1.782   5.341   0.797
 5033SOL     OW15997   2.827   4.661   5.596
 5033SOL    HW115998   2.840   4.564   5.616
 5033SOL    HW215999   2.851   4.678   5.500
 5034SOL     OW16000   6.375   2.366   2.536
 5034SOL    HW116001   6.430   2.388   2.616
 5034SOL    HW216002   6.281   2.349   2.564
 5035SOL     OW16003   4.338   5.260   0.634
 5035SOL    HW116004   4.274   5.225   0.702
 5035SOL    HW216005   4.348   5.359   0.644
 5036SOL     OW16006   1.299   6.404   0.120
 5036SOL    HW116007   1.315   6.502   0.134
 5036SOL    HW216008   1.219   6.375   0.172
 5037SOL     OW16009   4.008   1.628   3.522
 5037SOL    HW116010   3.979   1.673   3.437
 5037SOL    HW216011   4.099   1.661   3.547
 5038SOL     OW16012   1.266   5.982   5.791
 5038SOL    HW116013   1.203   5.988   5.868
 5038SOL    HW216014   1.324   6.064   5.788
 5039SOL     OW16015   2.408   2.813   5.365
 5039SOL    HW116016   2.382   2.864   5.447
 5039SOL    HW216017   2.431   2.876   5.292
 5040SOL     OW16018   2.710   3.205   6.789
 5040SOL    HW116019   2.647   3.179   6.715
 5040SOL    HW216020   2.683   3.294   6.826
 5041SOL     OW16021   0.973   3.703   1.184
 5041SOL    HW116022   0.907   3.671   1.251
 5041SOL    HW216023   1.054   3.739   1.231
 5042SOL     OW16024   6.166   3.916   6.694
 5042SOL    HW116025   6.127   3.887   6.781
 5042SOL    HW216026   6.113   3.992   6.657
 5043SOL     OW16027   3.578   1.063   4.131
 5043SOL    HW116028   3.549   1.131   4.064
 5043SOL    HW216029   3.676   1.075   4.150
 5044SOL     OW16030   6.408   5.969   3.823
 5044SOL    HW116031   6.325   6.022   3.839
 5044SOL    HW216032   6.396   5.877   3.861
 5045SOL     OW16033   6.252   3.814   0.231
 5045SOL    HW116034   6.196   3.831   0.150
 5045SOL    HW216035   6.193   3.809   0.312
 5046SOL     OW16036   3.785   2.948   4.860
 5046SOL    HW116037   3.844   3.010   4.911
 5046SOL    HW216038   3.716   2.909   4.921
 5047SOL     OW16039   5.919   0.727   2.659
 5047SOL    HW116040   5.877   0.668   2.728
 5047SOL    HW216041   6.007   0.761   2.693
 5048SOL     OW16042   6.745   2.280   1.955
 5048SOL    HW116043   6.724   2.270   2.052
 5048SOL    HW216044   6.695   2.211   1.903
 5049SOL     OW16045   0.864   1.708   1.913
 5049SOL    HW116046   0.794   1.685   1.846
 5049SOL    HW216047   0.853   1.803   1.941
 5050SOL     OW16048   0.368   2.227   1.825
 5050SOL    HW116049   0.439   2.162   1.798
 5050SOL    HW216050   0.285   2.210   1.772
 5051SOL     OW16051   2.601   4.017   0.863
 5051SOL    HW116052   2.567   3.931   0.900
 5051SOL    HW216053   2.538   4.049   0.792
 5052SOL     OW16054   4.056   4.944   1.074
 5052SOL    HW116055   4.014   4.933   0.984
 5052SOL    HW216056   4.130   4.876   1.085
 5053SOL     OW16057   2.557   4.137   1.649
 5053SOL    HW116058   2.502   4.077   1.707
 5053SOL    HW216059   2.558   4.229   1.689
 5054SOL     OW16060   3.396   6.293   5.163
 5054SOL    HW116061   3.328   6.366   5.158
 5054SOL    HW216062   3.385   6.232   5.084
 5055SOL     OW16063   0.980   2.028   4.783
 5055SOL    HW116064   1.038   2.018   4.702
 5055SOL    HW216065   1.025   2.087   4.849
 5056SOL     OW16066   6.989   3.783   5.954
 5056SOL    HW116067   6.954   3.694   5.926
 5056SOL    HW216068   6.914   3.847   5.965
 5057SOL     OW16069   1.065   5.607   3.623
 5057SOL    HW116070   0.978   5.608   3.574
 5057SOL    HW216071   1.049   5.600   3.721
 5058SOL     OW16072   4.170   4.224   6.901
 5058SOL    HW116073   4.212   4.262   6.984
 5058SOL    HW216074   4.121   4.140   6.925
 5059SOL     OW16075   3.694   2.011   4.944
 5059SOL    HW116076   3.616   2.074   4.952
 5059SOL    HW216077   3.712   1.969   5.033
 5060SOL     OW16078   0.352   3.630   4.980
 5060SOL    HW116079   0.414   3.704   4.954
 5060SOL    HW216080   0.341   3.630   5.080
 5061SOL     OW16081   3.252   3.710   4.365
 5061SOL    HW116082   3.328   3.775   4.352
 5061SOL    HW216083   3.289   3.622   4.394
 5062SOL     OW16084   4.596   1.138   2.727
 5062SOL    HW116085   4.664   1.070   2.755
 5062SOL    HW216086   4.565   1.118   2.634
 5063SOL     OW16087   1.543   6.430   2.279
 5063SOL    HW116088   1.595   6.345   2.279
 5063SOL    HW216089   1.575   6.488   2.203
 5064SOL     OW16090   4.547   5.561   0.915
 5064SOL    HW116091   4.479   5.628   0.886
 5064SOL    HW216092   4.632   5.576   0.864
 5065SOL     OW16093   2.189   0.172   3.221
 5065SOL    HW116094   2.188   0.154   3.123
 5065SOL    HW216095   2.246   0.103   3.267
 5066SOL     OW16096   1.850   4.729   1.849
 5066SOL    HW116097   1.760   4.758   1.817
 5066SOL    HW216098   1.875   4.782   1.930
 5067SOL     OW16099   3.961   2.211   1.616
 5067SOL    HW116100   3.997   2.268   1.542
 5067SOL    HW216101   3.861   2.221   1.620
 5068SOL     OW16102   4.009   5.767   0.877
 5068SOL    HW116103   3.994   5.752   0.975
 5068SOL    HW216104   4.090   5.717   0.847
 5069SOL     OW16105   2.773   4.102   6.394
 5069SOL    HW116106   2.829   4.047   6.332
 5069SOL    HW216107   2.833   4.153   6.456
 5070SOL     OW16108   5.663   3.471   4.402
 5070SOL    HW116109   5.731   3.405   4.434
 5070SOL    HW216110   5.593   3.423   4.349
 5071SOL     OW16111   4.047   1.089   3.778
 5071SOL    HW116112   4.062   1.092   3.679
 5071SOL    HW216113   4.076   1.177   3.818
 5072SOL     OW16114   1.229   0.646   0.734
 5072SOL    HW116115   1.198   0.719   0.673
 5072SOL    HW216116   1.286   0.684   0.806
 5073SOL     OW16117   2.659   6.510   2.693
 5073SOL    HW116118   2.629   6.415   2.684
 5073SOL    HW216119   2.724   6.532   2.621
 5074SOL     OW16120   3.434   1.933   1.421
 5074SOL    HW116121   3.465   1.838   1.424
 5074SOL    HW216122   3.417   1.966   1.514
 5075SOL     OW16123   1.560   2.897   0.143
 5075SOL    HW116124   1.659   2.894   0.158
 5075SOL    HW216125   1.536   2.841   0.064
 5076SOL     OW16126   5.218   1.247   0.215
 5076SOL    HW116127   5.215   1.283   0.308
 5076SOL    HW216128   5.287   1.175   0.209
 5077SOL     OW16129   1.418   4.096   4.755
 5077SOL    HW116130   1.435   3.999   4.775
 5077SOL    HW216131   1.468   4.122   4.673
 5078SOL     OW16132   0.435   1.232   3.693
 5078SOL    HW116133   0.494   1.152   3.707
 5078SOL    HW216134   0.474   1.310   3.743
 5079SOL     OW16135   1.541   1.982   5.930
 5079SOL    HW116136   1.550   2.065   5.984
 5079SOL    HW216137   1.553   2.004   5.833
 5080SOL     OW16138   5.941   5.283   5.984
 5080SOL    HW116139   5.909   5.295   5.890
 5080SOL    HW216140   5.938   5.186   6.009
 5081SOL     OW16141   3.674   6.047   5.180
 5081SOL    HW116142   3.581   6.015   5.202
 5081SOL    HW216143   3.667   6.129   5.123
 5082SOL     OW16144   4.761   6.453   0.615
 5082SOL    HW116145   4.664   6.476   0.610
 5082SOL    HW216146   4.772   6.355   0.598
 5083SOL     OW16147   2.851   0.867   2.461
 5083SOL    HW116148   2.830   0.813   2.543
 5083SOL    HW216149   2.949   0.862   2.441
 5084SOL     OW16150   0.685   5.322   5.083
 5084SOL    HW116151   0.743   5.279   5.014
 5084SOL    HW216152   0.737   5.392   5.131
 5085SOL     OW16153   1.414   3.629   5.819
 5085SOL    HW116154   1.355   3.602   5.743
 5085SOL    HW216155   1.432   3.727   5.814
 5086SOL     OW16156   0.970   4.853   2.780
 5086SOL    HW116157   0.916   4.769   2.787
 5086SOL    HW216158   0.933   4.921   2.844
 5087SOL     OW16159   6.698   5.330   2.348
 5087SOL    HW116160   6.628   5.260   2.336
 5087SOL    HW216161   6.658   5.421   2.339
 5088SOL     OW16162   4.433   6.179   2.231
 5088SOL    HW116163   4.501   6.112   2.200
 5088SOL    HW216164   4.357   6.181   2.166
 5089SOL     OW16165   5.369   3.869   4.968
 5089SOL    HW116166   5.392   3.906   4.878
 5089SOL    HW216167   5.348   3.772   4.959
 5090SOL     OW16168   1.648   6.960   3.717
 5090SOL    HW116169   1.564   6.940   3.666
 5090SOL    HW216170   1.668   6.883   3.778
 5091SOL     OW16171   6.668   0.270   0.408
 5091SOL    HW116172   6.572   0.263   0.381
 5091SOL    HW216173   6.724   0.211   0.350
 5092SOL     OW16174   3.489   3.856   4.397
 5092SOL    HW116175   3.556   3.923   4.365
 5092SOL    HW216176   3.443   3.891   4.479
 5093SOL     OW16177   2.320   1.262   2.546
 5093SOL    HW116178   2.329   1.185   2.483
 5093SOL    HW216179   2.404   1.270   2.600
 5094SOL     OW16180   2.294   5.531   6.922
 5094SOL    HW116181   2.216   5.469   6.927
 5094SOL    HW216182   2.323   5.542   6.827
 5095SOL     OW16183   0.510   1.143   3.437
 5095SOL    HW116184   0.550   1.132   3.527
 5095SOL    HW216185   0.488   1.239   3.421
 5096SOL     OW16186   5.143   3.672   6.358
 5096SOL    HW116187   5.116   3.656   6.263
 5096SOL    HW216188   5.086   3.745   6.396
 5097SOL     OW16189   6.293   6.470   6.717
 5097SOL    HW116190   6.371   6.459   6.656
 5097SOL    HW216191   6.211   6.487   6.663
 5098SOL     OW16192   3.946   2.177   1.876
 5098SOL    HW116193   3.856   2.200   1.913
 5098SOL    HW216194   3.944   2.184   1.776
 5099SOL     OW16195   0.379   5.867   1.960
 5099SOL    HW116196   0.306   5.840   2.023
 5099SOL    HW216197   0.383   5.801   1.885
 5100SOL     OW16198   4.669   4.754   2.603
 5100SOL    HW116199   4.623   4.676   2.647
 5100SOL    HW216200   4.614   4.836   2.616
 5101SOL     OW16201   4.115   0.323   5.377
 5101SOL    HW116202   4.031   0.302   5.427
 5101SOL    HW216203   4.131   0.422   5.378
 5102SOL     OW16204   4.693   5.762   3.980
 5102SOL    HW116205   4.697   5.787   3.883
 5102SOL    HW216206   4.601   5.780   4.015
 5103SOL     OW16207   0.510   0.704   5.101
 5103SOL    HW116208   0.508   0.639   5.026
 5103SOL    HW216209   0.422   0.704   5.148
 5104SOL     OW16210   3.506   6.313   2.075
 5104SOL    HW116211   3.595   6.272   2.052
 5104SOL    HW216212   3.521   6.401   2.119
 5105SOL     OW16213   3.049   3.465   6.950
 5105SOL    HW116214   3.031   3.388   7.011
 5105SOL    HW216215   3.107   3.436   6.874
 5106SOL     OW16216   4.056   2.372   1.003
 5106SOL    HW116217   3.987   2.314   1.044
 5106SOL    HW216218   4.104   2.322   0.930
 5107SOL     OW16219   5.650   2.804   1.273
 5107SOL    HW116220   5.572   2.849   1.229
 5107SOL    HW216221   5.720   2.872   1.295
 5108SOL     OW16222   4.612   4.201   5.937
 5108SOL    HW116223   4.700   4.225   5.897
 5108SOL    HW216224   4.601   4.247   6.025
 5109SOL     OW16225   1.741   3.244   1.306
 5109SOL    HW116226   1.805   3.297   1.361
 5109SOL    HW216227   1.791   3.183   1.245
 5110SOL     OW16228   6.688   6.568   6.408
 5110SOL    HW116229   6.774   6.611   6.378
 5110SOL    HW216230   6.611   6.610   6.361
 5111SOL     OW16231   1.213   6.390   4.783
 5111SOL    HW116232   1.182   6.319   4.847
 5111SOL    HW216233   1.208   6.479   4.828
 5112SOL     OW16234   0.560   0.150   2.677
 5112SOL    HW116235   0.584   0.116   2.769
 5112SOL    HW216236   0.484   0.214   2.684
 5113SOL     OW16237   1.906   5.462   0.283
 5113SOL    HW116238   1.884   5.379   0.232
 5113SOL    HW216239   1.978   5.443   0.350
 5114SOL     OW16240   3.602   0.176   0.818
 5114SOL    HW116241   3.689   0.206   0.858
 5114SOL    HW216242   3.575   0.241   0.746
 5115SOL     OW16243   1.845   3.704   1.526
 5115SOL    HW116244   1.749   3.729   1.539
 5115SOL    HW216245   1.901   3.748   1.596
 5116SOL     OW16246   2.732   6.465   6.834
 5116SOL    HW116247   2.832   6.466   6.825
 5116SOL    HW216248   2.693   6.537   6.776
 5117SOL     OW16249   0.696   3.290   4.405
 5117SOL    HW116250   0.678   3.371   4.349
 5117SOL    HW216251   0.685   3.208   4.349
 5118SOL     OW16252   5.925   0.219   0.728
 5118SOL    HW116253   5.841   0.167   0.715
 5118SOL    HW216254   5.996   0.158   0.763
 5119SOL     OW16255   5.199   1.846   0.567
 5119SOL    HW116256   5.198   1.894   0.655
 5119SOL    HW216257   5.127   1.776   0.567
 5120SOL     OW16258   5.091   0.669   5.164
 5120SOL    HW116259   5.029   0.646   5.089
 5120SOL    HW216260   5.131   0.586   5.202
 5121SOL     OW16261   3.126   3.800   6.768
 5121SOL    HW116262   3.038   3.775   6.808
 5121SOL    HW216263   3.188   3.721   6.772
 5122SOL     OW16264   3.975   5.396   3.431
 5122SOL    HW116265   3.940   5.417   3.340
 5122SOL    HW216266   4.044   5.324   3.425
 5123SOL     OW16267   5.250   2.130   2.257
 5123SOL    HW116268   5.276   2.149   2.162
 5123SOL    HW216269   5.151   2.136   2.266
 5124SOL     OW16270   1.875   6.296   3.702
 5124SOL    HW116271   1.836   6.360   3.636
 5124SOL    HW216272   1.807   6.275   3.772
 5125SOL     OW16273   0.212   1.738   3.975
 5125SOL    HW116274   0.215   1.669   4.047
 5125SOL    HW216275   0.252   1.701   3.891
 5126SOL     OW16276   1.186   6.397   0.549
 5126SOL    HW116277   1.280   6.406   0.584
 5126SOL    HW216278   1.126   6.458   0.601
 5127SOL     OW16279   1.770   5.854   0.078
 5127SOL    HW116280   1.832   5.776   0.082
 5127SOL    HW216281   1.808   5.929   0.133
 5128SOL     OW16282   0.225   5.747   1.282
 5128SOL    HW116283   0.274   5.672   1.327
 5128SOL    HW216284   0.238   5.832   1.333
 5129SOL     OW16285   4.484   6.170   1.576
 5129SOL    HW116286   4.556   6.198   1.640
 5129SOL    HW216287   4.396   6.204   1.609
 5130SOL     OW16288   6.652   4.782   2.715
 5130SOL    HW116289   6.676   4.769   2.619
 5130SOL    HW216290   6.633   4.693   2.757
 5131SOL     OW16291   1.137   3.044   3.446
 5131SOL    HW116292   1.233   3.022   3.427
 5131SOL    HW216293   1.103   3.109   3.378
 5132SOL     OW16294   3.176   3.889   6.055
 5132SOL    HW116295   3.265   3.935   6.057
 5132SOL    HW216296   3.127   3.915   5.972
 5133SOL     OW16297   3.388   5.467   0.030
 5133SOL    HW116298   3.314   5.400   0.034
 5133SOL    HW216299   3.476   5.419   0.024
 5134SOL     OW16300   0.797   3.063   1.871
 5134SOL    HW116301   0.808   3.162   1.861
 5134SOL    HW216302   0.704   3.037   1.846
 5135SOL     OW16303   6.985   2.151   5.757
 5135SOL    HW116304   6.903   2.096   5.746
 5135SOL    HW216305   7.019   2.143   5.851
 5136SOL     OW16306   5.224   0.642   4.635
 5136SOL    HW116307   5.259   0.624   4.543
 5136SOL    HW216308   5.301   0.646   4.700
 5137SOL     OW16309   6.032   3.174   6.458
 5137SOL    HW116310   5.960   3.111   6.428
 5137SOL    HW216311   6.081   3.134   6.535
 5138SOL     OW16312   3.932   3.083   6.883
 5138SOL    HW116313   3.973   3.157   6.830
 5138SOL    HW216314   3.861   3.038   6.828
 5139SOL     OW16315   1.734   6.459   4.060
 5139SOL    HW116316   1.727   6.393   3.985
 5139SOL    HW216317   1.652   6.453   4.117
 5140SOL     OW16318   2.711   1.506   0.652
 5140SOL    HW116319   2.738   1.478   0.744
 5140SOL    HW216320   2.637   1.573   0.658
 5141SOL     OW16321   5.647   3.746   1.244
 5141SOL    HW116322   5.709   3.667   1.243
 5141SOL    HW216323   5.673   3.811   1.173
 5142SOL     OW16324   6.420   2.564   4.598
 5142SOL    HW116325   6.412   2.654   4.641
 5142SOL    HW216326   6.401   2.572   4.500
 5143SOL     OW16327   1.265   4.711   4.351
 5143SOL    HW116328   1.189   4.733   4.412
 5143SOL    HW216329   1.334   4.659   4.400
 5144SOL     OW16330   1.730   6.465   6.273
 5144SOL    HW116331   1.733   6.559   6.307
 5144SOL    HW216332   1.684   6.463   6.184
 5145SOL     OW16333   2.421   5.301   6.571
 5145SOL    HW116334   2.493   5.357   6.530
 5145SOL    HW216335   2.458   5.210   6.592
 5146SOL     OW16336   4.224   3.886   6.747
 5146SOL    HW116337   4.251   3.792   6.768
 5146SOL    HW216338   4.180   3.927   6.827
 5147SOL     OW16339   0.157   4.321   1.350
 5147SOL    HW116340   0.140   4.401   1.294
 5147SOL    HW216341   0.240   4.334   1.403
 5148SOL     OW16342   0.640   6.093   0.865
 5148SOL    HW116343   0.612   6.114   0.958
 5148SOL    HW216344   0.560   6.092   0.805
 5149SOL     OW16345   6.201   0.354   3.632
 5149SOL    HW116346   6.188   0.453   3.628
 5149SOL    HW216347   6.141   0.315   3.702
 5150SOL     OW16348   2.045   6.115   4.360
 5150SOL    HW116349   2.137   6.085   4.339
 5150SOL    HW216350   2.005   6.160   4.280
 5151SOL     OW16351   5.660   1.090   6.722
 5151SOL    HW116352   5.608   1.068   6.640
 5151SOL    HW216353   5.612   1.161   6.774
 5152SOL     OW16354   2.239   4.853   0.196
 5152SOL    HW116355   2.286   4.938   0.169
 5152SOL    HW216356   2.297   4.802   0.259
 5153SOL     OW16357   1.954   1.979   0.335
 5153SOL    HW116358   2.045   2.018   0.318
 5153SOL    HW216359   1.958   1.880   0.325
 5154SOL     OW16360   1.939   3.259   5.989
 5154SOL    HW116361   1.969   3.345   6.030
 5154SOL    HW216362   1.841   3.247   6.004
 5155SOL     OW16363   4.004   6.096   2.164
 5155SOL    HW116364   4.092   6.135   2.137
 5155SOL    HW216365   3.992   6.007   2.119
 5156SOL     OW16366   6.602   2.456   6.472
 5156SOL    HW116367   6.549   2.486   6.393
 5156SOL    HW216368   6.654   2.534   6.508
 5157SOL     OW16369   4.788   2.927   3.932
 5157SOL    HW116370   4.787   2.983   3.849
 5157SOL    HW216371   4.715   2.860   3.928
 5158SOL     OW16372   2.827   2.200   1.309
 5158SOL    HW116373   2.873   2.183   1.396
 5158SOL    HW216374   2.776   2.285   1.314
 5159SOL     OW16375   1.077   3.844   4.731
 5159SOL    HW116376   1.174   3.826   4.720
 5159SOL    HW216377   1.063   3.939   4.758
 5160SOL     OW16378   1.534   3.800   4.420
 5160SOL    HW116379   1.545   3.709   4.380
 5160SOL    HW216380   1.462   3.798   4.489
 5161SOL     OW16381   1.237   4.402   5.482
 5161SOL    HW116382   1.152   4.416   5.532
 5161SOL    HW216383   1.261   4.486   5.433
 5162SOL     OW16384   0.034   5.022   4.395
 5162SOL    HW116385   0.056   4.938   4.444
 5162SOL    HW216386   0.106   5.089   4.409
 5163SOL     OW16387   4.726   5.085   1.214
 5163SOL    HW116388   4.800   5.147   1.191
 5163SOL    HW216389   4.744   5.044   1.303
 5164SOL     OW16390   5.777   2.285   5.423
 5164SOL    HW116391   5.830   2.337   5.490
 5164SOL    HW216392   5.839   2.230   5.367
 5165SOL     OW16393   5.959   4.828   5.096
 5165SOL    HW116394   5.981   4.731   5.105
 5165SOL    HW216395   6.027   4.881   5.147
 5166SOL     OW16396   1.723   5.250   1.782
 5166SOL    HW116397   1.821   5.237   1.794
 5166SOL    HW216398   1.680   5.163   1.758
 5167SOL     OW16399   6.526   6.925   5.302
 5167SOL    HW116400   6.578   6.844   5.329
 5167SOL    HW216401   6.451   6.898   5.242
 5168SOL     OW16402   4.564   2.529   3.158
 5168SOL    HW116403   4.616   2.615   3.156
 5168SOL    HW216404   4.482   2.538   3.100
 5169SOL     OW16405   3.147   3.639   6.370
 5169SOL    HW116406   3.174   3.735   6.377
 5169SOL    HW216407   3.223   3.581   6.400
 5170SOL     OW16408   0.090   4.643   5.737
 5170SOL    HW116409   0.140   4.619   5.654
 5170SOL    HW216410   0.012   4.582   5.748
 5171SOL     OW16411   2.569   4.742   4.430
 5171SOL    HW116412   2.572   4.670   4.499
 5171SOL    HW216413   2.479   4.786   4.433
 5172SOL     OW16414   0.393   3.520   1.897
 5172SOL    HW116415   0.358   3.511   1.990
 5172SOL    HW216416   0.380   3.615   1.866
 5173SOL     OW16417   5.863   3.966   6.686
 5173SOL    HW116418   5.829   3.996   6.597
 5173SOL    HW216419   5.893   4.046   6.739
 5174SOL     OW16420   2.161   4.710   4.867
 5174SOL    HW116421   2.217   4.753   4.796
 5174SOL    HW216422   2.201   4.729   4.957
 5175SOL     OW16423   1.893   4.027   0.094
 5175SOL    HW116424   1.818   4.006   0.031
 5175SOL    HW216425   1.856   4.059   0.180
 5176SOL     OW16426   3.892   3.184   0.209
 5176SOL    HW116427   3.891   3.084   0.205
 5176SOL    HW216428   3.808   3.216   0.253
 5177SOL     OW16429   4.571   0.335   5.448
 5177SOL    HW116430   4.572   0.285   5.361
 5177SOL    HW216431   4.584   0.433   5.430
 5178SOL     OW16432   2.196   2.417   1.594
 5178SOL    HW116433   2.252   2.476   1.652
 5178SOL    HW216434   2.110   2.464   1.573
 5179SOL     OW16435   4.867   6.409   5.104
 5179SOL    HW116436   4.855   6.505   5.078
 5179SOL    HW216437   4.930   6.403   5.181
 5180SOL     OW16438   3.354   2.215   6.782
 5180SOL    HW116439   3.272   2.206   6.839
 5180SOL    HW216440   3.376   2.126   6.742
 5181SOL     OW16441   3.626   0.690   2.689
 5181SOL    HW116442   3.604   0.780   2.651
 5181SOL    HW216443   3.547   0.656   2.741
 5182SOL     OW16444   6.011   5.003   1.409
 5182SOL    HW116445   6.080   5.007   1.482
 5182SOL    HW216446   5.973   4.911   1.404
 5183SOL     OW16447   4.425   7.002   1.969
 5183SOL    HW116448   4.479   6.987   2.052
 5183SOL    HW216449   4.480   6.981   1.889
 5184SOL     OW16450   0.889   1.338   3.758
 5184SOL    HW116451   0.947   1.411   3.723
 5184SOL    HW216452   0.903   1.255   3.703
 5185SOL     OW16453   3.912   6.946   2.715
 5185SOL    HW116454   3.922   6.885   2.635
 5185SOL    HW216455   3.988   7.011   2.717
 5186SOL     OW16456   6.322   3.708   0.949
 5186SOL    HW116457   6.397   3.646   0.971
 5186SOL    HW216458   6.346   3.763   0.869
 5187SOL     OW16459   7.019   1.738   3.357
 5187SOL    HW116460   6.964   1.749   3.275
 5187SOL    HW216461   0.071   1.684   3.336
 5188SOL     OW16462   0.508   4.987   6.995
 5188SOL    HW116463   0.409   4.974   6.993
 5188SOL    HW216464   0.546   4.944   0.047
 5189SOL     OW16465   4.730   4.891   0.141
 5189SOL    HW116466   4.658   4.961   0.149
 5189SOL    HW216467   4.796   4.920   0.072
 5190SOL     OW16468   0.881   1.898   3.878
 5190SOL    HW116469   0.828   1.982   3.893
 5190SOL    HW216470   0.862   1.862   3.787
 5191SOL     OW16471   3.189   1.383   1.777
 5191SOL    HW116472   3.150   1.310   1.833
 5191SOL    HW216473   3.235   1.344   1.698
 5192SOL     OW16474   5.104   5.418   2.617
 5192SOL    HW116475   5.187   5.469   2.596
 5192SOL    HW216476   5.121   5.356   2.694
 5193SOL     OW16477   4.558   4.442   3.871
 5193SOL    HW116478   4.500   4.496   3.810
 5193SOL    HW216479   4.613   4.379   3.816
 5194SOL     OW16480   4.960   0.764   5.852
 5194SOL    HW116481   5.008   0.826   5.791
 5194SOL    HW216482   4.863   0.763   5.830
 5195SOL     OW16483   6.570   6.851   4.470
 5195SOL    HW116484   6.546   6.942   4.503
 5195SOL    HW216485   6.506   6.823   4.398
 5196SOL     OW16486   0.519   4.277   1.852
 5196SOL    HW116487   0.619   4.282   1.855
 5196SOL    HW216488   0.488   4.198   1.905
 5197SOL     OW16489   1.626   6.313   4.414
 5197SOL    HW116490   1.553   6.374   4.444
 5197SOL    HW216491   1.587   6.242   4.354
 5198SOL     OW16492   2.592   6.741   5.049
 5198SOL    HW116493   2.588   6.789   4.961
 5198SOL    HW216494   2.564   6.645   5.036
 5199SOL     OW16495   2.022   5.454   1.521
 5199SOL    HW116496   2.007   5.371   1.468
 5199SOL    HW216497   2.115   5.488   1.503
 5200SOL     OW16498   1.212   1.780   4.820
 5200SOL    HW116499   1.269   1.714   4.869
 5200SOL    HW216500   1.202   1.863   4.875
 5201SOL     OW16501   5.446   4.882   4.331
 5201SOL    HW116502   5.437   4.783   4.341
 5201SOL    HW216503   5.476   4.903   4.238
 5202SOL     OW16504   5.138   3.069   0.192
 5202SOL    HW116505   5.144   3.020   0.279
 5202SOL    HW216506   5.209   3.139   0.189
 5203SOL     OW16507   1.506   0.195   6.819
 5203SOL    HW116508   1.415   0.177   6.856
 5203SOL    HW216509   1.507   0.286   6.777
 5204SOL     OW16510   3.721   6.982   6.810
 5204SOL    HW116511   3.638   6.974   6.756
 5204SOL    HW216512   3.698   7.011   6.903
 5205SOL     OW16513   6.640   5.858   1.060
 5205SOL    HW116514   6.689   5.942   1.037
 5205SOL    HW216515   6.699   5.779   1.043
 5206SOL     OW16516   0.777   4.419   4.837
 5206SOL    HW116517   0.769   4.323   4.865
 5206SOL    HW216518   0.690   4.465   4.854
 5207SOL     OW16519   0.304   6.875   4.168
 5207SOL    HW116520   0.293   6.945   4.239
 5207SOL    HW216521   0.370   6.806   4.200
 5208SOL     OW16522   5.010   2.408   0.382
 5208SOL    HW116523   4.916   2.432   0.357
 5208SOL    HW216524   5.070   2.420   0.302
 5209SOL     OW16525   4.536   0.281   3.285
 5209SOL    HW116526   4.494   0.356   3.335
 5209SOL    HW216527   4.635   0.281   3.301
 5210SOL     OW16528   5.246   4.547   1.354
 5210SOL    HW116529   5.223   4.490   1.275
 5210SOL    HW216530   5.309   4.497   1.414
 5211SOL     OW16531   5.093   2.015   3.966
 5211SOL    HW116532   5.136   1.939   3.917
 5211SOL    HW216533   5.039   1.979   4.043
 5212SOL     OW16534   1.274   2.006   0.936
 5212SOL    HW116535   1.270   2.105   0.947
 5212SOL    HW216536   1.268   1.983   0.839
 5213SOL     OW16537   4.044   3.542   2.268
 5213SOL    HW116538   4.062   3.446   2.286
 5213SOL    HW216539   4.000   3.583   2.349
 5214SOL     OW16540   5.576   4.550   6.553
 5214SOL    HW116541   5.558   4.453   6.536
 5214SOL    HW216542   5.622   4.560   6.641
 5215SOL     OW16543   0.097   3.120   4.888
 5215SOL    HW116544   0.053   3.032   4.907
 5215SOL    HW216545   0.152   3.113   4.805
 5216SOL     OW16546   5.554   4.701   1.011
 5216SOL    HW116547   5.500   4.784   1.008
 5216SOL    HW216548   5.494   4.621   1.004
 5217SOL     OW16549   3.640   5.748   4.207
 5217SOL    HW116550   3.604   5.695   4.284
 5217SOL    HW216551   3.738   5.764   4.219
 5218SOL     OW16552   0.543   0.727   0.759
 5218SOL    HW116553   0.605   0.685   0.826
 5218SOL    HW216554   0.564   0.692   0.668
 5219SOL     OW16555   2.480   2.055   5.194
 5219SOL    HW116556   2.530   2.142   5.193
 5219SOL    HW216557   2.385   2.071   5.221
 5220SOL     OW16558   2.257   5.522   3.198
 5220SOL    HW116559   2.334   5.586   3.207
 5220SOL    HW216560   2.292   5.429   3.195
 5221SOL     OW16561   6.807   0.508   1.305
 5221SOL    HW116562   6.870   0.435   1.279
 5221SOL    HW216563   6.847   0.563   1.378
 5222SOL     OW16564   4.436   4.922   1.546
 5222SOL    HW116565   4.366   4.902   1.477
 5222SOL    HW216566   4.447   4.844   1.607
 5223SOL     OW16567   0.357   3.075   0.619
 5223SOL    HW116568   0.410   3.033   0.693
 5223SOL    HW216569   0.300   3.005   0.575
 5224SOL     OW16570   1.091   1.622   4.258
 5224SOL    HW116571   1.062   1.651   4.167
 5224SOL    HW216572   1.142   1.696   4.302
 5225SOL     OW16573   6.560   1.100   4.809
 5225SOL    HW116574   6.645   1.047   4.817
 5225SOL    HW216575   6.486   1.040   4.779
 5226SOL     OW16576   0.553   5.648   3.540
 5226SOL    HW116577   0.589   5.692   3.457
 5226SOL    HW216578   0.523   5.719   3.604
 5227SOL     OW16579   6.840   3.551   5.818
 5227SOL    HW116580   6.755   3.530   5.770
 5227SOL    HW216581   6.822   3.557   5.917
 5228SOL     OW16582   1.415   2.953   5.947
 5228SOL    HW116583   1.492   2.998   5.903
 5228SOL    HW216584   1.387   2.874   5.892
 5229SOL     OW16585   3.914   6.808   6.812
 5229SOL    HW116586   3.830   6.862   6.803
 5229SOL    HW216587   3.993   6.866   6.794
 5230SOL     OW16588   6.881   0.101   1.879
 5230SOL    HW116589   6.791   0.059   1.871
 5230SOL    HW216590   6.872   0.201   1.874
 5231SOL     OW16591   5.735   1.555   3.209
 5231SOL    HW116592   5.685   1.639   3.231
 5231SOL    HW216593   5.729   1.537   3.111
 5232SOL     OW16594   1.847   3.938   5.968
 5232SOL    HW116595   1.845   3.943   6.068
 5232SOL    HW216596   1.911   3.868   5.939
 5233SOL     OW16597   3.078   0.861   2.712
 5233SOL    HW116598   3.005   0.797   2.731
 5233SOL    HW216599   3.049   0.954   2.737
 5234SOL     OW16600   1.656   2.435   0.772
 5234SOL    HW116601   1.607   2.520   0.791
 5234SOL    HW216602   1.749   2.456   0.743
 5235SOL     OW16603   2.479   1.554   1.128
 5235SOL    HW116604   2.428   1.567   1.043
 5235SOL    HW216605   2.577   1.563   1.109
 5236SOL     OW16606   3.215   5.205   2.354
 5236SOL    HW116607   3.118   5.202   2.378
 5236SOL    HW216608   3.267   5.243   2.430
 5237SOL     OW16609   1.745   2.359   4.274
 5237SOL    HW116610   1.803   2.337   4.195
 5237SOL    HW216611   1.780   2.441   4.319
 5238SOL     OW16612   1.252   4.927   2.779
 5238SOL    HW116613   1.155   4.916   2.757
 5238SOL    HW216614   1.302   4.844   2.752
 5239SOL     OW16615   3.021   3.602   1.353
 5239SOL    HW116616   3.102   3.636   1.304
 5239SOL    HW216617   2.993   3.669   1.421
 5240SOL     OW16618   2.753   2.958   6.050
 5240SOL    HW116619   2.824   2.971   6.119
 5240SOL    HW216620   2.674   2.911   6.091
 5241SOL     OW16621   1.398   5.990   2.095
 5241SOL    HW116622   1.311   6.029   2.126
 5241SOL    HW216623   1.432   6.043   2.017
 5242SOL     OW16624   4.956   1.011   0.855
 5242SOL    HW116625   4.922   1.008   0.949
 5242SOL    HW216626   4.961   1.107   0.824
 5243SOL     OW16627   2.095   6.057   1.641
 5243SOL    HW116628   2.127   6.103   1.724
 5243SOL    HW216629   2.066   6.125   1.574
 5244SOL     OW16630   5.003   3.493   0.753
 5244SOL    HW116631   4.951   3.463   0.673
 5244SOL    HW216632   5.079   3.550   0.724
 5245SOL     OW16633   4.280   4.182   0.290
 5245SOL    HW116634   4.296   4.262   0.232
 5245SOL    HW216635   4.367   4.143   0.318
 5246SOL     OW16636   6.613   2.760   2.022
 5246SOL    HW116637   6.576   2.851   2.005
 5246SOL    HW216638   6.643   2.753   2.117
 5247SOL     OW16639   3.601   1.588   5.495
 5247SOL    HW116640   3.642   1.667   5.539
 5247SOL    HW216641   3.648   1.505   5.525
 5248SOL     OW16642   6.926   1.787   2.645
 5248SOL    HW116643   6.851   1.726   2.671
 5248SOL    HW216644   6.891   1.859   2.585
 5249SOL     OW16645   1.218   4.724   0.511
 5249SOL    HW116646   1.125   4.689   0.502
 5249SOL    HW216647   1.229   4.806   0.454
 5250SOL     OW16648   1.939   5.634   0.073
 5250SOL    HW116649   1.970   5.563   0.010
 5250SOL    HW216650   1.925   5.595   0.164
 5251SOL     OW16651   1.360   4.166   1.498
 5251SOL    HW116652   1.317   4.079   1.521
 5251SOL    HW216653   1.302   4.216   1.433
 5252SOL     OW16654   3.347   6.636   2.225
 5252SOL    HW116655   3.297   6.663   2.142
 5252SOL    HW216656   3.296   6.565   2.273
 5253SOL     OW16657   5.692   4.744   4.837
 5253SOL    HW116658   5.747   4.661   4.846
 5253SOL    HW216659   5.656   4.770   4.927
 5254SOL     OW16660   5.693   0.084   2.970
 5254SOL    HW116661   5.630   0.055   3.042
 5254SOL    HW216662   5.698   0.184   2.968
 5255SOL     OW16663   5.501   2.026   4.508
 5255SOL    HW116664   5.474   2.074   4.425
 5255SOL    HW216665   5.545   1.940   4.483
 5256SOL     OW16666   4.569   0.989   3.089
 5256SOL    HW116667   4.508   1.045   3.031
 5256SOL    HW216668   4.562   1.020   3.184
 5257SOL     OW16669   4.032   0.463   6.829
 5257SOL    HW116670   4.065   0.398   6.897
 5257SOL    HW216671   4.077   0.446   6.742
 5258SOL     OW16672   5.632   1.397   2.619
 5258SOL    HW116673   5.610   1.487   2.657
 5258SOL    HW216674   5.636   1.329   2.693
 5259SOL     OW16675   5.037   5.449   2.993
 5259SOL    HW116676   5.025   5.405   3.082
 5259SOL    HW216677   5.075   5.382   2.928
 5260SOL     OW16678   2.856   5.755   0.166
 5260SOL    HW116679   2.764   5.771   0.202
 5260SOL    HW216680   2.911   5.839   0.175
 5261SOL     OW16681   6.946   5.184   0.950
 5261SOL    HW116682   7.025   5.193   1.010
 5261SOL    HW216683   6.866   5.153   1.003
 5262SOL     OW16684   2.210   0.467   2.834
 5262SOL    HW116685   2.279   0.448   2.764
 5262SOL    HW216686   2.140   0.395   2.832
 5263SOL     OW16687   1.453   0.807   3.449
 5263SOL    HW116688   1.481   0.848   3.362
 5263SOL    HW216689   1.383   0.738   3.432
 5264SOL     OW16690   6.631   2.127   1.785
 5264SOL    HW116691   6.553   2.083   1.828
 5264SOL    HW216692   6.660   2.074   1.706
 5265SOL     OW16693   5.565   2.597   4.657
 5265SOL    HW116694   5.526   2.506   4.673
 5265SOL    HW216695   5.499   2.654   4.609
 5266SOL     OW16696   2.329   6.507   0.706
 5266SOL    HW116697   2.263   6.499   0.780
 5266SOL    HW216698   2.411   6.554   0.738
 5267SOL     OW16699   4.466   2.488   4.367
 5267SOL    HW116700   4.470   2.488   4.267
 5267SOL    HW216701   4.523   2.563   4.402
 5268SOL     OW16702   5.513   0.941   6.906
 5268SOL    HW116703   5.586   0.967   6.843
 5268SOL    HW216704   5.490   0.844   6.892
 5269SOL     OW16705   0.525   6.626   2.285
 5269SOL    HW116706   0.458   6.554   2.305
 5269SOL    HW216707   0.616   6.595   2.312
 5270SOL     OW16708   6.212   2.038   0.482
 5270SOL    HW116709   6.124   2.062   0.442
 5270SOL    HW216710   6.229   2.095   0.562
 5271SOL     OW16711   6.166   5.290   4.836
 5271SOL    HW116712   6.254   5.302   4.790
 5271SOL    HW216713   6.135   5.196   4.825
 5272SOL     OW16714   3.876   6.552   0.728
 5272SOL    HW116715   3.826   6.591   0.651
 5272SOL    HW216716   3.812   6.513   0.794
 5273SOL     OW16717   1.093   3.345   2.673
 5273SOL    HW116718   1.189   3.374   2.675
 5273SOL    HW216719   1.046   3.381   2.754
 5274SOL     OW16720   4.592   6.728   2.349
 5274SOL    HW116721   4.593   6.722   2.249
 5274SOL    HW216722   4.678   6.694   2.385
 5275SOL     OW16723   2.805   0.253   0.841
 5275SOL    HW116724   2.807   0.348   0.809
 5275SOL    HW216725   2.717   0.234   0.885
 5276SOL     OW16726   2.272   6.514   1.792
 5276SOL    HW116727   2.255   6.486   1.698
 5276SOL    HW216728   2.246   6.610   1.804
 5277SOL     OW16729   2.756   1.126   2.488
 5277SOL    HW116730   2.764   1.169   2.398
 5277SOL    HW216731   2.786   1.031   2.482
 5278SOL     OW16732   4.013   5.113   2.633
 5278SOL    HW116733   4.071   5.053   2.578
 5278SOL    HW216734   3.921   5.115   2.593
 5279SOL     OW16735   2.836   5.406   1.276
 5279SOL    HW116736   2.899   5.445   1.209
 5279SOL    HW216737   2.849   5.307   1.279
 5280SOL     OW16738   3.086   6.299   5.304
 5280SOL    HW116739   2.999   6.303   5.353
 5280SOL    HW216740   3.142   6.226   5.342
 5281SOL     OW16741   0.244   1.632   2.460
 5281SOL    HW116742   0.313   1.651   2.390
 5281SOL    HW216743   0.216   1.536   2.453
 5282SOL     OW16744   2.534   2.125   3.372
 5282SOL    HW116745   2.621   2.173   3.365
 5282SOL    HW216746   2.466   2.186   3.415
 5283SOL     OW16747   5.191   5.474   0.826
 5283SOL    HW116748   5.279   5.521   0.833
 5283SOL    HW216749   5.117   5.536   0.851
 5284SOL     OW16750   5.229   4.114   2.984
 5284SOL    HW116751   5.328   4.112   2.977
 5284SOL    HW216752   5.197   4.030   3.030
 5285SOL     OW16753   3.172   4.932   4.026
 5285SOL    HW116754   3.187   4.844   3.981
 5285SOL    HW216755   3.254   4.989   4.016
 5286SOL     OW16756   2.148   4.398   1.027
 5286SOL    HW116757   2.165   4.387   0.929
 5286SOL    HW216758   2.190   4.323   1.078
 5287SOL     OW16759   2.541   1.216   0.436
 5287SOL    HW116760   2.459   1.266   0.464
 5287SOL    HW216761   2.514   1.142   0.374
 5288SOL     OW16762   3.037   0.229   0.968
 5288SOL    HW116763   2.958   0.248   0.911
 5288SOL    HW216764   3.119   0.222   0.911
 5289SOL     OW16765   0.867   5.080   1.001
 5289SOL    HW116766   0.939   5.131   1.049
 5289SOL    HW216767   0.860   4.988   1.041
 5290SOL     OW16768   3.827   5.753   0.003
 5290SOL    HW116769   3.829   5.717   6.939
 5290SOL    HW216770   3.908   5.721   0.053
 5291SOL     OW16771   1.932   4.890   5.692
 5291SOL    HW116772   1.989   4.864   5.614
 5291SOL    HW216773   1.988   4.894   5.775
 5292SOL     OW16774   5.009   3.151   6.565
 5292SOL    HW116775   5.041   3.242   6.593
 5292SOL    HW216776   4.966   3.105   6.643
 5293SOL     OW16777   0.819   0.382   4.317
 5293SOL    HW116778   0.727   0.418   4.332
 5293SOL    HW216779   0.866   0.437   4.248
 5294SOL     OW16780   6.066   2.968   6.117
 5294SOL    HW116781   6.124   2.888   6.101
 5294SOL    HW216782   6.002   2.979   6.041
 5295SOL     OW16783   5.946   1.051   2.987
 5295SOL    HW116784   6.013   1.020   2.919
 5295SOL    HW216785   5.880   0.978   3.005
 5296SOL     OW16786   1.847   4.434   0.701
 5296SOL    HW116787   1.794   4.371   0.758
 5296SOL    HW216788   1.807   4.526   0.709
 5297SOL     OW16789   2.201   1.205   1.176
 5297SOL    HW116790   2.185   1.293   1.221
 5297SOL    HW216791   2.121   1.146   1.189
 5298SOL     OW16792   6.647   4.857   1.062
 5298SOL    HW116793   6.672   4.953   1.053
 5298SOL    HW216794   6.656   4.828   1.157
 5299SOL     OW16795   3.187   0.788   1.584
 5299SOL    HW116796   3.097   0.784   1.628
 5299SOL    HW216797   3.176   0.810   1.487
 5300SOL     OW16798   0.401   6.570   4.014
 5300SOL    HW116799   0.357   6.487   4.049
 5300SOL    HW216800   0.477   6.595   4.073
 5301SOL     OW16801   4.436   1.592   6.819
 5301SOL    HW116802   4.425   1.552   6.910
 5301SOL    HW216803   4.389   1.535   6.752
 5302SOL     OW16804   6.362   4.355   2.703
 5302SOL    HW116805   6.434   4.350   2.634
 5302SOL    HW216806   6.369   4.277   2.765
 5303SOL     OW16807   6.500   4.502   3.863
 5303SOL    HW116808   6.431   4.474   3.796
 5303SOL    HW216809   6.455   4.541   3.943
 5304SOL     OW16810   4.697   1.797   5.749
 5304SOL    HW116811   4.726   1.754   5.834
 5304SOL    HW216812   4.718   1.736   5.672
 5305SOL     OW16813   2.507   0.985   3.361
 5305SOL    HW116814   2.526   0.906   3.419
 5305SOL    HW216815   2.408   1.002   3.358
 5306SOL     OW16816   2.824   6.060   6.292
 5306SOL    HW116817   2.917   6.024   6.302
 5306SOL    HW216818   2.806   6.079   6.196
 5307SOL     OW16819   4.749   0.055   6.484
 5307SOL    HW116820   4.786   6.998   6.449
 5307SOL    HW216821   4.707   0.106   6.410
 5308SOL     OW16822   6.861   1.230   3.292
 5308SOL    HW116823   6.931   1.163   3.268
 5308SOL    HW216824   6.853   1.298   3.219
 5309SOL     OW16825   3.846   3.757   4.036
 5309SOL    HW116826   3.751   3.727   4.049
 5309SOL    HW216827   3.850   3.817   3.956
 5310SOL     OW16828   5.426   1.854   1.474
 5310SOL    HW116829   5.344   1.906   1.450
 5310SOL    HW216830   5.402   1.759   1.493
 5311SOL     OW16831   1.778   5.356   6.849
 5311SOL    HW116832   1.773   5.456   6.841
 5311SOL    HW216833   1.689   5.316   6.827
 5312SOL     OW16834   0.891   4.118   3.058
 5312SOL    HW116835   0.955   4.089   2.986
 5312SOL    HW216836   0.942   4.135   3.142
 5313SOL     OW16837   1.082   5.906   6.489
 5313SOL    HW116838   1.063   5.994   6.446
 5313SOL    HW216839   1.101   5.920   6.586
 5314SOL     OW16840   4.150   5.467   0.027
 5314SOL    HW116841   4.095   5.463   6.973
 5314SOL    HW216842   4.245   5.487   0.003
 5315SOL     OW16843   6.124   3.227   2.012
 5315SOL    HW116844   6.043   3.252   2.065
 5315SOL    HW216845   6.147   3.301   1.949
 5316SOL     OW16846   6.923   4.643   4.275
 5316SOL    HW116847   6.873   4.561   4.301
 5316SOL    HW216848   6.966   4.684   4.355
 5317SOL     OW16849   5.145   0.146   2.450
 5317SOL    HW116850   5.147   0.057   2.494
 5317SOL    HW216851   5.186   0.139   2.359
 5318SOL     OW16852   0.315   2.840   4.293
 5318SOL    HW116853   0.277   2.748   4.289
 5318SOL    HW216854   0.242   2.908   4.297
 5319SOL     OW16855   4.934   0.426   0.494
 5319SOL    HW116856   4.920   0.360   0.568
 5319SOL    HW216857   5.030   0.452   0.491
 5320SOL     OW16858   5.682   3.746   6.462
 5320SOL    HW116859   5.679   3.648   6.482
 5320SOL    HW216860   5.768   3.784   6.497
 5321SOL     OW16861   1.589   5.521   5.610
 5321SOL    HW116862   1.613   5.535   5.706
 5321SOL    HW216863   1.589   5.423   5.590
 5322SOL     OW16864   3.471   5.253   6.298
 5322SOL    HW116865   3.406   5.262   6.223
 5322SOL    HW216866   3.432   5.195   6.369
 5323SOL     OW16867   4.495   1.988   0.420
 5323SOL    HW116868   4.488   1.917   0.351
 5323SOL    HW216869   4.427   2.060   0.402
 5324SOL     OW16870   4.094   3.035   1.763
 5324SOL    HW116871   4.178   3.014   1.713
 5324SOL    HW216872   4.039   2.952   1.774
 5325SOL     OW16873   5.337   6.511   2.234
 5325SOL    HW116874   5.328   6.557   2.322
 5325SOL    HW216875   5.399   6.433   2.243
 5326SOL     OW16876   6.866   5.982   1.499
 5326SOL    HW116877   6.914   6.003   1.413
 5326SOL    HW216878   6.792   5.918   1.480
 5327SOL     OW16879   6.254   6.903   4.135
 5327SOL    HW116880   6.256   6.980   4.198
 5327SOL    HW216881   6.340   6.852   4.142
 5328SOL     OW16882   3.709   3.994   0.386
 5328SOL    HW116883   3.646   4.024   0.457
 5328SOL    HW216884   3.791   4.050   0.388
 5329SOL     OW16885   0.537   4.455   0.826
 5329SOL    HW116886   0.482   4.390   0.878
 5329SOL    HW216887   0.515   4.447   0.729
 5330SOL     OW16888   3.762   4.177   1.207
 5330SOL    HW116889   3.812   4.235   1.272
 5330SOL    HW216890   3.789   4.201   1.114
 5331SOL     OW16891   4.745   2.492   0.411
 5331SOL    HW116892   4.657   2.470   0.368
 5331SOL    HW216893   4.730   2.525   0.504
 5332SOL     OW16894   6.065   4.336   0.336
 5332SOL    HW116895   6.105   4.427   0.324
 5332SOL    HW216896   6.107   4.272   0.271
 5333SOL     OW16897   1.944   0.859   3.568
 5333SOL    HW116898   2.040   0.846   3.593
 5333SOL    HW216899   1.925   0.957   3.561
 5334SOL     OW16900   4.413   4.552   2.951
 5334SOL    HW116901   4.504   4.560   2.909
 5334SOL    HW216902   4.366   4.473   2.913
 5335SOL     OW16903   0.008   4.791   1.395
 5335SOL    HW116904   0.022   4.773   1.492
 5335SOL    HW216905   0.021   4.888   1.377
 5336SOL     OW16906   1.825   1.979   4.018
 5336SOL    HW116907   1.749   2.028   3.975
 5336SOL    HW216908   1.825   1.998   4.117
 5337SOL     OW16909   0.110   4.571   1.236
 5337SOL    HW116910   0.022   4.527   1.218
 5337SOL    HW216911   0.098   4.642   1.305
 5338SOL     OW16912   6.732   3.556   0.833
 5338SOL    HW116913   6.802   3.621   0.804
 5338SOL    HW216914   6.719   3.487   0.762
 5339SOL     OW16915   5.727   2.766   2.713
 5339SOL    HW116916   5.688   2.742   2.624
 5339SOL    HW216917   5.766   2.684   2.755
 5340SOL     OW16918   5.616   2.662   2.485
 5340SOL    HW116919   5.612   2.736   2.419
 5340SOL    HW216920   5.653   2.580   2.440
 5341SOL     OW16921   4.660   5.390   3.667
 5341SOL    HW116922   4.564   5.404   3.691
 5341SOL    HW216923   4.673   5.408   3.569
 5342SOL     OW16924   5.885   0.088   4.812
 5342SOL    HW116925   5.913   0.142   4.733
 5342SOL    HW216926   5.809   0.133   4.858
 5343SOL     OW16927   4.073   3.706   5.571
 5343SOL    HW116928   4.135   3.778   5.602
 5343SOL    HW216929   4.103   3.671   5.482
 5344SOL     OW16930   0.740   2.057   6.030
 5344SOL    HW116931   0.642   2.073   6.039
 5344SOL    HW216932   0.756   1.982   5.965
 5345SOL     OW16933   5.627   1.915   6.861
 5345SOL    HW116934   5.572   1.841   6.822
 5345SOL    HW216935   5.702   1.938   6.800
 5346SOL     OW16936   3.004   5.136   3.934
 5346SOL    HW116937   3.046   5.213   3.984
 5346SOL    HW216938   3.062   5.056   3.942
 5347SOL     OW16939   6.496   2.033   4.135
 5347SOL    HW116940   6.527   2.121   4.099
 5347SOL    HW216941   6.567   1.994   4.194
 5348SOL     OW16942   5.399   1.858   3.677
 5348SOL    HW116943   5.358   1.793   3.614
 5348SOL    HW216944   5.498   1.860   3.662
 5349SOL     OW16945   0.446   3.452   2.389
 5349SOL    HW116946   0.450   3.386   2.464
 5349SOL    HW216947   0.514   3.428   2.319
 5350SOL     OW16948   2.223   6.428   6.203
 5350SOL    HW116949   2.127   6.440   6.228
 5350SOL    HW216950   2.277   6.412   6.286
 5351SOL     OW16951   0.509   5.279   1.823
 5351SOL    HW116952   0.453   5.220   1.764
 5351SOL    HW216953   0.520   5.236   1.912
 5352SOL     OW16954   2.196   3.594   4.404
 5352SOL    HW116955   2.158   3.584   4.495
 5352SOL    HW216956   2.285   3.638   4.409
 5353SOL     OW16957   4.630   6.095   3.114
 5353SOL    HW116958   4.558   6.152   3.153
 5353SOL    HW216959   4.608   5.998   3.128
 5354SOL     OW16960   3.546   5.484   0.551
 5354SOL    HW116961   3.540   5.486   0.451
 5354SOL    HW216962   3.580   5.395   0.581
 5355SOL     OW16963   5.019   4.924   5.378
 5355SOL    HW116964   5.115   4.946   5.363
 5355SOL    HW216965   4.966   4.948   5.297
 5356SOL     OW16966   0.133   5.102   1.495
 5356SOL    HW116967   0.061   5.150   1.545
 5356SOL    HW216968   0.213   5.161   1.487
 5357SOL     OW16969   5.018   4.527   2.090
 5357SOL    HW116970   4.955   4.452   2.109
 5357SOL    HW216971   4.978   4.588   2.021
 5358SOL     OW16972   4.512   1.793   0.676
 5358SOL    HW116973   4.591   1.844   0.710
 5358SOL    HW216974   4.496   1.818   0.581
 5359SOL     OW16975   1.712   2.041   6.622
 5359SOL    HW116976   1.747   2.043   6.528
 5359SOL    HW216977   1.710   2.134   6.659
 5360SOL     OW16978   4.968   4.605   3.250
 5360SOL    HW116979   4.890   4.577   3.195
 5360SOL    HW216980   4.985   4.536   3.321
 5361SOL     OW16981   2.715   5.852   2.502
 5361SOL    HW116982   2.781   5.796   2.452
 5361SOL    HW216983   2.763   5.919   2.558
 5362SOL     OW16984   5.802   0.311   1.459
 5362SOL    HW116985   5.899   0.307   1.435
 5362SOL    HW216986   5.755   0.374   1.397
 5363SOL     OW16987   5.614   5.346   5.053
 5363SOL    HW116988   5.706   5.381   5.035
 5363SOL    HW216989   5.589   5.280   4.982
 5364SOL     OW16990   4.781   0.957   2.318
 5364SOL    HW116991   4.751   0.885   2.256
 5364SOL    HW216992   4.703   0.989   2.372
 5365SOL     OW16993   3.317   2.908   4.327
 5365SOL    HW116994   3.291   2.860   4.244
 5365SOL    HW216995   3.382   2.981   4.305
 5366SOL     OW16996   6.202   6.509   1.817
 5366SOL    HW116997   6.220   6.457   1.733
 5366SOL    HW216998   6.289   6.541   1.855
 5367SOL     OW16999   6.453   6.155   1.529
 5367SOL    HW117000   6.553   6.152   1.535
 5367SOL    HW217001   6.424   6.135   1.436
 5368SOL     OW17002   6.841   5.844   3.695
 5368SOL    HW117003   6.888   5.816   3.779
 5368SOL    HW217004   6.755   5.794   3.688
 5369SOL     OW17005   2.937   6.244   2.270
 5369SOL    HW117006   2.869   6.298   2.219
 5369SOL    HW217007   2.937   6.150   2.237
 5370SOL     OW17008   2.757   3.961   1.605
 5370SOL    HW117009   2.718   3.898   1.538
 5370SOL    HW217010   2.688   4.028   1.633
 5371SOL     OW17011   6.543   5.266   5.094
 5371SOL    HW117012   6.508   5.261   5.001
 5371SOL    HW217013   6.467   5.260   5.159
 5372SOL     OW17014   0.766   0.209   2.483
 5372SOL    HW117015   0.679   0.226   2.529
 5372SOL    HW217016   0.775   0.271   2.405
 5373SOL     OW17017   3.483   0.823   6.646
 5373SOL    HW117018   3.449   0.880   6.721
 5373SOL    HW217019   3.471   0.726   6.670
 5374SOL     OW17020   3.079   4.857   1.738
 5374SOL    HW117021   3.131   4.874   1.822
 5374SOL    HW217022   2.996   4.912   1.740
 5375SOL     OW17023   1.244   5.488   4.988
 5375SOL    HW117024   1.184   5.433   4.930
 5375SOL    HW217025   1.204   5.495   5.080
 5376SOL     OW17026   0.264   1.626   6.485
 5376SOL    HW117027   0.197   1.625   6.559
 5376SOL    HW217028   0.352   1.592   6.519
 5377SOL     OW17029   2.370   0.528   3.031
 5377SOL    HW117030   2.305   0.539   2.956
 5377SOL    HW217031   2.438   0.601   3.027
 5378SOL     OW17032   5.928   1.100   2.109
 5378SOL    HW117033   5.957   1.104   2.013
 5378SOL    HW217034   5.932   1.005   2.141
 5379SOL     OW17035   1.170   3.137   6.267
 5379SOL    HW117036   1.269   3.143   6.255
 5379SOL    HW217037   1.132   3.229   6.280
 5380SOL     OW17038   4.476   0.001   0.818
 5380SOL    HW117039   4.400   6.984   0.772
 5380SOL    HW217040   4.553   6.967   0.826
 5381SOL     OW17041   4.444   6.270   3.400
 5381SOL    HW117042   4.403   6.256   3.310
 5381SOL    HW217043   4.509   6.346   3.395
 5382SOL     OW17044   4.066   1.955   1.553
 5382SOL    HW117045   4.069   1.902   1.638
 5382SOL    HW217046   4.065   2.053   1.575
 5383SOL     OW17047   2.244   2.784   4.237
 5383SOL    HW117048   2.175   2.746   4.175
 5383SOL    HW217049   2.199   2.829   4.314
 5384SOL     OW17050   5.116   5.704   5.300
 5384SOL    HW117051   5.202   5.746   5.269
 5384SOL    HW217052   5.059   5.684   5.221
 5385SOL     OW17053   4.906   2.690   5.670
 5385SOL    HW117054   4.973   2.708   5.597
 5385SOL    HW217055   4.844   2.768   5.679
 5386SOL     OW17056   6.225   4.389   3.999
 5386SOL    HW117057   6.244   4.484   4.022
 5386SOL    HW217058   6.199   4.339   4.082
 5387SOL     OW17059   1.907   1.689   2.469
 5387SOL    HW117060   1.858   1.604   2.488
 5387SOL    HW217061   1.845   1.754   2.424
 5388SOL     OW17062   0.563   0.074   1.921
 5388SOL    HW117063   0.652   0.037   1.897
 5388SOL    HW217064   0.492   0.005   1.908
 5389SOL     OW17065   4.273   2.023   3.862
 5389SOL    HW117066   4.342   1.959   3.895
 5389SOL    HW217067   4.214   1.978   3.796
 5390SOL     OW17068   6.905   3.241   3.896
 5390SOL    HW117069   6.951   3.159   3.863
 5390SOL    HW217070   6.815   3.217   3.932
 5391SOL     OW17071   2.258   2.596   0.617
 5391SOL    HW117072   2.188   2.647   0.566
 5391SOL    HW217073   2.332   2.570   0.556
 5392SOL     OW17074   6.158   1.956   3.543
 5392SOL    HW117075   6.146   1.940   3.641
 5392SOL    HW217076   6.081   1.918   3.493
 5393SOL     OW17077   3.680   1.880   5.529
 5393SOL    HW117078   3.767   1.832   5.529
 5393SOL    HW217079   3.653   1.901   5.435
 5394SOL     OW17080   1.435   0.588   1.354
 5394SOL    HW117081   1.358   0.536   1.316
 5394SOL    HW217082   1.406   0.681   1.374
 5395SOL     OW17083   5.752   1.651   1.101
 5395SOL    HW117084   5.679   1.631   1.166
 5395SOL    HW217085   5.757   1.750   1.085
 5396SOL     OW17086   5.749   5.494   3.344
 5396SOL    HW117087   5.660   5.449   3.333
 5396SOL    HW217088   5.803   5.443   3.412
 5397SOL     OW17089   6.997   1.274   2.916
 5397SOL    HW117090   6.927   1.314   2.975
 5397SOL    HW217091   0.002   1.345   2.854
 5398SOL     OW17092   5.012   1.910   3.349
 5398SOL    HW117093   4.959   1.979   3.299
 5398SOL    HW217094   5.108   1.938   3.353
 5399SOL     OW17095   2.708   0.389   6.081
 5399SOL    HW117096   2.774   0.451   6.124
 5399SOL    HW217097   2.625   0.386   6.136
 5400SOL     OW17098   3.739   3.148   1.762
 5400SOL    HW117099   3.737   3.215   1.836
 5400SOL    HW217100   3.800   3.181   1.690
 5401SOL     OW17101   5.945   4.265   1.519
 5401SOL    HW117102   6.017   4.248   1.586
 5401SOL    HW217103   5.954   4.199   1.444
 5402SOL     OW17104   1.432   0.025   0.956
 5402SOL    HW117105   1.483   0.097   1.001
 5402SOL    HW217106   1.403   0.056   0.865
 5403SOL     OW17107   5.248   3.389   0.446
 5403SOL    HW117108   5.290   3.382   0.356
 5403SOL    HW217109   5.295   3.328   0.510
 5404SOL     OW17110   6.722   1.088   1.091
 5404SOL    HW117111   6.671   1.003   1.107
 5404SOL    HW217112   6.703   1.122   0.999
 5405SOL     OW17113   5.024   6.476   6.867
 5405SOL    HW117114   4.947   6.413   6.878
 5405SOL    HW217115   5.105   6.438   6.910
 5406SOL     OW17116   2.817   0.297   3.535
 5406SOL    HW117117   2.836   0.361   3.460
 5406SOL    HW217118   2.787   0.210   3.497
 5407SOL     OW17119   1.771   0.126   2.224
 5407SOL    HW117120   1.697   0.168   2.172
 5407SOL    HW217121   1.858   0.140   2.177
 5408SOL     OW17122   3.601   2.052   4.466
 5408SOL    HW117123   3.701   2.057   4.469
 5408SOL    HW217124   3.564   2.070   4.557
 5409SOL     OW17125   1.388   2.863   0.910
 5409SOL    HW117126   1.296   2.899   0.895
 5409SOL    HW217127   1.455   2.937   0.896
 5410SOL     OW17128   0.646   2.583   0.652
 5410SOL    HW117129   0.579   2.601   0.580
 5410SOL    HW217130   0.722   2.531   0.615
 5411SOL     OW17131   3.521   4.712   6.778
 5411SOL    HW117132   3.471   4.655   6.713
 5411SOL    HW217133   3.606   4.666   6.804
 5412SOL     OW17134   0.067   2.601   6.134
 5412SOL    HW117135   0.113   2.690   6.131
 5412SOL    HW217136   0.006   2.592   6.056
 5413SOL     OW17137   0.108   6.684   4.088
 5413SOL    HW117138   0.188   6.742   4.103
 5413SOL    HW217139   0.078   6.645   4.175
 5414SOL     OW17140   6.005   3.830   5.407
 5414SOL    HW117141   6.057   3.758   5.453
 5414SOL    HW217142   5.949   3.790   5.335
 5415SOL     OW17143   3.945   0.574   0.715
 5415SOL    HW117144   3.966   0.478   0.734
 5415SOL    HW217145   3.925   0.585   0.618
 5416SOL     OW17146   3.080   5.375   6.290
 5416SOL    HW117147   3.126   5.422   6.215
 5416SOL    HW217148   3.092   5.427   6.375
 5417SOL     OW17149   4.822   5.937   3.514
 5417SOL    HW117150   4.735   5.892   3.493
 5417SOL    HW217151   4.859   5.900   3.599
 5418SOL     OW17152   6.064   3.952   4.760
 5418SOL    HW117153   6.121   3.977   4.838
 5418SOL    HW217154   6.057   4.030   4.697
 5419SOL     OW17155   4.348   6.945   6.499
 5419SOL    HW117156   4.289   7.010   6.546
 5419SOL    HW217157   4.440   6.947   6.540
 5420SOL     OW17158   0.919   0.958   1.774
 5420SOL    HW117159   0.866   1.019   1.833
 5420SOL    HW217160   0.874   0.950   1.685
 5421SOL     OW17161   3.616   5.091   2.221
 5421SOL    HW117162   3.636   5.164   2.156
 5421SOL    HW217163   3.701   5.044   2.246
 5422SOL     OW17164   2.564   6.121   4.308
 5422SOL    HW117165   2.601   6.143   4.218
 5422SOL    HW217166   2.628   6.063   4.357
 5423SOL     OW17167   5.813   6.227   2.276
 5423SOL    HW117168   5.775   6.136   2.267
 5423SOL    HW217169   5.874   6.246   2.199
 5424SOL     OW17170   4.497   3.926   5.905
 5424SOL    HW117171   4.525   3.984   5.828
 5424SOL    HW217172   4.539   3.836   5.895
 5425SOL     OW17173   0.543   3.233   5.639
 5425SOL    HW117174   0.573   3.329   5.636
 5425SOL    HW217175   0.536   3.203   5.734
 5426SOL     OW17176   5.531   5.243   2.263
 5426SOL    HW117177   5.526   5.328   2.210
 5426SOL    HW217178   5.608   5.188   2.230
 5427SOL     OW17179   4.873   2.479   6.349
 5427SOL    HW117180   4.783   2.435   6.341
 5427SOL    HW217181   4.863   2.577   6.335
 5428SOL     OW17182   6.865   5.316   3.357
 5428SOL    HW117183   6.949   5.293   3.308
 5428SOL    HW217184   6.832   5.405   3.325
 5429SOL     OW17185   2.827   6.929   3.975
 5429SOL    HW117186   2.863   7.019   3.998
 5429SOL    HW217187   2.901   6.872   3.939
 5430SOL     OW17188   2.919   3.930   6.212
 5430SOL    HW117189   2.900   3.861   6.141
 5430SOL    HW217190   3.009   3.970   6.196
 5431SOL     OW17191   3.447   4.852   6.042
 5431SOL    HW117192   3.408   4.943   6.060
 5431SOL    HW217193   3.428   4.792   6.119
 5432SOL     OW17194   5.168   4.941   0.268
 5432SOL    HW117195   5.074   4.944   0.302
 5432SOL    HW217196   5.184   4.852   0.224
 5433SOL     OW17197   1.507   6.750   0.964
 5433SOL    HW117198   1.490   6.847   0.981
 5433SOL    HW217199   1.420   6.701   0.957
 5434SOL     OW17200   5.339   0.522   4.381
 5434SOL    HW117201   5.387   0.468   4.312
 5434SOL    HW217202   5.257   0.562   4.341
 5435SOL     OW17203   6.624   3.865   0.785
 5435SOL    HW117204   6.567   3.846   0.706
 5435SOL    HW217205   6.719   3.842   0.764
 5436SOL     OW17206   1.469   4.487   3.030
 5436SOL    HW117207   1.416   4.480   3.115
 5436SOL    HW217208   1.409   4.512   2.955
 5437SOL     OW17209   3.857   5.801   1.367
 5437SOL    HW117210   3.808   5.815   1.453
 5437SOL    HW217211   3.919   5.878   1.352
 5438SOL     OW17212   4.961   4.818   2.949
 5438SOL    HW117213   4.953   4.783   2.855
 5438SOL    HW217214   4.871   4.846   2.981
 5439SOL     OW17215   1.455   5.250   1.394
 5439SOL    HW117216   1.422   5.256   1.488
 5439SOL    HW217217   1.377   5.255   1.331
 5440SOL     OW17218   5.850   5.851   3.609
 5440SOL    HW117219   5.943   5.828   3.580
 5440SOL    HW217220   5.842   5.950   3.615
 5441SOL     OW17221   5.116   2.676   3.311
 5441SOL    HW117222   5.085   2.608   3.378
 5441SOL    HW217223   5.137   2.762   3.357
 5442SOL     OW17224   4.544   6.630   4.966
 5442SOL    HW117225   4.494   6.714   4.985
 5442SOL    HW217226   4.642   6.647   4.970
 5443SOL     OW17227   4.412   0.696   4.743
 5443SOL    HW117228   4.484   0.751   4.785
 5443SOL    HW217229   4.366   0.749   4.671
 5444SOL     OW17230   6.365   0.925   4.826
 5444SOL    HW117231   6.266   0.939   4.816
 5444SOL    HW217232   6.392   0.939   4.921
 5445SOL     OW17233   5.501   5.341   5.729
 5445SOL    HW117234   5.506   5.278   5.806
 5445SOL    HW217235   5.464   5.294   5.649
 5446SOL     OW17236   0.713   4.708   6.222
 5446SOL    HW117237   0.618   4.681   6.203
 5446SOL    HW217238   0.774   4.631   6.203
 5447SOL     OW17239   1.074   1.295   6.930
 5447SOL    HW117240   1.096   1.214   6.985
 5447SOL    HW217241   1.096   1.377   6.982
 5448SOL     OW17242   4.451   5.595   3.343
 5448SOL    HW117243   4.388   5.541   3.399
 5448SOL    HW217244   4.431   5.580   3.246
 5449SOL     OW17245   2.800   2.069   1.788
 5449SOL    HW117246   2.842   1.999   1.846
 5449SOL    HW217247   2.861   2.091   1.713
 5450SOL     OW17248   3.971   5.597   1.718
 5450SOL    HW117249   3.928   5.514   1.755
 5450SOL    HW217250   3.977   5.589   1.618
 5451SOL     OW17251   0.630   0.040   3.323
 5451SOL    HW117252   0.634   0.135   3.356
 5451SOL    HW217253   0.554   0.031   3.258
 5452SOL     OW17254   1.977   4.958   2.033
 5452SOL    HW117255   1.984   4.922   2.126
 5452SOL    HW217256   1.913   5.035   2.032
 5453SOL     OW17257   5.599   4.213   3.272
 5453SOL    HW117258   5.502   4.237   3.268
 5453SOL    HW217259   5.619   4.166   3.358
 5454SOL     OW17260   5.583   5.485   3.727
 5454SOL    HW117261   5.506   5.535   3.766
 5454SOL    HW217262   5.630   5.542   3.659
 5455SOL     OW17263   1.009   1.856   3.196
 5455SOL    HW117264   0.993   1.952   3.173
 5455SOL    HW217265   1.082   1.851   3.265
 5456SOL     OW17266   5.963   1.011   0.309
 5456SOL    HW117267   5.936   0.986   0.402
 5456SOL    HW217268   6.059   0.985   0.295
 5457SOL     OW17269   6.018   2.759   0.240
 5457SOL    HW117270   6.107   2.767   0.195
 5457SOL    HW217271   5.983   2.666   0.226
 5458SOL     OW17272   6.432   4.785   0.944
 5458SOL    HW117273   6.521   4.812   0.979
 5458SOL    HW217274   6.382   4.866   0.913
 5459SOL     OW17275   2.113   3.754   5.421
 5459SOL    HW117276   2.158   3.728   5.506
 5459SOL    HW217277   2.043   3.686   5.399
 5460SOL     OW17278   2.056   0.188   0.141
 5460SOL    HW117279   2.070   0.205   0.044
 5460SOL    HW217280   2.061   0.275   0.191
 5461SOL     OW17281   6.660   1.337   5.987
 5461SOL    HW117282   6.655   1.432   5.958
 5461SOL    HW217283   6.750   1.319   6.026
 5462SOL     OW17284   5.549   5.591   0.125
 5462SOL    HW117285   5.485   5.584   0.048
 5462SOL    HW217286   5.633   5.636   0.095
 5463SOL     OW17287   0.135   3.052   6.817
 5463SOL    HW117288   0.158   3.022   6.724
 5463SOL    HW217289   0.126   3.151   6.818
 5464SOL     OW17290   0.009   6.100   5.211
 5464SOL    HW117291   0.037   6.174   5.151
 5464SOL    HW217292   6.949   6.121   5.251
 5465SOL     OW17293   6.795   6.219   3.488
 5465SOL    HW117294   6.883   6.195   3.448
 5465SOL    HW217295   6.723   6.165   3.444
 5466SOL     OW17296   5.849   2.761   5.614
 5466SOL    HW117297   5.879   2.698   5.685
 5466SOL    HW217298   5.811   2.710   5.537
 5467SOL     OW17299   5.545   3.562   4.091
 5467SOL    HW117300   5.602   3.484   4.064
 5467SOL    HW217301   5.583   3.603   4.175
 5468SOL     OW17302   0.158   1.137   2.098
 5468SOL    HW117303   0.086   1.189   2.144
 5468SOL    HW217304   0.226   1.200   2.060
 5469SOL     OW17305   2.352   1.023   5.333
 5469SOL    HW117306   2.368   1.108   5.383
 5469SOL    HW217307   2.258   1.021   5.300
 5470SOL     OW17308   3.708   5.217   4.222
 5470SOL    HW117309   3.678   5.134   4.269
 5470SOL    HW217310   3.635   5.285   4.226
 5471SOL     OW17311   5.005   0.211   3.191
 5471SOL    HW117312   4.951   0.190   3.110
 5471SOL    HW217313   5.027   0.308   3.192
 5472SOL     OW17314   2.660   1.703   6.458
 5472SOL    HW117315   2.606   1.619   6.451
 5472SOL    HW217316   2.660   1.749   6.369
 5473SOL     OW17317   2.769   4.219   1.380
 5473SOL    HW117318   2.777   4.312   1.346
 5473SOL    HW217319   2.774   4.219   1.480
 5474SOL     OW17320   0.264   5.327   3.669
 5474SOL    HW117321   0.307   5.276   3.744
 5474SOL    HW217322   0.237   5.417   3.702
 5475SOL     OW17323   0.022   2.400   5.727
 5475SOL    HW117324   7.012   2.308   5.730
 5475SOL    HW217325   0.121   2.395   5.742
 5476SOL     OW17326   2.508   6.341   6.586
 5476SOL    HW117327   2.592   6.382   6.550
 5476SOL    HW217328   2.449   6.312   6.510
 5477SOL     OW17329   2.181   5.752   4.125
 5477SOL    HW117330   2.181   5.653   4.118
 5477SOL    HW217331   2.099   5.782   4.173
 5478SOL     OW17332   5.376   4.654   6.411
 5478SOL    HW117333   5.467   4.641   6.451
 5478SOL    HW217334   5.358   4.752   6.402
 5479SOL     OW17335   3.405   2.036   4.703
 5479SOL    HW117336   3.414   2.088   4.788
 5479SOL    HW217337   3.335   1.966   4.714
 5480SOL     OW17338   6.166   4.115   4.988
 5480SOL    HW117339   6.169   4.093   5.085
 5480SOL    HW217340   6.080   4.162   4.967
 5481SOL     OW17341   4.735   1.021   6.466
 5481SOL    HW117342   4.640   1.004   6.489
 5481SOL    HW217343   4.745   1.115   6.433
 5482SOL     OW17344   4.121   3.405   1.784
 5482SOL    HW117345   4.214   3.367   1.792
 5482SOL    HW217346   4.061   3.337   1.742
 5483SOL     OW17347   6.841   4.032   5.911
 5483SOL    HW117348   6.804   4.067   5.825
 5483SOL    HW217349   6.802   4.083   5.988
 5484SOL     OW17350   6.690   6.401   4.012
 5484SOL    HW117351   6.656   6.312   3.981
 5484SOL    HW217352   6.788   6.394   4.033
 5485SOL     OW17353   3.942   0.009   5.448
 5485SOL    HW117354   4.017   6.973   5.460
 5485SOL    HW217355   3.919   0.016   5.350
 5486SOL     OW17356   1.065   0.761   3.111
 5486SOL    HW117357   1.013   0.683   3.076
 5486SOL    HW217358   1.040   0.843   3.061
 5487SOL     OW17359   6.387   4.811   0.367
 5487SOL    HW117360   6.483   4.834   0.380
 5487SOL    HW217361   6.378   4.712   0.356
 5488SOL     OW17362   5.070   2.335   6.436
 5488SOL    HW117363   5.101   2.273   6.363
 5488SOL    HW217364   4.992   2.389   6.402
 5489SOL     OW17365   1.638   4.920   2.684
 5489SOL    HW117366   1.558   4.918   2.624
 5489SOL    HW217367   1.616   4.974   2.766
 5490SOL     OW17368   3.116   0.987   0.430
 5490SOL    HW117369   3.065   0.989   0.516
 5490SOL    HW217370   3.057   0.954   0.356
 5491SOL     OW17371   1.884   4.768   0.438
 5491SOL    HW117372   1.818   4.697   0.462
 5491SOL    HW217373   1.976   4.737   0.460
 5492SOL     OW17374   0.964   2.482   6.426
 5492SOL    HW117375   1.037   2.436   6.375
 5492SOL    HW217376   1.002   2.526   6.507
 5493SOL     OW17377   3.659   3.103   6.071
 5493SOL    HW117378   3.705   3.147   6.148
 5493SOL    HW217379   3.599   3.169   6.026
 5494SOL     OW17380   6.459   3.745   1.594
 5494SOL    HW117381   6.498   3.664   1.637
 5494SOL    HW217382   6.473   3.740   1.495
 5495SOL     OW17383   4.112   3.817   2.167
 5495SOL    HW117384   4.086   3.727   2.203
 5495SOL    HW217385   4.210   3.816   2.144
 5496SOL     OW17386   3.306   6.035   2.238
 5496SOL    HW117387   3.376   6.096   2.202
 5496SOL    HW217388   3.218   6.056   2.193
 5497SOL     OW17389   0.490   1.374   3.116
 5497SOL    HW117390   0.505   1.345   3.021
 5497SOL    HW217391   0.456   1.296   3.169
 5498SOL     OW17392   4.442   1.501   5.579
 5498SOL    HW117393   4.470   1.495   5.675
 5498SOL    HW217394   4.459   1.413   5.533
 5499SOL     OW17395   6.821   1.707   3.158
 5499SOL    HW117396   6.723   1.723   3.164
 5499SOL    HW217397   6.861   1.767   3.089
 5500SOL     OW17398   2.268   5.318   0.858
 5500SOL    HW117399   2.324   5.292   0.937
 5500SOL    HW217400   2.301   5.270   0.777
 5501SOL     OW17401   2.509   0.357   2.229
 5501SOL    HW117402   2.504   0.428   2.300
 5501SOL    HW217403   2.553   0.275   2.267
 5502SOL     OW17404   6.143   4.122   5.953
 5502SOL    HW117405   6.229   4.109   6.002
 5502SOL    HW217406   6.155   4.094   5.858
 5503SOL     OW17407   1.317   4.450   3.260
 5503SOL    HW117408   1.258   4.529   3.278
 5503SOL    HW217409   1.288   4.374   3.318
 5504SOL     OW17410   3.198   1.870   4.791
 5504SOL    HW117411   3.136   1.818   4.849
 5504SOL    HW217412   3.224   1.815   4.712
 5505SOL     OW17413   2.717   5.599   5.192
 5505SOL    HW117414   2.701   5.688   5.148
 5505SOL    HW217415   2.800   5.559   5.155
 5506SOL     OW17416   6.536   0.719   4.937
 5506SOL    HW117417   6.480   0.672   5.006
 5506SOL    HW217418   6.475   0.762   4.869
 5507SOL     OW17419   2.913   6.763   3.714
 5507SOL    HW117420   2.826   6.811   3.706
 5507SOL    HW217421   2.898   6.665   3.703
 5508SOL     OW17422   2.288   0.572   6.238
 5508SOL    HW117423   2.334   0.631   6.305
 5508SOL    HW217424   2.293   0.614   6.148
 5509SOL     OW17425   5.918   6.498   0.236
 5509SOL    HW117426   6.000   6.458   0.195
 5509SOL    HW217427   5.942   6.583   0.283
 5510SOL     OW17428   4.607   0.210   6.292
 5510SOL    HW117429   4.633   0.295   6.248
 5510SOL    HW217430   4.508   0.198   6.284
 5511SOL     OW17431   0.149   0.650   2.433
 5511SOL    HW117432   0.114   0.733   2.476
 5511SOL    HW217433   0.111   0.570   2.479
 5512SOL     OW17434   0.534   1.822   0.016
 5512SOL    HW117435   0.457   1.786   0.069
 5512SOL    HW217436   0.565   1.753   6.980
 5513SOL     OW17437   4.550   4.500   4.788
 5513SOL    HW117438   4.571   4.405   4.809
 5513SOL    HW217439   4.480   4.533   4.851
 5514SOL     OW17440   5.750   4.949   2.797
 5514SOL    HW117441   5.756   4.859   2.840
 5514SOL    HW217442   5.705   5.013   2.859
 5515SOL     OW17443   6.655   2.558   2.372
 5515SOL    HW117444   6.698   2.543   2.461
 5515SOL    HW217445   6.618   2.471   2.338
 5516SOL     OW17446   1.277   2.734   6.771
 5516SOL    HW117447   1.355   2.744   6.832
 5516SOL    HW217448   1.275   2.811   6.707
 5517SOL     OW17449   2.951   1.926   1.164
 5517SOL    HW117450   3.039   1.972   1.166
 5517SOL    HW217451   2.882   1.984   1.208
 5518SOL     OW17452   5.291   4.921   6.320
 5518SOL    HW117453   5.263   4.909   6.224
 5518SOL    HW217454   5.267   5.014   6.349
 5519SOL     OW17455   5.531   3.563   3.791
 5519SOL    HW117456   5.581   3.485   3.753
 5519SOL    HW217457   5.517   3.548   3.889
 5520SOL     OW17458   1.652   3.449   2.924
 5520SOL    HW117459   1.626   3.371   2.867
 5520SOL    HW217460   1.589   3.456   3.001
 5521SOL     OW17461   5.154   6.308   2.145
 5521SOL    HW117462   5.128   6.243   2.217
 5521SOL    HW217463   5.209   6.381   2.185
 5522SOL     OW17464   2.522   3.310   1.724
 5522SOL    HW117465   2.443   3.366   1.751
 5522SOL    HW217466   2.605   3.349   1.762
 5523SOL     OW17467   3.290   0.036   2.696
 5523SOL    HW117468   3.377   0.003   2.659
 5523SOL    HW217469   3.261   7.006   2.772
 5524SOL     OW17470   0.896   5.141   4.972
 5524SOL    HW117471   0.901   5.044   4.994
 5524SOL    HW217472   0.981   5.186   5.000
 5525SOL     OW17473   6.610   5.045   6.966
 5525SOL    HW117474   6.620   5.098   0.020
 5525SOL    HW217475   6.557   4.962   6.984
 5526SOL     OW17476   6.097   3.374   3.185
 5526SOL    HW117477   6.117   3.334   3.095
 5526SOL    HW217478   6.003   3.407   3.186
 5527SOL     OW17479   1.021   2.824   1.535
 5527SOL    HW117480   1.075   2.765   1.475
 5527SOL    HW217481   0.977   2.768   1.605
 5528SOL     OW17482   0.346   2.514   4.917
 5528SOL    HW117483   0.426   2.468   4.877
 5528SOL    HW217484   0.314   2.461   4.996
 5529SOL     OW17485   2.504   1.041   4.724
 5529SOL    HW117486   2.410   1.007   4.715
 5529SOL    HW217487   2.527   1.051   4.821
 5530SOL     OW17488   0.139   2.280   0.543
 5530SOL    HW117489   0.178   2.190   0.522
 5530SOL    HW217490   0.051   2.290   0.497
 5531SOL     OW17491   4.069   3.215   4.741
 5531SOL    HW117492   4.009   3.175   4.672
 5531SOL    HW217493   4.137   3.148   4.770
 5532SOL     OW17494   1.519   1.013   0.456
 5532SOL    HW117495   1.614   0.986   0.448
 5532SOL    HW217496   1.475   1.011   0.366
 5533SOL     OW17497   3.195   0.793   2.967
 5533SOL    HW117498   3.154   0.866   3.021
 5533SOL    HW217499   3.162   0.799   2.873
 5534SOL     OW17500   1.237   3.694   6.549
 5534SOL    HW117501   1.298   3.615   6.545
 5534SOL    HW217502   1.267   3.764   6.484
 5535SOL     OW17503   6.541   2.967   3.326
 5535SOL    HW117504   6.452   2.957   3.282
 5535SOL    HW217505   6.528   3.009   3.416
 5536SOL     OW17506   2.404   0.642   4.300
 5536SOL    HW117507   2.441   0.710   4.237
 5536SOL    HW217508   2.368   0.688   4.381
 5537SOL     OW17509   3.701   0.185   5.258
 5537SOL    HW117510   3.635   0.197   5.184
 5537SOL    HW217511   3.783   0.140   5.224
 5538SOL     OW17512   3.940   0.917   5.766
 5538SOL    HW117513   3.901   0.842   5.712
 5538SOL    HW217514   3.989   0.879   5.845
 5539SOL     OW17515   0.885   1.282   1.619
 5539SOL    HW117516   0.807   1.297   1.680
 5539SOL    HW217517   0.880   1.189   1.581
 5540SOL     OW17518   5.113   2.831   1.205
 5540SOL    HW117519   5.078   2.817   1.297
 5540SOL    HW217520   5.108   2.929   1.182
 5541SOL     OW17521   5.527   3.619   5.566
 5541SOL    HW117522   5.440   3.644   5.609
 5541SOL    HW217523   5.510   3.561   5.487
 5542SOL     OW17524   5.239   5.094   6.627
 5542SOL    HW117525   5.161   5.032   6.617
 5542SOL    HW217526   5.279   5.112   6.537
 5543SOL     OW17527   2.388   5.849   6.632
 5543SOL    HW117528   2.368   5.752   6.643
 5543SOL    HW217529   2.382   5.875   6.536
 5544SOL     OW17530   5.234   5.224   6.148
 5544SOL    HW117531   5.232   5.290   6.072
 5544SOL    HW217532   5.158   5.161   6.139
 5545SOL     OW17533   4.158   1.486   2.855
 5545SOL    HW117534   4.138   1.542   2.935
 5545SOL    HW217535   4.079   1.486   2.794
 5546SOL     OW17536   0.949   6.305   4.446
 5546SOL    HW117537   0.970   6.215   4.485
 5546SOL    HW217538   0.894   6.357   4.511
 5547SOL     OW17539   4.055   1.742   5.809
 5547SOL    HW117540   3.984   1.806   5.838
 5547SOL    HW217541   4.022   1.648   5.823
 5548SOL     OW17542   6.792   4.126   5.459
 5548SOL    HW117543   6.732   4.142   5.537
 5548SOL    HW217544   6.788   4.030   5.433
 5549SOL     OW17545   4.106   3.144   1.371
 5549SOL    HW117546   4.142   3.144   1.278
 5549SOL    HW217547   4.176   3.180   1.433
 5550SOL     OW17548   2.361   4.322   3.282
 5550SOL    HW117549   2.407   4.404   3.246
 5550SOL    HW217550   2.429   4.252   3.304
 5551SOL     OW17551   1.519   5.682   2.589
 5551SOL    HW117552   1.520   5.640   2.498
 5551SOL    HW217553   1.464   5.765   2.587
 5552SOL     OW17554   6.487   6.722   5.940
 5552SOL    HW117555   6.394   6.758   5.946
 5552SOL    HW217556   6.496   6.668   5.856
 5553SOL     OW17557   4.516   0.261   6.771
 5553SOL    HW117558   4.483   0.330   6.835
 5553SOL    HW217559   4.583   0.202   6.817
 5554SOL     OW17560   4.587   3.190   1.640
 5554SOL    HW117561   4.609   3.288   1.642
 5554SOL    HW217562   4.583   3.155   1.734
 5555SOL     OW17563   0.889   4.014   2.371
 5555SOL    HW117564   0.972   3.958   2.371
 5555SOL    HW217565   0.910   4.105   2.407
 5556SOL     OW17566   6.375   1.096   4.045
 5556SOL    HW117567   6.318   1.138   4.115
 5556SOL    HW217568   6.418   1.014   4.082
 5557SOL     OW17569   3.482   5.754   1.857
 5557SOL    HW117570   3.438   5.758   1.767
 5557SOL    HW217571   3.470   5.841   1.904
 5558SOL     OW17572   3.710   3.751   0.521
 5558SOL    HW117573   3.706   3.831   0.461
 5558SOL    HW217574   3.737   3.779   0.613
 5559SOL     OW17575   1.030   0.341   2.560
 5559SOL    HW117576   1.016   0.313   2.655
 5559SOL    HW217577   0.947   0.324   2.508
 5560SOL     OW17578   0.189   5.661   2.058
 5560SOL    HW117579   0.218   5.646   1.963
 5560SOL    HW217580   0.089   5.653   2.064
 5561SOL     OW17581   2.825   0.242   5.036
 5561SOL    HW117582   2.888   0.259   5.113
 5561SOL    HW217583   2.877   0.211   4.957
 5562SOL     OW17584   4.345   4.344   0.081
 5562SOL    HW117585   4.439   4.310   0.076
 5562SOL    HW217586   4.346   4.443   0.086
 5563SOL     OW17587   2.899   5.335   2.929
 5563SOL    HW117588   2.831   5.386   2.981
 5563SOL    HW217589   2.975   5.310   2.988
 5564SOL     OW17590   4.918   6.899   6.848
 5564SOL    HW117591   4.844   6.908   6.781
 5564SOL    HW217592   5.001   6.941   6.812
 5565SOL     OW17593   4.332   3.061   6.646
 5565SOL    HW117594   4.342   3.113   6.731
 5565SOL    HW217595   4.274   3.111   6.582
 5566SOL     OW17596   2.335   4.559   0.298
 5566SOL    HW117597   2.328   4.474   0.245
 5566SOL    HW217598   2.432   4.578   0.317
 5567SOL     OW17599   0.932   3.995   1.885
 5567SOL    HW117600   0.889   4.039   1.964
 5567SOL    HW217601   0.987   3.917   1.915
 5568SOL     OW17602   4.565   0.549   3.397
 5568SOL    HW117603   4.660   0.534   3.425
 5568SOL    HW217604   4.516   0.596   3.470
 5569SOL     OW17605   2.379   1.813   3.037
 5569SOL    HW117606   2.287   1.810   2.998
 5569SOL    HW217607   2.415   1.906   3.032
 5570SOL     OW17608   6.498   3.250   3.162
 5570SOL    HW117609   6.474   3.153   3.159
 5570SOL    HW217610   6.535   3.278   3.074
 5571SOL     OW17611   6.698   5.448   1.931
 5571SOL    HW117612   6.764   5.415   1.998
 5571SOL    HW217613   6.667   5.539   1.955
 5572SOL     OW17614   1.838   4.025   4.797
 5572SOL    HW117615   1.772   3.999   4.868
 5572SOL    HW217616   1.808   4.109   4.753
 5573SOL     OW17617   1.568   5.488   5.217
 5573SOL    HW117618   1.656   5.483   5.264
 5573SOL    HW217619   1.566   5.420   5.143
 5574SOL     OW17620   0.325   3.099   0.172
 5574SOL    HW117621   0.249   3.056   0.221
 5574SOL    HW217622   0.337   3.055   0.084
 5575SOL     OW17623   6.971   0.062   0.718
 5575SOL    HW117624   6.982   0.066   0.817
 5575SOL    HW217625   6.877   0.087   0.694
 5576SOL     OW17626   1.432   3.976   2.747
 5576SOL    HW117627   1.523   3.935   2.735
 5576SOL    HW217628   1.442   4.073   2.768
 5577SOL     OW17629   2.253   2.696   0.137
 5577SOL    HW117630   2.338   2.742   0.109
 5577SOL    HW217631   2.214   2.743   0.215
 5578SOL     OW17632   3.590   4.149   2.123
 5578SOL    HW117633   3.611   4.238   2.083
 5578SOL    HW217634   3.505   4.156   2.176
 5579SOL     OW17635   0.725   3.662   1.328
 5579SOL    HW117636   0.684   3.633   1.414
 5579SOL    HW217637   0.711   3.760   1.314
 5580SOL     OW17638   4.211   2.126   6.095
 5580SOL    HW117639   4.269   2.122   6.014
 5580SOL    HW217640   4.202   2.035   6.135
 5581SOL     OW17641   1.609   0.774   1.533
 5581SOL    HW117642   1.631   0.723   1.450
 5581SOL    HW217643   1.672   0.749   1.606
 5582SOL     OW17644   2.847   4.006   6.799
 5582SOL    HW117645   2.835   4.018   6.898
 5582SOL    HW217646   2.942   4.025   6.775
 5583SOL     OW17647   4.091   1.050   2.863
 5583SOL    HW117648   4.111   1.085   2.955
 5583SOL    HW217649   4.133   0.961   2.851
 5584SOL     OW17650   6.165   3.621   4.410
 5584SOL    HW117651   6.235   3.670   4.462
 5584SOL    HW217652   6.183   3.630   4.312
 5585SOL     OW17653   5.076   5.342   3.261
 5585SOL    HW117654   5.073   5.345   3.361
 5585SOL    HW217655   5.117   5.256   3.231
 5586SOL     OW17656   0.260   4.078   5.883
 5586SOL    HW117657   0.163   4.095   5.870
 5586SOL    HW217658   0.297   4.143   5.950
 5587SOL     OW17659   4.505   0.428   0.844
 5587SOL    HW117660   4.567   0.505   0.858
 5587SOL    HW217661   4.427   0.437   0.906
 5588SOL     OW17662   2.409   5.914   3.033
 5588SOL    HW117663   2.468   5.894   2.955
 5588SOL    HW217664   2.427   6.006   3.066
 5589SOL     OW17665   6.141   4.315   6.444
 5589SOL    HW117666   6.205   4.301   6.369
 5589SOL    HW217667   6.171   4.262   6.524
 5590SOL     OW17668   6.717   6.792   3.476
 5590SOL    HW117669   6.667   6.742   3.405
 5590SOL    HW217670   6.744   6.730   3.549
 5591SOL     OW17671   6.795   2.309   1.603
 5591SOL    HW117672   6.734   2.287   1.679
 5591SOL    HW217673   6.866   2.239   1.597
 5592SOL     OW17674   2.385   5.861   3.969
 5592SOL    HW117675   2.457   5.794   3.957
 5592SOL    HW217676   2.310   5.821   4.022
 5593SOL     OW17677   6.911   3.059   6.586
 5593SOL    HW117678   6.957   3.145   6.607
 5593SOL    HW217679   6.863   3.027   6.668
 5594SOL     OW17680   4.927   0.598   4.948
 5594SOL    HW117681   4.933   0.688   4.906
 5594SOL    HW217682   4.968   0.530   4.887
 5595SOL     OW17683   0.901   1.371   4.602
 5595SOL    HW117684   0.839   1.446   4.624
 5595SOL    HW217685   0.973   1.404   4.540
 5596SOL     OW17686   4.147   6.383   2.801
 5596SOL    HW117687   4.089   6.439   2.742
 5596SOL    HW217688   4.242   6.392   2.771
 5597SOL     OW17689   4.853   2.597   4.278
 5597SOL    HW117690   4.787   2.672   4.285
 5597SOL    HW217691   4.808   2.517   4.237
 5598SOL     OW17692   5.574   3.516   4.687
 5598SOL    HW117693   5.566   3.416   4.684
 5598SOL    HW217694   5.569   3.552   4.595
 5599SOL     OW17695   1.259   1.305   4.236
 5599SOL    HW117696   1.301   1.214   4.234
 5599SOL    HW217697   1.199   1.316   4.157
 5600SOL     OW17698   0.797   1.166   1.946
 5600SOL    HW117699   0.808   1.241   2.012
 5600SOL    HW217700   0.732   1.100   1.982
 5601SOL     OW17701   2.377   0.894   5.725
 5601SOL    HW117702   2.423   0.910   5.812
 5601SOL    HW217703   2.295   0.951   5.720
 5602SOL     OW17704   6.497   1.597   0.589
 5602SOL    HW117705   6.403   1.626   0.570
 5602SOL    HW217706   6.558   1.675   0.582
 5603SOL     OW17707   5.858   2.228   6.583
 5603SOL    HW117708   5.829   2.206   6.490
 5603SOL    HW217709   5.780   2.264   6.634
 5604SOL     OW17710   6.487   2.237   4.867
 5604SOL    HW117711   6.433   2.194   4.939
 5604SOL    HW217712   6.427   2.261   4.791
 5605SOL     OW17713   0.574   0.714   4.764
 5605SOL    HW117714   0.640   0.681   4.697
 5605SOL    HW217715   0.534   0.636   4.813
 5606SOL     OW17716   4.693   6.781   0.728
 5606SOL    HW117717   4.723   6.822   0.642
 5606SOL    HW217718   4.761   6.713   0.757
 5607SOL     OW17719   5.580   0.204   2.656
 5607SOL    HW117720   5.649   0.173   2.722
 5607SOL    HW217721   5.621   0.271   2.594
 5608SOL     OW17722   4.927   0.379   5.375
 5608SOL    HW117723   4.879   0.465   5.362
 5608SOL    HW217724   5.025   0.393   5.362
 5609SOL     OW17725   2.642   5.137   1.128
 5609SOL    HW117726   2.717   5.156   1.191
 5609SOL    HW217727   2.662   5.055   1.075
 5610SOL     OW17728   4.539   6.514   0.919
 5610SOL    HW117729   4.520   6.522   0.821
 5610SOL    HW217730   4.567   6.603   0.955
 5611SOL     OW17731   0.976   5.613   2.476
 5611SOL    HW117732   1.008   5.518   2.478
 5611SOL    HW217733   0.878   5.614   2.454
 5612SOL     OW17734   3.813   1.540   6.737
 5612SOL    HW117735   3.762   1.620   6.706
 5612SOL    HW217736   3.874   1.566   6.812
 5613SOL     OW17737   5.587   3.832   3.766
 5613SOL    HW117738   5.540   3.745   3.782
 5613SOL    HW217739   5.678   3.814   3.728
 5614SOL     OW17740   4.614   2.666   4.479
 5614SOL    HW117741   4.615   2.761   4.449
 5614SOL    HW217742   4.679   2.654   4.554
 5615SOL     OW17743   0.384   1.303   4.790
 5615SOL    HW117744   0.366   1.401   4.789
 5615SOL    HW217745   0.377   1.266   4.698
 5616SOL     OW17746   2.420   1.663   4.662
 5616SOL    HW117747   2.389   1.681   4.755
 5616SOL    HW217748   2.435   1.565   4.650
 5617SOL     OW17749   2.851   0.109   6.560
 5617SOL    HW117750   2.873   0.181   6.626
 5617SOL    HW217751   2.924   0.042   6.557
 5618SOL     OW17752   6.726   4.026   3.816
 5618SOL    HW117753   6.756   4.102   3.873
 5618SOL    HW217754   6.659   4.059   3.750
 5619SOL     OW17755   2.825   3.737   6.017
 5619SOL    HW117756   2.850   3.660   6.076
 5619SOL    HW217757   2.867   3.724   5.927
 5620SOL     OW17758   3.715   3.207   0.678
 5620SOL    HW117759   3.704   3.302   0.709
 5620SOL    HW217760   3.710   3.146   0.757
 5621SOL     OW17761   0.955   2.524   5.822
 5621SOL    HW117762   0.947   2.488   5.730
 5621SOL    HW217763   0.900   2.607   5.831
 5622SOL     OW17764   4.795   0.370   5.909
 5622SOL    HW117765   4.796   0.304   5.834
 5622SOL    HW217766   4.881   0.421   5.909
 5623SOL     OW17767   1.999   5.792   6.052
 5623SOL    HW117768   1.899   5.790   6.051
 5623SOL    HW217769   2.032   5.854   5.981
 5624SOL     OW17770   0.998   4.620   3.168
 5624SOL    HW117771   1.086   4.655   3.198
 5624SOL    HW217772   0.957   4.565   3.240
 5625SOL     OW17773   6.264   1.757   4.317
 5625SOL    HW117774   6.258   1.852   4.287
 5625SOL    HW217775   6.360   1.730   4.322
 5626SOL     OW17776   2.740   6.437   4.582
 5626SOL    HW117777   2.676   6.442   4.506
 5626SOL    HW217778   2.825   6.393   4.551
 5627SOL     OW17779   1.164   5.836   7.010
 5627SOL    HW117780   1.119   5.749   7.028
 5627SOL    HW217781   1.162   5.893   0.063
 5628SOL     OW17782   1.471   2.611   6.179
 5628SOL    HW117783   1.477   2.636   6.275
 5628SOL    HW217784   1.396   2.660   6.135
 5629SOL     OW17785   3.200   3.761   2.156
 5629SOL    HW117786   3.111   3.768   2.201
 5629SOL    HW217787   3.216   3.842   2.100
 5630SOL     OW17788   1.787   4.927   0.683
 5630SOL    HW117789   1.873   4.975   0.664
 5630SOL    HW217790   1.778   4.849   0.622
 5631SOL     OW17791   4.569   1.872   6.981
 5631SOL    HW117792   4.631   1.808   6.935
 5631SOL    HW217793   4.578   1.962   6.939
 5632SOL     OW17794   3.894   2.543   5.768
 5632SOL    HW117795   3.804   2.566   5.731
 5632SOL    HW217796   3.934   2.625   5.810
 5633SOL     OW17797   5.971   3.038   4.102
 5633SOL    HW117798   6.018   2.976   4.040
 5633SOL    HW217799   5.880   3.059   4.067
 5634SOL     OW17800   2.327   5.853   5.467
 5634SOL    HW117801   2.374   5.767   5.448
 5634SOL    HW217802   2.230   5.844   5.442
 5635SOL     OW17803   2.235   3.715   5.170
 5635SOL    HW117804   2.321   3.765   5.177
 5635SOL    HW217805   2.193   3.707   5.261
 5636SOL     OW17806   3.382   0.043   3.381
 5636SOL    HW117807   3.439   0.106   3.433
 5636SOL    HW217808   3.343   7.004   3.442
 5637SOL     OW17809   5.163   6.729   3.566
 5637SOL    HW117810   5.073   6.709   3.528
 5637SOL    HW217811   5.209   6.643   3.590
 5638SOL     OW17812   5.367   4.095   1.062
 5638SOL    HW117813   5.285   4.038   1.058
 5638SOL    HW217814   5.436   4.048   1.118
 5639SOL     OW17815   0.617   0.180   6.997
 5639SOL    HW117816   0.683   0.105   6.990
 5639SOL    HW217817   0.529   0.150   6.958
 5640SOL     OW17818   2.667   1.001   3.849
 5640SOL    HW117819   2.717   1.027   3.931
 5640SOL    HW217820   2.641   1.084   3.798
 5641SOL     OW17821   0.607   5.102   5.223
 5641SOL    HW117822   0.607   5.198   5.195
 5641SOL    HW217823   0.681   5.086   5.288
 5642SOL     OW17824   2.179   6.847   6.787
 5642SOL    HW117825   2.229   6.868   6.871
 5642SOL    HW217826   2.189   6.922   6.722
 5643SOL     OW17827   4.564   1.173   4.576
 5643SOL    HW117828   4.495   1.206   4.640
 5643SOL    HW217829   4.655   1.195   4.612
 5644SOL     OW17830   3.372   0.152   5.342
 5644SOL    HW117831   3.280   0.123   5.369
 5644SOL    HW217832   3.369   0.244   5.303
 5645SOL     OW17833   6.626   3.979   3.478
 5645SOL    HW117834   6.653   4.023   3.392
 5645SOL    HW217835   6.528   3.991   3.492
 5646SOL     OW17836   1.770   5.277   2.734
 5646SOL    HW117837   1.868   5.298   2.731
 5646SOL    HW217838   1.748   5.235   2.822
 5647SOL     OW17839   4.826   6.404   1.354
 5647SOL    HW117840   4.727   6.403   1.366
 5647SOL    HW217841   4.848   6.441   1.263
 5648SOL     OW17842   1.653   6.081   3.132
 5648SOL    HW117843   1.734   6.136   3.115
 5648SOL    HW217844   1.666   6.027   3.215
 5649SOL     OW17845   1.494   6.731   3.985
 5649SOL    HW117846   1.584   6.728   3.941
 5649SOL    HW217847   1.476   6.642   4.027
 5650SOL     OW17848   1.377   4.510   1.087
 5650SOL    HW117849   1.469   4.548   1.098
 5650SOL    HW217850   1.318   4.544   1.160
 5651SOL     OW17851   1.538   0.732   0.251
 5651SOL    HW117852   1.490   0.812   0.215
 5651SOL    HW217853   1.471   0.658   0.267
 5652SOL     OW17854   6.878   5.752   1.356
 5652SOL    HW117855   6.907   5.754   1.260
 5652SOL    HW217856   6.942   5.697   1.409
 5653SOL     OW17857   0.635   5.816   0.082
 5653SOL    HW117858   0.616   5.743   0.148
 5653SOL    HW217859   0.644   5.776   7.020
 5654SOL     OW17860   1.457   5.325   4.266
 5654SOL    HW117861   1.513   5.278   4.199
 5654SOL    HW217862   1.446   5.421   4.239
 5655SOL     OW17863   0.042   2.565   3.117
 5655SOL    HW117864   0.064   2.484   3.172
 5655SOL    HW217865   0.096   2.564   3.033
 5656SOL     OW17866   6.736   4.264   6.079
 5656SOL    HW117867   6.682   4.295   6.000
 5656SOL    HW217868   6.833   4.285   6.064
 5657SOL     OW17869   4.632   4.370   5.217
 5657SOL    HW117870   4.718   4.343   5.175
 5657SOL    HW217871   4.576   4.288   5.233
 5658SOL     OW17872   3.294   3.214   6.108
 5658SOL    HW117873   3.200   3.241   6.091
 5658SOL    HW217874   3.296   3.143   6.179
 5659SOL     OW17875   3.555   3.699   6.195
 5659SOL    HW117876   3.464   3.658   6.187
 5659SOL    HW217877   3.616   3.658   6.126
 5660SOL     OW17878   4.781   0.274   6.637
 5660SOL    HW117879   4.689   0.302   6.662
 5660SOL    HW217880   4.777   0.186   6.589
 5661SOL     OW17881   1.197   5.232   5.468
 5661SOL    HW117882   1.101   5.259   5.458
 5661SOL    HW217883   1.242   5.292   5.534
 5662SOL     OW17884   2.399   0.038   2.314
 5662SOL    HW117885   2.479   0.079   2.358
 5662SOL    HW217886   2.381   6.978   2.354
 5663SOL     OW17887   1.221   2.198   0.664
 5663SOL    HW117888   1.177   2.223   0.750
 5663SOL    HW217889   1.230   2.098   0.660
 5664SOL     OW17890   5.775   4.013   4.857
 5664SOL    HW117891   5.813   3.943   4.796
 5664SOL    HW217892   5.704   4.065   4.809
 5665SOL     OW17893   1.067   5.571   0.008
 5665SOL    HW117894   1.070   5.478   7.000
 5665SOL    HW217895   1.105   5.570   0.101
 5666SOL     OW17896   5.899   0.780   3.548
 5666SOL    HW117897   5.909   0.879   3.559
 5666SOL    HW217898   5.804   0.754   3.568
 5667SOL     OW17899   2.017   5.283   4.769
 5667SOL    HW117900   2.035   5.335   4.685
 5667SOL    HW217901   1.938   5.223   4.755
 5668SOL     OW17902   6.092   2.564   3.184
 5668SOL    HW117903   6.167   2.621   3.219
 5668SOL    HW217904   6.043   2.524   3.261
 5669SOL     OW17905   6.578   5.071   0.202
 5669SOL    HW117906   6.493   5.019   0.193
 5669SOL    HW217907   6.645   5.017   0.252
 5670SOL     OW17908   1.883   3.092   3.502
 5670SOL    HW117909   1.981   3.073   3.495
 5670SOL    HW217910   1.840   3.082   3.412
 5671SOL     OW17911   6.387   5.512   5.107
 5671SOL    HW117912   6.324   5.499   5.031
 5671SOL    HW217913   6.375   5.438   5.173
 5672SOL     OW17914   4.762   4.029   5.124
 5672SOL    HW117915   4.756   4.116   5.074
 5672SOL    HW217916   4.844   4.029   5.182
 5673SOL     OW17917   1.043   6.659   1.321
 5673SOL    HW117918   0.972   6.630   1.258
 5673SOL    HW217919   1.051   6.759   1.319
 5674SOL     OW17920   2.381   5.174   4.558
 5674SOL    HW117921   2.319   5.107   4.518
 5674SOL    HW217922   2.356   5.190   4.653
 5675SOL     OW17923   3.775   1.866   0.331
 5675SOL    HW117924   3.868   1.844   0.360
 5675SOL    HW217925   3.737   1.789   0.280
 5676SOL     OW17926   2.890   1.845   1.925
 5676SOL    HW117927   2.877   1.754   1.885
 5676SOL    HW217928   2.988   1.865   1.933
 5677SOL     OW17929   6.996   0.772   0.096
 5677SOL    HW117930   0.013   0.720   0.024
 5677SOL    HW217931   6.948   0.850   0.056
 5678SOL     OW17932   3.974   1.252   1.890
 5678SOL    HW117933   3.951   1.189   1.816
 5678SOL    HW217934   3.983   1.345   1.852
 5679SOL     OW17935   5.811   2.010   5.070
 5679SOL    HW117936   5.832   2.108   5.079
 5679SOL    HW217937   5.885   1.964   5.022
 5680SOL     OW17938   1.708   5.032   6.207
 5680SOL    HW117939   1.756   4.948   6.232
 5680SOL    HW217940   1.672   5.076   6.289
 5681SOL     OW17941   6.975   4.184   2.492
 5681SOL    HW117942   6.965   4.092   2.453
 5681SOL    HW217943   6.998   4.176   2.589
 5682SOL     OW17944   2.425   5.626   3.652
 5682SOL    HW117945   2.493   5.680   3.601
 5682SOL    HW217946   2.458   5.610   3.745
 5683SOL     OW17947   4.189   2.498   6.226
 5683SOL    HW117948   4.152   2.548   6.304
 5683SOL    HW217949   4.241   2.419   6.259
 5684SOL     OW17950   2.070   3.720   6.168
 5684SOL    HW117951   2.015   3.802   6.181
 5684SOL    HW217952   2.158   3.745   6.127
 5685SOL     OW17953   1.615   2.264   3.561
 5685SOL    HW117954   1.681   2.291   3.631
 5685SOL    HW217955   1.661   2.255   3.473
 5686SOL     OW17956   3.284   0.815   4.869
 5686SOL    HW117957   3.241   0.905   4.860
 5686SOL    HW217958   3.245   0.753   4.801
 5687SOL     OW17959   0.266   6.189   6.055
 5687SOL    HW117960   0.211   6.109   6.082
 5687SOL    HW217961   0.347   6.194   6.112
 5688SOL     OW17962   2.228   2.898   3.344
 5688SOL    HW117963   2.268   2.920   3.433
 5688SOL    HW217964   2.161   2.824   3.354
 5689SOL     OW17965   2.359   0.155   1.751
 5689SOL    HW117966   2.408   0.071   1.727
 5689SOL    HW217967   2.331   0.150   1.847
 5690SOL     OW17968   1.113   5.111   6.563
 5690SOL    HW117969   1.016   5.122   6.581
 5690SOL    HW217970   1.137   5.014   6.563
 5691SOL     OW17971   3.927   1.154   2.702
 5691SOL    HW117972   3.961   1.124   2.613
 5691SOL    HW217973   3.978   1.108   2.775
 5692SOL     OW17974   4.499   4.707   0.831
 5692SOL    HW117975   4.482   4.773   0.905
 5692SOL    HW217976   4.585   4.729   0.786
 5693SOL     OW17977   4.456   0.237   1.137
 5693SOL    HW117978   4.375   0.256   1.082
 5693SOL    HW217979   4.486   0.143   1.122
 5694SOL     OW17980   0.456   6.895   2.260
 5694SOL    HW117981   0.464   6.798   2.284
 5694SOL    HW217982   0.399   6.905   2.179
 5695SOL     OW17983   0.922   0.750   2.722
 5695SOL    HW117984   0.918   0.700   2.635
 5695SOL    HW217985   0.860   0.828   2.718
 5696SOL     OW17986   1.761   0.343   4.093
 5696SOL    HW117987   1.700   0.270   4.062
 5696SOL    HW217988   1.851   0.332   4.053
 5697SOL     OW17989   6.000   2.091   1.919
 5697SOL    HW117990   6.028   2.076   1.824
 5697SOL    HW217991   6.064   2.044   1.980
 5698SOL     OW17992   1.827   3.626   4.247
 5698SOL    HW117993   1.836   3.693   4.321
 5698SOL    HW217994   1.801   3.673   4.162
 5699SOL     OW17995   1.680   2.304   2.687
 5699SOL    HW117996   1.756   2.365   2.665
 5699SOL    HW217997   1.688   2.219   2.636
 5700SOL     OW17998   6.654   0.211   2.698
 5700SOL    HW117999   6.678   0.187   2.792
 5700SOL    HW218000   6.722   0.174   2.636
 5701SOL     OW18001   6.964   1.056   0.929
 5701SOL    HW118002   6.900   1.054   1.006
 5701SOL    HW218003   6.976   1.151   0.899
 5702SOL     OW18004   1.432   6.505   4.476
 5702SOL    HW118005   1.339   6.541   4.465
 5702SOL    HW218006   1.472   6.542   4.560
 5703SOL     OW18007   6.775   4.513   6.706
 5703SOL    HW118008   6.844   4.460   6.756
 5703SOL    HW218009   6.744   4.589   6.762
 5704SOL     OW18010   4.878   4.094   3.916
 5704SOL    HW118011   4.947   4.161   3.944
 5704SOL    HW218012   4.922   4.021   3.865
 5705SOL     OW18013   6.075   5.822   6.794
 5705SOL    HW118014   6.009   5.846   6.866
 5705SOL    HW218015   6.118   5.735   6.817
 5706SOL     OW18016   4.918   3.110   1.436
 5706SOL    HW118017   4.886   3.065   1.520
 5706SOL    HW218018   4.917   3.209   1.449
 5707SOL     OW18019   5.540   0.297   1.160
 5707SOL    HW118020   5.529   0.261   1.253
 5707SOL    HW218021   5.471   0.368   1.144
 5708SOL     OW18022   4.953   6.130   2.820
 5708SOL    HW118023   4.994   6.055   2.768
 5708SOL    HW218024   5.001   6.139   2.908
 5709SOL     OW18025   6.876   0.953   2.247
 5709SOL    HW118026   6.952   0.909   2.199
 5709SOL    HW218027   6.847   0.895   2.323
 5710SOL     OW18028   2.965   2.634   1.040
 5710SOL    HW118029   2.967   2.535   1.028
 5710SOL    HW218030   2.884   2.672   0.995
 5711SOL     OW18031   4.952   0.875   1.965
 5711SOL    HW118032   4.971   0.806   1.894
 5711SOL    HW218033   4.855   0.897   1.965
 5712SOL     OW18034   6.267   6.241   0.765
 5712SOL    HW118035   6.246   6.186   0.846
 5712SOL    HW218036   6.219   6.328   0.770
 5713SOL     OW18037   2.897   5.180   0.641
 5713SOL    HW118038   2.900   5.080   0.642
 5713SOL    HW218039   2.933   5.215   0.727
 5714SOL     OW18040   6.504   6.521   1.309
 5714SOL    HW118041   6.408   6.507   1.333
 5714SOL    HW218042   6.527   6.467   1.228
 5715SOL     OW18043   0.494   6.692   1.146
 5715SOL    HW118044   0.479   6.623   1.076
 5715SOL    HW218045   0.580   6.739   1.128
 5716SOL     OW18046   0.661   5.367   6.349
 5716SOL    HW118047   0.755   5.386   6.380
 5716SOL    HW218048   0.609   5.452   6.350
 5717SOL     OW18049   2.200   5.107   2.100
 5717SOL    HW118050   2.134   5.055   2.045
 5717SOL    HW218051   2.292   5.091   2.065
 5718SOL     OW18052   0.759   3.058   0.605
 5718SOL    HW118053   0.795   3.143   0.567
 5718SOL    HW218054   0.699   3.014   0.538
 5719SOL     OW18055   2.889   3.744   1.079
 5719SOL    HW118056   2.840   3.736   0.992
 5719SOL    HW218057   2.936   3.658   1.099
 5720SOL     OW18058   1.889   6.580   5.083
 5720SOL    HW118059   1.930   6.628   5.160
 5720SOL    HW218060   1.906   6.482   5.091
 5721SOL     OW18061   5.505   4.072   0.813
 5721SOL    HW118062   5.525   4.164   0.779
 5721SOL    HW218063   5.446   4.078   0.894
 5722SOL     OW18064   0.317   1.733   4.987
 5722SOL    HW118065   0.335   1.692   4.897
 5722SOL    HW218066   0.233   1.786   4.982
 5723SOL     OW18067   3.708   3.303   6.842
 5723SOL    HW118068   3.709   3.353   6.756
 5723SOL    HW218069   3.779   3.339   6.902
 5724SOL     OW18070   6.484   2.293   3.050
 5724SOL    HW118071   6.563   2.353   3.042
 5724SOL    HW218072   6.400   2.347   3.050
 5725SOL     OW18073   5.961   5.384   3.193
 5725SOL    HW118074   5.873   5.409   3.231
 5725SOL    HW218075   6.034   5.417   3.253
 5726SOL     OW18076   5.740   4.628   3.738
 5726SOL    HW118077   5.737   4.545   3.794
 5726SOL    HW218078   5.820   4.624   3.679
 5727SOL     OW18079   0.227   2.493   4.524
 5727SOL    HW118080   0.203   2.426   4.594
 5727SOL    HW218081   0.326   2.499   4.515
 5728SOL     OW18082   4.806   5.854   5.233
 5728SOL    HW118083   4.805   5.797   5.315
 5728SOL    HW218084   4.749   5.935   5.248
 5729SOL     OW18085   1.339   2.221   5.972
 5729SOL    HW118086   1.418   2.216   6.033
 5729SOL    HW218087   1.333   2.313   5.932
 5730SOL     OW18088   6.559   4.335   5.865
 5730SOL    HW118089   6.461   4.319   5.877
 5730SOL    HW218090   6.578   4.433   5.877
 5731SOL     OW18091   6.468   6.948   1.626
 5731SOL    HW118092   6.446   6.971   1.531
 5731SOL    HW218093   6.503   6.855   1.630
 5732SOL     OW18094   1.262   6.556   4.097
 5732SOL    HW118095   1.224   6.625   4.158
 5732SOL    HW218096   1.199   6.540   4.021
 5733SOL     OW18097   4.371   6.438   5.169
 5733SOL    HW118098   4.381   6.523   5.222
 5733SOL    HW218099   4.461   6.410   5.136
 5734SOL     OW18100   1.361   6.699   5.081
 5734SOL    HW118101   1.407   6.779   5.044
 5734SOL    HW218102   1.287   6.672   5.019
 5735SOL     OW18103   2.880   1.591   2.116
 5735SOL    HW118104   2.870   1.603   2.017
 5735SOL    HW218105   2.975   1.574   2.138
 5736SOL     OW18106   0.870   4.739   6.673
 5736SOL    HW118107   0.916   4.687   6.745
 5736SOL    HW218108   0.779   4.766   6.703
 5737SOL     OW18109   5.689   6.103   6.817
 5737SOL    HW118110   5.607   6.159   6.805
 5737SOL    HW218111   5.760   6.156   6.863
 5738SOL     OW18112   1.908   3.439   6.822
 5738SOL    HW118113   1.948   3.520   6.866
 5738SOL    HW218114   1.913   3.361   6.884
 5739SOL     OW18115   1.794   1.011   6.791
 5739SOL    HW118116   1.704   0.995   6.751
 5739SOL    HW218117   1.802   1.108   6.814
 5740SOL     OW18118   4.478   5.993   0.172
 5740SOL    HW118119   4.561   6.030   0.213
 5740SOL    HW218120   4.398   6.030   0.218
 5741SOL     OW18121   6.599   6.021   4.331
 5741SOL    HW118122   6.564   5.987   4.418
 5741SOL    HW218123   6.691   5.985   4.315
 5742SOL     OW18124   5.940   6.717   2.430
 5742SOL    HW118125   5.945   6.686   2.335
 5742SOL    HW218126   5.902   6.809   2.433
 5743SOL     OW18127   2.394   6.990   5.147
 5743SOL    HW118128   2.437   6.967   5.234
 5743SOL    HW218129   2.447   0.032   5.101
 5744SOL     OW18130   4.875   1.717   0.343
 5744SOL    HW118131   4.949   1.660   0.309
 5744SOL    HW218132   4.792   1.699   0.290
 5745SOL     OW18133   1.705   1.540   4.436
 5745SOL    HW118134   1.777   1.583   4.382
 5745SOL    HW218135   1.622   1.595   4.431
 5746SOL     OW18136   5.377   1.518   6.993
 5746SOL    HW118137   5.310   1.445   6.998
 5746SOL    HW218138   5.339   1.601   0.004
 5747SOL     OW18139   0.550   5.173   2.089
 5747SOL    HW118140   0.644   5.144   2.105
 5747SOL    HW218141   0.517   5.224   2.169
 5748SOL     OW18142   2.298   4.750   1.855
 5748SOL    HW118143   2.350   4.674   1.893
 5748SOL    HW218144   2.221   4.715   1.803
 5749SOL     OW18145   2.039   1.599   3.764
 5749SOL    HW118146   2.072   1.653   3.687
 5749SOL    HW218147   2.117   1.552   3.807
 5750SOL     OW18148   5.969   4.858   4.613
 5750SOL    HW118149   6.024   4.841   4.531
 5750SOL    HW218150   5.874   4.872   4.587
 5751SOL     OW18151   2.189   3.240   4.988
 5751SOL    HW118152   2.221   3.294   4.910
 5751SOL    HW218153   2.246   3.159   4.998
 5752SOL     OW18154   6.765   6.752   5.841
 5752SOL    HW118155   6.674   6.742   5.881
 5752SOL    HW218156   6.833   6.715   5.903
 5753SOL     OW18157   3.422   2.927   6.672
 5753SOL    HW118158   3.346   2.881   6.719
 5753SOL    HW218159   3.410   2.917   6.573
 5754SOL     OW18160   5.756   5.202   1.926
 5754SOL    HW118161   5.800   5.201   2.016
 5754SOL    HW218162   5.826   5.218   1.856
 5755SOL     OW18163   3.451   3.456   6.919
 5755SOL    HW118164   3.433   3.360   6.900
 5755SOL    HW218165   3.365   3.503   6.937
 5756SOL     OW18166   6.552   5.313   3.507
 5756SOL    HW118167   6.537   5.297   3.604
 5756SOL    HW218168   6.603   5.237   3.468
 5757SOL     OW18169   6.436   5.655   1.467
 5757SOL    HW118170   6.379   5.687   1.392
 5757SOL    HW218171   6.379   5.641   1.548
 5758SOL     OW18172   2.431   2.299   4.847
 5758SOL    HW118173   2.504   2.264   4.907
 5758SOL    HW218174   2.441   2.258   4.756
 5759SOL     OW18175   5.182   2.165   6.264
 5759SOL    HW118176   5.271   2.199   6.294
 5759SOL    HW218177   5.170   2.185   6.167
 5760SOL     OW18178   1.704   5.594   2.210
 5760SOL    HW118179   1.628   5.536   2.238
 5760SOL    HW218180   1.733   5.569   2.118
 5761SOL     OW18181   4.952   6.996   4.911
 5761SOL    HW118182   4.996   6.975   4.998
 5761SOL    HW218183   4.977   6.926   4.844
 5762SOL     OW18184   5.608   6.698   0.880
 5762SOL    HW118185   5.653   6.678   0.967
 5762SOL    HW218186   5.545   6.776   0.892
 5763SOL     OW18187   1.353   0.378   0.252
 5763SOL    HW118188   1.446   0.376   0.215
 5763SOL    HW218189   1.332   0.290   0.295
 5764SOL     OW18190   5.600   4.403   5.653
 5764SOL    HW118191   5.645   4.430   5.738
 5764SOL    HW218192   5.611   4.305   5.639
 5765SOL     OW18193   6.753   4.260   6.989
 5765SOL    HW118194   6.720   4.243   6.897
 5765SOL    HW218195   6.791   4.176   7.028
 5766SOL     OW18196   3.167   1.806   1.913
 5766SOL    HW118197   3.181   1.707   1.917
 5766SOL    HW218198   3.226   1.851   1.980
 5767SOL     OW18199   0.424   6.040   0.685
 5767SOL    HW118200   0.333   6.078   0.670
 5767SOL    HW218201   0.448   5.981   0.607
 5768SOL     OW18202   6.836   0.888   2.834
 5768SOL    HW118203   6.816   0.793   2.814
 5768SOL    HW218204   6.757   0.932   2.876
 5769SOL     OW18205   2.955   6.493   3.620
 5769SOL    HW118206   2.879   6.446   3.577
 5769SOL    HW218207   3.022   6.521   3.551
 5770SOL     OW18208   6.714   6.856   1.037
 5770SOL    HW118209   6.791   6.920   1.032
 5770SOL    HW218210   6.747   6.762   1.032
 5771SOL     OW18211   1.304   0.695   1.005
 5771SOL    HW118212   1.260   0.625   1.061
 5771SOL    HW218213   1.361   0.754   1.063
 5772SOL     OW18214   6.059   3.537   0.344
 5772SOL    HW118215   5.997   3.460   0.327
 5772SOL    HW218216   6.063   3.554   0.442
 5773SOL     OW18217   5.591   6.496   3.626
 5773SOL    HW118218   5.605   6.450   3.539
 5773SOL    HW218219   5.493   6.503   3.645
 5774SOL     OW18220   2.346   4.655   3.659
 5774SOL    HW118221   2.321   4.751   3.642
 5774SOL    HW218222   2.350   4.639   3.758
 5775SOL     OW18223   6.536   6.833   6.577
 5775SOL    HW118224   6.518   6.931   6.567
 5775SOL    HW218225   6.485   6.784   6.507
 5776SOL     OW18226   5.319   0.762   6.123
 5776SOL    HW118227   5.325   0.799   6.030
 5776SOL    HW218228   5.404   0.783   6.172
 5777SOL     OW18229   6.360   1.530   3.975
 5777SOL    HW118230   6.263   1.506   3.964
 5777SOL    HW218231   6.391   1.501   4.066
 5778SOL     OW18232   1.219   6.492   2.884
 5778SOL    HW118233   1.248   6.500   2.979
 5778SOL    HW218234   1.226   6.581   2.839
 5779SOL     OW18235   3.984   1.109   1.275
 5779SOL    HW118236   4.033   1.060   1.347
 5779SOL    HW218237   3.885   1.091   1.284
 5780SOL     OW18238   0.078   4.047   1.240
 5780SOL    HW118239   0.091   4.120   1.307
 5780SOL    HW218240   0.038   3.967   1.285
 5781SOL     OW18241   2.118   4.516   5.138
 5781SOL    HW118242   2.190   4.447   5.148
 5781SOL    HW218243   2.159   4.607   5.139
 5782SOL     OW18244   2.154   0.884   1.440
 5782SOL    HW118245   2.059   0.894   1.413
 5782SOL    HW218246   2.160   0.857   1.536
 5783SOL     OW18247   1.383   0.352   1.096
 5783SOL    HW118248   1.298   0.403   1.086
 5783SOL    HW218249   1.449   0.382   1.027
 5784SOL     OW18250   0.836   5.990   0.041
 5784SOL    HW118251   0.766   5.927   0.074
 5784SOL    HW218252   0.842   5.985   6.971
 5785SOL     OW18253   1.754   1.443   0.303
 5785SOL    HW118254   1.677   1.384   0.328
 5785SOL    HW218255   1.780   1.427   0.208
 5786SOL     OW18256   1.619   3.050   1.688
 5786SOL    HW118257   1.674   2.990   1.629
 5786SOL    HW218258   1.578   3.122   1.632
 5787SOL     OW18259   6.146   2.391   4.902
 5787SOL    HW118260   6.164   2.359   4.809
 5787SOL    HW218261   6.198   2.337   4.967
 5788SOL     OW18262   3.533   1.066   2.327
 5788SOL    HW118263   3.445   1.036   2.364
 5788SOL    HW218264   3.552   1.159   2.359
 5789SOL     OW18265   4.557   4.132   0.147
 5789SOL    HW118266   4.531   4.060   0.210
 5789SOL    HW218267   4.574   4.217   0.198
 5790SOL     OW18268   5.668   5.570   4.733
 5790SOL    HW118269   5.726   5.569   4.814
 5790SOL    HW218270   5.721   5.602   4.655
 5791SOL     OW18271   3.781   1.327   2.892
 5791SOL    HW118272   3.832   1.364   2.969
 5791SOL    HW218273   3.844   1.290   2.824
 5792SOL     OW18274   4.823   4.005   2.606
 5792SOL    HW118275   4.775   4.037   2.524
 5792SOL    HW218276   4.922   4.021   2.595
 5793SOL     OW18277   5.258   2.125   5.127
 5793SOL    HW118278   5.216   2.081   5.048
 5793SOL    HW218279   5.216   2.092   5.211
 5794SOL     OW18280   3.308   6.306   6.245
 5794SOL    HW118281   3.258   6.313   6.158
 5794SOL    HW218282   3.374   6.231   6.239
 5795SOL     OW18283   1.039   4.871   2.058
 5795SOL    HW118284   0.978   4.837   2.130
 5795SOL    HW218285   0.987   4.930   1.996
 5796SOL     OW18286   4.228   1.609   6.415
 5796SOL    HW118287   4.238   1.708   6.419
 5796SOL    HW218288   4.150   1.585   6.358
 5797SOL     OW18289   5.310   2.574   0.190
 5797SOL    HW118290   5.306   2.578   0.290
 5797SOL    HW218291   5.230   2.523   0.156
 5798SOL     OW18292   1.840   4.216   5.301
 5798SOL    HW118293   1.828   4.144   5.233
 5798SOL    HW218294   1.932   4.211   5.339
 5799SOL     OW18295   1.240   6.286   3.254
 5799SOL    HW118296   1.271   6.371   3.210
 5799SOL    HW218297   1.220   6.303   3.350
 5800SOL     OW18298   0.555   6.745   0.830
 5800SOL    HW118299   0.500   6.829   0.834
 5800SOL    HW218300   0.498   6.666   0.851
 5801SOL     OW18301   2.223   2.538   2.455
 5801SOL    HW118302   2.144   2.596   2.437
 5801SOL    HW218303   2.246   2.488   2.371
 5802SOL     OW18304   0.147   1.540   2.108
 5802SOL    HW118305   0.085   1.466   2.132
 5802SOL    HW218306   0.229   1.535   2.165
 5803SOL     OW18307   1.200   5.267   4.281
 5803SOL    HW118308   1.293   5.301   4.273
 5803SOL    HW218309   1.200   5.178   4.326
 5804SOL     OW18310   5.802   0.389   3.528
 5804SOL    HW118311   5.829   0.301   3.566
 5804SOL    HW218312   5.735   0.433   3.589
 5805SOL     OW18313   2.200   3.278   1.143
 5805SOL    HW118314   2.208   3.289   1.242
 5805SOL    HW218315   2.256   3.201   1.114
 5806SOL     OW18316   0.534   3.385   3.082
 5806SOL    HW118317   0.512   3.301   3.133
 5806SOL    HW218318   0.627   3.378   3.047
 5807SOL     OW18319   0.998   6.738   0.442
 5807SOL    HW118320   0.953   6.747   0.531
 5807SOL    HW218321   0.998   6.642   0.414
 5808SOL     OW18322   5.729   0.904   4.773
 5808SOL    HW118323   5.773   0.824   4.813
 5808SOL    HW218324   5.716   0.973   4.844
 5809SOL     OW18325   0.622   2.339   5.840
 5809SOL    HW118326   0.674   2.417   5.873
 5809SOL    HW218327   0.578   2.292   5.917
 5810SOL     OW18328   3.934   0.068   5.163
 5810SOL    HW118329   3.994   0.115   5.098
 5810SOL    HW218330   3.954   6.999   5.162
 5811SOL     OW18331   2.779   3.534   5.671
 5811SOL    HW118332   2.810   3.628   5.680
 5811SOL    HW218333   2.834   3.475   5.729
 5812SOL     OW18334   5.855   3.070   0.599
 5812SOL    HW118335   5.942   3.080   0.648
 5812SOL    HW218336   5.815   2.981   0.621
 5813SOL     OW18337   4.296   6.629   1.579
 5813SOL    HW118338   4.296   6.726   1.604
 5813SOL    HW218339   4.348   6.617   1.494
 5814SOL     OW18340   5.250   1.531   1.808
 5814SOL    HW118341   5.163   1.504   1.851
 5814SOL    HW218342   5.325   1.513   1.872
 5815SOL     OW18343   6.517   1.421   3.692
 5815SOL    HW118344   6.597   1.459   3.740
 5815SOL    HW218345   6.435   1.437   3.748
 5816SOL     OW18346   6.839   3.960   2.760
 5816SOL    HW118347   6.840   4.056   2.786
 5816SOL    HW218348   6.750   3.938   2.719
 5817SOL     OW18349   5.363   4.623   3.404
 5817SOL    HW118350   5.412   4.658   3.484
 5817SOL    HW218351   5.340   4.699   3.344
 5818SOL     OW18352   2.193   0.468   5.573
 5818SOL    HW118353   2.179   0.440   5.478
 5818SOL    HW218354   2.280   0.431   5.606
 5819SOL     OW18355   4.355   5.182   0.038
 5819SOL    HW118356   4.268   5.134   0.040
 5819SOL    HW218357   4.340   5.280   0.049
 5820SOL     OW18358   6.055   4.938   2.380
 5820SOL    HW118359   6.037   4.964   2.285
 5820SOL    HW218360   5.993   4.989   2.441
 5821SOL     OW18361   6.202   0.889   1.338
 5821SOL    HW118362   6.155   0.801   1.330
 5821SOL    HW218363   6.190   0.940   1.253
 5822SOL     OW18364   1.922   3.141   2.530
 5822SOL    HW118365   1.835   3.174   2.493
 5822SOL    HW218366   1.994   3.207   2.509
 5823SOL     OW18367   2.033   6.742   3.821
 5823SOL    HW118368   2.014   6.688   3.903
 5823SOL    HW218369   2.010   6.689   3.740
 5824SOL     OW18370   0.731   0.274   1.740
 5824SOL    HW118371   0.640   0.308   1.717
 5824SOL    HW218372   0.740   0.179   1.710
 5825SOL     OW18373   6.217   0.312   4.530
 5825SOL    HW118374   6.299   0.266   4.495
 5825SOL    HW218375   6.233   0.342   4.624
 5826SOL     OW18376   0.434   6.855   4.573
 5826SOL    HW118377   0.437   6.910   4.489
 5826SOL    HW218378   0.358   6.886   4.630
 5827SOL     OW18379   2.074   4.836   5.451
 5827SOL    HW118380   2.142   4.771   5.485
 5827SOL    HW218381   2.024   4.794   5.374
 5828SOL     OW18382   4.443   6.985   4.726
 5828SOL    HW118383   4.459   0.054   4.719
 5828SOL    HW218384   4.400   6.965   4.814
 5829SOL     OW18385   2.520   0.823   3.651
 5829SOL    HW118386   2.572   0.863   3.726
 5829SOL    HW218387   2.580   0.764   3.596
 5830SOL     OW18388   4.142   5.575   5.236
 5830SOL    HW118389   4.208   5.606   5.305
 5830SOL    HW218390   4.191   5.550   5.152
 5831SOL     OW18391   1.724   1.347   5.381
 5831SOL    HW118392   1.789   1.303   5.319
 5831SOL    HW218393   1.631   1.323   5.353
 5832SOL     OW18394   3.173   5.073   0.823
 5832SOL    HW118395   3.116   5.155   0.832
 5832SOL    HW218396   3.113   4.994   0.809
 5833SOL     OW18397   4.313   3.518   6.144
 5833SOL    HW118398   4.299   3.537   6.047
 5833SOL    HW218399   4.227   3.488   6.184
 5834SOL     OW18400   5.890   3.822   6.924
 5834SOL    HW118401   5.872   3.736   6.876
 5834SOL    HW218402   5.872   3.898   6.861
 5835SOL     OW18403   5.203   0.909   2.761
 5835SOL    HW118404   5.172   0.869   2.674
 5835SOL    HW218405   5.250   0.996   2.742
 5836SOL     OW18406   4.181   0.038   2.558
 5836SOL    HW118407   4.088   0.066   2.534
 5836SOL    HW218408   4.221   7.017   2.482
 5837SOL     OW18409   3.483   4.078   6.769
 5837SOL    HW118410   3.467   4.177   6.770
 5837SOL    HW218411   3.463   4.040   6.859
 5838SOL     OW18412   3.073   1.694   0.878
 5838SOL    HW118413   3.003   1.651   0.935
 5838SOL    HW218414   3.084   1.790   0.905
 5839SOL     OW18415   1.379   1.921   1.175
 5839SOL    HW118416   1.324   1.948   1.096
 5839SOL    HW218417   1.339   1.959   1.258
 5840SOL     OW18418   0.952   3.581   2.345
 5840SOL    HW118419   0.874   3.586   2.408
 5840SOL    HW218420   1.010   3.662   2.358
 5841SOL     OW18421   5.688   1.756   0.575
 5841SOL    HW118422   5.660   1.735   0.669
 5841SOL    HW218423   5.607   1.783   0.522
 5842SOL     OW18424   3.134   1.646   0.578
 5842SOL    HW118425   3.139   1.665   0.676
 5842SOL    HW218426   3.190   1.711   0.528
 5843SOL     OW18427   1.707   2.945   0.959
 5843SOL    HW118428   1.638   2.875   0.974
 5843SOL    HW218429   1.733   2.986   1.046
 5844SOL     OW18430   0.689   0.891   5.006
 5844SOL    HW118431   0.678   0.926   4.913
 5844SOL    HW218432   0.606   0.841   5.033
 5845SOL     OW18433   1.220   5.825   1.753
 5845SOL    HW118434   1.194   5.916   1.723
 5845SOL    HW218435   1.317   5.824   1.780
 5846SOL     OW18436   6.443   3.982   5.705
 5846SOL    HW118437   6.407   3.915   5.769
 5846SOL    HW218438   6.374   4.002   5.635
 5847SOL     OW18439   2.966   3.284   0.704
 5847SOL    HW118440   3.040   3.217   0.706
 5847SOL    HW218441   2.960   3.331   0.792
 5848SOL     OW18442   2.102   5.797   3.367
 5848SOL    HW118443   2.141   5.815   3.457
 5848SOL    HW218444   2.171   5.756   3.308
 5849SOL     OW18445   2.625   6.092   5.619
 5849SOL    HW118446   2.634   6.192   5.620
 5849SOL    HW218447   2.637   6.058   5.526
 5850SOL     OW18448   0.797   1.806   1.301
 5850SOL    HW118449   0.729   1.756   1.355
 5850SOL    HW218450   0.785   1.784   1.204
 5851SOL     OW18451   5.761   2.871   4.755
 5851SOL    HW118452   5.790   2.785   4.712
 5851SOL    HW218453   5.725   2.933   4.686
 5852SOL     OW18454   5.436   5.092   3.055
 5852SOL    HW118455   5.401   5.058   2.968
 5852SOL    HW218456   5.374   5.162   3.090
 5853SOL     OW18457   3.883   4.696   5.567
 5853SOL    HW118458   3.821   4.774   5.561
 5853SOL    HW218459   3.865   4.645   5.652
 5854SOL     OW18460   2.774   4.886   6.098
 5854SOL    HW118461   2.675   4.899   6.087
 5854SOL    HW218462   2.811   4.846   6.014
 5855SOL     OW18463   1.968   2.475   3.923
 5855SOL    HW118464   2.057   2.483   3.879
 5855SOL    HW218465   1.963   2.388   3.972
 5856SOL     OW18466   1.755   0.161   2.782
 5856SOL    HW118467   1.658   0.173   2.760
 5856SOL    HW218468   1.766   0.089   2.850
 5857SOL     OW18469   0.105   4.248   6.180
 5857SOL    HW118470   0.047   4.188   6.234
 5857SOL    HW218471   0.055   4.278   6.099
 5858SOL     OW18472   1.793   0.848   3.201
 5858SOL    HW118473   1.811   0.843   3.299
 5858SOL    HW218474   1.868   0.805   3.150
 5859SOL     OW18475   6.193   0.088   2.243
 5859SOL    HW118476   6.133   0.043   2.310
 5859SOL    HW218477   6.195   0.035   2.159
 5860SOL     OW18478   0.257   3.096   3.835
 5860SOL    HW118479   0.161   3.088   3.806
 5860SOL    HW218480   0.316   3.098   3.754
 5861SOL     OW18481   4.761   0.918   5.057
 5861SOL    HW118482   4.796   0.965   5.138
 5861SOL    HW218483   4.825   0.930   4.981
 5862SOL     OW18484   6.724   5.106   3.468
 5862SOL    HW118485   6.782   5.165   3.411
 5862SOL    HW218486   6.782   5.046   3.523
 5863SOL     OW18487   3.874   0.292   5.498
 5863SOL    HW118488   3.782   0.319   5.469
 5863SOL    HW218489   3.895   0.200   5.464
 5864SOL     OW18490   2.955   3.481   2.512
 5864SOL    HW118491   2.921   3.460   2.420
 5864SOL    HW218492   2.890   3.539   2.560
 5865SOL     OW18493   5.811   1.221   5.198
 5865SOL    HW118494   5.768   1.203   5.287
 5865SOL    HW218495   5.873   1.299   5.206
 5866SOL     OW18496   3.723   3.164   2.523
 5866SOL    HW118497   3.784   3.139   2.598
 5866SOL    HW218498   3.689   3.081   2.478
 5867SOL     OW18499   2.596   2.595   1.761
 5867SOL    HW118500   2.627   2.501   1.773
 5867SOL    HW218501   2.626   2.650   1.839
 5868SOL     OW18502   0.546   1.526   6.209
 5868SOL    HW118503   0.449   1.539   6.225
 5868SOL    HW218504   0.560   1.476   6.123
 5869SOL     OW18505   1.510   5.061   4.505
 5869SOL    HW118506   1.569   5.141   4.494
 5869SOL    HW218507   1.520   5.001   4.426
 5870SOL     OW18508   4.357   4.753   4.828
 5870SOL    HW118509   4.273   4.808   4.823
 5870SOL    HW218510   4.346   4.681   4.897
 5871SOL     OW18511   3.658   3.431   3.105
 5871SOL    HW118512   3.734   3.400   3.048
 5871SOL    HW218513   3.666   3.529   3.120
 5872SOL     OW18514   3.713   6.597   2.490
 5872SOL    HW118515   3.723   6.508   2.536
 5872SOL    HW218516   3.674   6.583   2.399
 5873SOL     OW18517   3.572   4.872   2.472
 5873SOL    HW118518   3.660   4.878   2.425
 5873SOL    HW218519   3.500   4.903   2.410
 5874SOL     OW18520   2.116   4.617   5.898
 5874SOL    HW118521   2.127   4.650   5.992
 5874SOL    HW218522   2.118   4.517   5.898
 5875SOL     OW18523   3.375   1.016   0.427
 5875SOL    HW118524   3.409   1.026   0.521
 5875SOL    HW218525   3.275   1.015   0.427
 5876SOL     OW18526   3.696   3.330   2.304
 5876SOL    HW118527   3.769   3.333   2.236
 5876SOL    HW218528   3.733   3.296   2.390
 5877SOL     OW18529   5.961   5.209   1.218
 5877SOL    HW118530   5.950   5.161   1.305
 5877SOL    HW218531   5.980   5.142   1.146
 5878SOL     OW18532   2.222   4.638   2.766
 5878SOL    HW118533   2.173   4.556   2.796
 5878SOL    HW218534   2.160   4.717   2.770
 5879SOL     OW18535   0.213   4.204   0.144
 5879SOL    HW118536   0.141   4.136   0.155
 5879SOL    HW218537   0.282   4.192   0.214
 5880SOL     OW18538   2.639   6.448   1.517
 5880SOL    HW118539   2.542   6.422   1.512
 5880SOL    HW218540   2.692   6.387   1.458
 5881SOL     OW18541   0.551   4.657   3.452
 5881SOL    HW118542   0.472   4.714   3.474
 5881SOL    HW218543   0.596   4.628   3.536
 5882SOL     OW18544   4.956   0.456   1.192
 5882SOL    HW118545   4.984   0.515   1.116
 5882SOL    HW218546   4.862   0.424   1.177
 5883SOL     OW18547   6.525   2.933   6.681
 5883SOL    HW118548   6.601   2.973   6.732
 5883SOL    HW218549   6.439   2.958   6.725
 5884SOL     OW18550   0.694   1.180   3.264
 5884SOL    HW118551   0.624   1.171   3.334
 5884SOL    HW218552   0.759   1.252   3.291
 5885SOL     OW18553   6.150   6.373   1.306
 5885SOL    HW118554   6.065   6.359   1.255
 5885SOL    HW218555   6.219   6.308   1.274
 5886SOL     OW18556   0.633   2.150   5.387
 5886SOL    HW118557   0.600   2.218   5.452
 5886SOL    HW218558   0.590   2.164   5.298
 5887SOL     OW18559   3.065   1.274   4.168
 5887SOL    HW118560   3.085   1.274   4.266
 5887SOL    HW218561   3.144   1.239   4.118
 5888SOL     OW18562   2.107   6.214   3.587
 5888SOL    HW118563   2.181   6.282   3.590
 5888SOL    HW218564   2.031   6.245   3.644
 5889SOL     OW18565   2.254   0.483   1.100
 5889SOL    HW118566   2.206   0.490   1.187
 5889SOL    HW218567   2.258   0.574   1.057
 5890SOL     OW18568   2.046   6.104   5.338
 5890SOL    HW118569   2.099   6.030   5.299
 5890SOL    HW218570   2.066   6.112   5.436
 5891SOL     OW18571   3.889   2.729   6.871
 5891SOL    HW118572   3.868   2.817   6.828
 5891SOL    HW218573   3.816   2.664   6.851
 5892SOL     OW18574   0.386   6.517   1.332
 5892SOL    HW118575   0.351   6.555   1.417
 5892SOL    HW218576   0.430   6.589   1.278
 5893SOL     OW18577   1.343   2.310   3.602
 5893SOL    HW118578   1.298   2.257   3.675
 5893SOL    HW218579   1.441   2.294   3.606
 5894SOL     OW18580   1.452   3.890   3.678
 5894SOL    HW118581   1.428   3.938   3.593
 5894SOL    HW218582   1.478   3.958   3.748
 5895SOL     OW18583   5.066   2.961   4.787
 5895SOL    HW118584   5.071   2.913   4.874
 5895SOL    HW218585   4.990   3.026   4.788
 5896SOL     OW18586   3.806   2.168   6.770
 5896SOL    HW118587   3.761   2.197   6.685
 5896SOL    HW218588   3.863   2.242   6.804
 5897SOL     OW18589   3.852   1.280   0.720
 5897SOL    HW118590   3.917   1.306   0.790
 5897SOL    HW218591   3.785   1.353   0.707
 5898SOL     OW18592   2.038   0.189   2.049
 5898SOL    HW118593   2.091   0.126   1.992
 5898SOL    HW218594   1.960   0.224   1.997
 5899SOL     OW18595   5.351   6.883   4.869
 5899SOL    HW118596   5.407   6.966   4.869
 5899SOL    HW218597   5.297   6.879   4.785
 5900SOL     OW18598   5.250   4.927   2.874
 5900SOL    HW118599   5.271   4.896   2.781
 5900SOL    HW218600   5.171   4.878   2.909
 5901SOL     OW18601   2.373   6.418   6.826
 5901SOL    HW118602   2.425   6.417   6.741
 5901SOL    HW218603   2.278   6.441   6.807
 5902SOL     OW18604   6.994   2.749   0.398
 5902SOL    HW118605   0.050   2.759   0.449
 5902SOL    HW218606   6.917   2.760   0.461
 5903SOL     OW18607   6.185   4.586   0.254
 5903SOL    HW118608   6.253   4.583   0.181
 5903SOL    HW218609   6.110   4.647   0.227
 5904SOL     OW18610   0.274   3.681   2.326
 5904SOL    HW118611   0.327   3.597   2.338
 5904SOL    HW218612   0.326   3.759   2.360
 5905SOL     OW18613   6.741   6.349   2.520
 5905SOL    HW118614   6.705   6.288   2.590
 5905SOL    HW218615   6.839   6.362   2.533
 5906SOL     OW18616   5.766   1.033   3.659
 5906SOL    HW118617   5.679   1.065   3.697
 5906SOL    HW218618   5.771   1.058   3.562
 5907SOL     OW18619   0.490   6.265   1.380
 5907SOL    HW118620   0.463   6.256   1.476
 5907SOL    HW218621   0.481   6.360   1.351
 5908SOL     OW18622   0.621   2.469   5.187
 5908SOL    HW118623   0.707   2.458   5.238
 5908SOL    HW218624   0.607   2.565   5.166
 5909SOL     OW18625   0.871   5.958   0.475
 5909SOL    HW118626   0.943   5.965   0.544
 5909SOL    HW218627   0.901   6.004   0.391
 5910SOL     OW18628   1.647   2.033   3.121
 5910SOL    HW118629   1.715   2.063   3.188
 5910SOL    HW218630   1.682   2.047   3.029
 5911SOL     OW18631   6.470   5.586   6.928
 5911SOL    HW118632   6.476   5.511   6.994
 5911SOL    HW218633   6.555   5.589   6.875
 5912SOL     OW18634   6.575   1.799   5.561
 5912SOL    HW118635   6.615   1.829   5.474
 5912SOL    HW218636   6.538   1.707   5.550
 5913SOL     OW18637   5.378   3.212   0.656
 5913SOL    HW118638   5.294   3.216   0.710
 5913SOL    HW218639   5.411   3.305   0.640
 5914SOL     OW18640   1.099   6.808   6.267
 5914SOL    HW118641   1.029   6.880   6.271
 5914SOL    HW218642   1.105   6.762   6.355
 5915SOL     OW18643   3.644   6.955   0.347
 5915SOL    HW118644   3.679   6.989   0.435
 5915SOL    HW218645   3.574   6.886   0.363
 5916SOL     OW18646   1.307   6.697   1.652
 5916SOL    HW118647   1.270   6.788   1.634
 5916SOL    HW218648   1.236   6.629   1.637
 5917SOL     OW18649   3.099   4.313   6.407
 5917SOL    HW118650   3.087   4.388   6.472
 5917SOL    HW218651   3.097   4.226   6.457
 5918SOL     OW18652   2.741   6.126   6.051
 5918SOL    HW118653   2.790   6.101   5.967
 5918SOL    HW218654   2.655   6.172   6.026
 5919SOL     OW18655   3.519   3.233   3.529
 5919SOL    HW118656   3.424   3.247   3.500
 5919SOL    HW218657   3.578   3.232   3.449
 5920SOL     OW18658   6.049   0.343   6.065
 5920SOL    HW118659   6.030   0.427   6.014
 5920SOL    HW218660   5.981   0.274   6.041
 5921SOL     OW18661   3.676   4.832   6.349
 5921SOL    HW118662   3.589   4.849   6.394
 5921SOL    HW218663   3.739   4.788   6.413
 5922SOL     OW18664   6.510   3.698   2.832
 5922SOL    HW118665   6.532   3.693   2.930
 5922SOL    HW218666   6.587   3.740   2.783
 5923SOL     OW18667   6.170   1.141   1.478
 5923SOL    HW118668   6.188   1.048   1.445
 5923SOL    HW218669   6.072   1.152   1.493
 5924SOL     OW18670   5.362   0.157   2.856
 5924SOL    HW118671   5.308   0.239   2.875
 5924SOL    HW218672   5.429   0.177   2.785
 5925SOL     OW18673   4.426   5.152   1.096
 5925SOL    HW118674   4.485   5.079   1.132
 5925SOL    HW218675   4.474   5.200   1.022
 5926SOL     OW18676   3.927   4.819   2.935
 5926SOL    HW118677   3.880   4.845   2.851
 5926SOL    HW218678   3.867   4.833   3.013
 5927SOL     OW18679   1.595   3.714   1.875
 5927SOL    HW118680   1.672   3.761   1.919
 5927SOL    HW218681   1.581   3.625   1.918
 5928SOL     OW18682   4.269   0.642   1.242
 5928SOL    HW118683   4.251   0.738   1.221
 5928SOL    HW218684   4.335   0.637   1.317
 5929SOL     OW18685   6.919   0.375   5.588
 5929SOL    HW118686   6.911   0.345   5.683
 5929SOL    HW218687   7.014   0.370   5.560
 5930SOL     OW18688   1.270   3.470   1.847
 5930SOL    HW118689   1.204   3.407   1.887
 5930SOL    HW218690   1.261   3.468   1.747
 5931SOL     OW18691   5.416   6.051   2.992
 5931SOL    HW118692   5.352   5.991   3.041
 5931SOL    HW218693   5.373   6.141   2.979
 5932SOL     OW18694   3.194   0.077   6.398
 5932SOL    HW118695   3.246   0.056   6.481
 5932SOL    HW218696   3.100   0.044   6.408
 5933SOL     OW18697   6.853   5.267   4.514
 5933SOL    HW118698   6.911   5.323   4.455
 5933SOL    HW218699   6.825   5.184   4.465
 5934SOL     OW18700   3.339   3.867   5.789
 5934SOL    HW118701   3.254   3.819   5.809
 5934SOL    HW218702   3.322   3.965   5.789
 5935SOL     OW18703   0.494   6.044   4.772
 5935SOL    HW118704   0.579   5.991   4.772
 5935SOL    HW218705   0.508   6.130   4.724
 5936SOL     OW18706   3.701   3.239   3.315
 5936SOL    HW118707   3.691   3.312   3.247
 5936SOL    HW218708   3.643   3.161   3.290
 5937SOL     OW18709   0.355   2.592   2.274
 5937SOL    HW118710   0.397   2.668   2.324
 5937SOL    HW218711   0.354   2.613   2.177
 5938SOL     OW18712   5.987   5.573   5.350
 5938SOL    HW118713   6.011   5.640   5.281
 5938SOL    HW218714   5.897   5.595   5.389
 5939SOL     OW18715   3.999   7.003   4.430
 5939SOL    HW118716   4.041   6.987   4.341
 5939SOL    HW218717   3.928   0.043   4.422
 5940SOL     OW18718   5.032   5.072   3.067
 5940SOL    HW118719   5.020   4.974   3.055
 5940SOL    HW218720   4.943   5.117   3.067
 5941SOL     OW18721   6.462   2.099   2.040
 5941SOL    HW118722   6.368   2.087   2.071
 5941SOL    HW218723   6.524   2.049   2.101
 5942SOL     OW18724   6.404   3.179   6.064
 5942SOL    HW118725   6.399   3.187   6.163
 5942SOL    HW218726   6.420   3.084   6.039
 5943SOL     OW18727   4.066   3.237   0.442
 5943SOL    HW118728   4.060   3.335   0.426
 5943SOL    HW218729   4.007   3.189   0.378
 5944SOL     OW18730   0.488   3.217   6.691
 5944SOL    HW118731   0.504   3.218   6.789
 5944SOL    HW218732   0.569   3.181   6.644
 5945SOL     OW18733   0.912   5.954   5.100
 5945SOL    HW118734   0.924   6.018   5.175
 5945SOL    HW218735   0.981   5.882   5.107
 5946SOL     OW18736   4.122   4.587   6.673
 5946SOL    HW118737   4.055   4.521   6.640
 5946SOL    HW218738   4.159   4.558   6.761
 5947SOL     OW18739   3.121   3.012   4.761
 5947SOL    HW118740   3.189   2.940   4.745
 5947SOL    HW218741   3.092   3.050   4.673
 5948SOL     OW18742   5.162   4.002   2.200
 5948SOL    HW118743   5.125   4.016   2.292
 5948SOL    HW218744   5.126   4.072   2.139
 5949SOL     OW18745   5.741   5.410   1.179
 5949SOL    HW118746   5.755   5.505   1.209
 5949SOL    HW218747   5.816   5.353   1.212
 5950SOL     OW18748   5.460   2.218   5.419
 5950SOL    HW118749   5.363   2.200   5.403
 5950SOL    HW218750   5.473   2.315   5.440
 5951SOL     OW18751   1.040   4.811   5.090
 5951SOL    HW118752   1.126   4.762   5.087
 5951SOL    HW218753   0.969   4.758   5.044
 5952SOL     OW18754   4.139   4.850   1.971
 5952SOL    HW118755   4.178   4.940   1.954
 5952SOL    HW218756   4.039   4.858   1.976
 5953SOL     OW18757   6.485   2.726   4.934
 5953SOL    HW118758   6.425   2.768   4.866
 5953SOL    HW218759   6.492   2.785   5.015
 5954SOL     OW18760   0.473   5.512   5.182
 5954SOL    HW118761   0.490   5.421   5.143
 5954SOL    HW218762   0.517   5.581   5.124
 5955SOL     OW18763   5.212   4.805   1.268
 5955SOL    HW118764   5.126   4.827   1.313
 5955SOL    HW218765   5.231   4.707   1.277
 5956SOL     OW18766   5.000   2.754   4.502
 5956SOL    HW118767   4.989   2.776   4.406
 5956SOL    HW218768   4.958   2.825   4.559
 5957SOL     OW18769   1.203   1.148   2.756
 5957SOL    HW118770   1.122   1.128   2.811
 5957SOL    HW218771   1.181   1.135   2.659
 5958SOL     OW18772   3.544   6.984   3.194
 5958SOL    HW118773   3.496   7.011   3.278
 5958SOL    HW218774   3.529   0.024   3.124
 5959SOL     OW18775   5.148   2.094   4.696
 5959SOL    HW118776   5.115   2.163   4.760
 5959SOL    HW218777   5.084   2.087   4.620
 5960SOL     OW18778   3.199   6.492   5.169
 5960SOL    HW118779   3.155   6.425   5.229
 5960SOL    HW218780   3.133   6.562   5.143
 5961SOL     OW18781   3.956   1.919   2.484
 5961SOL    HW118782   3.935   1.953   2.576
 5961SOL    HW218783   3.992   1.826   2.491
 5962SOL     OW18784   5.330   6.659   6.693
 5962SOL    HW118785   5.240   6.647   6.652
 5962SOL    HW218786   5.401   6.632   6.627
 5963SOL     OW18787   3.920   4.745   6.804
 5963SOL    HW118788   3.981   4.712   6.732
 5963SOL    HW218789   3.838   4.687   6.808
 5964SOL     OW18790   2.100   0.188   2.538
 5964SOL    HW118791   2.136   0.223   2.451
 5964SOL    HW218792   2.068   0.094   2.525
 5965SOL     OW18793   1.915   7.011   6.919
 5965SOL    HW118794   1.940   6.917   6.896
 5965SOL    HW218795   1.839   7.010   6.984
 5966SOL     OW18796   1.763   0.316   5.729
 5966SOL    HW118797   1.761   0.224   5.769
 5966SOL    HW218798   1.843   0.365   5.761
 5967SOL     OW18799   2.185   2.205   4.575
 5967SOL    HW118800   2.158   2.265   4.650
 5967SOL    HW218801   2.147   2.114   4.590
 5968SOL     OW18802   5.649   2.411   0.171
 5968SOL    HW118803   5.621   2.380   0.262
 5968SOL    HW218804   5.636   2.510   0.164
 5969SOL     OW18805   5.362   0.973   6.600
 5969SOL    HW118806   5.409   0.887   6.577
 5969SOL    HW218807   5.293   0.955   6.671
 5970SOL     OW18808   0.424   3.569   1.077
 5970SOL    HW118809   0.430   3.539   1.172
 5970SOL    HW218810   0.385   3.496   1.020
 5971SOL     OW18811   6.110   0.244   2.671
 5971SOL    HW118812   6.090   0.225   2.575
 5971SOL    HW218813   6.092   0.163   2.726
 5972SOL     OW18814   4.772   5.383   0.447
 5972SOL    HW118815   4.866   5.388   0.480
 5972SOL    HW218816   4.716   5.332   0.512
 5973SOL     OW18817   1.550   3.252   2.776
 5973SOL    HW118818   1.644   3.247   2.744
 5973SOL    HW218819   1.494   3.185   2.728
 5974SOL     OW18820   4.116   0.709   6.888
 5974SOL    HW118821   4.067   0.729   6.973
 5974SOL    HW218822   4.101   0.613   6.862
 5975SOL     OW18823   5.122   4.999   0.611
 5975SOL    HW118824   5.217   5.005   0.642
 5975SOL    HW218825   5.077   5.087   0.623
 5976SOL     OW18826   3.757   3.588   6.017
 5976SOL    HW118827   3.737   3.511   5.957
 5976SOL    HW218828   3.852   3.616   6.003
 5977SOL     OW18829   0.595   5.171   0.278
 5977SOL    HW118830   0.636   5.239   0.217
 5977SOL    HW218831   0.539   5.107   0.225
 5978SOL     OW18832   3.638   5.343   0.062
 5978SOL    HW118833   3.728   5.331   0.103
 5978SOL    HW218834   3.626   5.278   7.016
 5979SOL     OW18835   6.242   0.880   2.079
 5979SOL    HW118836   6.182   0.806   2.047
 5979SOL    HW218837   6.242   0.954   2.012
 5980SOL     OW18838   3.169   2.869   1.902
 5980SOL    HW118839   3.225   2.865   1.819
 5980SOL    HW218840   3.107   2.791   1.904
 5981SOL     OW18841   4.744   2.796   0.571
 5981SOL    HW118842   4.796   2.727   0.622
 5981SOL    HW218843   4.655   2.810   0.615
 5982SOL     OW18844   5.875   2.059   2.416
 5982SOL    HW118845   5.933   1.997   2.364
 5982SOL    HW218846   5.779   2.034   2.402
 5983SOL     OW18847   0.086   0.710   4.331
 5983SOL    HW118848   0.033   0.774   4.386
 5983SOL    HW218849   0.178   0.700   4.369
 5984SOL     OW18850   6.028   6.364   3.574
 5984SOL    HW118851   6.097   6.426   3.612
 5984SOL    HW218852   5.996   6.400   3.487
 5985SOL     OW18853   6.389   2.073   3.480
 5985SOL    HW118854   6.421   2.132   3.554
 5985SOL    HW218855   6.310   2.020   3.512
 5986SOL     OW18856   4.269   3.795   5.239
 5986SOL    HW118857   4.249   3.889   5.268
 5986SOL    HW218858   4.226   3.778   5.150
 5987SOL     OW18859   6.845   0.610   4.619
 5987SOL    HW118860   6.872   0.537   4.557
 5987SOL    HW218861   6.745   0.617   4.621
 5988SOL     OW18862   2.794   1.483   6.944
 5988SOL    HW118863   2.801   1.467   6.846
 5988SOL    HW218864   2.792   1.582   6.962
 5989SOL     OW18865   1.100   5.970   6.766
 5989SOL    HW118866   1.001   5.972   6.755
 5989SOL    HW218867   1.124   5.905   6.839
 5990SOL     OW18868   4.150   4.504   0.888
 5990SOL    HW118869   4.234   4.473   0.933
 5990SOL    HW218870   4.078   4.518   0.957
 5991SOL     OW18871   4.523   5.932   0.726
 5991SOL    HW118872   4.548   5.934   0.629
 5991SOL    HW218873   4.530   6.024   0.764
 5992SOL     OW18874   3.205   0.314   2.102
 5992SOL    HW118875   3.209   0.287   2.006
 5992SOL    HW218876   3.249   0.403   2.114
 5993SOL     OW18877   6.011   3.491   7.016
 5993SOL    HW118878   5.934   3.514   0.045
 5993SOL    HW218879   6.090   3.466   0.043
 5994SOL     OW18880   7.019   3.180   1.309
 5994SOL    HW118881   0.088   3.185   1.292
 5994SOL    HW218882   6.995   3.241   1.385
 5995SOL     OW18883   4.621   3.173   1.156
 5995SOL    HW118884   4.600   3.266   1.127
 5995SOL    HW218885   4.561   3.109   1.109
 5996SOL     OW18886   2.478   5.577   1.066
 5996SOL    HW118887   2.504   5.650   1.003
 5996SOL    HW218888   2.378   5.574   1.073
 5997SOL     OW18889   6.652   7.012   3.230
 5997SOL    HW118890   6.617   6.919   3.218
 5997SOL    HW218891   6.752   7.009   3.238
 5998SOL     OW18892   5.460   1.100   1.978
 5998SOL    HW118893   5.369   1.098   2.020
 5998SOL    HW218894   5.519   1.163   2.028
 5999SOL     OW18895   4.078   3.341   1.032
 5999SOL    HW118896   4.110   3.402   1.104
 5999SOL    HW218897   4.127   3.253   1.038
 6000SOL     OW18898   0.388   5.596   0.351
 6000SOL    HW118899   0.484   5.611   0.327
 6000SOL    HW218900   0.339   5.683   0.347
 6001SOL     OW18901   5.224   6.181   6.063
 6001SOL    HW118902   5.259   6.161   5.972
 6001SOL    HW218903   5.126   6.165   6.066
 6002SOL     OW18904   6.884   6.946   4.699
 6002SOL    HW118905   6.942   6.958   4.779
 6002SOL    HW218906   6.788   6.942   4.727
 6003SOL     OW18907   6.617   2.715   4.334
 6003SOL    HW118908   6.687   2.644   4.346
 6003SOL    HW218909   6.621   2.749   4.240
 6004SOL     OW18910   5.823   2.609   3.573
 6004SOL    HW118911   5.797   2.516   3.546
 6004SOL    HW218912   5.828   2.667   3.492
 6005SOL     OW18913   4.855   4.292   5.068
 6005SOL    HW118914   4.927   4.287   5.137
 6005SOL    HW218915   4.846   4.386   5.036
 6006SOL     OW18916   3.608   0.390   5.395
 6006SOL    HW118917   3.636   0.305   5.351
 6006SOL    HW218918   3.590   0.459   5.325
 6007SOL     OW18919   0.367   4.161   6.344
 6007SOL    HW118920   0.314   4.076   6.354
 6007SOL    HW218921   0.319   4.235   6.391
 6008SOL     OW18922   2.336   4.044   5.597
 6008SOL    HW118923   2.359   3.952   5.627
 6008SOL    HW218924   2.276   4.039   5.517
 6009SOL     OW18925   4.769   5.546   2.971
 6009SOL    HW118926   4.862   5.521   2.997
 6009SOL    HW218927   4.747   5.636   3.009
 6010SOL     OW18928   0.233   4.425   4.642
 6010SOL    HW118929   0.333   4.424   4.651
 6010SOL    HW218930   0.193   4.484   4.712
 6011SOL     OW18931   4.636   1.715   2.993
 6011SOL    HW118932   4.655   1.633   2.939
 6011SOL    HW218933   4.695   1.717   3.073
 6012SOL     OW18934   6.188   0.244   6.669
 6012SOL    HW118935   6.093   0.217   6.684
 6012SOL    HW218936   6.193   0.310   6.595
 6013SOL     OW18937   5.075   0.819   2.527
 6013SOL    HW118938   5.083   0.887   2.454
 6013SOL    HW218939   4.981   0.784   2.529
 6014SOL     OW18940   3.090   3.069   4.426
 6014SOL    HW118941   3.027   3.073   4.348
 6014SOL    HW218942   3.173   3.019   4.400
 6015SOL     OW18943   6.585   2.316   4.526
 6015SOL    HW118944   6.678   2.318   4.490
 6015SOL    HW218945   6.563   2.404   4.567
 6016SOL     OW18946   4.684   1.280   5.224
 6016SOL    HW118947   4.706   1.185   5.246
 6016SOL    HW218948   4.745   1.341   5.275
 6017SOL     OW18949   6.558   3.771   5.016
 6017SOL    HW118950   6.653   3.791   5.041
 6017SOL    HW218951   6.514   3.720   5.091
 6018SOL     OW18952   3.449   1.250   4.778
 6018SOL    HW118953   3.521   1.267   4.712
 6018SOL    HW218954   3.490   1.230   4.867
 6019SOL     OW18955   1.193   3.648   5.619
 6019SOL    HW118956   1.199   3.644   5.519
 6019SOL    HW218957   1.103   3.681   5.646
 6020SOL     OW18958   1.082   5.124   0.647
 6020SOL    HW118959   1.173   5.099   0.613
 6020SOL    HW218960   1.092   5.179   0.730
 6021SOL     OW18961   4.163   0.374   2.613
 6021SOL    HW118962   4.232   0.328   2.557
 6021SOL    HW218963   4.207   0.432   2.680
 6022SOL     OW18964   6.300   1.527   2.979
 6022SOL    HW118965   6.225   1.463   2.996
 6022SOL    HW218966   6.339   1.556   3.066
 6023SOL     OW18967   5.067   0.413   1.449
 6023SOL    HW118968   5.104   0.490   1.500
 6023SOL    HW218969   5.047   0.441   1.355
 6024SOL     OW18970   0.343   4.775   1.193
 6024SOL    HW118971   0.260   4.830   1.191
 6024SOL    HW218972   0.345   4.714   1.114
 6025SOL     OW18973   2.855   1.455   3.812
 6025SOL    HW118974   2.917   1.529   3.839
 6025SOL    HW218975   2.834   1.463   3.715
 6026SOL     OW18976   6.858   4.081   4.436
 6026SOL    HW118977   6.838   4.058   4.531
 6026SOL    HW218978   6.774   4.108   4.389
 6027SOL     OW18979   5.917   3.437   6.408
 6027SOL    HW118980   6.000   3.481   6.440
 6027SOL    HW218981   5.934   3.341   6.389
 6028SOL     OW18982   5.607   4.963   0.544
 6028SOL    HW118983   5.682   4.988   0.483
 6028SOL    HW218984   5.599   4.863   0.549
 6029SOL     OW18985   2.612   0.112   3.944
 6029SOL    HW118986   2.708   0.107   3.970
 6029SOL    HW218987   2.600   0.181   3.872
 6030SOL     OW18988   4.927   3.719   4.863
 6030SOL    HW118989   4.880   3.725   4.775
 6030SOL    HW218990   4.861   3.700   4.935
 6031SOL     OW18991   1.057   5.869   4.408
 6031SOL    HW118992   0.964   5.856   4.374
 6031SOL    HW218993   1.080   5.795   4.472
 6032SOL     OW18994   3.412   6.015   4.151
 6032SOL    HW118995   3.425   5.968   4.063
 6032SOL    HW218996   3.337   5.971   4.201
 6033SOL     OW18997   2.226   2.610   2.731
 6033SOL    HW118998   2.136   2.616   2.776
 6033SOL    HW218999   2.220   2.546   2.653
 6034SOL     OW19000   1.310   0.255   6.197
 6034SOL    HW119001   1.251   0.271   6.118
 6034SOL    HW219002   1.347   0.162   6.193
 6035SOL     OW19003   0.726   0.931   2.603
 6035SOL    HW119004   0.718   0.998   2.530
 6035SOL    HW219005   0.733   0.839   2.564
 6036SOL     OW19006   6.250   4.807   1.334
 6036SOL    HW119007   6.260   4.738   1.263
 6036SOL    HW219008   6.154   4.835   1.340
 6037SOL     OW19009   4.030   1.380   0.928
 6037SOL    HW119010   4.050   1.293   0.972
 6037SOL    HW219011   4.106   1.404   0.867
 6038SOL     OW19012   0.527   2.795   6.779
 6038SOL    HW119013   0.562   2.729   6.713
 6038SOL    HW219014   0.580   2.791   6.863
 6039SOL     OW19015   4.165   3.634   4.012
 6039SOL    HW119016   4.120   3.551   4.043
 6039SOL    HW219017   4.264   3.620   4.011
 6040SOL     OW19018   1.523   1.543   0.083
 6040SOL    HW119019   1.499   1.446   0.074
 6040SOL    HW219020   1.557   1.560   0.176
 6041SOL     OW19021   3.116   2.831   5.623
 6041SOL    HW119022   3.173   2.749   5.615
 6041SOL    HW219023   3.074   2.851   5.534
 6042SOL     OW19024   3.719   6.335   3.381
 6042SOL    HW119025   3.740   6.297   3.471
 6042SOL    HW219026   3.798   6.325   3.321
 6043SOL     OW19027   1.680   0.611   3.439
 6043SOL    HW119028   1.690   0.627   3.537
 6043SOL    HW219029   1.595   0.654   3.407
 6044SOL     OW19030   1.842   1.710   2.049
 6044SOL    HW119031   1.855   1.773   2.125
 6044SOL    HW219032   1.903   1.631   2.060
 6045SOL     OW19033   4.987   3.514   3.760
 6045SOL    HW119034   4.918   3.488   3.693
 6045SOL    HW219035   5.067   3.454   3.752
 6046SOL     OW19036   3.291   2.599   1.668
 6046SOL    HW119037   3.378   2.640   1.694
 6046SOL    HW219038   3.234   2.667   1.622
 6047SOL     OW19039   5.682   2.290   0.767
 6047SOL    HW119040   5.711   2.321   0.677
 6047SOL    HW219041   5.585   2.264   0.763
 6048SOL     OW19042   5.562   5.106   4.929
 6048SOL    HW119043   5.570   5.080   4.833
 6048SOL    HW219044   5.631   5.058   4.982
 6049SOL     OW19045   5.298   4.542   6.173
 6049SOL    HW119046   5.356   4.573   6.249
 6049SOL    HW219047   5.205   4.578   6.185
 6050SOL     OW19048   3.041   5.627   0.771
 6050SOL    HW119049   3.051   5.540   0.723
 6050SOL    HW219050   3.025   5.610   0.868
 6051SOL     OW19051   0.469   1.373   2.442
 6051SOL    HW119052   0.403   1.404   2.512
 6051SOL    HW219053   0.436   1.287   2.402
 6052SOL     OW19054   5.773   0.445   1.083
 6052SOL    HW119055   5.750   0.505   1.160
 6052SOL    HW219056   5.692   0.395   1.054
 6053SOL     OW19057   4.596   1.201   6.129
 6053SOL    HW119058   4.679   1.151   6.153
 6053SOL    HW219059   4.607   1.298   6.154
 6054SOL     OW19060   3.857   5.194   0.453
 6054SOL    HW119061   3.766   5.210   0.493
 6054SOL    HW219062   3.898   5.282   0.430
 6055SOL     OW19063   3.432   4.845   6.439
 6055SOL    HW119064   3.369   4.856   6.362
 6055SOL    HW219065   3.402   4.902   6.516
 6056SOL     OW19066   5.982   3.001   4.842
 6056SOL    HW119067   5.967   3.055   4.925
 6056SOL    HW219068   5.903   2.943   4.824
 6057SOL     OW19069   4.864   0.443   2.357
 6057SOL    HW119070   4.926   0.426   2.433
 6057SOL    HW219071   4.909   0.503   2.291
 6058SOL     OW19072   6.067   3.663   0.916
 6058SOL    HW119073   6.056   3.564   0.913
 6058SOL    HW219074   6.164   3.685   0.921
 6059SOL     OW19075   5.128   4.071   5.594
 6059SOL    HW119076   5.099   4.166   5.583
 6059SOL    HW219077   5.194   4.064   5.669
 6060SOL     OW19078   3.394   3.205   0.385
 6060SOL    HW119079   3.339   3.145   0.443
 6060SOL    HW219080   3.396   3.168   0.292
 6061SOL     OW19081   4.012   4.655   0.247
 6061SOL    HW119082   3.998   4.691   0.339
 6061SOL    HW219083   4.109   4.659   0.224
 6062SOL     OW19084   2.439   1.707   7.028
 6062SOL    HW119085   2.407   1.764   0.074
 6062SOL    HW219086   2.508   1.643   0.032
 6063SOL     OW19087   3.907   4.346   5.354
 6063SOL    HW119088   3.852   4.416   5.400
 6063SOL    HW219089   3.879   4.255   5.386
 6064SOL     OW19090   0.480   0.368   0.344
 6064SOL    HW119091   0.547   0.296   0.362
 6064SOL    HW219092   0.441   0.356   0.253
 6065SOL     OW19093   1.119   5.428   1.974
 6065SOL    HW119094   1.131   5.487   1.895
 6065SOL    HW219095   1.137   5.480   2.058
 6066SOL     OW19096   5.092   0.829   3.428
 6066SOL    HW119097   5.042   0.874   3.354
 6066SOL    HW219098   5.146   0.753   3.390
 6067SOL     OW19099   5.778   0.344   5.498
 6067SOL    HW119100   5.694   0.399   5.501
 6067SOL    HW219101   5.787   0.294   5.584
 6068SOL     OW19102   5.132   1.816   4.953
 6068SOL    HW119103   5.144   1.879   4.876
 6068SOL    HW219104   5.191   1.737   4.940
 6069SOL     OW19105   6.788   2.800   6.036
 6069SOL    HW119106   6.885   2.774   6.029
 6069SOL    HW219107   6.733   2.739   5.979
 6070SOL     OW19108   3.694   2.209   1.613
 6070SOL    HW119109   3.678   2.283   1.679
 6070SOL    HW219110   3.695   2.121   1.661
 6071SOL     OW19111   0.009   6.088   4.229
 6071SOL    HW119112   0.086   6.039   4.188
 6071SOL    HW219113   6.983   6.025   4.284
 6072SOL     OW19114   6.989   2.014   0.707
 6072SOL    HW119115   7.024   1.924   0.735
 6072SOL    HW219116   7.021   2.035   0.615
 6073SOL     OW19117   5.010   3.096   1.170
 6073SOL    HW119118   4.992   3.094   1.268
 6073SOL    HW219119   5.009   3.191   1.138
 6074SOL     OW19120   1.630   6.539   2.562
 6074SOL    HW119121   1.543   6.557   2.608
 6074SOL    HW219122   1.614   6.479   2.484
 6075SOL     OW19123   4.842   6.987   5.926
 6075SOL    HW119124   4.770   7.004   5.859
 6075SOL    HW219125   4.836   0.026   5.999
 6076SOL     OW19126   2.583   5.271   4.213
 6076SOL    HW119127   2.532   5.300   4.294
 6076SOL    HW219128   2.562   5.332   4.137
 6077SOL     OW19129   5.208   6.589   1.126
 6077SOL    HW119130   5.229   6.665   1.066
 6077SOL    HW219131   5.167   6.515   1.073
 6078SOL     OW19132   3.996   4.124   0.627
 6078SOL    HW119133   4.082   4.115   0.577
 6078SOL    HW219134   3.941   4.197   0.585
 6079SOL     OW19135   5.034   4.450   6.332
 6079SOL    HW119136   4.983   4.432   6.248
 6079SOL    HW219137   5.020   4.546   6.359
 6080SOL     OW19138   0.944   5.091   1.520
 6080SOL    HW119139   0.915   5.166   1.579
 6080SOL    HW219140   0.875   5.019   1.522
 6081SOL     OW19141   0.870   3.584   5.415
 6081SOL    HW119142   0.882   3.678   5.383
 6081SOL    HW219143   0.773   3.568   5.435
 6082SOL     OW19144   3.553   0.324   2.087
 6082SOL    HW119145   3.611   0.306   2.007
 6082SOL    HW219146   3.515   0.238   2.120
 6083SOL     OW19147   5.654   0.203   0.341
 6083SOL    HW119148   5.598   0.121   0.343
 6083SOL    HW219149   5.614   0.272   0.401
 6084SOL     OW19150   0.860   6.275   1.728
 6084SOL    HW119151   0.841   6.182   1.759
 6084SOL    HW219152   0.929   6.273   1.656
 6085SOL     OW19153   6.298   6.075   6.532
 6085SOL    HW119154   6.398   6.075   6.543
 6085SOL    HW219155   6.272   5.999   6.472
 6086SOL     OW19156   3.755   2.572   6.395
 6086SOL    HW119157   3.692   2.617   6.458
 6086SOL    HW219158   3.779   2.634   6.320
 6087SOL     OW19159   5.143   6.187   0.502
 6087SOL    HW119160   5.056   6.203   0.455
 6087SOL    HW219161   5.171   6.092   0.489
 6088SOL     OW19162   5.356   6.406   5.466
 6088SOL    HW119163   5.372   6.309   5.484
 6088SOL    HW219164   5.437   6.459   5.493
 6089SOL     OW19165   6.674   1.899   2.171
 6089SOL    HW119166   6.644   1.874   2.263
 6089SOL    HW219167   6.758   1.953   2.176
 6090SOL     OW19168   3.046   5.130   4.603
 6090SOL    HW119169   3.040   5.034   4.579
 6090SOL    HW219170   2.981   5.150   4.676
 6091SOL     OW19171   2.710   1.061   1.222
 6091SOL    HW119172   2.677   1.147   1.185
 6091SOL    HW219173   2.789   1.078   1.281
 6092SOL     OW19174   3.951   0.317   2.135
 6092SOL    HW119175   4.049   0.337   2.146
 6092SOL    HW219176   3.940   0.220   2.112
 6093SOL     OW19177   2.076   1.570   2.147
 6093SOL    HW119178   2.134   1.563   2.066
 6093SOL    HW219179   2.122   1.624   2.217
 6094SOL     OW19180   0.831   6.956   4.278
 6094SOL    HW119181   0.824   6.966   4.378
 6094SOL    HW219182   0.868   6.866   4.256
 6095SOL     OW19183   4.454   5.327   6.671
 6095SOL    HW119184   4.503   5.409   6.701
 6095SOL    HW219185   4.498   5.246   6.709
 6096SOL     OW19186   5.602   6.594   2.473
 6096SOL    HW119187   5.579   6.528   2.401
 6096SOL    HW219188   5.684   6.563   2.521
 6097SOL     OW19189   1.513   5.733   1.651
 6097SOL    HW119190   1.611   5.723   1.639
 6097SOL    HW219191   1.485   5.690   1.738
 6098SOL     OW19192   6.439   0.734   5.956
 6098SOL    HW119193   6.377   0.796   5.907
 6098SOL    HW219194   6.493   0.787   6.022
 6099SOL     OW19195   4.710   6.306   5.966
 6099SOL    HW119196   4.767   6.303   5.884
 6099SOL    HW219197   4.661   6.393   5.968
 6100SOL     OW19198   0.556   5.634   2.174
 6100SOL    HW119199   0.475   5.599   2.221
 6100SOL    HW219200   0.568   5.585   2.087
 6101SOL     OW19201   6.329   2.408   2.006
 6101SOL    HW119202   6.412   2.366   2.043
 6101SOL    HW219203   6.321   2.501   2.041
 6102SOL     OW19204   4.565   6.067   2.795
 6102SOL    HW119205   4.564   6.108   2.886
 6102SOL    HW219206   4.476   6.081   2.751
 6103SOL     OW19207   6.882   1.358   0.959
 6103SOL    HW119208   6.898   1.354   1.057
 6103SOL    HW219209   6.800   1.306   0.935
 6104SOL     OW19210   6.044   1.404   5.085
 6104SOL    HW119211   6.041   1.327   5.022
 6104SOL    HW219212   6.103   1.381   5.162
 6105SOL     OW19213   2.762   5.327   5.746
 6105SOL    HW119214   2.840   5.266   5.757
 6105SOL    HW219215   2.681   5.274   5.722
 6106SOL     OW19216   0.781   4.038   0.668
 6106SOL    HW119217   0.702   4.092   0.701
 6106SOL    HW219218   0.748   3.964   0.611
 6107SOL     OW19219   5.067   5.164   4.224
 6107SOL    HW119220   5.093   5.202   4.312
 6107SOL    HW219221   5.118   5.211   4.151
 6108SOL     OW19222   1.224   1.728   2.320
 6108SOL    HW119223   1.324   1.725   2.329
 6108SOL    HW219224   1.192   1.821   2.334
 6109SOL     OW19225   5.481   0.568   4.015
 6109SOL    HW119226   5.487   0.642   4.082
 6109SOL    HW219227   5.466   0.606   3.924
 6110SOL     OW19228   1.035   2.934   6.385
 6110SOL    HW119229   1.075   3.010   6.333
 6110SOL    HW219230   1.102   2.859   6.391
 6111SOL     OW19231   1.308   3.526   2.250
 6111SOL    HW119232   1.250   3.445   2.258
 6111SOL    HW219233   1.285   3.575   2.166
 6112SOL     OW19234   3.810   0.933   2.288
 6112SOL    HW119235   3.885   0.968   2.344
 6112SOL    HW219236   3.724   0.970   2.321
 6113SOL     OW19237   2.543   4.055   6.745
 6113SOL    HW119238   2.642   4.067   6.752
 6113SOL    HW219239   2.516   4.056   6.649
 6114SOL     OW19240   4.707   2.368   2.144
 6114SOL    HW119241   4.794   2.415   2.132
 6114SOL    HW219242   4.705   2.286   2.088
 6115SOL     OW19243   0.465   1.573   5.178
 6115SOL    HW119244   0.417   1.637   5.117
 6115SOL    HW219245   0.563   1.588   5.170
 6116SOL     OW19246   3.967   2.258   5.216
 6116SOL    HW119247   3.871   2.243   5.192
 6116SOL    HW219248   3.974   2.328   5.286
 6117SOL     OW19249   1.185   1.189   3.094
 6117SOL    HW119250   1.176   1.283   3.062
 6117SOL    HW219251   1.251   1.140   3.037
 6118SOL     OW19252   5.790   1.479   1.428
 6118SOL    HW119253   5.877   1.511   1.390
 6118SOL    HW219254   5.800   1.464   1.526
 6119SOL     OW19255   0.092   2.957   0.261
 6119SOL    HW119256   0.099   2.914   0.171
 6119SOL    HW219257   0.021   2.912   0.315
 6120SOL     OW19258   1.835   6.971   5.402
 6120SOL    HW119259   1.852   6.873   5.395
 6120SOL    HW219260   1.916   7.016   5.440
 6121SOL     OW19261   0.607   4.253   5.492
 6121SOL    HW119262   0.592   4.235   5.394
 6121SOL    HW219263   0.518   4.265   5.537
 6122SOL     OW19264   5.400   6.135   6.490
 6122SOL    HW119265   5.448   6.065   6.542
 6122SOL    HW219266   5.302   6.129   6.509
 6123SOL     OW19267   5.362   0.717   5.650
 6123SOL    HW119268   5.273   0.699   5.608
 6123SOL    HW219269   5.414   0.780   5.593
 6124SOL     OW19270   1.689   0.016   5.168
 6124SOL    HW119271   1.735   7.006   5.248
 6124SOL    HW219272   1.625   0.086   5.197
 6125SOL     OW19273   2.952   3.779   0.131
 6125SOL    HW119274   2.927   3.740   0.220
 6125SOL    HW219275   3.049   3.764   0.115
 6126SOL     OW19276   0.746   2.199   4.835
 6126SOL    HW119277   0.823   2.143   4.806
 6126SOL    HW219278   0.773   2.253   4.915
 6127SOL     OW19279   3.991   0.702   1.457
 6127SOL    HW119280   3.898   0.738   1.468
 6127SOL    HW219281   4.016   0.649   1.538
 6128SOL     OW19282   5.464   5.635   0.881
 6128SOL    HW119283   5.483   5.653   0.784
 6128SOL    HW219284   5.540   5.585   0.921
 6129SOL     OW19285   2.011   4.766   3.345
 6129SOL    HW119286   1.978   4.674   3.364
 6129SOL    HW219287   2.020   4.779   3.246
 6130SOL     OW19288   5.830   2.481   2.715
 6130SOL    HW119289   5.741   2.445   2.685
 6130SOL    HW219290   5.902   2.417   2.690
 6131SOL     OW19291   0.576   1.959   2.068
 6131SOL    HW119292   0.536   1.883   2.118
 6131SOL    HW219293   0.511   2.035   2.064
 6132SOL     OW19294   3.420   1.919   6.387
 6132SOL    HW119295   3.464   1.842   6.341
 6132SOL    HW219296   3.441   2.003   6.337
 6133SOL     OW19297   0.951   2.404   3.427
 6133SOL    HW119298   1.032   2.369   3.379
 6133SOL    HW219299   0.967   2.499   3.454
 6134SOL     OW19300   4.939   6.681   0.005
 6134SOL    HW119301   4.994   6.622   6.975
 6134SOL    HW219302   4.909   6.761   6.982
 6135SOL     OW19303   6.009   6.827   6.964
 6135SOL    HW119304   6.040   6.738   6.998
 6135SOL    HW219305   5.979   6.883   0.012
 6136SOL     OW19306   1.245   2.722   1.385
 6136SOL    HW119307   1.194   2.637   1.371
 6136SOL    HW219308   1.322   2.705   1.447
 6137SOL     OW19309   0.732   4.169   2.827
 6137SOL    HW119310   0.813   4.159   2.884
 6137SOL    HW219311   0.662   4.105   2.858
 6138SOL     OW19312   3.378   0.523   2.163
 6138SOL    HW119313   3.402   0.592   2.231
 6138SOL    HW219314   3.457   0.464   2.146
 6139SOL     OW19315   0.843   6.699   5.599
 6139SOL    HW119316   0.752   6.695   5.557
 6139SOL    HW219317   0.908   6.735   5.532
 6140SOL     OW19318   0.739   0.615   3.094
 6140SOL    HW119319   0.675   0.690   3.082
 6140SOL    HW219320   0.788   0.625   3.180
 6141SOL     OW19321   0.532   0.242   6.232
 6141SOL    HW119322   0.614   0.265   6.180
 6141SOL    HW219323   0.458   0.219   6.169
 6142SOL     OW19324   0.657   0.540   6.372
 6142SOL    HW119325   0.560   0.526   6.355
 6142SOL    HW219326   0.711   0.482   6.311
 6143SOL     OW19327   0.337   3.847   0.770
 6143SOL    HW119328   0.344   3.897   0.683
 6143SOL    HW219329   0.428   3.838   0.810
 6144SOL     OW19330   4.550   4.409   3.441
 6144SOL    HW119331   4.452   4.417   3.423
 6144SOL    HW219332   4.572   4.314   3.464
 6145SOL     OW19333   5.733   4.412   3.901
 6145SOL    HW119334   5.818   4.377   3.938
 6145SOL    HW219335   5.664   4.339   3.901
 6146SOL     OW19336   3.943   0.387   4.204
 6146SOL    HW119337   3.993   0.401   4.118
 6146SOL    HW219338   4.008   0.386   4.280
 6147SOL     OW19339   1.924   2.714   4.662
 6147SOL    HW119340   1.848   2.777   4.674
 6147SOL    HW219341   1.928   2.651   4.740
 6148SOL     OW19342   4.087   5.145   6.651
 6148SOL    HW119343   4.032   5.075   6.605
 6148SOL    HW219344   4.055   5.157   6.745
 6149SOL     OW19345   2.193   0.241   2.278
 6149SOL    HW119346   2.260   0.167   2.278
 6149SOL    HW219347   2.124   0.224   2.209
 6150SOL     OW19348   6.612   3.985   6.559
 6150SOL    HW119349   6.557   4.002   6.642
 6150SOL    HW219350   6.567   3.916   6.503
 6151SOL     OW19351   5.148   5.328   4.438
 6151SOL    HW119352   5.161   5.424   4.415
 6151SOL    HW219353   5.201   5.305   4.519
 6152SOL     OW19354   1.344   5.419   4.509
 6152SOL    HW119355   1.425   5.386   4.460
 6152SOL    HW219356   1.295   5.485   4.452
 6153SOL     OW19357   4.606   5.291   0.928
 6153SOL    HW119358   4.699   5.278   0.964
 6153SOL    HW219359   4.590   5.389   0.913
 6154SOL     OW19360   5.335   3.709   3.230
 6154SOL    HW119361   5.345   3.673   3.323
 6154SOL    HW219362   5.282   3.644   3.175
 6155SOL     OW19363   2.703   0.950   2.947
 6155SOL    HW119364   2.735   1.035   2.905
 6155SOL    HW219365   2.769   0.920   3.016
 6156SOL     OW19366   5.352   3.719   1.573
 6156SOL    HW119367   5.271   3.761   1.615
 6156SOL    HW219368   5.330   3.624   1.549
 6157SOL     OW19369   0.746   2.255   3.314
 6157SOL    HW119370   0.692   2.213   3.388
 6157SOL    HW219371   0.802   2.329   3.351
 6158SOL     OW19372   3.394   1.978   6.656
 6158SOL    HW119373   3.420   1.957   6.562
 6158SOL    HW219374   3.379   1.892   6.706
 6159SOL     OW19375   5.440   3.474   0.665
 6159SOL    HW119376   5.407   3.562   0.630
 6159SOL    HW219377   5.463   3.483   0.761
 6160SOL     OW19378   6.552   0.091   6.572
 6160SOL    HW119379   6.650   0.105   6.559
 6160SOL    HW219380   6.501   0.131   6.496
 6161SOL     OW19381   5.475   2.179   6.557
 6161SOL    HW119382   5.506   2.197   6.464
 6161SOL    HW219383   5.425   2.092   6.560
 6162SOL     OW19384   5.992   6.673   3.175
 6162SOL    HW119385   5.917   6.724   3.131
 6162SOL    HW219386   6.016   6.716   3.261
 6163SOL     OW19387   5.466   5.688   2.231
 6163SOL    HW119388   5.448   5.768   2.173
 6163SOL    HW219389   5.456   5.714   2.327
 6164SOL     OW19390   3.959   3.964   4.518
 6164SOL    HW119391   4.032   3.909   4.478
 6164SOL    HW219392   3.986   3.994   4.610
 6165SOL     OW19393   4.077   2.343   6.508
 6165SOL    HW119394   4.043   2.305   6.421
 6165SOL    HW219395   4.163   2.297   6.531
 6166SOL     OW19396   6.833   1.922   6.875
 6166SOL    HW119397   6.835   2.022   6.881
 6166SOL    HW219398   6.880   1.893   6.791
 6167SOL     OW19399   1.817   4.140   2.996
 6167SOL    HW119400   1.751   4.099   2.933
 6167SOL    HW219401   1.832   4.078   3.073
 6168SOL     OW19402   6.847   2.351   3.254
 6168SOL    HW119403   6.762   2.299   3.254
 6168SOL    HW219404   6.879   2.363   3.348
 6169SOL     OW19405   1.056   1.044   6.057
 6169SOL    HW119406   1.129   1.109   6.034
 6169SOL    HW219407   1.079   0.997   6.142
 6170SOL     OW19408   3.518   4.062   6.280
 6170SOL    HW119409   3.585   3.988   6.282
 6170SOL    HW219410   3.473   4.064   6.191
 6171SOL     OW19411   1.415   3.567   2.490
 6171SOL    HW119412   1.384   3.509   2.565
 6171SOL    HW219413   1.353   3.556   2.412
 6172SOL     OW19414   0.233   0.640   2.182
 6172SOL    HW119415   0.205   0.629   2.277
 6172SOL    HW219416   0.223   0.553   2.133
 6173SOL     OW19417   0.636   5.101   2.457
 6173SOL    HW119418   0.638   5.187   2.508
 6173SOL    HW219419   0.542   5.068   2.451
 6174SOL     OW19420   5.849   4.470   2.752
 6174SOL    HW119421   5.874   4.373   2.751
 6174SOL    HW219422   5.915   4.520   2.808
 6175SOL     OW19423   5.781   6.928   2.482
 6175SOL    HW119424   5.808   6.918   2.578
 6175SOL    HW219425   5.690   6.969   2.477
 6176SOL     OW19426   6.429   4.009   6.821
 6176SOL    HW119427   6.456   3.962   6.905
 6176SOL    HW219428   6.344   3.970   6.786
 6177SOL     OW19429   5.470   1.607   1.126
 6177SOL    HW119430   5.469   1.706   1.135
 6177SOL    HW219431   5.391   1.568   1.175
 6178SOL     OW19432   5.090   5.376   1.939
 6178SOL    HW119433   5.089   5.311   1.863
 6178SOL    HW219434   5.092   5.327   2.026
 6179SOL     OW19435   0.160   3.717   4.821
 6179SOL    HW119436   0.250   3.717   4.864
 6179SOL    HW219437   0.163   3.664   4.736
 6180SOL     OW19438   3.495   6.879   6.698
 6180SOL    HW119439   3.412   6.935   6.690
 6180SOL    HW219440   3.476   6.787   6.665
 6181SOL     OW19441   4.500   6.532   0.633
 6181SOL    HW119442   4.409   6.543   0.594
 6181SOL    HW219443   4.537   6.621   0.659
 6182SOL     OW19444   5.019   5.656   5.955
 6182SOL    HW119445   5.063   5.571   5.983
 6182SOL    HW219446   5.068   5.733   5.996
 6183SOL     OW19447   1.981   0.391   3.165
 6183SOL    HW119448   1.976   0.380   3.066
 6183SOL    HW219449   2.069   0.357   3.198
 6184SOL     OW19450   2.052   0.036   6.151
 6184SOL    HW119451   2.011   0.127   6.148
 6184SOL    HW219452   2.006   7.010   6.219
 6185SOL     OW19453   1.028   3.652   0.269
 6185SOL    HW119454   1.118   3.620   0.299
 6185SOL    HW219455   1.018   3.636   0.171
 6186SOL     OW19456   5.804   6.852   3.997
 6186SOL    HW119457   5.720   6.864   4.049
 6186SOL    HW219458   5.788   6.788   3.922
 6187SOL     OW19459   5.131   4.510   4.115
 6187SOL    HW119460   5.230   4.503   4.127
 6187SOL    HW219461   5.111   4.558   4.030
 6188SOL     OW19462   2.474   5.794   1.280
 6188SOL    HW119463   2.479   5.715   1.218
 6188SOL    HW219464   2.461   5.762   1.373
 6189SOL     OW19465   4.743   4.682   3.885
 6189SOL    HW119466   4.734   4.749   3.812
 6189SOL    HW219467   4.686   4.602   3.864
 6190SOL     OW19468   5.819   3.557   6.151
 6190SOL    HW119469   5.839   3.651   6.124
 6190SOL    HW219470   5.899   3.518   6.198
 6191SOL     OW19471   5.414   2.524   1.000
 6191SOL    HW119472   5.512   2.535   0.983
 6191SOL    HW219473   5.400   2.496   1.095
 6192SOL     OW19474   3.421   3.755   0.598
 6192SOL    HW119475   3.479   3.786   0.673
 6192SOL    HW219476   3.478   3.724   0.522
 6193SOL     OW19477   3.778   0.530   2.391
 6193SOL    HW119478   3.876   0.522   2.378
 6193SOL    HW219479   3.758   0.539   2.489
 6194SOL     OW19480   2.174   0.003   0.443
 6194SOL    HW119481   2.114   0.021   0.365
 6194SOL    HW219482   2.268   7.022   0.410
 6195SOL     OW19483   3.775   5.994   5.988
 6195SOL    HW119484   3.800   5.960   5.897
 6195SOL    HW219485   3.762   5.917   6.050
 6196SOL     OW19486   6.946   2.642   0.138
 6196SOL    HW119487   6.895   2.723   0.109
 6196SOL    HW219488   6.985   2.659   0.229
 6197SOL     OW19489   4.360   3.610   0.561
 6197SOL    HW119490   4.412   3.688   0.528
 6197SOL    HW219491   4.369   3.604   0.661
 6198SOL     OW19492   3.655   5.645   2.786
 6198SOL    HW119493   3.599   5.719   2.749
 6198SOL    HW219494   3.597   5.565   2.804
 6199SOL     OW19495   0.306   6.887   1.118
 6199SOL    HW119496   0.332   6.909   1.024
 6199SOL    HW219497   0.386   6.850   1.167
 6200SOL     OW19498   2.568   1.448   6.507
 6200SOL    HW119499   2.580   1.421   6.603
 6200SOL    HW219500   2.593   1.372   6.447
 6201SOL     OW19501   2.223   5.065   5.789
 6201SOL    HW119502   2.277   5.114   5.857
 6201SOL    HW219503   2.148   5.017   5.834
 6202SOL     OW19504   3.511   1.644   1.408
 6202SOL    HW119505   3.459   1.626   1.492
 6202SOL    HW219506   3.609   1.637   1.429
 6203SOL     OW19507   5.429   0.312   3.599
 6203SOL    HW119508   5.490   0.338   3.673
 6203SOL    HW219509   5.482   0.294   3.516
 6204SOL     OW19510   0.508   5.029   4.949
 6204SOL    HW119511   0.412   5.003   4.948
 6204SOL    HW219512   0.546   5.011   5.040
 6205SOL     OW19513   5.664   6.222   0.173
 6205SOL    HW119514   5.717   6.228   0.258
 6205SOL    HW219515   5.726   6.203   0.097
 6206SOL     OW19516   6.765   0.445   2.542
 6206SOL    HW119517   6.710   0.443   2.459
 6206SOL    HW219518   6.742   0.367   2.600
 6207SOL     OW19519   1.524   3.568   4.851
 6207SOL    HW119520   1.611   3.613   4.872
 6207SOL    HW219521   1.508   3.495   4.918
 6208SOL     OW19522   6.224   6.815   5.973
 6208SOL    HW119523   6.161   6.795   6.048
 6208SOL    HW219524   6.179   6.795   5.886
 6209SOL     OW19525   4.260   5.837   7.004
 6209SOL    HW119526   4.193   5.908   6.980
 6209SOL    HW219527   4.262   5.767   6.933
 6210SOL     OW19528   5.371   4.377   3.196
 6210SOL    HW119529   5.454   4.402   3.146
 6210SOL    HW219530   5.354   4.444   3.269
 6211SOL     OW19531   2.846   0.008   5.794
 6211SOL    HW119532   2.790   0.090   5.801
 6211SOL    HW219533   2.938   0.033   5.763
 6212SOL     OW19534   0.631   5.271   2.810
 6212SOL    HW119535   0.598   5.323   2.889
 6212SOL    HW219536   0.603   5.176   2.819
 6213SOL     OW19537   5.627   6.808   6.686
 6213SOL    HW119538   5.588   6.757   6.609
 6213SOL    HW219539   5.679   6.745   6.745
 6214SOL     OW19540   6.458   5.246   3.029
 6214SOL    HW119541   6.439   5.292   2.942
 6214SOL    HW219542   6.513   5.164   3.013
 6215SOL     OW19543   3.374   1.754   6.992
 6215SOL    HW119544   3.402   1.672   6.941
 6215SOL    HW219545   3.345   1.727   0.055
 6216SOL     OW19546   6.230   1.928   1.807
 6216SOL    HW119547   6.289   2.009   1.811
 6216SOL    HW219548   6.163   1.939   1.734
 6217SOL     OW19549   5.378   2.602   1.714
 6217SOL    HW119550   5.446   2.662   1.673
 6217SOL    HW219551   5.341   2.644   1.797
 6218SOL     OW19552   3.509   4.908   4.043
 6218SOL    HW119553   3.471   4.874   4.129
 6218SOL    HW219554   3.609   4.900   4.045
 6219SOL     OW19555   0.670   1.597   4.640
 6219SOL    HW119556   0.682   1.697   4.641
 6219SOL    HW219557   0.674   1.562   4.734
 6220SOL     OW19558   1.853   4.552   5.768
 6220SOL    HW119559   1.931   4.610   5.790
 6220SOL    HW219560   1.847   4.539   5.668
 6221SOL     OW19561   5.267   5.190   5.592
 6221SOL    HW119562   5.173   5.178   5.626
 6221SOL    HW219563   5.324   5.116   5.626
 6222SOL     OW19564   0.673   6.647   1.473
 6222SOL    HW119565   0.751   6.599   1.514
 6222SOL    HW219566   0.609   6.674   1.544
 6223SOL     OW19567   6.553   3.117   4.655
 6223SOL    HW119568   6.560   3.062   4.571
 6223SOL    HW219569   6.636   3.105   4.710
 6224SOL     OW19570   1.712   1.859   6.146
 6224SOL    HW119571   1.784   1.790   6.132
 6224SOL    HW219572   1.677   1.889   6.058
 6225SOL     OW19573   2.832   3.455   1.215
 6225SOL    HW119574   2.864   3.540   1.257
 6225SOL    HW219575   2.901   3.384   1.227
 6226SOL     OW19576   5.825   1.723   3.903
 6226SOL    HW119577   5.816   1.661   3.824
 6226SOL    HW219578   5.752   1.703   3.968
 6227SOL     OW19579   3.444   4.586   6.234
 6227SOL    HW119580   3.440   4.495   6.276
 6227SOL    HW219581   3.535   4.626   6.250
 6228SOL     OW19582   0.106   2.167   2.491
 6228SOL    HW119583   0.156   2.085   2.461
 6228SOL    HW219584   0.165   2.222   2.550
 6229SOL     OW19585   1.280   2.160   2.800
 6229SOL    HW119586   1.342   2.234   2.826
 6229SOL    HW219587   1.331   2.089   2.751
 6230SOL     OW19588   1.405   1.454   4.655
 6230SOL    HW119589   1.437   1.532   4.601
 6230SOL    HW219590   1.307   1.463   4.672
 6231SOL     OW19591   6.982   5.302   1.553
 6231SOL    HW119592   6.931   5.341   1.630
 6231SOL    HW219593   6.960   5.351   1.469
 6232SOL     OW19594   6.607   1.537   0.091
 6232SOL    HW119595   6.596   1.508   0.186
 6232SOL    HW219596   6.518   1.540   0.047
 6233SOL     OW19597   5.626   1.502   0.158
 6233SOL    HW119598   5.684   1.434   0.114
 6233SOL    HW219599   5.535   1.501   0.116
 6234SOL     OW19600   0.642   1.353   5.397
 6234SOL    HW119601   0.607   1.441   5.429
 6234SOL    HW219602   0.664   1.296   5.477
 6235SOL     OW19603   1.309   0.381   2.832
 6235SOL    HW119604   1.262   0.321   2.896
 6235SOL    HW219605   1.247   0.453   2.800
 6236SOL     OW19606   0.963   5.311   0.475
 6236SOL    HW119607   0.990   5.402   0.506
 6236SOL    HW219608   0.999   5.242   0.538
 6237SOL     OW19609   4.448   6.418   0.351
 6237SOL    HW119610   4.439   6.411   0.252
 6237SOL    HW219611   4.464   6.326   0.389
 6238SOL     OW19612   4.194   4.822   3.237
 6238SOL    HW119613   4.275   4.765   3.246
 6238SOL    HW219614   4.138   4.789   3.161
 6239SOL     OW19615   2.598   6.618   1.733
 6239SOL    HW119616   2.629   6.576   1.818
 6239SOL    HW219617   2.607   6.553   1.658
 6240SOL     OW19618   2.455   1.998   0.637
 6240SOL    HW119619   2.374   2.035   0.682
 6240SOL    HW219620   2.514   1.954   0.705
 6241SOL     OW19621   2.561   1.241   2.654
 6241SOL    HW119622   2.588   1.208   2.564
 6241SOL    HW219623   2.634   1.298   2.692
 6242SOL     OW19624   5.378   1.253   3.419
 6242SOL    HW119625   5.372   1.281   3.514
 6242SOL    HW219626   5.404   1.157   3.413
 6243SOL     OW19627   6.061   7.019   2.754
 6243SOL    HW119628   6.088   6.924   2.772
 6243SOL    HW219629   5.964   0.001   2.775
 6244SOL     OW19630   1.333   2.028   1.457
 6244SOL    HW119631   1.333   2.117   1.412
 6244SOL    HW219632   1.422   2.011   1.498
 6245SOL     OW19633   3.027   4.327   1.636
 6245SOL    HW119634   3.126   4.341   1.628
 6245SOL    HW219635   2.987   4.402   1.689
 6246SOL     OW19636   2.853   2.747   6.316
 6246SOL    HW119637   2.883   2.722   6.224
 6246SOL    HW219638   2.925   2.724   6.382
 6247SOL     OW19639   0.698   6.431   3.685
 6247SOL    HW119640   0.602   6.458   3.685
 6247SOL    HW219641   0.755   6.508   3.657
 6248SOL     OW19642   1.541   3.805   1.566
 6248SOL    HW119643   1.539   3.899   1.602
 6248SOL    HW219644   1.480   3.798   1.487
 6249SOL     OW19645   0.963   4.586   0.508
 6249SOL    HW119646   0.962   4.533   0.424
 6249SOL    HW219647   0.923   4.533   0.582
 6250SOL     OW19648   6.373   6.040   0.498
 6250SOL    HW119649   6.289   6.087   0.526
 6250SOL    HW219650   6.349   5.960   0.443
 6251SOL     OW19651   3.653   6.976   0.685
 6251SOL    HW119652   3.618   0.024   0.739
 6251SOL    HW219653   3.670   6.898   0.745
 6252SOL     OW19654   1.991   6.628   4.660
 6252SOL    HW119655   1.957   6.548   4.611
 6252SOL    HW219656   2.091   6.623   4.665
 6253SOL     OW19657   2.260   4.274   2.553
 6253SOL    HW119658   2.335   4.329   2.591
 6253SOL    HW219659   2.184   4.334   2.528
 6254SOL     OW19660   5.093   1.177   6.776
 6254SOL    HW119661   5.133   1.224   6.855
 6254SOL    HW219662   5.117   1.226   6.692
 6255SOL     OW19663   1.890   0.918   1.350
 6255SOL    HW119664   1.816   0.952   1.408
 6255SOL    HW219665   1.863   0.832   1.308
 6256SOL     OW19666   4.457   4.998   2.925
 6256SOL    HW119667   4.464   5.088   2.967
 6256SOL    HW219668   4.377   4.950   2.963
 6257SOL     OW19669   5.988   2.156   1.025
 6257SOL    HW119670   5.939   2.184   1.108
 6257SOL    HW219671   5.939   2.081   0.982
 6258SOL     OW19672   4.653   0.351   3.732
 6258SOL    HW119673   4.711   0.368   3.811
 6258SOL    HW219674   4.600   0.433   3.710
 6259SOL     OW19675   2.901   1.431   0.845
 6259SOL    HW119676   2.973   1.413   0.913
 6259SOL    HW219677   2.929   1.392   0.757
 6260SOL     OW19678   3.510   4.129   0.114
 6260SOL    HW119679   3.587   4.106   0.174
 6260SOL    HW219680   3.510   4.227   0.096
 6261SOL     OW19681   3.165   6.493   6.499
 6261SOL    HW119682   3.173   6.568   6.565
 6261SOL    HW219683   3.246   6.490   6.441
 6262SOL     OW19684   2.218   4.243   0.417
 6262SOL    HW119685   2.279   4.289   0.482
 6262SOL    HW219686   2.245   4.268   0.324
 6263SOL     OW19687   0.446   6.906   6.076
 6263SOL    HW119688   0.424   6.809   6.077
 6263SOL    HW219689   0.505   6.928   6.153
 6264SOL     OW19690   1.316   6.354   0.894
 6264SOL    HW119691   1.385   6.354   0.967
 6264SOL    HW219692   1.327   6.272   0.838
 6265SOL     OW19693   3.288   4.015   1.319
 6265SOL    HW119694   3.198   4.051   1.343
 6265SOL    HW219695   3.331   4.075   1.252
 6266SOL     OW19696   4.386   0.948   4.620
 6266SOL    HW119697   4.354   0.983   4.708
 6266SOL    HW219698   4.479   0.981   4.603
 6267SOL     OW19699   3.043   0.437   6.984
 6267SOL    HW119700   3.107   0.488   0.012
 6267SOL    HW219701   2.949   0.460   7.009
 6268SOL     OW19702   2.928   6.225   2.814
 6268SOL    HW119703   2.880   6.218   2.902
 6268SOL    HW219704   3.005   6.288   2.825
 6269SOL     OW19705   7.028   6.003   2.403
 6269SOL    HW119706   0.069   5.956   2.350
 6269SOL    HW219707   0.038   6.084   2.447
 6270SOL     OW19708   2.056   0.226   5.771
 6270SOL    HW119709   2.115   0.150   5.797
 6270SOL    HW219710   2.104   0.287   5.708
 6271SOL     OW19711   6.480   2.755   6.108
 6271SOL    HW119712   6.445   2.766   6.015
 6271SOL    HW219713   6.555   2.819   6.123
 6272SOL     OW19714   0.586   3.218   4.979
 6272SOL    HW119715   0.546   3.162   5.052
 6272SOL    HW219716   0.571   3.174   4.891
 6273SOL     OW19717   1.066   0.922   2.157
 6273SOL    HW119718   1.078   1.019   2.177
 6273SOL    HW219719   0.986   0.910   2.098
 6274SOL     OW19720   2.264   5.923   5.983
 6274SOL    HW119721   2.268   5.834   6.028
 6274SOL    HW219722   2.309   5.917   5.894
 6275SOL     OW19723   2.688   6.460   5.311
 6275SOL    HW119724   2.734   6.506   5.235
 6275SOL    HW219725   2.617   6.520   5.349
 6276SOL     OW19726   1.519   4.743   3.623
 6276SOL    HW119727   1.572   4.817   3.582
 6276SOL    HW219728   1.457   4.780   3.692
 6277SOL     OW19729   5.138   2.619   2.514
 6277SOL    HW119730   5.126   2.718   2.503
 6277SOL    HW219731   5.059   2.582   2.564
 6278SOL     OW19732   4.718   0.626   5.182
 6278SOL    HW119733   4.679   0.577   5.104
 6278SOL    HW219734   4.761   0.710   5.151
 6279SOL     OW19735   3.863   1.145   6.821
 6279SOL    HW119736   3.899   1.054   6.798
 6279SOL    HW219737   3.883   1.166   6.916
 6280SOL     OW19738   0.392   2.855   5.365
 6280SOL    HW119739   0.449   2.859   5.447
 6280SOL    HW219740   0.306   2.808   5.387
 6281SOL     OW19741   2.528   6.617   5.445
 6281SOL    HW119742   2.534   6.616   5.545
 6281SOL    HW219743   2.431   6.616   5.417
 6282SOL     OW19744   1.653   0.234   4.795
 6282SOL    HW119745   1.682   0.274   4.709
 6282SOL    HW219746   1.623   0.140   4.780
 6283SOL     OW19747   6.383   2.892   4.739
 6283SOL    HW119748   6.298   2.945   4.747
 6283SOL    HW219749   6.412   2.888   4.644
 6284SOL     OW19750   2.392   5.420   4.754
 6284SOL    HW119751   2.377   5.460   4.845
 6284SOL    HW219752   2.420   5.325   4.765
 6285SOL     OW19753   1.515   2.960   3.751
 6285SOL    HW119754   1.563   3.015   3.683
 6285SOL    HW219755   1.456   3.019   3.806
 6286SOL     OW19756   6.558   1.990   3.817
 6286SOL    HW119757   6.628   2.004   3.887
 6286SOL    HW219758   6.570   1.900   3.775
 6287SOL     OW19759   4.462   4.762   2.264
 6287SOL    HW119760   4.364   4.776   2.245
 6287SOL    HW219761   4.500   4.696   2.199
 6288SOL     OW19762   6.068   4.145   1.933
 6288SOL    HW119763   5.987   4.200   1.914
 6288SOL    HW219764   6.120   4.186   2.008
 6289SOL     OW19765   1.316   3.053   2.677
 6289SOL    HW119766   1.403   3.038   2.630
 6289SOL    HW219767   1.245   3.072   2.610
 6290SOL     OW19768   5.522   3.698   4.353
 6290SOL    HW119769   5.549   3.760   4.427
 6290SOL    HW219770   5.558   3.607   4.371
 6291SOL     OW19771   3.901   3.041   3.962
 6291SOL    HW119772   3.935   3.102   3.890
 6291SOL    HW219773   3.827   2.985   3.925
 6292SOL     OW19774   0.658   3.035   3.329
 6292SOL    HW119775   0.611   3.116   3.363
 6292SOL    HW219776   0.595   2.957   3.328
 6293SOL     OW19777   4.370   6.743   0.205
 6293SOL    HW119778   4.319   6.814   0.254
 6293SOL    HW219779   4.311   6.702   0.135
 6294SOL     OW19780   3.768   4.949   3.639
 6294SOL    HW119781   3.758   4.973   3.736
 6294SOL    HW219782   3.861   4.918   3.621
 6295SOL     OW19783   5.180   5.496   5.649
 6295SOL    HW119784   5.260   5.453   5.607
 6295SOL    HW219785   5.185   5.487   5.749
 6296SOL     OW19786   6.494   6.799   4.180
 6296SOL    HW119787   6.492   6.704   4.209
 6296SOL    HW219788   6.589   6.833   4.182
 6297SOL     OW19789   4.815   0.109   5.278
 6297SOL    HW119790   4.867   0.180   5.230
 6297SOL    HW219791   4.719   0.134   5.280
 6298SOL     OW19792   1.429   3.353   6.104
 6298SOL    HW119793   1.369   3.433   6.108
 6298SOL    HW219794   1.373   3.270   6.099
 6299SOL     OW19795   5.981   2.136   0.064
 6299SOL    HW119796   5.916   2.205   0.034
 6299SOL    HW219797   6.074   2.170   0.052
 6300SOL     OW19798   5.292   0.831   5.070
 6300SOL    HW119799   5.243   0.748   5.097
 6300SOL    HW219800   5.390   0.812   5.069
 6301SOL     OW19801   2.559   0.161   0.929
 6301SOL    HW119802   2.528   0.089   0.866
 6301SOL    HW219803   2.486   0.181   0.995
 6302SOL     OW19804   1.255   1.813   4.379
 6302SOL    HW119805   1.298   1.879   4.318
 6302SOL    HW219806   1.203   1.861   4.449
 6303SOL     OW19807   2.777   0.926   4.806
 6303SOL    HW119808   2.793   0.840   4.757
 6303SOL    HW219809   2.705   0.913   4.874
 6304SOL     OW19810   2.564   1.282   1.135
 6304SOL    HW119811   2.495   1.211   1.124
 6304SOL    HW219812   2.521   1.367   1.166
 6305SOL     OW19813   6.396   6.625   0.956
 6305SOL    HW119814   6.302   6.604   0.931
 6305SOL    HW219815   6.410   6.724   0.953
 6306SOL     OW19816   0.125   4.074   4.406
 6306SOL    HW119817   0.025   4.078   4.400
 6306SOL    HW219818   0.156   3.984   4.376
 6307SOL     OW19819   3.977   4.214   6.164
 6307SOL    HW119820   3.923   4.165   6.095
 6307SOL    HW219821   4.034   4.283   6.120
 6308SOL     OW19822   1.576   1.707   4.905
 6308SOL    HW119823   1.584   1.636   4.834
 6308SOL    HW219824   1.569   1.663   4.995
 6309SOL     OW19825   4.829   3.964   4.637
 6309SOL    HW119826   4.894   3.993   4.707
 6309SOL    HW219827   4.740   4.007   4.654
 6310SOL     OW19828   1.916   4.974   4.413
 6310SOL    HW119829   1.865   4.996   4.496
 6310SOL    HW219830   1.924   4.875   4.404
 6311SOL     OW19831   6.010   0.941   5.448
 6311SOL    HW119832   6.108   0.955   5.446
 6311SOL    HW219833   5.970   0.991   5.524
 6312SOL     OW19834   5.093   5.064   5.888
 6312SOL    HW119835   5.030   4.986   5.888
 6312SOL    HW219836   5.049   5.142   5.844
 6313SOL     OW19837   1.783   5.658   3.141
 6313SOL    HW119838   1.783   5.684   3.238
 6313SOL    HW219839   1.844   5.718   3.090
 6314SOL     OW19840   3.525   6.920   1.944
 6314SOL    HW119841   3.442   6.870   1.920
 6314SOL    HW219842   3.557   6.972   1.864
 6315SOL     OW19843   3.710   2.314   6.547
 6315SOL    HW119844   3.744   2.396   6.502
 6315SOL    HW219845   3.613   2.325   6.567
 6316SOL     OW19846   4.612   2.364   6.297
 6316SOL    HW119847   4.585   2.457   6.321
 6316SOL    HW219848   4.531   2.306   6.291
 6317SOL     OW19849   5.338   6.176   3.341
 6317SOL    HW119850   5.400   6.113   3.293
 6317SOL    HW219851   5.283   6.126   3.407
 6318SOL     OW19852   2.685   2.285   5.119
 6318SOL    HW119853   2.707   2.198   5.076
 6318SOL    HW219854   2.762   2.314   5.176
 6319SOL     OW19855   0.279   2.910   3.523
 6319SOL    HW119856   0.212   2.848   3.562
 6319SOL    HW219857   0.346   2.858   3.470
 6320SOL     OW19858   5.378   4.725   4.046
 6320SOL    HW119859   5.359   4.726   3.948
 6320SOL    HW219860   5.443   4.652   4.067
 6321SOL     OW19861   3.459   5.193   1.576
 6321SOL    HW119862   3.360   5.177   1.574
 6321SOL    HW219863   3.484   5.258   1.504
 6322SOL     OW19864   1.820   2.050   6.343
 6322SOL    HW119865   1.869   2.108   6.278
 6322SOL    HW219866   1.757   1.990   6.293
 6323SOL     OW19867   3.375   2.610   1.165
 6323SOL    HW119868   3.321   2.691   1.140
 6323SOL    HW219869   3.471   2.628   1.148
 6324SOL     OW19870   4.766   0.705   6.273
 6324SOL    HW119871   4.848   0.740   6.229
 6324SOL    HW219872   4.688   0.762   6.250
 6325SOL     OW19873   1.405   1.727   1.469
 6325SOL    HW119874   1.351   1.788   1.411
 6325SOL    HW219875   1.413   1.638   1.426
 6326SOL     OW19876   5.271   6.363   1.258
 6326SOL    HW119877   5.241   6.441   1.202
 6326SOL    HW219878   5.355   6.325   1.219
 6327SOL     OW19879   6.922   0.311   5.130
 6327SOL    HW119880   6.921   0.402   5.171
 6327SOL    HW219881   7.016   0.285   5.108
 6328SOL     OW19882   2.258   3.730   6.931
 6328SOL    HW119883   2.320   3.707   6.856
 6328SOL    HW219884   2.264   3.828   6.950
 6329SOL     OW19885   1.203   2.288   3.361
 6329SOL    HW119886   1.233   2.279   3.456
 6329SOL    HW219887   1.276   2.259   3.300
 6330SOL     OW19888   4.889   0.999   1.110
 6330SOL    HW119889   4.945   1.049   1.177
 6330SOL    HW219890   4.859   0.912   1.151
 6331SOL     OW19891   6.385   2.561   0.837
 6331SOL    HW119892   6.344   2.499   0.904
 6331SOL    HW219893   6.408   2.647   0.883
 6332SOL     OW19894   6.487   4.754   2.421
 6332SOL    HW119895   6.515   4.791   2.333
 6332SOL    HW219896   6.388   4.759   2.429
 6333SOL     OW19897   3.770   5.083   3.889
 6333SOL    HW119898   3.864   5.117   3.898
 6333SOL    HW219899   3.745   5.033   3.972
 6334SOL     OW19900   1.748   6.911   2.580
 6334SOL    HW119901   1.808   6.989   2.599
 6334SOL    HW219902   1.805   6.831   2.559
 6335SOL     OW19903   5.678   1.429   0.757
 6335SOL    HW119904   5.720   1.449   0.669
 6335SOL    HW219905   5.582   1.405   0.744
 6336SOL     OW19906   6.895   2.427   5.499
 6336SOL    HW119907   6.877   2.339   5.455
 6336SOL    HW219908   6.949   2.413   5.582
 6337SOL     OW19909   4.640   3.413   6.301
 6337SOL    HW119910   4.562   3.378   6.354
 6337SOL    HW219911   4.658   3.508   6.327
 6338SOL     OW19912   2.578   2.216   2.421
 6338SOL    HW119913   2.655   2.244   2.364
 6338SOL    HW219914   2.500   2.193   2.362
 6339SOL     OW19915   0.397   2.664   3.922
 6339SOL    HW119916   0.471   2.604   3.952
 6339SOL    HW219917   0.404   2.752   3.969
 6340SOL     OW19918   2.942   5.719   3.230
 6340SOL    HW119919   2.864   5.668   3.195
 6340SOL    HW219920   2.939   5.719   3.330
 6341SOL     OW19921   6.968   4.961   3.510
 6341SOL    HW119922   7.008   5.015   3.583
 6341SOL    HW219923   6.939   4.872   3.545
 6342SOL     OW19924   2.534   1.697   1.850
 6342SOL    HW119925   2.567   1.776   1.798
 6342SOL    HW219926   2.538   1.717   1.948
 6343SOL     OW19927   4.832   2.621   6.907
 6343SOL    HW119928   4.756   2.665   6.859
 6343SOL    HW219929   4.898   2.690   6.936
 6344SOL     OW19930   6.479   3.642   5.790
 6344SOL    HW119931   6.535   3.628   5.708
 6344SOL    HW219932   6.447   3.554   5.824
 6345SOL     OW19933   4.210   0.967   2.029
 6345SOL    HW119934   4.213   1.066   2.033
 6345SOL    HW219935   4.115   0.936   2.035
 6346SOL     OW19936   6.541   3.593   3.411
 6346SOL    HW119937   6.453   3.639   3.426
 6346SOL    HW219938   6.613   3.662   3.404
 6347SOL     OW19939   3.036   0.838   1.995
 6347SOL    HW119940   3.002   0.914   2.049
 6347SOL    HW219941   2.981   0.829   1.911
 6348SOL     OW19942   0.944   3.842   5.349
 6348SOL    HW119943   0.983   3.875   5.263
 6348SOL    HW219944   0.857   3.888   5.366
 6349SOL     OW19945   2.542   0.821   1.677
 6349SOL    HW119946   2.592   0.784   1.755
 6349SOL    HW219947   2.601   0.820   1.596
 6350SOL     OW19948   2.243   4.880   3.486
 6350SOL    HW119949   2.230   4.902   3.583
 6350SOL    HW219950   2.159   4.840   3.449
 6351SOL     OW19951   6.332   2.666   2.097
 6351SOL    HW119952   6.413   2.688   2.042
 6351SOL    HW219953   6.335   2.720   2.181
 6352SOL     OW19954   1.863   5.497   4.141
 6352SOL    HW119955   1.912   5.482   4.055
 6352SOL    HW219956   1.869   5.415   4.198
 6353SOL     OW19957   6.579   0.682   6.347
 6353SOL    HW119958   6.509   0.640   6.289
 6353SOL    HW219959   6.578   0.638   6.437
 6354SOL     OW19960   1.171   7.027   2.437
 6354SOL    HW119961   1.083   6.979   2.431
 6354SOL    HW219962   1.214   7.007   2.525
 6355SOL     OW19963   0.824   4.627   5.036
 6355SOL    HW119964   0.889   4.602   5.108
 6355SOL    HW219965   0.810   4.548   4.976
 6356SOL     OW19966   4.970   4.909   1.858
 6356SOL    HW119967   4.902   4.964   1.907
 6356SOL    HW219968   5.061   4.936   1.887
 6357SOL     OW19969   4.982   2.808   1.460
 6357SOL    HW119970   4.889   2.842   1.451
 6357SOL    HW219971   5.042   2.882   1.490
 6358SOL     OW19972   0.503   2.102   4.878
 6358SOL    HW119973   0.479   2.036   4.808
 6358SOL    HW219974   0.600   2.127   4.868
 6359SOL     OW19975   6.192   0.335   5.530
 6359SOL    HW119976   6.276   0.317   5.479
 6359SOL    HW219977   6.174   0.433   5.531
 6360SOL     OW19978   2.300   4.590   4.234
 6360SOL    HW119979   2.358   4.510   4.251
 6360SOL    HW219980   2.212   4.560   4.197
 6361SOL     OW19981   5.806   6.682   6.862
 6361SOL    HW119982   5.865   6.739   6.919
 6361SOL    HW219983   5.862   6.622   6.805
 6362SOL     OW19984   5.787   4.963   6.960
 6362SOL    HW119985   5.838   5.003   0.006
 6362SOL    HW219986   5.689   4.978   6.975
 6363SOL     OW19987   2.309   5.156   3.448
 6363SOL    HW119988   2.291   5.058   3.463
 6363SOL    HW219989   2.229   5.198   3.404
 6364SOL     OW19990   2.918   1.420   5.713
 6364SOL    HW119991   2.905   1.325   5.742
 6364SOL    HW219992   2.852   1.479   5.759
 6365SOL     OW19993   4.714   6.872   4.401
 6365SOL    HW119994   4.684   6.839   4.490
 6365SOL    HW219995   4.734   6.970   4.407
 6366SOL     OW19996   0.199   6.044   5.528
 6366SOL    HW119997   0.188   6.044   5.627
 6366SOL    HW219998   0.214   6.138   5.496
 6367SOL     OW19999   4.428   0.242   3.933
 6367SOL    HW120000   4.499   0.249   3.862
 6367SOL    HW220001   4.470   0.250   4.023
 6368SOL     OW20002   2.998   0.424   3.972
 6368SOL    HW120003   2.972   0.474   4.054
 6368SOL    HW220004   3.082   0.373   3.989
 6369SOL     OW20005   3.319   5.141   4.600
 6369SOL    HW120006   3.222   5.122   4.617
 6369SOL    HW220007   3.348   5.094   4.517
 6370SOL     OW20008   1.344   2.882   2.892
 6370SOL    HW120009   1.415   2.918   2.952
 6370SOL    HW220010   1.332   2.943   2.814
 6371SOL     OW20011   4.924   3.426   4.022
 6371SOL    HW120012   4.941   3.471   3.935
 6371SOL    HW220013   4.961   3.332   4.019
 6372SOL     OW20014   2.947   6.939   1.798
 6372SOL    HW120015   3.030   6.891   1.772
 6372SOL    HW220016   2.894   6.963   1.717
 6373SOL     OW20017   5.867   4.709   4.273
 6373SOL    HW120018   5.846   4.634   4.335
 6373SOL    HW220019   5.879   4.673   4.180
 6374SOL     OW20020   3.037   3.906   3.642
 6374SOL    HW120021   3.038   3.947   3.733
 6374SOL    HW220022   3.088   3.964   3.579
 6375SOL     OW20023   0.911   1.342   3.341
 6375SOL    HW120024   0.906   1.318   3.438
 6375SOL    HW220025   0.991   1.298   3.300
 6376SOL     OW20026   6.167   1.913   5.341
 6376SOL    HW120027   6.115   1.978   5.285
 6376SOL    HW220028   6.248   1.959   5.378
 6377SOL     OW20029   6.912   1.252   6.080
 6377SOL    HW120030   6.876   1.180   6.140
 6377SOL    HW220031   6.977   1.308   6.131
 6378SOL     OW20032   5.372   5.169   3.406
 6378SOL    HW120033   5.340   5.078   3.379
 6378SOL    HW220034   5.361   5.181   3.504
 6379SOL     OW20035   2.451   5.017   5.059
 6379SOL    HW120036   2.427   4.920   5.067
 6379SOL    HW220037   2.513   5.041   5.134
 6380SOL     OW20038   1.091   1.380   5.386
 6380SOL    HW120039   1.024   1.343   5.322
 6380SOL    HW220040   1.147   1.306   5.423
 6381SOL     OW20041   3.662   2.899   2.807
 6381SOL    HW120042   3.584   2.932   2.755
 6381SOL    HW220043   3.747   2.929   2.763
 6382SOL     OW20044   1.268   2.706   0.174
 6382SOL    HW120045   1.347   2.766   0.185
 6382SOL    HW220046   1.266   2.639   0.248
 6383SOL     OW20047   1.780   2.286   3.303
 6383SOL    HW120048   1.818   2.195   3.312
 6383SOL    HW220049   1.854   2.353   3.292
 6384SOL     OW20050   5.741   4.619   1.660
 6384SOL    HW120051   5.680   4.690   1.626
 6384SOL    HW220052   5.726   4.534   1.609
 6385SOL     OW20053   6.237   4.926   4.181
 6385SOL    HW120054   6.210   5.010   4.135
 6385SOL    HW220055   6.337   4.925   4.193
 6386SOL     OW20056   2.583   4.336   0.165
 6386SOL    HW120057   2.683   4.339   0.169
 6386SOL    HW220058   2.547   4.289   0.245
 6387SOL     OW20059   0.927   2.197   6.177
 6387SOL    HW120060   0.869   2.275   6.198
 6387SOL    HW220061   0.874   2.128   6.128
 6388SOL     OW20062   4.513   4.683   1.695
 6388SOL    HW120063   4.492   4.643   1.606
 6388SOL    HW220064   4.469   4.629   1.767
 6389SOL     OW20065   1.032   5.916   1.987
 6389SOL    HW120066   1.096   5.968   2.043
 6389SOL    HW220067   1.082   5.852   1.929
 6390SOL     OW20068   0.607   2.516   3.580
 6390SOL    HW120069   0.547   2.526   3.500
 6390SOL    HW220070   0.682   2.453   3.558
 6391SOL     OW20071   2.877   0.507   6.255
 6391SOL    HW120072   2.970   0.541   6.262
 6391SOL    HW220073   2.858   0.445   6.332
 6392SOL     OW20074   2.564   6.666   3.883
 6392SOL    HW120075   2.627   6.692   3.956
 6392SOL    HW220076   2.594   6.581   3.841
 6393SOL     OW20077   5.759   6.501   1.738
 6393SOL    HW120078   5.735   6.590   1.699
 6393SOL    HW220079   5.733   6.429   1.674
 6394SOL     OW20080   2.642   4.608   0.683
 6394SOL    HW120081   2.605   4.686   0.733
 6394SOL    HW220082   2.671   4.538   0.748
 6395SOL     OW20083   5.706   2.070   1.857
 6395SOL    HW120084   5.707   2.071   1.757
 6395SOL    HW220085   5.800   2.083   1.890
 6396SOL     OW20086   5.674   2.823   6.043
 6396SOL    HW120087   5.769   2.838   6.017
 6396SOL    HW220088   5.667   2.812   6.142
 6397SOL     OW20089   6.305   1.866   7.020
 6397SOL    HW120090   6.344   1.887   0.080
 6397SOL    HW220091   6.372   1.888   6.949
 6398SOL     OW20092   3.654   0.786   0.888
 6398SOL    HW120093   3.642   0.866   0.829
 6398SOL    HW220094   3.690   0.710   0.834
 6399SOL     OW20095   1.938   5.421   6.301
 6399SOL    HW120096   2.013   5.433   6.237
 6399SOL    HW220097   1.974   5.387   6.388
 6400SOL     OW20098   1.955   5.415   3.190
 6400SOL    HW120099   1.898   5.497   3.195
 6400SOL    HW220100   2.052   5.442   3.189
 6401SOL     OW20101   6.816   4.326   3.359
 6401SOL    HW120102   6.852   4.402   3.304
 6401SOL    HW220103   6.822   4.350   3.456
 6402SOL     OW20104   2.863   0.632   3.085
 6402SOL    HW120105   2.884   0.549   3.035
 6402SOL    HW220106   2.945   0.690   3.090
 6403SOL     OW20107   0.726   6.161   6.369
 6403SOL    HW120108   0.723   6.243   6.311
 6403SOL    HW220109   0.702   6.081   6.315
 6404SOL     OW20110   4.266   1.375   3.287
 6404SOL    HW120111   4.245   1.279   3.300
 6404SOL    HW220112   4.243   1.402   3.193
 6405SOL     OW20113   1.795   1.536   2.818
 6405SOL    HW120114   1.726   1.486   2.870
 6405SOL    HW220115   1.816   1.487   2.734
 6406SOL     OW20116   1.845   2.843   3.696
 6406SOL    HW120117   1.831   2.781   3.619
 6406SOL    HW220118   1.831   2.937   3.667
 6407SOL     OW20119   3.180   6.774   3.370
 6407SOL    HW120120   3.239   6.759   3.291
 6407SOL    HW220121   3.142   6.687   3.400
 6408SOL     OW20122   6.561   2.796   0.222
 6408SOL    HW120123   6.582   2.758   0.312
 6408SOL    HW220124   6.535   2.723   0.159
 6409SOL     OW20125   6.572   4.455   3.292
 6409SOL    HW120126   6.479   4.448   3.327
 6409SOL    HW220127   6.636   4.425   3.363
 6410SOL     OW20128   1.696   1.626   0.496
 6410SOL    HW120129   1.635   1.575   0.557
 6410SOL    HW220130   1.736   1.563   0.429
 6411SOL     OW20131   0.393   2.550   3.375
 6411SOL    HW120132   0.295   2.563   3.367
 6411SOL    HW220133   0.426   2.489   3.303
 6412SOL     OW20134   6.943   3.121   5.202
 6412SOL    HW120135   7.015   3.053   5.212
 6412SOL    HW220136   6.983   3.213   5.209
 6413SOL     OW20137   5.411   4.417   2.179
 6413SOL    HW120138   5.336   4.425   2.113
 6413SOL    HW220139   5.376   4.435   2.271
 6414SOL     OW20140   5.877   0.800   1.903
 6414SOL    HW120141   5.891   0.895   1.878
 6414SOL    HW220142   5.962   0.762   1.940
 6415SOL     OW20143   3.391   2.141   2.551
 6415SOL    HW120144   3.478   2.188   2.539
 6415SOL    HW220145   3.380   2.071   2.480
 6416SOL     OW20146   1.094   0.687   6.150
 6416SOL    HW120147   1.062   0.762   6.208
 6416SOL    HW220148   1.123   0.723   6.062
 6417SOL     OW20149   0.500   5.130   3.199
 6417SOL    HW120150   0.570   5.070   3.239
 6417SOL    HW220151   0.543   5.216   3.170
 6418SOL     OW20152   6.768   4.877   2.472
 6418SOL    HW120153   6.828   4.940   2.521
 6418SOL    HW220154   6.805   4.862   2.380
 6419SOL     OW20155   2.859   5.011   2.358
 6419SOL    HW120156   2.778   5.040   2.307
 6419SOL    HW220157   2.889   4.922   2.325
 6420SOL     OW20158   2.889   3.581   6.224
 6420SOL    HW120159   2.808   3.565   6.281
 6420SOL    HW220160   2.951   3.643   6.271
 6421SOL     OW20161   6.084   1.552   1.410
 6421SOL    HW120162   6.115   1.523   1.320
 6421SOL    HW220163   6.161   1.587   1.463
 6422SOL     OW20164   6.682   0.145   3.986
 6422SOL    HW120165   6.597   0.195   3.968
 6422SOL    HW220166   6.746   0.160   3.911
 6423SOL     OW20167   4.792   4.278   1.972
 6423SOL    HW120168   4.793   4.180   1.949
 6423SOL    HW220169   4.697   4.309   1.980
 6424SOL     OW20170   6.732   4.819   5.804
 6424SOL    HW120171   6.658   4.887   5.805
 6424SOL    HW220172   6.791   4.836   5.725
 6425SOL     OW20173   6.789   5.063   4.328
 6425SOL    HW120174   6.883   5.030   4.340
 6425SOL    HW220175   6.725   4.994   4.361
 6426SOL     OW20176   0.552   3.638   4.057
 6426SOL    HW120177   0.474   3.612   4.000
 6426SOL    HW220178   0.561   3.737   4.058
 6427SOL     OW20179   1.766   3.451   6.580
 6427SOL    HW120180   1.808   3.462   6.670
 6427SOL    HW220181   1.667   3.454   6.590
 6428SOL     OW20182   6.493   3.514   0.944
 6428SOL    HW120183   6.571   3.518   0.882
 6428SOL    HW220184   6.451   3.423   0.940
 6429SOL     OW20185   1.017   1.188   4.851
 6429SOL    HW120186   1.029   1.114   4.786
 6429SOL    HW220187   1.087   1.183   4.922
 6430SOL     OW20188   4.478   1.306   1.734
 6430SOL    HW120189   4.494   1.404   1.720
 6430SOL    HW220190   4.447   1.265   1.648
 6431SOL     OW20191   5.896   6.839   2.982
 6431SOL    HW120192   5.884   6.873   2.889
 6431SOL    HW220193   5.963   6.895   3.030
 6432SOL     OW20194   4.528   4.401   0.308
 6432SOL    HW120195   4.504   4.470   0.240
 6432SOL    HW220196   4.471   4.414   0.389
 6433SOL     OW20197   3.182   4.381   1.210
 6433SOL    HW120198   3.248   4.305   1.212
 6433SOL    HW220199   3.108   4.359   1.147
 6434SOL     OW20200   1.103   3.837   1.555
 6434SOL    HW120201   1.151   3.794   1.479
 6434SOL    HW220202   1.169   3.886   1.613
 6435SOL     OW20203   3.774   5.015   6.810
 6435SOL    HW120204   3.829   4.934   6.825
 6435SOL    HW220205   3.824   5.096   6.841
 6436SOL     OW20206   2.031   3.166   4.116
 6436SOL    HW120207   2.037   3.266   4.123
 6436SOL    HW220208   2.048   3.126   4.206
 6437SOL     OW20209   1.541   1.308   0.373
 6437SOL    HW120210   1.459   1.364   0.369
 6437SOL    HW220211   1.519   1.219   0.414
 6438SOL     OW20212   7.016   4.308   5.407
 6438SOL    HW120213   6.938   4.246   5.417
 6438SOL    HW220214   0.061   4.261   5.361
 6439SOL     OW20215   0.375   6.565   0.933
 6439SOL    HW120216   0.401   6.475   0.899
 6439SOL    HW220217   0.298   6.556   0.996
 6440SOL     OW20218   2.253   1.569   1.931
 6440SOL    HW120219   2.261   1.470   1.919
 6440SOL    HW220220   2.345   1.609   1.933
 6441SOL     OW20221   0.869   6.973   2.423
 6441SOL    HW120222   0.833   0.036   2.438
 6441SOL    HW220223   0.841   6.940   2.333
 6442SOL     OW20224   1.851   1.127   3.490
 6442SOL    HW120225   1.830   1.124   3.392
 6442SOL    HW220226   1.895   1.214   3.512
 6443SOL     OW20227   3.147   3.102   0.789
 6443SOL    HW120228   3.233   3.153   0.797
 6443SOL    HW220229   3.136   3.044   0.870
 6444SOL     OW20230   0.410   2.363   3.712
 6444SOL    HW120231   0.472   2.335   3.786
 6444SOL    HW220232   0.458   2.424   3.650
 6445SOL     OW20233   4.684   2.619   5.456
 6445SOL    HW120234   4.700   2.641   5.552
 6445SOL    HW220235   4.744   2.675   5.399
 6446SOL     OW20236   0.300   2.358   5.790
 6446SOL    HW120237   0.273   2.268   5.754
 6446SOL    HW220238   0.355   2.345   5.872
 6447SOL     OW20239   0.361   6.406   2.354
 6447SOL    HW120240   0.354   6.462   2.437
 6447SOL    HW220241   0.435   6.340   2.366
 6448SOL     OW20242   6.345   4.034   2.600
 6448SOL    HW120243   6.306   4.004   2.513
 6448SOL    HW220244   6.272   4.044   2.668
 6449SOL     OW20245   4.049   4.074   1.449
 6449SOL    HW120246   4.057   4.126   1.364
 6449SOL    HW220247   4.124   4.098   1.511
 6450SOL     OW20248   6.787   3.215   1.644
 6450SOL    HW120249   6.862   3.280   1.637
 6450SOL    HW220250   6.770   3.174   1.554
 6451SOL     OW20251   2.974   6.513   5.684
 6451SOL    HW120252   3.074   6.503   5.691
 6451SOL    HW220253   2.953   6.596   5.632
 6452SOL     OW20254   3.641   6.383   5.099
 6452SOL    HW120255   3.677   6.452   5.162
 6452SOL    HW220256   3.542   6.374   5.113
 6453SOL     OW20257   2.085   6.431   6.824
 6453SOL    HW120258   1.992   6.397   6.836
 6453SOL    HW220259   2.108   6.433   6.727
 6454SOL     OW20260   3.031   1.215   3.824
 6454SOL    HW120261   2.955   1.279   3.836
 6454SOL    HW220262   3.001   1.123   3.851
 6455SOL     OW20263   0.923   2.271   4.155
 6455SOL    HW120264   0.861   2.256   4.232
 6455SOL    HW220265   1.018   2.265   4.186
 6456SOL     OW20266   1.486   0.325   3.581
 6456SOL    HW120267   1.537   0.313   3.496
 6456SOL    HW220268   1.389   0.337   3.560
 6457SOL     OW20269   5.569   1.352   1.020
 6457SOL    HW120270   5.543   1.441   1.057
 6457SOL    HW220271   5.606   1.363   0.928
 6458SOL     OW20272   1.052   6.147   2.654
 6458SOL    HW120273   1.151   6.158   2.641
 6458SOL    HW220274   1.022   6.203   2.731
 6459SOL     OW20275   5.358   5.849   1.009
 6459SOL    HW120276   5.392   5.768   0.963
 6459SOL    HW220277   5.350   5.924   0.944
 6460SOL     OW20278   4.252   5.058   6.070
 6460SOL    HW120279   4.189   5.055   6.147
 6460SOL    HW220280   4.314   5.136   6.079
 6461SOL     OW20281   3.124   5.521   5.078
 6461SOL    HW120282   3.124   5.531   5.177
 6461SOL    HW220283   3.105   5.426   5.054
 6462SOL     OW20284   2.162   2.885   5.154
 6462SOL    HW120285   2.211   2.950   5.096
 6462SOL    HW220286   2.229   2.827   5.201
 6463SOL     OW20287   2.026   4.435   6.168
 6463SOL    HW120288   2.049   4.527   6.197
 6463SOL    HW220289   1.934   4.435   6.128
 6464SOL     OW20290   1.232   4.503   4.179
 6464SOL    HW120291   1.148   4.461   4.214
 6464SOL    HW220292   1.253   4.585   4.233
 6465SOL     OW20293   5.770   2.689   4.081
 6465SOL    HW120294   5.714   2.765   4.049
 6465SOL    HW220295   5.809   2.641   4.003
 6466SOL     OW20296   0.102   2.538   5.340
 6466SOL    HW120297   0.080   2.569   5.247
 6466SOL    HW220298   0.017   2.521   5.390
 6467SOL     OW20299   2.610   1.052   6.928
 6467SOL    HW120300   2.591   1.149   6.911
 6467SOL    HW220301   2.595   1.001   6.844
 6468SOL     OW20302   4.095   5.909   1.270
 6468SOL    HW120303   4.107   6.008   1.269
 6468SOL    HW220304   4.122   5.872   1.359
 6469SOL     OW20305   5.154   0.823   5.364
 6469SOL    HW120306   5.116   0.776   5.443
 6469SOL    HW220307   5.120   0.781   5.280
 6470SOL     OW20308   6.339   5.310   6.548
 6470SOL    HW120309   6.241   5.312   6.529
 6470SOL    HW220310   6.389   5.328   6.464
 6471SOL     OW20311   6.279   5.846   6.084
 6471SOL    HW120312   6.334   5.875   6.006
 6471SOL    HW220313   6.203   5.788   6.051
 6472SOL     OW20314   0.469   5.068   0.741
 6472SOL    HW120315   0.492   4.989   0.798
 6472SOL    HW220316   0.544   5.133   0.742
 6473SOL     OW20317   2.053   1.964   5.544
 6473SOL    HW120318   1.966   2.013   5.546
 6473SOL    HW220319   2.083   1.944   5.637
 6474SOL     OW20320   1.471   4.340   5.819
 6474SOL    HW120321   1.432   4.263   5.768
 6474SOL    HW220322   1.570   4.329   5.826
 6475SOL     OW20323   5.935   5.692   4.223
 6475SOL    HW120324   5.926   5.714   4.126
 6475SOL    HW220325   5.957   5.595   4.233
 6476SOL     OW20326   4.960   3.714   1.944
 6476SOL    HW120327   4.935   3.651   2.018
 6476SOL    HW220328   5.020   3.786   1.979
 6477SOL     OW20329   0.140   4.946   1.093
 6477SOL    HW120330   0.103   4.900   1.012
 6477SOL    HW220331   0.065   4.985   1.146
 6478SOL     OW20332   3.131   6.068   2.477
 6478SOL    HW120333   3.203   6.103   2.416
 6478SOL    HW220334   3.159   5.980   2.514
 6479SOL     OW20335   4.139   5.415   2.425
 6479SOL    HW120336   4.232   5.447   2.406
 6479SOL    HW220337   4.131   5.390   2.521
 6480SOL     OW20338   3.803   2.981   5.836
 6480SOL    HW120339   3.744   2.960   5.915
 6480SOL    HW220340   3.852   3.066   5.853
 6481SOL     OW20341   3.435   2.356   1.713
 6481SOL    HW120342   3.514   2.361   1.774
 6481SOL    HW220343   3.426   2.441   1.662
 6482SOL     OW20344   6.862   0.677   6.063
 6482SOL    HW120345   6.941   0.703   6.008
 6482SOL    HW220346   6.822   0.592   6.026
 6483SOL     OW20347   2.719   6.324   2.130
 6483SOL    HW120348   2.737   6.272   2.046
 6483SOL    HW220349   2.621   6.321   2.150
 6484SOL     OW20350   3.839   0.467   2.673
 6484SOL    HW120351   3.760   0.523   2.698
 6484SOL    HW220352   3.813   0.371   2.674
 6485SOL     OW20353   1.504   3.622   3.684
 6485SOL    HW120354   1.482   3.719   3.680
 6485SOL    HW220355   1.467   3.583   3.769
 6486SOL     OW20356   1.089   4.805   3.757
 6486SOL    HW120357   1.108   4.812   3.659
 6486SOL    HW220358   0.999   4.844   3.777
 6487SOL     OW20359   6.212   5.774   4.989
 6487SOL    HW120360   6.260   5.844   5.041
 6487SOL    HW220361   6.114   5.780   5.008
 6488SOL     OW20362   3.122   6.026   5.391
 6488SOL    HW120363   3.215   5.991   5.402
 6488SOL    HW220364   3.061   5.979   5.455
 6489SOL     OW20365   2.052   3.048   6.763
 6489SOL    HW120366   2.063   3.145   6.784
 6489SOL    HW220367   2.141   3.002   6.770
 6490SOL     OW20368   3.957   2.415   6.754
 6490SOL    HW120369   3.992   2.396   6.663
 6490SOL    HW220370   3.871   2.466   6.747
 6491SOL     OW20371   4.119   1.026   6.568
 6491SOL    HW120372   4.070   0.983   6.644
 6491SOL    HW220373   4.189   0.964   6.534
 6492SOL     OW20374   5.846   6.279   6.976
 6492SOL    HW120375   5.833   6.379   6.980
 6492SOL    HW220376   5.943   6.259   6.965
 6493SOL     OW20377   1.365   6.257   5.146
 6493SOL    HW120378   1.363   6.197   5.226
 6493SOL    HW220379   1.355   6.352   5.175
 6494SOL     OW20380   0.382   0.646   3.513
 6494SOL    HW120381   0.423   0.566   3.557
 6494SOL    HW220382   0.353   0.621   3.420
 6495SOL     OW20383   5.105   6.191   3.552
 6495SOL    HW120384   5.128   6.254   3.626
 6495SOL    HW220385   5.128   6.097   3.580
 6496SOL     OW20386   6.811   6.419   2.080
 6496SOL    HW120387   6.770   6.451   2.165
 6496SOL    HW220388   6.870   6.341   2.098
 6497SOL     OW20389   2.398   2.890   0.455
 6497SOL    HW120390   2.448   2.953   0.396
 6497SOL    HW220391   2.463   2.837   0.510
 6498SOL     OW20392   2.598   5.003   4.114
 6498SOL    HW120393   2.671   4.997   4.046
 6498SOL    HW220394   2.604   5.091   4.162
 6499SOL     OW20395   5.086   1.048   5.086
 6499SOL    HW120396   5.078   1.110   5.164
 6499SOL    HW220397   5.150   0.974   5.109
 6500SOL     OW20398   6.938   4.692   3.621
 6500SOL    HW120399   0.004   4.713   3.641
 6500SOL    HW220400   6.932   4.605   3.571
 6501SOL     OW20401   6.611   2.766   0.921
 6501SOL    HW120402   6.616   2.743   1.018
 6501SOL    HW220403   6.573   2.858   0.910
 6502SOL     OW20404   0.175   3.972   3.327
 6502SOL    HW120405   0.191   4.021   3.242
 6502SOL    HW220406   0.260   3.965   3.378
 6503SOL     OW20407   6.025   6.818   3.410
 6503SOL    HW120408   5.939   6.791   3.454
 6503SOL    HW220409   6.099   6.814   3.477
 6504SOL     OW20410   4.373   6.677   6.571
 6504SOL    HW120411   4.414   6.626   6.495
 6504SOL    HW220412   4.377   6.775   6.551
 6505SOL     OW20413   6.426   4.460   1.362
 6505SOL    HW120414   6.522   4.479   1.384
 6505SOL    HW220415   6.380   4.426   1.444
 6506SOL     OW20416   0.575   2.982   0.812
 6506SOL    HW120417   0.588   2.887   0.841
 6506SOL    HW220418   0.642   3.004   0.741
 6507SOL     OW20419   1.382   5.845   6.822
 6507SOL    HW120420   1.358   5.877   6.730
 6507SOL    HW220421   1.300   5.844   6.878
 6508SOL     OW20422   2.155   1.819   3.617
 6508SOL    HW120423   2.183   1.846   3.525
 6508SOL    HW220424   2.121   1.900   3.666
 6509SOL     OW20425   1.894   2.409   4.561
 6509SOL    HW120426   1.978   2.370   4.599
 6509SOL    HW220427   1.916   2.467   4.482
 6510SOL     OW20428   0.312   5.420   6.682
 6510SOL    HW120429   0.253   5.383   6.611
 6510SOL    HW220430   0.356   5.345   6.731
 6511SOL     OW20431   5.973   0.224   4.598
 6511SOL    HW120432   5.908   0.238   4.523
 6511SOL    HW220433   6.063   0.257   4.570
 6512SOL     OW20434   4.585   0.205   3.010
 6512SOL    HW120435   4.626   0.115   3.028
 6512SOL    HW220436   4.556   0.246   3.096
 6513SOL     OW20437   3.547   6.499   4.180
 6513SOL    HW120438   3.469   6.548   4.140
 6513SOL    HW220439   3.529   6.401   4.178
 6514SOL     OW20440   5.324   0.080   3.684
 6514SOL    HW120441   5.373   0.157   3.644
 6514SOL    HW220442   5.376   0.042   3.760
 6515SOL     OW20443   0.513   5.190   4.143
 6515SOL    HW120444   0.549   5.100   4.118
 6515SOL    HW220445   0.562   5.225   4.223
 6516SOL     OW20446   0.304   1.963   6.961
 6516SOL    HW120447   0.223   1.967   7.019
 6516SOL    HW220448   0.382   1.929   7.013
 6517SOL     OW20449   6.636   1.362   0.635
 6517SOL    HW120450   6.714   1.356   0.572
 6517SOL    HW220451   6.569   1.426   0.599
 6518SOL     OW20452   0.455   6.308   0.162
 6518SOL    HW120453   0.423   6.214   0.145
 6518SOL    HW220454   0.548   6.318   0.128
 6519SOL     OW20455   2.233   1.883   3.353
 6519SOL    HW120456   2.222   1.944   3.275
 6519SOL    HW220457   2.328   1.851   3.358
 6520SOL     OW20458   6.199   5.503   3.268
 6520SOL    HW120459   6.290   5.476   3.235
 6520SOL    HW220460   6.172   5.589   3.224
 6521SOL     OW20461   0.657   1.185   4.549
 6521SOL    HW120462   0.745   1.228   4.528
 6521SOL    HW220463   0.584   1.253   4.542
 6522SOL     OW20464   3.387   5.169   6.557
 6522SOL    HW120465   3.445   5.106   6.608
 6522SOL    HW220466   3.397   5.262   6.592
 6523SOL     OW20467   2.720   1.846   6.669
 6523SOL    HW120468   2.688   1.778   6.603
 6523SOL    HW220469   2.642   1.881   6.722
 6524SOL     OW20470   3.717   2.957   3.524
 6524SOL    HW120471   3.809   2.977   3.490
 6524SOL    HW220472   3.721   2.940   3.622
 6525SOL     OW20473   2.111   2.917   2.780
 6525SOL    HW120474   2.028   2.884   2.736
 6525SOL    HW220475   2.191   2.884   2.730
 6526SOL     OW20476   0.954   6.557   5.144
 6526SOL    HW120477   0.885   6.629   5.143
 6526SOL    HW220478   1.040   6.594   5.180
 6527SOL     OW20479   0.635   1.496   4.894
 6527SOL    HW120480   0.694   1.426   4.934
 6527SOL    HW220481   0.540   1.480   4.921
 6528SOL     OW20482   6.982   0.628   3.808
 6528SOL    HW120483   6.954   0.723   3.795
 6528SOL    HW220484   7.011   0.614   3.902
 6529SOL     OW20485   5.921   1.817   3.491
 6529SOL    HW120486   5.944   1.738   3.548
 6529SOL    HW220487   5.822   1.824   3.481
 6530SOL     OW20488   6.551   3.035   0.892
 6530SOL    HW120489   6.623   3.066   0.830
 6530SOL    HW220490   6.467   3.019   0.840
 6531SOL     OW20491   5.342   3.102   4.349
 6531SOL    HW120492   5.306   3.089   4.441
 6531SOL    HW220493   5.270   3.089   4.282
 6532SOL     OW20494   5.875   1.613   0.843
 6532SOL    HW120495   5.834   1.602   0.933
 6532SOL    HW220496   5.855   1.532   0.787
 6533SOL     OW20497   5.709   6.259   1.579
 6533SOL    HW120498   5.615   6.228   1.561
 6533SOL    HW220499   5.746   6.301   1.496
 6534SOL     OW20500   2.585   3.911   1.364
 6534SOL    HW120501   2.518   3.973   1.405
 6534SOL    HW220502   2.637   3.959   1.293
 6535SOL     OW20503   0.477   2.824   4.775
 6535SOL    HW120504   0.406   2.800   4.842
 6535SOL    HW220505   0.437   2.826   4.683
 6536SOL     OW20506   6.593   2.990   6.267
 6536SOL    HW120507   6.508   2.952   6.305
 6536SOL    HW220508   6.671   2.957   6.320
 6537SOL     OW20509   6.613   6.280   6.898
 6537SOL    HW120510   6.579   6.372   6.880
 6537SOL    HW220511   6.576   6.247   6.985
 6538SOL     OW20512   4.034   4.152   0.143
 6538SOL    HW120513   3.985   4.101   0.073
 6538SOL    HW220514   4.124   4.110   0.158
 6539SOL     OW20515   2.323   2.226   6.372
 6539SOL    HW120516   2.242   2.177   6.340
 6539SOL    HW220517   2.300   2.323   6.383
 6540SOL     OW20518   3.989   1.778   4.734
 6540SOL    HW120519   4.017   1.812   4.645
 6540SOL    HW220520   3.895   1.808   4.752
 6541SOL     OW20521   3.043   2.208   4.702
 6541SOL    HW120522   2.961   2.263   4.689
 6541SOL    HW220523   3.079   2.221   4.794
 6542SOL     OW20524   6.645   4.521   2.793
 6542SOL    HW120525   6.636   4.494   2.888
 6542SOL    HW220526   6.645   4.439   2.735
 6543SOL     OW20527   6.465   5.373   0.072
 6543SOL    HW120528   6.523   5.418   0.139
 6543SOL    HW220529   6.481   5.274   0.074
 6544SOL     OW20530   0.754   6.213   3.863
 6544SOL    HW120531   0.740   6.287   3.797
 6544SOL    HW220532   0.689   6.139   3.845
 6545SOL     OW20533   4.737   1.681   6.025
 6545SOL    HW120534   4.756   1.587   5.994
 6545SOL    HW220535   4.816   1.715   6.077
 6546SOL     OW20536   4.638   4.318   6.452
 6546SOL    HW120537   4.735   4.311   6.475
 6546SOL    HW220538   4.592   4.232   6.475
 6547SOL     OW20539   3.945   1.398   5.519
 6547SOL    HW120540   3.894   1.323   5.477
 6547SOL    HW220541   4.034   1.365   5.551
 6548SOL     OW20542   1.100   4.449   6.526
 6548SOL    HW120543   1.125   4.546   6.526
 6548SOL    HW220544   1.148   4.402   6.452
 6549SOL     OW20545   2.989   1.093   0.940
 6549SOL    HW120546   2.997   1.171   1.002
 6549SOL    HW220547   3.064   1.029   0.957
 6550SOL     OW20548   0.223   6.214   3.263
 6550SOL    HW120549   0.278   6.132   3.272
 6550SOL    HW220550   0.270   6.291   3.306
 6551SOL     OW20551   1.967   4.154   2.402
 6551SOL    HW120552   2.030   4.224   2.435
 6551SOL    HW220553   2.004   4.063   2.423
 6552SOL     OW20554   2.643   5.936   4.746
 6552SOL    HW120555   2.665   5.840   4.760
 6552SOL    HW220556   2.599   5.974   4.827
 6553SOL     OW20557   0.136   2.922   1.360
 6553SOL    HW120558   0.186   2.972   1.430
 6553SOL    HW220559   0.039   2.946   1.366
 6554SOL     OW20560   5.722   1.562   5.941
 6554SOL    HW120561   5.789   1.600   6.005
 6554SOL    HW220562   5.632   1.558   5.985
 6555SOL     OW20563   2.172   0.854   2.171
 6555SOL    HW120564   2.169   0.890   2.265
 6555SOL    HW220565   2.086   0.875   2.125
 6556SOL     OW20566   4.589   4.723   5.097
 6556SOL    HW120567   4.534   4.742   5.015
 6556SOL    HW220568   4.629   4.808   5.131
 6557SOL     OW20569   5.434   6.008   1.265
 6557SOL    HW120570   5.388   5.958   1.192
 6557SOL    HW220571   5.497   6.075   1.226
 6558SOL     OW20572   6.556   5.496   1.124
 6558SOL    HW120573   6.624   5.511   1.052
 6558SOL    HW220574   6.476   5.554   1.106
 6559SOL     OW20575   5.884   3.555   1.205
 6559SOL    HW120576   5.943   3.477   1.227
 6559SOL    HW220577   5.933   3.640   1.220
 6560SOL     OW20578   3.971   2.773   1.775
 6560SOL    HW120579   3.967   2.674   1.787
 6560SOL    HW220580   3.883   2.807   1.743
 6561SOL     OW20581   3.884   4.029   2.432
 6561SOL    HW120582   3.894   3.930   2.443
 6561SOL    HW220583   3.969   4.067   2.397
 6562SOL     OW20584   6.082   4.556   6.526
 6562SOL    HW120585   6.071   4.457   6.524
 6562SOL    HW220586   6.178   4.580   6.513
 6563SOL     OW20587   0.812   5.920   6.789
 6563SOL    HW120588   0.753   5.848   6.828
 6563SOL    HW220589   0.757   5.978   6.729
 6564SOL     OW20590   1.458   3.355   2.017
 6564SOL    HW120591   1.401   3.391   1.943
 6564SOL    HW220592   1.528   3.422   2.041
 6565SOL     OW20593   6.264   1.904   4.926
 6565SOL    HW120594   6.296   1.872   5.015
 6565SOL    HW220595   6.309   1.852   4.854
 6566SOL     OW20596   3.300   7.021   1.711
 6566SOL    HW120597   3.257   0.032   1.792
 6566SOL    HW220598   3.390   0.034   1.696
 6567SOL     OW20599   4.228   2.569   1.446
 6567SOL    HW120600   4.249   2.541   1.353
 6567SOL    HW220601   4.191   2.662   1.445
 6568SOL     OW20602   4.797   5.223   2.300
 6568SOL    HW120603   4.884   5.251   2.260
 6568SOL    HW220604   4.727   5.221   2.229
 6569SOL     OW20605   2.859   4.705   0.942
 6569SOL    HW120606   2.933   4.674   1.001
 6569SOL    HW220607   2.841   4.637   0.871
 6570SOL     OW20608   4.571   6.814   1.325
 6570SOL    HW120609   4.516   6.897   1.333
 6570SOL    HW220610   4.644   6.817   1.394
 6571SOL     OW20611   1.936   6.193   3.165
 6571SOL    HW120612   2.005   6.155   3.228
 6571SOL    HW220613   1.945   6.292   3.162
 6572SOL     OW20614   6.592   4.638   5.297
 6572SOL    HW120615   6.638   4.599   5.377
 6572SOL    HW220616   6.514   4.581   5.273
 6573SOL     OW20617   3.464   0.715   2.911
 6573SOL    HW120618   3.369   0.745   2.920
 6573SOL    HW220619   3.509   0.722   3.000
 6574SOL     OW20620   2.434   6.288   2.116
 6574SOL    HW120621   2.445   6.257   2.021
 6574SOL    HW220622   2.358   6.353   2.120
 6575SOL     OW20623   0.613   1.417   1.325
 6575SOL    HW120624   0.602   1.355   1.403
 6575SOL    HW220625   0.710   1.423   1.301
 6576SOL     OW20626   1.385   6.217   6.164
 6576SOL    HW120627   1.445   6.146   6.201
 6576SOL    HW220628   1.340   6.265   6.240
 6577SOL     OW20629   0.290   1.594   3.731
 6577SOL    HW120630   0.302   1.495   3.738
 6577SOL    HW220631   0.347   1.629   3.656
 6578SOL     OW20632   6.993   5.671   3.270
 6578SOL    HW120633   7.000   5.732   3.348
 6578SOL    HW220634   6.901   5.631   3.267
 6579SOL     OW20635   0.092   4.184   4.671
 6579SOL    HW120636   0.118   4.280   4.660
 6579SOL    HW220637   0.107   4.135   4.585
 6580SOL     OW20638   6.364   1.242   1.000
 6580SOL    HW120639   6.423   1.173   0.959
 6580SOL    HW220640   6.420   1.320   1.029
 6581SOL     OW20641   3.802   1.084   5.579
 6581SOL    HW120642   3.856   1.050   5.657
 6581SOL    HW220643   3.785   1.009   5.515
 6582SOL     OW20644   1.352   6.923   2.233
 6582SOL    HW120645   1.447   6.943   2.259
 6582SOL    HW220646   1.290   6.958   2.303
 6583SOL     OW20647   4.604   1.451   6.208
 6583SOL    HW120648   4.644   1.533   6.248
 6583SOL    HW220649   4.529   1.476   6.147
 6584SOL     OW20650   5.362   1.668   6.488
 6584SOL    HW120651   5.265   1.693   6.483
 6584SOL    HW220652   5.382   1.596   6.422
 6585SOL     OW20653   0.112   1.181   0.258
 6585SOL    HW120654   0.064   1.251   0.204
 6585SOL    HW220655   0.057   1.158   0.338
 6586SOL     OW20656   6.519   2.437   6.030
 6586SOL    HW120657   6.496   2.526   6.070
 6586SOL    HW220658   6.437   2.380   6.028
 6587SOL     OW20659   2.998   5.846   4.775
 6587SOL    HW120660   2.966   5.926   4.726
 6587SOL    HW220661   2.995   5.766   4.715
 6588SOL     OW20662   2.061   4.044   1.464
 6588SOL    HW120663   2.010   3.972   1.511
 6588SOL    HW220664   2.074   4.122   1.525
 6589SOL     OW20665   4.987   0.714   0.148
 6589SOL    HW120666   5.064   0.743   0.204
 6589SOL    HW220667   4.928   0.653   0.200
 6590SOL     OW20668   0.355   1.912   5.255
 6590SOL    HW120669   0.316   2.000   5.227
 6590SOL    HW220670   0.285   1.840   5.246
 6591SOL     OW20671   5.840   6.498   2.607
 6591SOL    HW120672   5.889   6.411   2.606
 6591SOL    HW220673   5.883   6.561   2.543
 6592SOL     OW20674   4.505   6.777   4.277
 6592SOL    HW120675   4.601   6.767   4.301
 6592SOL    HW220676   4.472   6.866   4.308
 6593SOL     OW20677   2.036   2.442   3.323
 6593SOL    HW120678   2.092   2.360   3.334
 6593SOL    HW220679   2.058   2.508   3.396
 6594SOL     OW20680   4.475   1.412   0.230
 6594SOL    HW120681   4.523   1.338   0.276
 6594SOL    HW220682   4.390   1.432   0.278
 6595SOL     OW20683   0.643   4.197   1.480
 6595SOL    HW120684   0.686   4.163   1.563
 6595SOL    HW220685   0.636   4.123   1.413
 6596SOL     OW20686   3.976   0.495   5.725
 6596SOL    HW120687   4.011   0.505   5.818
 6596SOL    HW220688   3.992   0.401   5.693
 6597SOL     OW20689   0.843   6.645   3.880
 6597SOL    HW120690   0.846   6.666   3.782
 6597SOL    HW220691   0.835   6.730   3.931
 6598SOL     OW20692   1.818   5.795   5.233
 6598SOL    HW120693   1.808   5.884   5.277
 6598SOL    HW220694   1.782   5.800   5.139
 6599SOL     OW20695   3.914   5.275   5.605
 6599SOL    HW120696   3.980   5.200   5.610
 6599SOL    HW220697   3.951   5.356   5.650
 6600SOL     OW20698   5.116   5.088   5.148
 6600SOL    HW120699   5.202   5.039   5.134
 6600SOL    HW220700   5.063   5.087   5.063
 6601SOL     OW20701   0.605   0.616   0.506
 6601SOL    HW120702   0.685   0.584   0.557
 6601SOL    HW220703   0.553   0.538   0.472
 6602SOL     OW20704   0.016   2.219   1.445
 6602SOL    HW120705   0.081   2.190   1.515
 6602SOL    HW220706   0.042   2.181   1.356
 6603SOL     OW20707   1.489   3.033   4.467
 6603SOL    HW120708   1.491   3.002   4.371
 6603SOL    HW220709   1.534   3.122   4.474
 6604SOL     OW20710   2.705   6.067   1.610
 6604SOL    HW120711   2.732   5.975   1.639
 6604SOL    HW220712   2.674   6.064   1.515
 6605SOL     OW20713   4.233   4.709   0.742
 6605SOL    HW120714   4.332   4.694   0.750
 6605SOL    HW220715   4.185   4.642   0.798
 6606SOL     OW20716   4.586   0.096   2.402
 6606SOL    HW120717   4.684   0.098   2.386
 6606SOL    HW220718   4.544   0.026   2.345
 6607SOL     OW20719   1.702   1.348   2.038
 6607SOL    HW120720   1.762   1.348   1.957
 6607SOL    HW220721   1.644   1.267   2.037
 6608SOL     OW20722   5.328   3.906   2.466
 6608SOL    HW120723   5.359   3.863   2.382
 6608SOL    HW220724   5.380   3.990   2.483
 6609SOL     OW20725   5.127   0.897   6.738
 6609SOL    HW120726   5.050   0.837   6.718
 6609SOL    HW220727   5.093   0.986   6.769
 6610SOL     OW20728   2.492   0.209   0.171
 6610SOL    HW120729   2.534   0.300   0.171
 6610SOL    HW220730   2.559   0.142   0.139
 6611SOL     OW20731   6.863   2.364   2.858
 6611SOL    HW120732   6.813   2.417   2.926
 6611SOL    HW220733   6.959   2.356   2.885
 6612SOL     OW20734   1.181   4.127   6.961
 6612SOL    HW120735   1.142   4.186   6.891
 6612SOL    HW220736   1.275   4.156   6.981
 6613SOL     OW20737   5.869   6.128   3.657
 6613SOL    HW120738   5.788   6.157   3.605
 6613SOL    HW220739   5.939   6.199   3.652
 6614SOL     OW20740   4.902   6.803   6.511
 6614SOL    HW120741   5.001   6.792   6.518
 6614SOL    HW220742   4.873   6.790   6.416
 6615SOL     OW20743   0.773   4.054   4.405
 6615SOL    HW120744   0.707   4.019   4.339
 6615SOL    HW220745   0.865   4.052   4.366
 6616SOL     OW20746   3.716   1.623   5.999
 6616SOL    HW120747   3.753   1.709   5.964
 6616SOL    HW220748   3.761   1.547   5.953
 6617SOL     OW20749   3.706   6.540   3.591
 6617SOL    HW120750   3.798   6.501   3.594
 6617SOL    HW220751   3.639   6.466   3.578
 6618SOL     OW20752   1.654   3.145   2.174
 6618SOL    HW120753   1.615   3.203   2.102
 6618SOL    HW220754   1.736   3.100   2.138
 6619SOL     OW20755   4.992   6.828   4.425
 6619SOL    HW120756   5.023   6.742   4.467
 6619SOL    HW220757   4.918   6.809   4.360
 6620SOL     OW20758   1.861   2.826   5.946
 6620SOL    HW120759   1.817   2.891   6.008
 6620SOL    HW220760   1.894   2.748   5.999
 6621SOL     OW20761   3.293   4.045   0.610
 6621SOL    HW120762   3.262   3.952   0.625
 6621SOL    HW220763   3.269   4.102   0.689
 6622SOL     OW20764   6.034   5.690   1.348
 6622SOL    HW120765   5.939   5.711   1.324
 6622SOL    HW220766   6.044   5.686   1.447
 6623SOL     OW20767   3.572   3.096   2.187
 6623SOL    HW120768   3.625   3.174   2.218
 6623SOL    HW220769   3.615   3.056   2.106
 6624SOL     OW20770   2.502   6.348   4.417
 6624SOL    HW120771   2.506   6.266   4.361
 6624SOL    HW220772   2.429   6.339   4.485
 6625SOL     OW20773   5.909   1.682   6.110
 6625SOL    HW120774   5.921   1.734   6.195
 6625SOL    HW220775   5.957   1.728   6.035
 6626SOL     OW20776   3.509   4.963   3.094
 6626SOL    HW120777   3.423   4.919   3.067
 6626SOL    HW220778   3.495   5.016   3.177
 6627SOL     OW20779   2.172   1.073   5.752
 6627SOL    HW120780   2.123   1.030   5.676
 6627SOL    HW220781   2.109   1.128   5.806
 6628SOL     OW20782   5.156   5.209   2.804
 6628SOL    HW120783   5.241   5.173   2.766
 6628SOL    HW220784   5.125   5.150   2.878
 6629SOL     OW20785   3.443   6.155   0.963
 6629SOL    HW120786   3.487   6.178   1.050
 6629SOL    HW220787   3.344   6.161   0.974
 6630SOL     OW20788   3.574   1.835   0.574
 6630SOL    HW120789   3.601   1.812   0.668
 6630SOL    HW220790   3.652   1.873   0.525
 6631SOL     OW20791   4.453   6.940   2.264
 6631SOL    HW120792   4.506   6.859   2.288
 6631SOL    HW220793   4.356   6.925   2.283
 6632SOL     OW20794   6.870   1.149   1.685
 6632SOL    HW120795   6.903   1.117   1.596
 6632SOL    HW220796   6.806   1.083   1.723
 6633SOL     OW20797   1.306   5.601   6.201
 6633SOL    HW120798   1.249   5.541   6.258
 6633SOL    HW220799   1.395   5.559   6.187
 6634SOL     OW20800   6.255   3.450   6.230
 6634SOL    HW120801   6.348   3.431   6.198
 6634SOL    HW220802   6.201   3.366   6.226
 6635SOL     OW20803   4.620   5.015   3.312
 6635SOL    HW120804   4.594   5.101   3.270
 6635SOL    HW220805   4.718   5.017   3.334
 6636SOL     OW20806   1.791   3.001   5.271
 6636SOL    HW120807   1.828   2.991   5.179
 6636SOL    HW220808   1.811   3.093   5.305
 6637SOL     OW20809   0.960   0.190   6.869
 6637SOL    HW120810   0.917   0.271   6.829
 6637SOL    HW220811   0.981   0.125   6.796
 6638SOL     OW20812   3.754   5.022   5.220
 6638SOL    HW120813   3.659   4.993   5.235
 6638SOL    HW220814   3.815   4.944   5.237
 6639SOL     OW20815   5.729   5.829   6.166
 6639SOL    HW120816   5.809   5.770   6.169
 6639SOL    HW220817   5.756   5.923   6.142
 6640SOL     OW20818   0.020   1.882   4.662
 6640SOL    HW120819   0.069   1.821   4.725
 6640SOL    HW220820   0.084   1.945   4.619
 6641SOL     OW20821   2.906   3.283   6.581
 6641SOL    HW120822   2.857   3.358   6.538
 6641SOL    HW220823   2.853   3.248   6.658
 6642SOL     OW20824   3.046   5.327   7.005
 6642SOL    HW120825   3.004   5.288   6.923
 6642SOL    HW220826   3.117   5.266   0.009
 6643SOL     OW20827   6.726   4.470   0.154
 6643SOL    HW120828   6.707   4.389   0.099
 6643SOL    HW220829   6.780   4.535   0.101
 6644SOL     OW20830   2.941   4.795   2.229
 6644SOL    HW120831   2.892   4.720   2.184
 6644SOL    HW220832   3.016   4.826   2.170
 6645SOL     OW20833   6.998   5.285   0.691
 6645SOL    HW120834   6.964   5.232   0.769
 6645SOL    HW220835   0.054   5.330   0.716
 6646SOL     OW20836   4.808   5.740   4.533
 6646SOL    HW120837   4.809   5.809   4.605
 6646SOL    HW220838   4.883   5.675   4.547
 6647SOL     OW20839   3.219   1.614   2.701
 6647SOL    HW120840   3.182   1.647   2.788
 6647SOL    HW220841   3.174   1.661   2.625
 6648SOL     OW20842   3.523   5.802   2.610
 6648SOL    HW120843   3.528   5.872   2.539
 6648SOL    HW220844   3.506   5.713   2.568
 6649SOL     OW20845   5.831   2.070   6.366
 6649SOL    HW120846   5.904   2.049   6.432
 6649SOL    HW220847   5.872   2.093   6.278
 6650SOL     OW20848   4.100   1.146   3.496
 6650SOL    HW120849   4.054   1.232   3.472
 6650SOL    HW220850   4.073   1.075   3.431
 6651SOL     OW20851   1.539   1.837   0.402
 6651SOL    HW120852   1.608   1.777   0.441
 6651SOL    HW220853   1.580   1.927   0.383
 6652SOL     OW20854   6.463   4.298   0.194
 6652SOL    HW120855   6.501   4.236   0.263
 6652SOL    HW220856   6.450   4.388   0.234
 6653SOL     OW20857   3.931   3.830   3.344
 6653SOL    HW120858   3.865   3.905   3.341
 6653SOL    HW220859   3.991   3.841   3.423
 6654SOL     OW20860   2.131   2.881   1.239
 6654SOL    HW120861   2.134   2.930   1.152
 6654SOL    HW220862   2.147   2.784   1.224
 6655SOL     OW20863   2.766   0.071   1.624
 6655SOL    HW120864   2.725   0.020   1.549
 6655SOL    HW220865   2.760   0.169   1.606
 6656SOL     OW20866   6.627   1.211   2.599
 6656SOL    HW120867   6.586   1.242   2.513
 6656SOL    HW220868   6.559   1.161   2.652
 6657SOL     OW20869   4.544   6.522   6.424
 6657SOL    HW120870   4.630   6.487   6.461
 6657SOL    HW220871   4.507   6.458   6.357
 6658SOL     OW20872   5.715   1.283   5.459
 6658SOL    HW120873   5.712   1.377   5.423
 6658SOL    HW220874   5.628   1.261   5.502
 6659SOL     OW20875   2.296   1.891   6.511
 6659SOL    HW120876   2.371   1.942   6.554
 6659SOL    HW220877   2.281   1.925   6.418
 6660SOL     OW20878   0.049   6.129   1.367
 6660SOL    HW120879   0.115   6.091   1.302
 6660SOL    HW220880   0.097   6.156   1.451
 6661SOL     OW20881   0.163   4.818   3.714
 6661SOL    HW120882   0.153   4.796   3.811
 6661SOL    HW220883   0.138   4.914   3.699
 6662SOL     OW20884   1.107   0.755   6.770
 6662SOL    HW120885   1.138   0.660   6.762
 6662SOL    HW220886   1.101   0.796   6.679
 6663SOL     OW20887   0.016   5.861   3.453
 6663SOL    HW120888   0.008   5.953   3.416
 6663SOL    HW220889   6.982   5.850   3.530
 6664SOL     OW20890   1.481   6.893   1.248
 6664SOL    HW120891   1.505   6.989   1.234
 6664SOL    HW220892   1.391   6.874   1.209
 6665SOL     OW20893   1.380   6.949   3.669
 6665SOL    HW120894   1.347   6.927   3.761
 6665SOL    HW220895   1.404   0.016   3.665
 6666SOL     OW20896   6.052   1.676   5.458
 6666SOL    HW120897   5.970   1.669   5.514
 6666SOL    HW220898   6.078   1.773   5.449
 6667SOL     OW20899   6.457   4.717   4.815
 6667SOL    HW120900   6.402   4.743   4.735
 6667SOL    HW220901   6.399   4.672   4.882
 6668SOL     OW20902   7.008   6.210   2.158
 6668SOL    HW120903   7.013   6.162   2.245
 6668SOL    HW220904   0.039   6.165   2.091
 6669SOL     OW20905   1.882   3.633   3.854
 6669SOL    HW120906   1.961   3.584   3.892
 6669SOL    HW220907   1.843   3.692   3.925
 6670SOL     OW20908   3.628   4.197   6.546
 6670SOL    HW120909   3.678   4.161   6.467
 6670SOL    HW220910   3.583   4.122   6.594
 6671SOL     OW20911   5.903   4.998   0.473
 6671SOL    HW120912   5.962   4.938   0.527
 6671SOL    HW220913   5.957   5.076   0.440
 6672SOL     OW20914   0.718   0.982   5.255
 6672SOL    HW120915   0.721   0.910   5.186
 6672SOL    HW220916   0.687   1.068   5.213
 6673SOL     OW20917   4.953   5.940   2.588
 6673SOL    HW120918   4.868   5.980   2.554
 6673SOL    HW220919   4.933   5.856   2.639
 6674SOL     OW20920   0.476   5.200   6.029
 6674SOL    HW120921   0.560   5.250   6.052
 6674SOL    HW220922   0.400   5.265   6.021
 6675SOL     OW20923   5.680   3.945   1.042
 6675SOL    HW120924   5.634   3.987   0.963
 6675SOL    HW220925   5.768   3.990   1.057
 6676SOL     OW20926   0.658   3.582   5.833
 6676SOL    HW120927   0.597   3.643   5.884
 6676SOL    HW220928   0.688   3.628   5.749
 6677SOL     OW20929   0.069   3.236   0.047
 6677SOL    HW120930   0.106   3.149   0.078
 6677SOL    HW220931   0.128   3.273   7.004
 6678SOL     OW20932   1.448   2.453   6.940
 6678SOL    HW120933   1.414   2.452   6.846
 6678SOL    HW220934   1.370   2.448   7.003
 6679SOL     OW20935   1.827   1.596   4.673
 6679SOL    HW120936   1.791   1.581   4.581
 6679SOL    HW220937   1.793   1.525   4.734
 6680SOL     OW20938   4.350   5.902   5.997
 6680SOL    HW120939   4.300   5.927   5.914
 6680SOL    HW220940   4.335   5.972   6.067
 6681SOL     OW20941   5.056   6.028   6.742
 6681SOL    HW120942   5.135   6.072   6.784
 6681SOL    HW220943   5.013   5.967   6.809
 6682SOL     OW20944   0.553   4.595   2.629
 6682SOL    HW120945   0.620   4.524   2.653
 6682SOL    HW220946   0.501   4.564   2.550
 6683SOL     OW20947   4.824   1.944   5.563
 6683SOL    HW120948   4.783   1.926   5.653
 6683SOL    HW220949   4.831   2.042   5.548
 6684SOL     OW20950   1.867   6.853   1.543
 6684SOL    HW120951   1.862   6.786   1.470
 6684SOL    HW220952   1.878   6.944   1.504
 6685SOL     OW20953   4.949   1.856   6.092
 6685SOL    HW120954   5.045   1.848   6.119
 6685SOL    HW220955   4.930   1.951   6.069
 6686SOL     OW20956   6.164   3.997   4.345
 6686SOL    HW120957   6.074   3.957   4.362
 6686SOL    HW220958   6.231   3.924   4.331
 6687SOL     OW20959   1.153   1.555   0.740
 6687SOL    HW120960   1.145   1.506   0.653
 6687SOL    HW220961   1.065   1.555   0.786
 6688SOL     OW20962   0.419   4.955   2.418
 6688SOL    HW120963   0.365   4.882   2.378
 6688SOL    HW220964   0.458   4.925   2.505
 6689SOL     OW20965   4.289   2.717   0.815
 6689SOL    HW120966   4.193   2.687   0.816
 6689SOL    HW220967   4.321   2.726   0.909
 6690SOL     OW20968   2.479   1.087   1.748
 6690SOL    HW120969   2.540   1.140   1.807
 6690SOL    HW220970   2.494   0.989   1.764
 6691SOL     OW20971   2.855   5.865   0.738
 6691SOL    HW120972   2.849   5.877   0.639
 6691SOL    HW220973   2.895   5.776   0.759
 6692SOL     OW20974   2.711   4.457   5.322
 6692SOL    HW120975   2.710   4.358   5.310
 6692SOL    HW220976   2.790   4.497   5.275
 6693SOL     OW20977   4.434   3.635   5.894
 6693SOL    HW120978   4.532   3.651   5.907
 6693SOL    HW220979   4.415   3.622   5.796
 6694SOL     OW20980   4.058   5.680   0.176
 6694SOL    HW120981   4.080   5.589   0.142
 6694SOL    HW220982   4.134   5.742   0.156
 6695SOL     OW20983   0.747   2.497   6.698
 6695SOL    HW120984   0.682   2.461   6.765
 6695SOL    HW220985   0.838   2.460   6.717
 6696SOL     OW20986   1.815   2.579   1.142
 6696SOL    HW120987   1.727   2.621   1.165
 6696SOL    HW220988   1.800   2.488   1.105
 6697SOL     OW20989   4.522   2.135   2.689
 6697SOL    HW120990   4.447   2.199   2.670
 6697SOL    HW220991   4.548   2.142   2.785
 6698SOL     OW20992   3.492   2.786   0.804
 6698SOL    HW120993   3.526   2.880   0.807
 6698SOL    HW220994   3.570   2.723   0.795
 6699SOL     OW20995   3.946   4.401   6.599
 6699SOL    HW120996   4.001   4.355   6.529
 6699SOL    HW220997   3.889   4.333   6.646
 6700SOL     OW20998   0.666   5.327   0.562
 6700SOL    HW120999   0.624   5.276   0.487
 6700SOL    HW221000   0.753   5.284   0.588
 6701SOL     OW21001   6.055   2.821   1.400
 6701SOL    HW121002   6.033   2.723   1.390
 6701SOL    HW221003   6.154   2.832   1.408
 6702SOL     OW21004   2.627   1.972   0.099
 6702SOL    HW121005   2.684   2.053   0.085
 6702SOL    HW221006   2.605   1.963   0.196
 6703SOL     OW21007   6.215   2.261   7.000
 6703SOL    HW121008   6.300   2.221   6.965
 6703SOL    HW221009   6.175   2.320   6.930
 6704SOL     OW21010   4.538   2.484   2.352
 6704SOL    HW121011   4.586   2.449   2.272
 6704SOL    HW221012   4.564   2.579   2.368
 6705SOL     OW21013   0.150   2.362   2.096
 6705SOL    HW121014   0.077   2.425   2.069
 6705SOL    HW221015   0.231   2.414   2.120
 6706SOL     OW21016   1.006   3.991   0.377
 6706SOL    HW121017   1.044   4.019   0.465
 6706SOL    HW221018   0.927   3.933   0.392
 6707SOL     OW21019   6.138   6.024   4.834
 6707SOL    HW121020   6.098   5.955   4.895
 6707SOL    HW221021   6.106   6.114   4.862
 6708SOL     OW21022   1.720   5.795   2.403
 6708SOL    HW121023   1.693   5.769   2.495
 6708SOL    HW221024   1.677   5.734   2.337
 6709SOL     OW21025   3.876   6.495   1.516
 6709SOL    HW121026   3.908   6.589   1.502
 6709SOL    HW221027   3.837   6.487   1.608
 6710SOL     OW21028   2.155   1.967   5.787
 6710SOL    HW121029   2.176   2.064   5.782
 6710SOL    HW221030   2.111   1.946   5.874
 6711SOL     OW21031   5.398   4.111   6.581
 6711SOL    HW121032   5.462   4.158   6.642
 6711SOL    HW221033   5.444   4.034   6.536
 6712SOL     OW21034   3.960   5.455   0.400
 6712SOL    HW121035   3.936   5.542   0.443
 6712SOL    HW221036   4.056   5.457   0.371
 6713SOL     OW21037   2.662   1.872   1.680
 6713SOL    HW121038   2.611   1.904   1.600
 6713SOL    HW221039   2.700   1.950   1.729
 6714SOL     OW21040   5.292   6.863   5.410
 6714SOL    HW121041   5.203   6.880   5.451
 6714SOL    HW221042   5.351   6.942   5.424
 6715SOL     OW21043   0.369   0.894   0.037
 6715SOL    HW121044   0.428   0.836   0.094
 6715SOL    HW221045   0.394   0.883   6.971
 6716SOL     OW21046   1.374   6.100   0.785
 6716SOL    HW121047   1.463   6.105   0.738
 6716SOL    HW221048   1.301   6.090   0.717
 6717SOL     OW21049   4.098   2.906   0.362
 6717SOL    HW121050   4.179   2.934   0.414
 6717SOL    HW221051   4.016   2.936   0.411
 6718SOL     OW21052   4.026   5.759   6.448
 6718SOL    HW121053   4.005   5.661   6.447
 6718SOL    HW221054   3.941   5.810   6.463
 6719SOL     OW21055   0.186   6.986   5.836
 6719SOL    HW121056   0.275   7.008   5.875
 6719SOL    HW221057   0.194   6.907   5.775
 6720SOL     OW21058   2.687   6.211   1.888
 6720SOL    HW121059   2.614   6.262   1.843
 6720SOL    HW221060   2.663   6.114   1.888
 6721SOL     OW21061   5.229   6.524   4.372
 6721SOL    HW121062   5.301   6.593   4.365
 6721SOL    HW221063   5.266   6.443   4.418
 6722SOL     OW21064   4.923   3.356   1.020
 6722SOL    HW121065   4.945   3.396   0.931
 6722SOL    HW221066   4.824   3.346   1.028
 6723SOL     OW21067   1.950   6.769   3.163
 6723SOL    HW121068   2.036   6.717   3.164
 6723SOL    HW221069   1.957   6.846   3.225
 6724SOL     OW21070   2.209   4.317   5.939
 6724SOL    HW121071   2.141   4.258   5.895
 6724SOL    HW221072   2.174   4.350   6.026
 6725SOL     OW21073   1.461   4.242   2.873
 6725SOL    HW121074   1.394   4.255   2.799
 6725SOL    HW221075   1.485   4.331   2.912
 6726SOL     OW21076   1.462   2.762   4.887
 6726SOL    HW121077   1.411   2.689   4.932
 6726SOL    HW221078   1.550   2.774   4.933
 6727SOL     OW21079   5.482   3.346   6.349
 6727SOL    HW121080   5.533   3.401   6.415
 6727SOL    HW221081   5.388   3.379   6.344
 6728SOL     OW21082   3.899   2.128   4.757
 6728SOL    HW121083   3.826   2.138   4.825
 6728SOL    HW221084   3.954   2.212   4.754
 6729SOL     OW21085   6.514   1.117   2.103
 6729SOL    HW121086   6.430   1.083   2.061
 6729SOL    HW221087   6.531   1.211   2.073
 6730SOL     OW21088   2.730   6.816   6.940
 6730SOL    HW121089   2.701   6.841   6.848
 6730SOL    HW221090   2.664   6.751   6.979
 6731SOL     OW21091   3.033   4.100   1.407
 6731SOL    HW121092   2.939   4.135   1.410
 6731SOL    HW221093   3.066   4.086   1.500
 6732SOL     OW21094   2.459   5.980   0.522
 6732SOL    HW121095   2.468   6.055   0.588
 6732SOL    HW221096   2.430   5.897   0.569
 6733SOL     OW21097   4.572   5.754   5.821
 6733SOL    HW121098   4.668   5.774   5.800
 6733SOL    HW221099   4.532   5.831   5.870
 6734SOL     OW21100   1.129   3.227   5.610
 6734SOL    HW121101   1.065   3.304   5.613
 6734SOL    HW221102   1.175   3.226   5.521
 6735SOL     OW21103   0.263   5.225   5.064
 6735SOL    HW121104   0.308   5.207   5.151
 6735SOL    HW221105   0.172   5.264   5.080
 6736SOL     OW21106   2.454   3.440   1.013
 6736SOL    HW121107   2.365   3.459   1.054
 6736SOL    HW221108   2.510   3.387   1.077
 6737SOL     OW21109   2.356   1.384   2.163
 6737SOL    HW121110   2.267   1.361   2.124
 6737SOL    HW221111   2.410   1.301   2.174
 6738SOL     OW21112   2.641   1.802   2.627
 6738SOL    HW121113   2.590   1.760   2.552
 6738SOL    HW221114   2.613   1.763   2.714
 6739SOL     OW21115   3.491   5.841   5.336
 6739SOL    HW121116   3.530   5.750   5.347
 6739SOL    HW221117   3.406   5.836   5.283
 6740SOL     OW21118   1.532   0.854   4.169
 6740SOL    HW121119   1.617   0.898   4.197
 6740SOL    HW221120   1.507   0.785   4.237
 6741SOL     OW21121   5.331   1.410   5.918
 6741SOL    HW121122   5.321   1.509   5.933
 6741SOL    HW221123   5.277   1.360   5.985
 6742SOL     OW21124   0.231   5.388   4.621
 6742SOL    HW121125   0.185   5.408   4.534
 6742SOL    HW221126   0.175   5.327   4.676
 6743SOL     OW21127   4.228   2.906   0.130
 6743SOL    HW121128   4.174   2.890   0.047
 6743SOL    HW221129   4.167   2.901   0.209
 6744SOL     OW21130   3.945   4.599   5.848
 6744SOL    HW121131   3.925   4.575   5.943
 6744SOL    HW221132   4.017   4.668   5.845
 6745SOL     OW21133   1.250   4.710   3.288
 6745SOL    HW121134   1.325   4.753   3.238
 6745SOL    HW221135   1.224   4.769   3.365
 6746SOL     OW21136   0.863   1.140   1.265
 6746SOL    HW121137   0.855   1.237   1.244
 6746SOL    HW221138   0.833   1.086   1.187
 6747SOL     OW21139   5.528   6.963   4.128
 6747SOL    HW121140   5.511   6.982   4.225
 6747SOL    HW221141   5.507   6.867   4.109
 6748SOL     OW21142   0.529   0.549   1.969
 6748SOL    HW121143   0.459   0.485   1.936
 6748SOL    HW221144   0.607   0.498   2.004
 6749SOL     OW21145   3.662   0.519   7.008
 6749SOL    HW121146   3.598   0.530   0.054
 6749SOL    HW221147   3.629   0.448   6.946
 6750SOL     OW21148   2.478   2.128   4.161
 6750SOL    HW121149   2.433   2.044   4.190
 6750SOL    HW221150   2.544   2.156   4.230
 6751SOL     OW21151   2.753   2.329   3.965
 6751SOL    HW121152   2.754   2.333   4.065
 6751SOL    HW221153   2.705   2.247   3.935
 6752SOL     OW21154   6.009   2.835   1.034
 6752SOL    HW121155   5.985   2.928   1.063
 6752SOL    HW221156   6.093   2.806   1.080
 6753SOL     OW21157   4.179   1.846   6.168
 6753SOL    HW121158   4.084   1.817   6.184
 6753SOL    HW221159   4.225   1.860   6.255
 6754SOL     OW21160   6.241   1.738   6.050
 6754SOL    HW121161   6.208   1.671   6.116
 6754SOL    HW221162   6.253   1.826   6.096
 6755SOL     OW21163   5.663   1.803   3.345
 6755SOL    HW121164   5.620   1.894   3.342
 6755SOL    HW221165   5.748   1.804   3.293
 6756SOL     OW21166   4.352   4.678   4.265
 6756SOL    HW121167   4.440   4.688   4.218
 6756SOL    HW221168   4.369   4.651   4.360
 6757SOL     OW21169   4.875   6.259   0.875
 6757SOL    HW121170   4.850   6.262   0.778
 6757SOL    HW221171   4.803   6.303   0.929
 6758SOL     OW21172   5.339   3.237   1.941
 6758SOL    HW121173   5.412   3.252   1.875
 6758SOL    HW221174   5.308   3.142   1.935
 6759SOL     OW21175   1.340   4.618   2.796
 6759SOL    HW121176   1.245   4.648   2.788
 6759SOL    HW221177   1.380   4.609   2.705
 6760SOL     OW21178   0.274   4.738   4.221
 6760SOL    HW121179   0.204   4.677   4.184
 6760SOL    HW221180   0.359   4.727   4.169
 6761SOL     OW21181   5.389   3.087   5.365
 6761SOL    HW121182   5.384   3.019   5.292
 6761SOL    HW221183   5.460   3.062   5.430
 6762SOL     OW21184   6.518   5.299   3.785
 6762SOL    HW121185   6.486   5.206   3.803
 6762SOL    HW221186   6.546   5.341   3.871
 6763SOL     OW21187   5.885   6.492   5.394
 6763SOL    HW121188   5.888   6.563   5.465
 6763SOL    HW221189   5.850   6.531   5.309
 6764SOL     OW21190   2.735   3.769   6.643
 6764SOL    HW121191   2.766   3.761   6.738
 6764SOL    HW221192   2.804   3.818   6.590
 6765SOL     OW21193   6.448   4.696   3.204
 6765SOL    HW121194   6.474   4.790   3.226
 6765SOL    HW221195   6.518   4.633   3.236
 6766SOL     OW21196   1.595   0.991   5.318
 6766SOL    HW121197   1.560   0.968   5.409
 6766SOL    HW221198   1.582   1.089   5.301
 6767SOL     OW21199   0.104   2.563   6.982
 6767SOL    HW121200   0.046   2.588   0.030
 6767SOL    HW221201   0.146   2.474   7.000
 6768SOL     OW21202   0.848   0.675   3.959
 6768SOL    HW121203   0.828   0.593   3.906
 6768SOL    HW221204   0.893   0.743   3.900
 6769SOL     OW21205   2.526   2.493   5.651
 6769SOL    HW121206   2.557   2.543   5.571
 6769SOL    HW221207   2.449   2.542   5.693
 6770SOL     OW21208   0.181   1.991   3.178
 6770SOL    HW121209   0.103   2.053   3.170
 6770SOL    HW221210   0.204   1.954   3.088
 6771SOL     OW21211   3.481   2.106   3.417
 6771SOL    HW121212   3.578   2.130   3.415
 6771SOL    HW221213   3.453   2.088   3.512
 6772SOL     OW21214   6.312   1.851   2.845
 6772SOL    HW121215   6.354   1.821   2.759
 6772SOL    HW221216   6.372   1.918   2.889
 6773SOL     OW21217   0.015   6.026   1.700
 6773SOL    HW121218   6.977   6.007   1.628
 6773SOL    HW221219   0.007   6.120   1.730
 6774SOL     OW21220   2.253   2.117   5.415
 6774SOL    HW121221   2.175   2.073   5.458
 6774SOL    HW221222   2.234   2.134   5.319
 6775SOL     OW21223   0.759   1.836   4.769
 6775SOL    HW121224   0.725   1.795   4.854
 6775SOL    HW221225   0.822   1.910   4.791
 6776SOL     OW21226   3.906   4.387   1.589
 6776SOL    HW121227   3.831   4.436   1.635
 6776SOL    HW221228   3.870   4.303   1.548
 6777SOL     OW21229   5.043   5.659   1.309
 6777SOL    HW121230   5.036   5.747   1.261
 6777SOL    HW221231   5.136   5.624   1.303
 6778SOL     OW21232   6.705   4.135   2.426
 6778SOL    HW121233   6.744   4.050   2.391
 6778SOL    HW221234   6.747   4.212   2.380
 6779SOL     OW21235   5.707   4.320   6.142
 6779SOL    HW121236   5.619   4.275   6.127
 6779SOL    HW221237   5.780   4.264   6.101
 6780SOL     OW21238   2.884   2.291   2.696
 6780SOL    HW121239   2.959   2.333   2.645
 6780SOL    HW221240   2.896   2.192   2.699
 6781SOL     OW21241   6.731   1.352   4.244
 6781SOL    HW121242   6.761   1.344   4.339
 6781SOL    HW221243   6.725   1.261   4.203
 6782SOL     OW21244   6.542   1.607   3.470
 6782SOL    HW121245   6.571   1.532   3.528
 6782SOL    HW221246   6.457   1.582   3.423
 6783SOL     OW21247   1.477   4.939   5.090
 6783SOL    HW121248   1.445   4.999   5.163
 6783SOL    HW221249   1.516   4.856   5.130
 6784SOL     OW21250   1.655   3.478   1.681
 6784SOL    HW121251   1.734   3.443   1.731
 6784SOL    HW221252   1.637   3.572   1.709
 6785SOL     OW21253   5.544   5.043   4.660
 6785SOL    HW121254   5.540   5.136   4.624
 6785SOL    HW221255   5.458   4.997   4.642
 6786SOL     OW21256   6.647   2.358   0.007
 6786SOL    HW121257   6.715   2.387   6.970
 6786SOL    HW221258   6.577   2.302   6.992
 6787SOL     OW21259   3.810   1.899   6.795
 6787SOL    HW121260   3.806   1.995   6.770
 6787SOL    HW221261   3.750   1.846   6.735
 6788SOL     OW21262   0.262   4.189   3.607
 6788SOL    HW121263   0.173   4.203   3.564
 6788SOL    HW221264   0.294   4.097   3.586
 6789SOL     OW21265   6.325   3.757   4.213
 6789SOL    HW121266   6.423   3.754   4.236
 6789SOL    HW221267   6.313   3.811   4.130
 6790SOL     OW21268   0.754   4.933   5.373
 6790SOL    HW121269   0.735   4.905   5.467
 6790SOL    HW221270   0.846   4.904   5.347
 6791SOL     OW21271   3.837   0.744   4.098
 6791SOL    HW121272   3.915   0.701   4.052
 6791SOL    HW221273   3.842   0.726   4.196
 6792SOL     OW21274   4.304   0.329   5.870
 6792SOL    HW121275   4.242   0.384   5.926
 6792SOL    HW221276   4.312   0.238   5.909
 6793SOL     OW21277   2.315   3.397   0.475
 6793SOL    HW121278   2.342   3.335   0.549
 6793SOL    HW221279   2.238   3.357   0.424
 6794SOL     OW21280   4.577   1.406   5.837
 6794SOL    HW121281   4.651   1.427   5.900
 6794SOL    HW221282   4.490   1.439   5.875
 6795SOL     OW21283   0.837   1.056   0.997
 6795SOL    HW121284   0.749   1.104   0.992
 6795SOL    HW221285   0.896   1.086   0.922
 6796SOL     OW21286   6.198   1.354   2.674
 6796SOL    HW121287   6.289   1.390   2.695
 6796SOL    HW221288   6.204   1.295   2.594
 6797SOL     OW21289   0.408   2.637   1.565
 6797SOL    HW121290   0.327   2.639   1.506
 6797SOL    HW221291   0.489   2.618   1.511
 6798SOL     OW21292   5.401   0.428   1.931
 6798SOL    HW121293   5.323   0.488   1.916
 6798SOL    HW221294   5.369   0.337   1.957
 6799SOL     OW21295   5.545   0.893   3.336
 6799SOL    HW121296   5.589   0.809   3.369
 6799SOL    HW221297   5.471   0.918   3.398
 6800SOL     OW21298   0.025   1.611   1.080
 6800SOL    HW121299   6.973   1.631   1.134
 6800SOL    HW221300   0.058   1.519   1.101
 6801SOL     OW21301   0.360   5.547   5.671
 6801SOL    HW121302   0.402   5.559   5.761
 6801SOL    HW221303   0.431   5.544   5.601
 6802SOL     OW21304   3.216   4.983   1.540
 6802SOL    HW121305   3.177   4.906   1.589
 6802SOL    HW221306   3.151   5.017   1.472
 6803SOL     OW21307   4.999   4.728   5.595
 6803SOL    HW121308   4.960   4.647   5.552
 6803SOL    HW221309   5.003   4.803   5.529
 6804SOL     OW21310   3.274   4.876   3.057
 6804SOL    HW121311   3.229   4.867   3.146
 6804SOL    HW221312   3.207   4.863   2.984
 6805SOL     OW21313   0.221   4.103   5.414
 6805SOL    HW121314   0.272   4.189   5.422
 6805SOL    HW221315   0.264   4.045   5.345
 6806SOL     OW21316   6.898   1.201   2.635
 6806SOL    HW121317   6.799   1.193   2.620
 6806SOL    HW221318   6.916   1.207   2.733
 6807SOL     OW21319   3.615   3.632   1.629
 6807SOL    HW121320   3.540   3.594   1.574
 6807SOL    HW221321   3.593   3.622   1.726
 6808SOL     OW21322   3.848   1.152   4.613
 6808SOL    HW121323   3.904   1.176   4.533
 6808SOL    HW221324   3.767   1.210   4.616
 6809SOL     OW21325   5.668   3.487   2.098
 6809SOL    HW121326   5.651   3.583   2.120
 6809SOL    HW221327   5.584   3.447   2.062
 6810SOL     OW21328   2.755   0.845   4.110
 6810SOL    HW121329   2.685   0.892   4.164
 6810SOL    HW221330   2.811   0.787   4.169
 6811SOL     OW21331   6.517   1.375   1.400
 6811SOL    HW121332   6.515   1.448   1.331
 6811SOL    HW221333   6.495   1.288   1.357
 6812SOL     OW21334   3.187   4.145   5.167
 6812SOL    HW121335   3.211   4.108   5.078
 6812SOL    HW221336   3.267   4.146   5.226
 6813SOL     OW21337   6.005   3.890   2.070
 6813SOL    HW121338   6.062   3.962   2.031
 6813SOL    HW221339   6.058   3.836   2.135
 6814SOL     OW21340   5.128   1.243   6.461
 6814SOL    HW121341   5.145   1.147   6.438
 6814SOL    HW221342   5.029   1.260   6.463
 6815SOL     OW21343   2.204   4.987   6.319
 6815SOL    HW121344   2.113   4.982   6.360
 6815SOL    HW221345   2.232   5.083   6.309
 6816SOL     OW21346   0.732   1.498   3.150
 6816SOL    HW121347   0.810   1.435   3.146
 6816SOL    HW221348   0.647   1.447   3.139
 6817SOL     OW21349   3.698   2.006   2.089
 6817SOL    HW121350   3.748   2.005   2.175
 6817SOL    HW221351   3.689   2.100   2.056
 6818SOL     OW21352   1.888   6.608   5.773
 6818SOL    HW121353   1.876   6.643   5.680
 6818SOL    HW221354   1.798   6.592   5.815
 6819SOL     OW21355   4.516   4.585   2.070
 6819SOL    HW121356   4.471   4.605   1.983
 6819SOL    HW221357   4.517   4.486   2.085
 6820SOL     OW21358   3.056   5.774   1.089
 6820SOL    HW121359   2.990   5.833   1.136
 6820SOL    HW221360   3.079   5.813   1.000
 6821SOL     OW21361   3.956   2.504   5.410
 6821SOL    HW121362   4.029   2.531   5.347
 6821SOL    HW221363   3.908   2.586   5.442
 6822SOL     OW21364   6.699   2.721   6.582
 6822SOL    HW121365   6.670   2.815   6.598
 6822SOL    HW221366   6.758   2.717   6.501
 6823SOL     OW21367   5.946   3.590   6.770
 6823SOL    HW121368   6.014   3.552   6.833
 6823SOL    HW221369   5.875   3.522   6.752
 6824SOL     OW21370   0.449   2.432   6.223
 6824SOL    HW121371   0.431   2.526   6.193
 6824SOL    HW221372   0.386   2.408   6.297
 6825SOL     OW21373   6.238   5.606   1.708
 6825SOL    HW121374   6.146   5.630   1.677
 6825SOL    HW221375   6.244   5.508   1.722
 6826SOL     OW21376   0.342   3.791   3.158
 6826SOL    HW121377   0.356   3.741   3.244
 6826SOL    HW221378   0.393   3.745   3.085
 6827SOL     OW21379   4.746   5.783   4.983
 6827SOL    HW121380   4.771   5.814   5.075
 6827SOL    HW221381   4.710   5.690   4.988
 6828SOL     OW21382   3.133   1.590   2.205
 6828SOL    HW121383   3.224   1.550   2.199
 6828SOL    HW221384   3.141   1.688   2.226
 6829SOL     OW21385   4.900   6.785   4.738
 6829SOL    HW121386   4.956   6.732   4.674
 6829SOL    HW221387   4.804   6.771   4.717
 6830SOL     OW21388   5.554   6.793   3.226
 6830SOL    HW121389   5.602   6.819   3.310
 6830SOL    HW221390   5.543   6.873   3.167
 6831SOL     OW21391   1.201   1.668   6.327
 6831SOL    HW121392   1.170   1.763   6.324
 6831SOL    HW221393   1.279   1.656   6.266
 6832SOL     OW21394   2.996   2.699   0.437
 6832SOL    HW121395   2.935   2.711   0.358
 6832SOL    HW221396   3.054   2.619   0.422
 6833SOL     OW21397   2.953   5.089   6.042
 6833SOL    HW121398   3.005   5.035   5.975
 6833SOL    HW221399   2.884   5.030   6.085
 6834SOL     OW21400   5.511   0.361   0.822
 6834SOL    HW121401   5.417   0.327   0.811
 6834SOL    HW221402   5.511   0.461   0.819
 6835SOL     OW21403   2.803   2.033   4.308
 6835SOL    HW121404   2.826   2.010   4.403
 6835SOL    HW221405   2.818   2.130   4.293
 6836SOL     OW21406   1.882   4.770   6.271
 6836SOL    HW121407   1.884   4.824   6.355
 6836SOL    HW221408   1.788   4.748   6.248
 6837SOL     OW21409   0.491   0.361   1.681
 6837SOL    HW121410   0.439   0.367   1.766
 6837SOL    HW221411   0.474   0.442   1.626
 6838SOL     OW21412   3.060   4.351   5.290
 6838SOL    HW121413   3.109   4.293   5.224
 6838SOL    HW221414   3.019   4.428   5.242
 6839SOL     OW21415   5.850   2.526   3.877
 6839SOL    HW121416   5.827   2.530   3.780
 6839SOL    HW221417   5.826   2.436   3.913
 6840SOL     OW21418   2.636   6.825   5.295
 6840SOL    HW121419   2.593   6.767   5.365
 6840SOL    HW221420   2.611   6.792   5.204
 6841SOL     OW21421   3.949   5.563   1.449
 6841SOL    HW121422   3.932   5.660   1.438
 6841SOL    HW221423   3.936   5.516   1.362
 6842SOL     OW21424   0.088   4.231   6.647
 6842SOL    HW121425   7.020   4.212   6.649
 6842SOL    HW221426   0.112   4.272   6.559
 6843SOL     OW21427   3.209   1.857   2.231
 6843SOL    HW121428   3.128   1.915   2.243
 6843SOL    HW221429   3.283   1.911   2.191
 6844SOL     OW21430   4.957   4.981   4.022
 6844SOL    HW121431   4.980   5.054   4.087
 6844SOL    HW221432   4.859   4.983   4.004
 6845SOL     OW21433   4.847   4.671   1.928
 6845SOL    HW121434   4.906   4.747   1.901
 6845SOL    HW221435   4.755   4.704   1.946
 6846SOL     OW21436   3.621   2.937   2.413
 6846SOL    HW121437   3.711   2.924   2.371
 6846SOL    HW221438   3.550   2.903   2.352
 6847SOL     OW21439   5.721   3.038   1.944
 6847SOL    HW121440   5.795   2.972   1.959
 6847SOL    HW221441   5.760   3.124   1.911
 6848SOL     OW21442   0.908   6.031   3.582
 6848SOL    HW121443   0.955   6.118   3.566
 6848SOL    HW221444   0.967   5.970   3.634
 6849SOL     OW21445   3.938   5.851   4.192
 6849SOL    HW121446   4.005   5.910   4.148
 6849SOL    HW221447   3.895   5.900   4.268
 6850SOL     OW21448   5.194   2.865   2.734
 6850SOL    HW121449   5.275   2.809   2.720
 6850SOL    HW221450   5.176   2.920   2.652
 6851SOL     OW21451   1.563   5.110   5.837
 6851SOL    HW121452   1.477   5.095   5.886
 6851SOL    HW221453   1.615   5.025   5.835
 6852SOL     OW21454   1.549   4.496   1.641
 6852SOL    HW121455   1.462   4.542   1.661
 6852SOL    HW221456   1.539   4.398   1.656
 6853SOL     OW21457   0.728   4.546   5.587
 6853SOL    HW121458   0.668   4.495   5.526
 6853SOL    HW221459   0.713   4.516   5.682
 6854SOL     OW21460   6.905   2.964   6.342
 6854SOL    HW121461   6.907   2.865   6.359
 6854SOL    HW221462   6.892   3.012   6.429
 6855SOL     OW21463   3.120   6.803   2.579
 6855SOL    HW121464   3.141   6.896   2.547
 6855SOL    HW221465   3.087   6.748   2.502
 6856SOL     OW21466   6.113   3.684   4.814
 6856SOL    HW121467   6.120   3.705   4.911
 6856SOL    HW221468   6.097   3.769   4.762
 6857SOL     OW21469   2.940   2.313   6.436
 6857SOL    HW121470   2.853   2.339   6.394
 6857SOL    HW221471   2.999   2.271   6.366
 6858SOL     OW21472   3.937   3.037   5.133
 6858SOL    HW121473   4.005   3.107   5.153
 6858SOL    HW221474   3.968   2.949   5.167
 6859SOL     OW21475   3.236   6.928   0.817
 6859SOL    HW121476   3.255   7.026   0.812
 6859SOL    HW221477   3.208   6.895   0.726
 6860SOL     OW21478   5.886   4.297   0.576
 6860SOL    HW121479   5.955   4.274   0.645
 6860SOL    HW221480   5.932   4.324   0.491
 6861SOL     OW21481   5.888   5.595   0.042
 6861SOL    HW121482   5.926   5.684   0.015
 6861SOL    HW221483   5.955   5.523   0.023
 6862SOL     OW21484   3.560   5.730   4.777
 6862SOL    HW121485   3.644   5.679   4.760
 6862SOL    HW221486   3.497   5.674   4.831
 6863SOL     OW21487   5.925   1.913   4.063
 6863SOL    HW121488   5.900   1.838   4.001
 6863SOL    HW221489   5.989   1.974   4.017
 6864SOL     OW21490   3.151   6.251   4.221
 6864SOL    HW121491   3.225   6.221   4.281
 6864SOL    HW221492   3.182   6.328   4.165
 6865SOL     OW21493   6.938   4.346   4.430
 6865SOL    HW121494   0.005   4.369   4.437
 6865SOL    HW221495   6.929   4.250   4.404
 6866SOL     OW21496   6.740   3.694   1.625
 6866SOL    HW121497   6.730   3.788   1.656
 6866SOL    HW221498   6.689   3.633   1.687
 6867SOL     OW21499   2.182   4.088   1.999
 6867SOL    HW121500   2.152   4.163   1.940
 6867SOL    HW221501   2.167   4.112   2.095
 6868SOL     OW21502   2.089   6.165   4.936
 6868SOL    HW121503   2.093   6.152   5.035
 6868SOL    HW221504   1.996   6.189   4.908
 6869SOL     OW21505   5.392   2.046   5.617
 6869SOL    HW121506   5.413   2.121   5.556
 6869SOL    HW221507   5.353   1.970   5.564
 6870SOL     OW21508   5.570   3.921   3.368
 6870SOL    HW121509   5.543   3.919   3.272
 6870SOL    HW221510   5.539   3.837   3.413
 6871SOL     OW21511   5.290   5.505   1.351
 6871SOL    HW121512   5.237   5.428   1.315
 6871SOL    HW221513   5.309   5.491   1.447
 6872SOL     OW21514   2.098   2.866   0.370
 6872SOL    HW121515   2.196   2.866   0.390
 6872SOL    HW221516   2.068   2.959   0.347
 6873SOL     OW21517   6.302   3.128   6.342
 6873SOL    HW121518   6.277   3.074   6.262
 6873SOL    HW221519   6.222   3.177   6.376
 6874SOL     OW21520   0.003   3.010   3.782
 6874SOL    HW121521   0.034   2.940   3.717
 6874SOL    HW221522   6.948   2.980   3.825
 6875SOL     OW21523   1.850   1.073   2.411
 6875SOL    HW121524   1.864   1.169   2.436
 6875SOL    HW221525   1.778   1.034   2.468
 6876SOL     OW21526   3.593   5.793   0.140
 6876SOL    HW121527   3.666   5.781   0.073
 6876SOL    HW221528   3.632   5.808   0.231
 6877SOL     OW21529   2.413   3.646   0.179
 6877SOL    HW121530   2.407   3.632   0.080
 6877SOL    HW221531   2.327   3.684   0.213
 6878SOL     OW21532   2.259   1.595   4.886
 6878SOL    HW121533   2.192   1.556   4.823
 6878SOL    HW221534   2.228   1.685   4.916
 6879SOL     OW21535   1.039   2.196   7.018
 6879SOL    HW121536   0.976   2.164   6.947
 6879SOL    HW221537   1.131   2.163   6.998
 6880SOL     OW21538   2.241   4.189   4.855
 6880SOL    HW121539   2.291   4.151   4.932
 6880SOL    HW221540   2.186   4.117   4.812
 6881SOL     OW21541   0.754   4.621   1.365
 6881SOL    HW121542   0.792   4.540   1.410
 6881SOL    HW221543   0.731   4.598   1.270
 6882SOL     OW21544   2.106   0.937   5.495
 6882SOL    HW121545   2.037   0.926   5.424
 6882SOL    HW221546   2.182   0.874   5.478
 6883SOL     OW21547   4.219   0.573   1.721
 6883SOL    HW121548   4.131   0.581   1.768
 6883SOL    HW221549   4.240   0.476   1.707
 6884SOL     OW21550   2.560   4.523   4.609
 6884SOL    HW121551   2.609   4.516   4.696
 6884SOL    HW221552   2.463   4.504   4.624
 6885SOL     OW21553   3.215   5.914   4.295
 6885SOL    HW121554   3.151   5.988   4.316
 6885SOL    HW221555   3.182   5.829   4.336
 6886SOL     OW21556   5.349   1.202   2.689
 6886SOL    HW121557   5.251   1.222   2.694
 6886SOL    HW221558   5.374   1.182   2.594
 6887SOL     OW21559   5.810   0.589   4.675
 6887SOL    HW121560   5.749   0.509   4.678
 6887SOL    HW221561   5.826   0.621   4.769
 6888SOL     OW21562   6.507   0.222   4.915
 6888SOL    HW121563   6.466   0.195   5.002
 6888SOL    HW221564   6.605   0.233   4.926
 6889SOL     OW21565   1.454   4.337   6.173
 6889SOL    HW121566   1.538   4.350   6.226
 6889SOL    HW221567   1.453   4.400   6.096
 6890SOL     OW21568   1.994   6.518   1.077
 6890SOL    HW121569   1.961   6.439   1.129
 6890SOL    HW221570   2.034   6.486   0.991
 6891SOL     OW21571   2.148   3.472   3.867
 6891SOL    HW121572   2.174   3.506   3.776
 6891SOL    HW221573   2.153   3.372   3.868
 6892SOL     OW21574   3.178   0.334   4.327
 6892SOL    HW121575   3.219   0.297   4.244
 6892SOL    HW221576   3.169   0.433   4.319
 6893SOL     OW21577   4.854   5.895   2.979
 6893SOL    HW121578   4.866   5.962   3.053
 6893SOL    HW221579   4.831   5.943   2.894
 6894SOL     OW21580   5.556   5.834   0.338
 6894SOL    HW121581   5.516   5.917   0.375
 6894SOL    HW221582   5.507   5.807   0.254
 6895SOL     OW21583   2.816   4.021   0.050
 6895SOL    HW121584   2.719   3.997   0.036
 6895SOL    HW221585   2.863   3.944   0.094
 6896SOL     OW21586   3.759   0.354   3.364
 6896SOL    HW121587   3.661   0.342   3.346
 6896SOL    HW221588   3.812   0.323   3.285
 6897SOL     OW21589   3.525   3.812   0.231
 6897SOL    HW121590   3.553   3.730   0.181
 6897SOL    HW221591   3.606   3.861   0.263
 6898SOL     OW21592   3.927   1.601   1.582
 6898SOL    HW121593   3.929   1.538   1.505
 6898SOL    HW221594   3.893   1.690   1.552
 6899SOL     OW21595   4.805   6.800   6.166
 6899SOL    HW121596   4.797   6.848   6.079
 6899SOL    HW221597   4.725   6.819   6.223
 6900SOL     OW21598   5.537   0.521   6.228
 6900SOL    HW121599   5.470   0.511   6.302
 6900SOL    HW221600   5.622   0.476   6.254
 6901SOL     OW21601   1.915   0.310   6.168
 6901SOL    HW121602   1.875   0.393   6.208
 6901SOL    HW221603   1.989   0.336   6.106
 6902SOL     OW21604   0.704   6.339   0.055
 6902SOL    HW121605   0.672   6.279   7.012
 6902SOL    HW221606   0.803   6.332   0.064
 6903SOL     OW21607   3.587   4.321   0.416
 6903SOL    HW121608   3.574   4.249   0.484
 6903SOL    HW221609   3.680   4.317   0.380
 6904SOL     OW21610   6.239   1.000   3.818
 6904SOL    HW121611   6.290   1.062   3.878
 6904SOL    HW221612   6.154   1.042   3.790
 6905SOL     OW21613   5.900   6.362   0.863
 6905SOL    HW121614   5.853   6.427   0.803
 6905SOL    HW221615   5.998   6.360   0.840
 6906SOL     OW21616   3.700   0.984   3.379
 6906SOL    HW121617   3.662   1.072   3.405
 6906SOL    HW221618   3.726   0.933   3.461
 6907SOL     OW21619   3.455   0.896   1.617
 6907SOL    HW121620   3.378   0.842   1.583
 6907SOL    HW221621   3.511   0.839   1.678
 6908SOL     OW21622   1.181   6.811   5.676
 6908SOL    HW121623   1.175   6.792   5.578
 6908SOL    HW221624   1.124   6.747   5.726
 6909SOL     OW21625   4.955   4.461   0.695
 6909SOL    HW121626   4.871   4.408   0.686
 6909SOL    HW221627   5.012   4.422   0.768
 6910SOL     OW21628   6.349   1.570   1.798
 6910SOL    HW121629   6.348   1.593   1.895
 6910SOL    HW221630   6.360   1.471   1.787
 6911SOL     OW21631   4.247   0.153   4.318
 6911SOL    HW121632   4.194   0.233   4.346
 6911SOL    HW221633   4.229   0.077   4.381
 6912SOL     OW21634   4.723   4.824   0.678
 6912SOL    HW121635   4.804   4.788   0.632
 6912SOL    HW221636   4.748   4.904   0.733
 6913SOL     OW21637   5.186   5.055   4.801
 6913SOL    HW121638   5.251   5.000   4.749
 6913SOL    HW221639   5.226   5.145   4.822
 6914SOL     OW21640   6.057   5.185   0.354
 6914SOL    HW121641   6.149   5.218   0.371
 6914SOL    HW221642   6.007   5.250   0.297
 6915SOL     OW21643   0.508   4.350   2.858
 6915SOL    HW121644   0.584   4.288   2.839
 6915SOL    HW221645   0.423   4.298   2.867
 6916SOL     OW21646   6.508   3.866   0.039
 6916SOL    HW121647   6.421   3.817   0.036
 6916SOL    HW221648   6.530   3.889   0.134
 6917SOL     OW21649   4.659   6.296   6.253
 6917SOL    HW121650   4.689   6.270   6.161
 6917SOL    HW221651   4.568   6.258   6.270
 6918SOL     OW21652   7.021   4.112   4.146
 6918SOL    HW121653   6.939   4.157   4.112
 6918SOL    HW221654   0.072   4.168   4.127
 6919SOL     OW21655   2.087   6.484   2.569
 6919SOL    HW121656   2.128   6.426   2.499
 6919SOL    HW221657   2.012   6.435   2.614
 6920SOL     OW21658   5.449   5.674   4.840
 6920SOL    HW121659   5.388   5.609   4.886
 6920SOL    HW221660   5.522   5.625   4.794
 6921SOL     OW21661   6.602   6.987   3.629
 6921SOL    HW121662   6.644   6.908   3.584
 6921SOL    HW221663   6.594   6.969   3.727
 6922SOL     OW21664   2.711   6.047   0.873
 6922SOL    HW121665   2.738   6.143   0.870
 6922SOL    HW221666   2.776   5.992   0.821
 6923SOL     OW21667   4.720   0.143   4.467
 6923SOL    HW121668   4.799   0.102   4.514
 6923SOL    HW221669   4.749   0.227   4.422
 6924SOL     OW21670   0.511   4.966   1.292
 6924SOL    HW121671   0.472   5.052   1.258
 6924SOL    HW221672   0.460   4.889   1.253
 6925SOL     OW21673   4.529   6.603   3.366
 6925SOL    HW121674   4.523   6.589   3.267
 6925SOL    HW221675   4.438   6.629   3.401
 6926SOL     OW21676   3.491   4.110   4.064
 6926SOL    HW121677   3.455   4.017   4.064
 6926SOL    HW221678   3.462   4.157   3.981
 6927SOL     OW21679   5.238   3.425   6.415
 6927SOL    HW121680   5.167   3.366   6.453
 6927SOL    HW221681   5.206   3.519   6.414
 6928SOL     OW21682   4.883   0.667   6.741
 6928SOL    HW121683   4.917   0.723   6.665
 6928SOL    HW221684   4.861   0.727   6.818
 6929SOL     OW21685   4.099   6.121   0.224
 6929SOL    HW121686   4.097   6.221   0.230
 6929SOL    HW221687   4.046   6.091   0.144
 6930SOL     OW21688   0.598   6.673   1.817
 6930SOL    HW121689   0.511   6.718   1.796
 6930SOL    HW221690   0.611   6.672   1.917
 6931SOL     OW21691   1.227   6.972   1.561
 6931SOL    HW121692   1.128   6.984   1.575
 6931SOL    HW221693   1.252   7.008   1.471
 6932SOL     OW21694   2.865   1.016   7.005
 6932SOL    HW121695   2.767   1.019   6.982
 6932SOL    HW221696   2.905   1.106   6.987
 6933SOL     OW21697   4.303   5.614   6.033
 6933SOL    HW121698   4.308   5.713   6.049
 6933SOL    HW221699   4.361   5.590   5.956
 6934SOL     OW21700   4.994   2.740   0.257
 6934SOL    HW121701   5.027   2.688   0.178
 6934SOL    HW221702   4.945   2.679   0.319
 6935SOL     OW21703   4.211   6.741   3.640
 6935SOL    HW121704   4.278   6.735   3.715
 6935SOL    HW221705   4.189   6.649   3.608
 6936SOL     OW21706   0.257   3.079   1.529
 6936SOL    HW121707   0.265   3.139   1.608
 6936SOL    HW221708   0.316   3.112   1.456
 6937SOL     OW21709   4.122   6.428   5.831
 6937SOL    HW121710   4.050   6.444   5.899
 6937SOL    HW221711   4.115   6.496   5.758
 6938SOL     OW21712   4.884   2.986   5.034
 6938SOL    HW121713   4.826   3.012   5.111
 6938SOL    HW221714   4.977   2.969   5.066
 6939SOL     OW21715   0.190   4.311   2.047
 6939SOL    HW121716   0.105   4.269   2.016
 6939SOL    HW221717   0.206   4.289   2.143
 6940SOL     OW21718   4.749   0.454   6.166
 6940SOL    HW121719   4.759   0.438   6.068
 6940SOL    HW221720   4.753   0.552   6.185
 6941SOL     OW21721   3.597   2.997   3.269
 6941SOL    HW121722   3.646   2.981   3.355
 6941SOL    HW221723   3.532   2.923   3.253
 6942SOL     OW21724   6.754   3.374   0.606
 6942SOL    HW121725   6.823   3.378   0.533
 6942SOL    HW221726   6.759   3.285   0.652
 6943SOL     OW21727   5.363   6.639   5.972
 6943SOL    HW121728   5.436   6.680   5.918
 6943SOL    HW221729   5.399   6.559   6.021
 6944SOL     OW21730   1.037   5.317   6.374
 6944SOL    HW121731   1.125   5.319   6.421
 6944SOL    HW221732   0.978   5.390   6.410
 6945SOL     OW21733   6.171   2.712   6.330
 6945SOL    HW121734   6.086   2.742   6.372
 6945SOL    HW221735   6.248   2.763   6.370
 6946SOL     OW21736   5.896   4.116   2.674
 6946SOL    HW121737   5.810   4.166   2.675
 6946SOL    HW221738   5.882   4.026   2.634
 6947SOL     OW21739   3.631   0.026   2.678
 6947SOL    HW121740   3.615   0.122   2.656
 6947SOL    HW221741   3.729   0.011   2.692
 6948SOL     OW21742   4.804   0.527   0.263
 6948SOL    HW121743   4.837   0.483   0.346
 6948SOL    HW221744   4.712   0.564   0.279
 6949SOL     OW21745   5.294   6.650   3.178
 6949SOL    HW121746   5.268   6.660   3.082
 6949SOL    HW221747   5.372   6.710   3.198
 6950SOL     OW21748   1.895   0.971   2.846
 6950SOL    HW121749   1.966   1.022   2.893
 6950SOL    HW221750   1.935   0.890   2.802
 6951SOL     OW21751   6.462   6.173   5.553
 6951SOL    HW121752   6.421   6.091   5.513
 6951SOL    HW221753   6.395   6.220   5.610
 6952SOL     OW21754   0.806   5.504   4.336
 6952SOL    HW121755   0.852   5.435   4.392
 6952SOL    HW221756   0.846   5.506   4.245
 6953SOL     OW21757   4.857   1.084   6.187
 6953SOL    HW121758   4.892   0.990   6.195
 6953SOL    HW221759   4.851   1.109   6.091
 6954SOL     OW21760   6.810   2.981   4.225
 6954SOL    HW121761   6.878   2.915   4.256
 6954SOL    HW221762   6.822   2.998   4.127
 6955SOL     OW21763   0.306   6.041   1.296
 6955SOL    HW121764   0.329   6.134   1.323
 6955SOL    HW221765   0.388   5.993   1.266
 6956SOL     OW21766   4.579   5.578   2.108
 6956SOL    HW121767   4.545   5.485   2.122
 6956SOL    HW221768   4.614   5.587   2.016
 6957SOL     OW21769   0.050   4.737   1.668
 6957SOL    HW121770   7.005   4.722   1.732
 6957SOL    HW221771   0.130   4.773   1.717
 6958SOL     OW21772   2.291   2.773   6.334
 6958SOL    HW121773   2.258   2.790   6.427
 6958SOL    HW221774   2.225   2.810   6.268
 6959SOL     OW21775   3.260   1.447   4.938
 6959SOL    HW121776   3.323   1.470   4.864
 6959SOL    HW221777   3.167   1.439   4.902
 6960SOL     OW21778   0.195   4.985   0.321
 6960SOL    HW121779   0.220   5.007   0.227
 6960SOL    HW221780   0.109   4.933   0.321
 6961SOL     OW21781   1.181   1.999   3.381
 6961SOL    HW121782   1.280   2.012   3.382
 6961SOL    HW221783   1.135   2.082   3.413
 6962SOL     OW21784   5.055   5.262   2.183
 6962SOL    HW121785   5.083   5.177   2.227
 6962SOL    HW221786   5.123   5.333   2.200
 6963SOL     OW21787   0.896   5.040   1.858
 6963SOL    HW121788   0.841   4.964   1.824
 6963SOL    HW221789   0.848   5.126   1.843
 6964SOL     OW21790   4.617   5.494   5.444
 6964SOL    HW121791   4.684   5.449   5.504
 6964SOL    HW221792   4.611   5.443   5.358
 6965SOL     OW21793   6.292   3.760   6.236
 6965SOL    HW121794   6.363   3.763   6.306
 6965SOL    HW221795   6.264   3.665   6.220
 6966SOL     OW21796   5.071   2.554   2.874
 6966SOL    HW121797   5.111   2.635   2.832
 6966SOL    HW221798   4.978   2.574   2.904
 6967SOL     OW21799   1.161   2.450   6.037
 6967SOL    HW121800   1.095   2.436   5.963
 6967SOL    HW221801   1.172   2.548   6.054
 6968SOL     OW21802   4.206   5.554   1.354
 6968SOL    HW121803   4.212   5.477   1.290
 6968SOL    HW221804   4.115   5.556   1.395
 6969SOL     OW21805   3.719   1.116   1.369
 6969SOL    HW121806   3.741   1.203   1.324
 6969SOL    HW221807   3.624   1.119   1.400
 6970SOL     OW21808   3.630   4.638   0.588
 6970SOL    HW121809   3.592   4.547   0.605
 6970SOL    HW221810   3.596   4.672   0.500
 6971SOL     OW21811   6.213   2.547   1.563
 6971SOL    HW121812   6.304   2.589   1.565
 6971SOL    HW221813   6.159   2.582   1.639
 6972SOL     OW21814   5.386   4.374   4.193
 6972SOL    HW121815   5.478   4.413   4.201
 6972SOL    HW221816   5.393   4.278   4.168
 6973SOL     OW21817   1.947   5.239   4.309
 6973SOL    HW121818   1.925   5.170   4.378
 6973SOL    HW221819   1.977   5.323   4.355
 6974SOL     OW21820   3.563   4.176   3.776
 6974SOL    HW121821   3.646   4.221   3.807
 6974SOL    HW221822   3.581   4.078   3.762
 6975SOL     OW21823   3.617   0.435   6.384
 6975SOL    HW121824   3.604   0.378   6.465
 6975SOL    HW221825   3.540   0.423   6.321
 6976SOL     OW21826   2.937   4.885   6.974
 6976SOL    HW121827   2.924   4.815   6.903
 6976SOL    HW221828   2.894   4.971   6.944
 6977SOL     OW21829   4.052   1.524   2.263
 6977SOL    HW121830   4.061   1.573   2.349
 6977SOL    HW221831   3.962   1.480   2.259
 6978SOL     OW21832   0.093   0.854   1.825
 6978SOL    HW121833   0.074   0.949   1.847
 6978SOL    HW221834   0.038   0.827   1.746
 6979SOL     OW21835   0.842   4.855   2.511
 6979SOL    HW121836   0.873   4.869   2.605
 6979SOL    HW221837   0.902   4.906   2.448
 6980SOL     OW21838   2.163   1.281   3.298
 6980SOL    HW121839   2.200   1.358   3.245
 6980SOL    HW221840   2.090   1.237   3.246
 6981SOL     OW21841   2.567   3.901   0.170
 6981SOL    HW121842   2.494   3.834   0.158
 6981SOL    HW221843   2.605   3.894   0.262
 6982SOL     OW21844   1.220   0.639   4.090
 6982SOL    HW121845   1.268   0.700   4.027
 6982SOL    HW221846   1.261   0.548   4.087
 6983SOL     OW21847   6.892   0.340   4.506
 6983SOL    HW121848   6.949   0.269   4.548
 6983SOL    HW221849   6.852   0.305   4.422
 6984SOL     OW21850   1.851   1.923   5.224
 6984SOL    HW121851   1.848   1.873   5.137
 6984SOL    HW221852   1.944   1.923   5.260
 6985SOL     OW21853   3.843   5.793   2.146
 6985SOL    HW121854   3.877   5.726   2.211
 6985SOL    HW221855   3.744   5.801   2.155
 6986SOL     OW21856   1.710   6.272   5.547
 6986SOL    HW121857   1.784   6.245   5.608
 6986SOL    HW221858   1.745   6.337   5.480
 6987SOL     OW21859   6.866   2.663   6.359
 6987SOL    HW121860   6.830   2.610   6.282
 6987SOL    HW221861   6.966   2.653   6.362
 6988SOL     OW21862   5.087   1.125   4.115
 6988SOL    HW121863   5.116   1.113   4.210
 6988SOL    HW221864   4.988   1.138   4.112
 6989SOL     OW21865   1.163   1.231   3.359
 6989SOL    HW121866   1.192   1.184   3.275
 6989SOL    HW221867   1.232   1.220   3.430
 6990SOL     OW21868   4.721   2.916   6.954
 6990SOL    HW121869   4.789   2.928   7.027
 6990SOL    HW221870   4.631   2.947   6.987
 6991SOL     OW21871   2.534   4.514   5.549
 6991SOL    HW121872   2.607   4.525   5.482
 6991SOL    HW221873   2.491   4.424   5.537
 6992SOL     OW21874   6.059   6.252   4.643
 6992SOL    HW121875   6.060   6.311   4.562
 6992SOL    HW221876   6.101   6.299   4.720
 6993SOL     OW21877   6.848   0.326   3.322
 6993SOL    HW121878   6.895   0.259   3.265
 6993SOL    HW221879   6.763   0.286   3.358
 6994SOL     OW21880   1.630   3.459   5.679
 6994SOL    HW121881   1.665   3.373   5.718
 6994SOL    HW221882   1.574   3.506   5.747
 6995SOL     OW21883   5.939   5.823   4.897
 6995SOL    HW121884   5.868   5.894   4.891
 6995SOL    HW221885   5.984   5.813   4.809
 6996SOL     OW21886   2.755   1.011   5.215
 6996SOL    HW121887   2.849   0.979   5.202
 6996SOL    HW221888   2.744   1.042   5.310
 6997SOL     OW21889   5.033   6.054   4.761
 6997SOL    HW121890   4.974   6.126   4.796
 6997SOL    HW221891   5.104   6.033   4.828
 6998SOL     OW21892   1.490   2.425   1.508
 6998SOL    HW121893   1.499   2.384   1.599
 6998SOL    HW221894   1.478   2.524   1.517
 6999SOL     OW21895   1.934   2.180   6.130
 6999SOL    HW121896   1.986   2.254   6.089
 6999SOL    HW221897   1.942   2.098   6.073
 7000SOL     OW21898   0.628   6.106   2.836
 7000SOL    HW121899   0.535   6.122   2.870
 7000SOL    HW221900   0.694   6.129   2.909
 7001SOL     OW21901   2.399   2.733   5.747
 7001SOL    HW121902   2.415   2.768   5.839
 7001SOL    HW221903   2.381   2.809   5.685
 7002SOL     OW21904   2.031   5.063   4.108
 7002SOL    HW121905   2.103   5.108   4.054
 7002SOL    HW221906   1.986   5.131   4.167
 7003SOL     OW21907   3.031   6.807   0.307
 7003SOL    HW121908   3.041   6.867   0.228
 7003SOL    HW221909   3.005   6.860   0.387
 7004SOL     OW21910   2.083   4.326   1.862
 7004SOL    HW121911   2.122   4.325   1.770
 7004SOL    HW221912   1.986   4.352   1.857
 7005SOL     OW21913   5.898   6.143   6.227
 7005SOL    HW121914   5.966   6.117   6.159
 7005SOL    HW221915   5.942   6.194   6.301
 7006SOL     OW21916   4.950   4.014   4.897
 7006SOL    HW121917   4.914   3.924   4.921
 7006SOL    HW221918   4.915   4.082   4.961
 7007SOL     OW21919   5.231   6.654   2.902
 7007SOL    HW121920   5.303   6.596   2.864
 7007SOL    HW221921   5.143   6.627   2.865
 7008SOL     OW21922   2.465   5.662   4.565
 7008SOL    HW121923   2.477   5.638   4.661
 7008SOL    HW221924   2.419   5.751   4.558
 7009SOL     OW21925   6.076   5.729   2.273
 7009SOL    HW121926   6.052   5.759   2.180
 7009SOL    HW221927   6.158   5.777   2.303
 7010SOL     OW21928   3.265   4.547   6.046
 7010SOL    HW121929   3.183   4.601   6.064
 7010SOL    HW221930   3.337   4.574   6.110
 7011SOL     OW21931   2.289   6.858   5.617
 7011SOL    HW121932   2.238   6.831   5.535
 7011SOL    HW221933   2.282   6.785   5.685
 7012SOL     OW21934   0.847   7.014   1.919
 7012SOL    HW121935   0.822   7.017   2.016
 7012SOL    HW221936   0.945   7.000   1.909
 7013SOL     OW21937   1.033   6.946   1.302
 7013SOL    HW121938   0.996   0.008   1.292
 7013SOL    HW221939   1.115   6.936   1.246
 7014SOL     OW21940   3.517   4.490   1.037
 7014SOL    HW121941   3.533   4.566   0.974
 7014SOL    HW221942   3.521   4.523   1.131
 7015SOL     OW21943   5.382   3.195   2.407
 7015SOL    HW121944   5.343   3.105   2.388
 7015SOL    HW221945   5.447   3.187   2.484
 7016SOL     OW21946   4.560   5.268   2.117
 7016SOL    HW121947   4.512   5.243   2.202
 7016SOL    HW221948   4.531   5.207   2.044
 7017SOL     OW21949   3.020   1.715   3.450
 7017SOL    HW121950   3.065   1.668   3.373
 7017SOL    HW221951   2.955   1.653   3.493
 7018SOL     OW21952   0.323   4.169   4.904
 7018SOL    HW121953   0.227   4.165   4.931
 7018SOL    HW221954   0.368   4.245   4.951
 7019SOL     OW21955   2.309   4.669   6.568
 7019SOL    HW121956   2.225   4.722   6.579
 7019SOL    HW221957   2.369   4.684   6.646
 7020SOL     OW21958   6.074   0.046   0.373
 7020SOL    HW121959   6.011   0.122   0.392
 7020SOL    HW221960   6.134   0.071   0.297
 7021SOL     OW21961   2.453   1.404   4.712
 7021SOL    HW121962   2.418   1.341   4.781
 7021SOL    HW221963   2.515   1.354   4.651
 7022SOL     OW21964   5.272   3.333   1.005
 7022SOL    HW121965   5.229   3.320   0.916
 7022SOL    HW221966   5.350   3.394   0.996
 7023SOL     OW21967   6.006   2.610   2.501
 7023SOL    HW121968   6.098   2.626   2.465
 7023SOL    HW221969   5.979   2.516   2.483
 7024SOL     OW21970   1.923   6.169   6.402
 7024SOL    HW121971   1.927   6.194   6.499
 7024SOL    HW221972   1.974   6.084   6.388
 7025SOL     OW21973   3.006   2.179   6.656
 7025SOL    HW121974   3.028   2.088   6.621
 7025SOL    HW221975   2.984   2.239   6.580
 7026SOL     OW21976   3.334   1.395   2.202
 7026SOL    HW121977   3.258   1.350   2.155
 7026SOL    HW221978   3.367   1.337   2.276
 7027SOL     OW21979   4.095   5.477   3.797
 7027SOL    HW121980   4.007   5.471   3.750
 7027SOL    HW221981   4.093   5.550   3.865
 7028SOL     OW21982   4.840   6.984   3.519
 7028SOL    HW121983   4.919   6.944   3.472
 7028SOL    HW221984   4.780   6.910   3.551
 7029SOL     OW21985   3.633   6.648   0.126
 7029SOL    HW121986   3.655   6.629   0.030
 7029SOL    HW221987   3.558   6.590   0.155
 7030SOL     OW21988   0.376   3.799   5.476
 7030SOL    HW121989   0.389   3.870   5.546
 7030SOL    HW221990   0.283   3.762   5.485
 7031SOL     OW21991   2.294   6.050   4.292
 7031SOL    HW121992   2.309   5.956   4.259
 7031SOL    HW221993   2.383   6.095   4.305
 7032SOL     OW21994   4.423   6.869   3.111
 7032SOL    HW121995   4.370   6.790   3.143
 7032SOL    HW221996   4.391   6.895   3.020
 7033SOL     OW21997   6.809   1.052   4.001
 7033SOL    HW121998   6.765   1.136   3.968
 7033SOL    HW221999   6.900   1.045   3.962
 7034SOL     OW22000   4.837   0.291   2.923
 7034SOL    HW122001   4.878   0.269   2.834
 7034SOL    HW222002   4.737   0.281   2.917
 7035SOL     OW22003   0.605   6.285   2.607
 7035SOL    HW122004   0.613   6.259   2.511
 7035SOL    HW222005   0.623   6.205   2.665
 7036SOL     OW22006   6.953   5.703   2.072
 7036SOL    HW122007   6.972   5.750   1.985
 7036SOL    HW222008   6.859   5.721   2.099
 7037SOL     OW22009   0.489   6.069   5.423
 7037SOL    HW122010   0.449   6.065   5.332
 7037SOL    HW222011   0.573   6.123   5.421
 7038SOL     OW22012   1.100   3.986   3.321
 7038SOL    HW122013   1.019   3.980   3.378
 7038SOL    HW222014   1.127   3.894   3.291
 7039SOL     OW22015   3.841   0.261   6.854
 7039SOL    HW122016   3.904   0.185   6.868
 7039SOL    HW222017   3.893   0.347   6.853
 7040SOL     OW22018   4.523   2.832   6.174
 7040SOL    HW122019   4.613   2.809   6.209
 7040SOL    HW222020   4.525   2.925   6.136
 7041SOL     OW22021   1.438   1.059   3.245
 7041SOL    HW122022   1.449   0.998   3.166
 7041SOL    HW222023   1.373   1.018   3.309
 7042SOL     OW22024   4.802   5.571   6.089
 7042SOL    HW122025   4.842   5.657   6.059
 7042SOL    HW222026   4.874   5.507   6.114
 7043SOL     OW22027   1.532   2.977   3.104
 7043SOL    HW122028   1.606   2.962   3.038
 7043SOL    HW222029   1.517   3.075   3.115
 7044SOL     OW22030   4.549   4.980   2.680
 7044SOL    HW122031   4.619   5.051   2.686
 7044SOL    HW222032   4.509   4.964   2.770
 7045SOL     OW22033   4.812   6.533   1.091
 7045SOL    HW122034   4.868   6.540   1.009
 7045SOL    HW222035   4.741   6.604   1.090
 7046SOL     OW22036   3.891   0.860   4.981
 7046SOL    HW122037   3.832   0.780   4.973
 7046SOL    HW222038   3.947   0.870   4.899
 7047SOL     OW22039   0.647   1.974   3.481
 7047SOL    HW122040   0.566   1.961   3.425
 7047SOL    HW222041   0.728   1.949   3.428
 7048SOL     OW22042   0.749   6.011   1.184
 7048SOL    HW122043   0.774   6.079   1.253
 7048SOL    HW222044   0.826   5.949   1.168
 7049SOL     OW22045   1.749   1.029   0.748
 7049SOL    HW122046   1.769   1.001   0.654
 7049SOL    HW222047   1.828   1.011   0.805
 7050SOL     OW22048   3.608   4.043   4.557
 7050SOL    HW122049   3.679   4.065   4.624
 7050SOL    HW222050   3.627   4.090   4.471
 7051SOL     OW22051   6.879   0.734   1.065
 7051SOL    HW122052   6.853   0.669   1.137
 7051SOL    HW222053   6.796   0.770   1.021
 7052SOL     OW22054   6.907   2.108   4.547
 7052SOL    HW122055   6.832   2.076   4.605
 7052SOL    HW222056   6.994   2.093   4.594
 7053SOL     OW22057   0.371   3.760   6.210
 7053SOL    HW122058   0.469   3.743   6.226
 7053SOL    HW222059   0.338   3.828   6.276
 7054SOL     OW22060   6.855   6.285   1.342
 7054SOL    HW122061   6.937   6.228   1.334
 7054SOL    HW222062   6.774   6.226   1.338
 7055SOL     OW22063   4.547   0.468   5.886
 7055SOL    HW122064   4.627   0.412   5.864
 7055SOL    HW222065   4.464   0.415   5.868
 7056SOL     OW22066   5.596   4.458   3.087
 7056SOL    HW122067   5.633   4.551   3.093
 7056SOL    HW222068   5.632   4.403   3.162
 7057SOL     OW22069   0.187   4.329   4.392
 7057SOL    HW122070   0.246   4.361   4.467
 7057SOL    HW222071   0.176   4.230   4.398
 7058SOL     OW22072   0.308   5.656   4.755
 7058SOL    HW122073   0.400   5.623   4.775
 7058SOL    HW222074   0.257   5.585   4.707
 7059SOL     OW22075   0.340   0.065   1.715
 7059SOL    HW122076   0.243   0.070   1.738
 7059SOL    HW222077   0.383   0.153   1.735
 7060SOL     OW22078   2.994   0.376   1.404
 7060SOL    HW122079   2.933   0.301   1.376
 7060SOL    HW222080   2.945   0.438   1.465
 7061SOL     OW22081   0.091   1.628   3.035
 7061SOL    HW122082   0.142   1.589   2.958
 7061SOL    HW222083   0.123   1.587   3.120
 7062SOL     OW22084   5.812   1.964   5.623
 7062SOL    HW122085   5.765   1.990   5.539
 7062SOL    HW222086   5.826   1.865   5.623
 7063SOL     OW22087   1.605   6.080   1.099
 7063SOL    HW122088   1.645   6.016   1.032
 7063SOL    HW222089   1.506   6.081   1.088
 7064SOL     OW22090   4.321   2.217   1.620
 7064SOL    HW122091   4.262   2.227   1.540
 7064SOL    HW222092   4.417   2.223   1.592
 7065SOL     OW22093   4.583   4.203   1.393
 7065SOL    HW122094   4.571   4.275   1.462
 7065SOL    HW222095   4.679   4.172   1.394
 7066SOL     OW22096   3.788   0.972   0.440
 7066SOL    HW122097   3.742   0.920   0.512
 7066SOL    HW222098   3.885   0.948   0.437
 7067SOL     OW22099   0.973   3.867   5.698
 7067SOL    HW122100   0.876   3.882   5.678
 7067SOL    HW222101   0.983   3.826   5.788
 7068SOL     OW22102   0.830   2.964   3.075
 7068SOL    HW122103   0.743   2.993   3.115
 7068SOL    HW222104   0.824   2.868   3.050
 7069SOL     OW22105   6.320   3.740   5.278
 7069SOL    HW122106   6.395   3.790   5.321
 7069SOL    HW222107   6.318   3.646   5.314
 7070SOL     OW22108   6.346   5.067   5.448
 7070SOL    HW122109   6.316   5.046   5.541
 7070SOL    HW222110   6.427   5.013   5.425
 7071SOL     OW22111   1.160   6.204   4.974
 7071SOL    HW122112   1.227   6.228   5.044
 7071SOL    HW222113   1.074   6.179   5.019
 7072SOL     OW22114   6.625   6.298   5.978
 7072SOL    HW122115   6.550   6.364   5.981
 7072SOL    HW222116   6.665   6.297   5.886
 7073SOL     OW22117   0.105   0.942   5.572
 7073SOL    HW122118   0.189   0.916   5.619
 7073SOL    HW222119   0.026   0.906   5.623
 7074SOL     OW22120   3.041   2.993   2.099
 7074SOL    HW122121   3.100   2.951   2.029
 7074SOL    HW222122   2.969   2.929   2.124
 7075SOL     OW22123   1.822   5.788   4.572
 7075SOL    HW122124   1.788   5.868   4.522
 7075SOL    HW222125   1.909   5.811   4.615
 7076SOL     OW22126   3.135   1.938   6.995
 7076SOL    HW122127   3.076   1.875   6.945
 7076SOL    HW222128   3.224   1.895   7.012
 7077SOL     OW22129   2.140   5.554   5.341
 7077SOL    HW122130   2.104   5.464   5.314
 7077SOL    HW222131   2.157   5.554   5.440
 7078SOL     OW22132   6.189   6.789   2.818
 7078SOL    HW122133   6.178   6.721   2.890
 7078SOL    HW222134   6.199   6.744   2.730
 7079SOL     OW22135   6.777   5.894   5.330
 7079SOL    HW122136   6.739   5.807   5.363
 7079SOL    HW222137   6.762   5.901   5.231
 7080SOL     OW22138   4.393   2.403   3.384
 7080SOL    HW122139   4.372   2.441   3.294
 7080SOL    HW222140   4.471   2.451   3.423
 7081SOL     OW22141   3.364   1.268   5.133
 7081SOL    HW122142   3.463   1.271   5.119
 7081SOL    HW222143   3.318   1.304   5.051
 7082SOL     OW22144   5.393   1.048   0.137
 7082SOL    HW122145   5.415   1.033   0.041
 7082SOL    HW222146   5.445   0.984   0.193
 7083SOL     OW22147   2.810   1.402   6.692
 7083SOL    HW122148   2.789   1.315   6.648
 7083SOL    HW222149   2.841   1.467   6.624
 7084SOL     OW22150   6.948   6.566   5.355
 7084SOL    HW122151   0.009   6.607   5.362
 7084SOL    HW222152   6.946   6.480   5.407
 7085SOL     OW22153   2.247   2.290   3.058
 7085SOL    HW122154   2.310   2.222   3.095
 7085SOL    HW222155   2.300   2.370   3.027
 7086SOL     OW22156   5.563   0.860   6.307
 7086SOL    HW122157   5.641   0.815   6.265
 7086SOL    HW222158   5.548   0.824   6.399
 7087SOL     OW22159   1.119   3.103   4.613
 7087SOL    HW122160   1.035   3.100   4.559
 7087SOL    HW222161   1.187   3.043   4.572
 7088SOL     OW22162   4.739   2.861   4.249
 7088SOL    HW122163   4.767   2.951   4.282
 7088SOL    HW222164   4.722   2.865   4.151
 7089SOL     OW22165   3.519   2.720   5.965
 7089SOL    HW122166   3.579   2.735   6.043
 7089SOL    HW222167   3.424   2.714   5.995
 7090SOL     OW22168   1.887   1.418   5.725
 7090SOL    HW122169   1.827   1.349   5.686
 7090SOL    HW222170   1.967   1.430   5.666
 7091SOL     OW22171   0.242   1.154   6.636
 7091SOL    HW122172   0.210   1.245   6.663
 7091SOL    HW222173   0.214   1.088   6.705
 7092SOL     OW22174   4.183   3.734   0.236
 7092SOL    HW122175   4.134   3.694   0.159
 7092SOL    HW222176   4.279   3.750   0.210
 7093SOL     OW22177   3.663   4.066   4.273
 7093SOL    HW122178   3.745   4.021   4.237
 7093SOL    HW222179   3.604   4.093   4.197
 7094SOL     OW22180   0.413   6.851   5.655
 7094SOL    HW122181   0.332   6.803   5.621
 7094SOL    HW222182   0.495   6.810   5.615
 7095SOL     OW22183   1.743   3.068   6.713
 7095SOL    HW122184   1.670   3.104   6.771
 7095SOL    HW222185   1.831   3.076   6.760
 7096SOL     OW22186   5.290   2.123   3.623
 7096SOL    HW122187   5.193   2.141   3.610
 7096SOL    HW222188   5.303   2.027   3.648
 7097SOL     OW22189   6.873   0.384   1.816
 7097SOL    HW122190   6.893   0.364   1.720
 7097SOL    HW222191   6.809   0.460   1.822
 7098SOL     OW22192   1.468   6.078   4.931
 7098SOL    HW122193   1.475   6.125   4.843
 7098SOL    HW222194   1.424   6.139   4.998
 7099SOL     OW22195   1.324   1.300   5.006
 7099SOL    HW122196   1.244   1.342   4.963
 7099SOL    HW222197   1.334   1.206   4.974
 7100SOL     OW22198   4.910   3.957   1.192
 7100SOL    HW122199   4.830   3.948   1.251
 7100SOL    HW222200   4.950   3.866   1.177
 7101SOL     OW22201   2.953   0.160   4.788
 7101SOL    HW122202   2.983   0.196   4.699
 7101SOL    HW222203   2.983   0.066   4.798
 7102SOL     OW22204   4.326   1.078   0.879
 7102SOL    HW122205   4.257   1.008   0.894
 7102SOL    HW222206   4.310   1.154   0.942
 7103SOL     OW22207   3.597   5.703   6.460
 7103SOL    HW122208   3.582   5.617   6.412
 7103SOL    HW222209   3.537   5.708   6.539
 7104SOL     OW22210   1.630   3.128   3.592
 7104SOL    HW122211   1.590   3.210   3.552
 7104SOL    HW222212   1.721   3.113   3.554
 7105SOL     OW22213   3.342   3.372   4.927
 7105SOL    HW122214   3.371   3.276   4.922
 7105SOL    HW222215   3.360   3.407   5.019
 7106SOL     OW22216   4.018   3.134   4.197
 7106SOL    HW122217   3.977   3.088   4.118
 7106SOL    HW222218   4.035   3.068   4.269
 7107SOL     OW22219   2.584   0.982   0.254
 7107SOL    HW122220   2.588   0.910   0.184
 7107SOL    HW222221   2.647   1.056   0.229
 7108SOL     OW22222   4.128   6.449   1.351
 7108SOL    HW122223   4.068   6.428   1.429
 7108SOL    HW222224   4.211   6.493   1.384
 7109SOL     OW22225   3.722   6.996   6.130
 7109SOL    HW122226   3.810   0.009   6.108
 7109SOL    HW222227   3.668   6.985   6.047
 7110SOL     OW22228   5.211   5.256   3.999
 7110SOL    HW122229   5.224   5.160   3.974
 7110SOL    HW222230   5.300   5.298   4.018
 7111SOL     OW22231   1.391   3.384   4.473
 7111SOL    HW122232   1.434   3.458   4.423
 7111SOL    HW222233   1.315   3.347   4.419
 7112SOL     OW22234   1.927   5.763   4.258
 7112SOL    HW122235   1.861   5.696   4.224
 7112SOL    HW222236   1.890   5.807   4.340
 7113SOL     OW22237   3.962   3.926   4.838
 7113SOL    HW122238   4.015   3.883   4.911
 7113SOL    HW222239   3.923   3.856   4.779
 7114SOL     OW22240   4.052   0.354   1.882
 7114SOL    HW122241   4.141   0.310   1.873
 7114SOL    HW222242   3.984   0.287   1.913
 7115SOL     OW22243   5.119   2.199   1.229
 7115SOL    HW122244   5.052   2.266   1.195
 7115SOL    HW222245   5.142   2.221   1.323
 7116SOL     OW22246   5.618   4.161   3.882
 7116SOL    HW122247   5.579   4.087   3.936
 7116SOL    HW222248   5.651   4.125   3.795
 7117SOL     OW22249   0.103   6.459   3.943
 7117SOL    HW122250   0.107   6.548   3.987
 7117SOL    HW222251   0.027   6.406   3.981
 7118SOL     OW22252   5.185   3.700   1.253
 7118SOL    HW122253   5.258   3.654   1.202
 7118SOL    HW222254   5.218   3.723   1.345
 7119SOL     OW22255   5.484   0.871   3.076
 7119SOL    HW122256   5.453   0.966   3.068
 7119SOL    HW222257   5.495   0.848   3.173
 7120SOL     OW22258   4.490   1.617   2.660
 7120SOL    HW122259   4.541   1.591   2.742
 7120SOL    HW222260   4.408   1.560   2.652
 7121SOL     OW22261   2.302   0.127   3.754
 7121SOL    HW122262   2.314   0.214   3.705
 7121SOL    HW222263   2.356   0.056   3.708
 7122SOL     OW22264   6.689   0.634   0.221
 7122SOL    HW122265   6.777   0.681   0.216
 7122SOL    HW222266   6.679   0.573   0.143
 7123SOL     OW22267   3.095   5.225   1.804
 7123SOL    HW122268   3.147   5.163   1.863
 7123SOL    HW222269   3.056   5.299   1.858
 7124SOL     OW22270   1.135   4.492   0.954
 7124SOL    HW122271   1.133   4.588   0.925
 7124SOL    HW222272   1.209   4.479   1.020
 7125SOL     OW22273   6.317   6.221   1.142
 7125SOL    HW122274   6.382   6.273   1.086
 7125SOL    HW222275   6.362   6.138   1.175
 7126SOL     OW22276   2.391   3.637   0.599
 7126SOL    HW122277   2.329   3.573   0.554
 7126SOL    HW222278   2.355   3.661   0.689
 7127SOL     OW22279   3.168   5.402   4.595
 7127SOL    HW122280   3.255   5.397   4.643
 7127SOL    HW222281   3.122   5.313   4.598
 7128SOL     OW22282   3.292   4.879   0.533
 7128SOL    HW122283   3.289   4.796   0.477
 7128SOL    HW222284   3.214   4.937   0.511
 7129SOL     OW22285   3.013   0.724   1.146
 7129SOL    HW122286   3.062   0.778   1.077
 7129SOL    HW222287   3.032   0.627   1.132
 7130SOL     OW22288   3.404   5.007   4.360
 7130SOL    HW122289   3.389   5.085   4.299
 7130SOL    HW222290   3.322   4.950   4.362
 7131SOL     OW22291   2.759   1.618   1.097
 7131SOL    HW122292   2.724   1.712   1.097
 7131SOL    HW222293   2.857   1.620   1.113
 7132SOL     OW22294   3.981   3.781   2.514
 7132SOL    HW122295   4.024   3.782   2.604
 7132SOL    HW222296   3.895   3.730   2.519
 7133SOL     OW22297   5.418   4.829   3.201
 7133SOL    HW122298   5.451   4.880   3.122
 7133SOL    HW222299   5.320   4.844   3.212
 7134SOL     OW22300   6.289   6.180   4.161
 7134SOL    HW122301   6.296   6.116   4.084
 7134SOL    HW222302   6.318   6.271   4.131
 7135SOL     OW22303   1.340   1.028   4.236
 7135SOL    HW122304   1.421   1.000   4.185
 7135SOL    HW222305   1.261   0.976   4.204
 7136SOL     OW22306   1.533   1.507   0.663
 7136SOL    HW122307   1.541   1.415   0.703
 7136SOL    HW222308   1.473   1.562   0.720
 7137SOL     OW22309   4.013   1.156   4.854
 7137SOL    HW122310   3.937   1.137   4.916
 7137SOL    HW222311   3.979   1.158   4.760
 7138SOL     OW22312   3.112   2.969   1.451
 7138SOL    HW122313   3.046   2.986   1.525
 7138SOL    HW222314   3.064   2.929   1.373
 7139SOL     OW22315   4.937   3.118   2.046
 7139SOL    HW122316   4.845   3.080   2.050
 7139SOL    HW222317   4.980   3.094   1.959
 7140SOL     OW22318   5.917   3.184   5.466
 7140SOL    HW122319   5.949   3.268   5.423
 7140SOL    HW222320   5.830   3.157   5.426
 7141SOL     OW22321   3.469   0.114   1.042
 7141SOL    HW122322   3.521   0.111   0.956
 7141SOL    HW222323   3.448   0.209   1.065
 7142SOL     OW22324   4.529   6.971   3.863
 7142SOL    HW122325   4.521   6.998   3.767
 7142SOL    HW222326   4.439   6.943   3.898
 7143SOL     OW22327   1.665   3.234   6.018
 7143SOL    HW122328   1.588   3.295   6.039
 7143SOL    HW222329   1.664   3.157   6.082
 7144SOL     OW22330   1.007   0.997   2.979
 7144SOL    HW122331   0.914   1.030   2.992
 7144SOL    HW222332   1.069   1.047   3.039
 7145SOL     OW22333   4.323   6.447   6.162
 7145SOL    HW122334   4.397   6.474   6.101
 7145SOL    HW222335   4.296   6.353   6.141
 7146SOL     OW22336   2.284   6.751   0.900
 7146SOL    HW122337   2.381   6.759   0.875
 7146SOL    HW222338   2.228   6.790   0.827
 7147SOL     OW22339   6.709   6.915   3.882
 7147SOL    HW122340   6.714   7.000   3.934
 7147SOL    HW222341   6.802   6.880   3.868
 7148SOL     OW22342   0.995   5.990   1.514
 7148SOL    HW122343   0.951   6.077   1.493
 7148SOL    HW222344   1.062   6.003   1.588
 7149SOL     OW22345   6.744   0.307   3.734
 7149SOL    HW122346   6.649   0.286   3.709
 7149SOL    HW222347   6.750   0.404   3.761
 7150SOL     OW22348   4.530   3.070   1.410
 7150SOL    HW122349   4.569   3.113   1.329
 7150SOL    HW222350   4.575   3.107   1.492
 7151SOL     OW22351   1.297   5.634   0.639
 7151SOL    HW122352   1.287   5.570   0.562
 7151SOL    HW222353   1.335   5.720   0.606
 7152SOL     OW22354   0.393   3.534   5.639
 7152SOL    HW122355   0.317   3.598   5.626
 7152SOL    HW222356   0.459   3.575   5.703
 7153SOL     OW22357   4.223   6.737   5.227
 7153SOL    HW122358   4.188   6.755   5.135
 7153SOL    HW222359   4.184   6.652   5.261
 7154SOL     OW22360   4.250   5.596   4.645
 7154SOL    HW122361   4.202   5.510   4.664
 7154SOL    HW222362   4.264   5.604   4.546
 7155SOL     OW22363   1.616   6.021   1.560
 7155SOL    HW122364   1.568   6.020   1.472
 7155SOL    HW222365   1.680   5.944   1.564
 7156SOL     OW22366   0.258   5.032   4.848
 7156SOL    HW122367   0.186   5.046   4.779
 7156SOL    HW222368   0.253   5.105   4.916
 7157SOL     OW22369   6.176   5.378   0.548
 7157SOL    HW122370   6.087   5.421   0.531
 7157SOL    HW222371   6.241   5.408   0.479
 7158SOL     OW22372   0.030   6.991   3.279
 7158SOL    HW122373   0.127   6.968   3.273
 7158SOL    HW222374   0.006   7.005   3.375
 7159SOL     OW22375   0.395   4.343   1.486
 7159SOL    HW122376   0.380   4.379   1.577
 7159SOL    HW222377   0.485   4.300   1.481
 7160SOL     OW22378   6.524   0.481   1.803
 7160SOL    HW122379   6.537   0.438   1.714
 7160SOL    HW222380   6.448   0.437   1.851
 7161SOL     OW22381   3.405   3.858   4.025
 7161SOL    HW122382   3.314   3.817   4.038
 7161SOL    HW222383   3.474   3.798   4.065
 7162SOL     OW22384   3.056   5.615   5.355
 7162SOL    HW122385   3.082   5.698   5.306
 7162SOL    HW222386   3.001   5.640   5.435
 7163SOL     OW22387   3.610   0.361   4.039
 7163SOL    HW122388   3.621   0.430   4.111
 7163SOL    HW222389   3.695   0.352   3.988
 7164SOL     OW22390   1.775   1.439   2.526
 7164SOL    HW122391   1.749   1.351   2.567
 7164SOL    HW222392   1.801   1.424   2.430
 7165SOL     OW22393   5.846   0.876   0.579
 7165SOL    HW122394   5.913   0.802   0.575
 7165SOL    HW222395   5.884   0.953   0.630
 7166SOL     OW22396   5.029   4.529   1.620
 7166SOL    HW122397   5.020   4.628   1.625
 7166SOL    HW222398   4.953   4.486   1.669
 7167SOL     OW22399   5.097   3.755   5.065
 7167SOL    HW122400   5.189   3.716   5.062
 7167SOL    HW222401   5.052   3.744   4.977
 7168SOL     OW22402   1.305   1.579   4.051
 7168SOL    HW122403   1.386   1.548   4.100
 7168SOL    HW222404   1.278   1.669   4.085
 7169SOL     OW22405   1.726   3.211   5.754
 7169SOL    HW122406   1.732   3.221   5.853
 7169SOL    HW222407   1.742   3.116   5.728
 7170SOL     OW22408   4.612   5.244   3.166
 7170SOL    HW122409   4.664   5.259   3.082
 7170SOL    HW222410   4.517   5.272   3.152
 7171SOL     OW22411   4.713   3.361   5.805
 7171SOL    HW122412   4.659   3.396   5.882
 7171SOL    HW222413   4.680   3.270   5.779
 7172SOL     OW22414   1.446   6.776   6.834
 7172SOL    HW122415   1.528   6.769   6.778
 7172SOL    HW222416   1.391   6.693   6.826
 7173SOL     OW22417   6.428   5.042   4.586
 7173SOL    HW122418   6.390   5.063   4.677
 7173SOL    HW222419   6.405   5.116   4.523
 7174SOL     OW22420   1.271   5.312   6.671
 7174SOL    HW122421   1.365   5.282   6.689
 7174SOL    HW222422   1.219   5.235   6.634
 7175SOL     OW22423   5.105   3.380   1.220
 7175SOL    HW122424   5.167   3.373   1.142
 7175SOL    HW222425   5.013   3.401   1.188
 7176SOL     OW22426   0.441   5.283   2.308
 7176SOL    HW122427   0.491   5.293   2.394
 7176SOL    HW222428   0.394   5.369   2.286
 7177SOL     OW22429   1.954   5.962   4.054
 7177SOL    HW122430   1.957   5.890   4.123
 7177SOL    HW222431   2.041   6.012   4.052
 7178SOL     OW22432   2.300   2.518   5.919
 7178SOL    HW122433   2.332   2.592   5.859
 7178SOL    HW222434   2.202   2.506   5.907
 7179SOL     OW22435   2.363   3.236   5.640
 7179SOL    HW122436   2.395   3.293   5.565
 7179SOL    HW222437   2.288   3.282   5.688
 7180SOL     OW22438   0.843   5.087   6.632
 7180SOL    HW122439   0.798   5.050   6.714
 7180SOL    HW222440   0.821   5.030   6.553
 7181SOL     OW22441   3.912   0.480   0.464
 7181SOL    HW122442   3.952   0.401   0.416
 7181SOL    HW222443   3.927   0.562   0.410
 7182SOL     OW22444   1.669   4.122   5.484
 7182SOL    HW122445   1.734   4.174   5.429
 7182SOL    HW222446   1.700   4.028   5.494
 7183SOL     OW22447   1.884   5.072   2.508
 7183SOL    HW122448   1.787   5.068   2.529
 7183SOL    HW222449   1.931   5.129   2.576
 7184SOL     OW22450   0.819   0.000   3.733
 7184SOL    HW122451   0.870   0.081   3.702
 7184SOL    HW222452   0.723   0.026   3.748
 7185SOL     OW22453   5.135   2.630   6.709
 7185SOL    HW122454   5.228   2.616   6.674
 7185SOL    HW222455   5.109   2.554   6.768
 7186SOL     OW22456   6.839   0.015   5.379
 7186SOL    HW122457   6.840   6.974   5.451
 7186SOL    HW222458   6.801   0.099   5.416
 7187SOL     OW22459   1.817   4.403   1.869
 7187SOL    HW122460   1.795   4.498   1.848
 7187SOL    HW222461   1.768   4.375   1.952
 7188SOL     OW22462   5.753   6.979   1.450
 7188SOL    HW122463   5.737   6.909   1.519
 7188SOL    HW222464   5.680   0.017   1.453
 7189SOL     OW22465   6.267   1.675   6.449
 7189SOL    HW122466   6.220   1.587   6.459
 7189SOL    HW222467   6.215   1.733   6.385
 7190SOL     OW22468   5.348   3.998   3.737
 7190SOL    HW122469   5.418   3.941   3.779
 7190SOL    HW222470   5.391   4.059   3.671
 7191SOL     OW22471   1.110   3.823   2.312
 7191SOL    HW122472   1.190   3.804   2.369
 7191SOL    HW222473   1.127   3.790   2.219
 7192SOL     OW22474   2.259   6.321   5.596
 7192SOL    HW122475   2.167   6.290   5.573
 7192SOL    HW222476   2.276   6.305   5.694
 7193SOL     OW22477   3.022   2.234   4.305
 7193SOL    HW122478   3.067   2.196   4.385
 7193SOL    HW222479   3.062   2.194   4.222
 7194SOL     OW22480   1.953   1.773   1.184
 7194SOL    HW122481   1.988   1.688   1.144
 7194SOL    HW222482   1.863   1.792   1.146
 7195SOL     OW22483   0.565   4.544   0.560
 7195SOL    HW122484   0.507   4.618   0.525
 7195SOL    HW222485   0.640   4.584   0.614
 7196SOL     OW22486   3.141   3.034   3.451
 7196SOL    HW122487   3.174   2.998   3.538
 7196SOL    HW222488   3.203   3.008   3.377
 7197SOL     OW22489   6.766   2.153   5.469
 7197SOL    HW122490   6.807   2.087   5.531
 7197SOL    HW222491   6.780   2.124   5.374
 7198SOL     OW22492   1.725   6.911   6.064
 7198SOL    HW122493   1.659   6.883   5.995
 7198SOL    HW222494   1.718   6.852   6.144
 7199SOL     OW22495   0.843   0.576   2.512
 7199SOL    HW122496   0.754   0.544   2.545
 7199SOL    HW222497   0.870   0.523   2.432
 7200SOL     OW22498   2.263   0.751   0.581
 7200SOL    HW122499   2.322   0.766   0.501
 7200SOL    HW222500   2.280   0.660   0.619
 7201SOL     OW22501   1.822   4.814   3.165
 7201SOL    HW122502   1.869   4.755   3.099
 7201SOL    HW222503   1.737   4.849   3.124
 7202SOL     OW22504   3.866   0.096   6.490
 7202SOL    HW122505   3.930   0.114   6.415
 7202SOL    HW222506   3.875   0.001   6.520
 7203SOL     OW22507   6.213   0.334   0.552
 7203SOL    HW122508   6.177   0.350   0.460
 7203SOL    HW222509   6.313   0.334   0.549
 7204SOL     OW22510   6.300   0.054   3.886
 7204SOL    HW122511   6.203   0.068   3.870
 7204SOL    HW222512   6.312   7.008   3.951
 7205SOL     OW22513   1.547   5.506   3.129
 7205SOL    HW122514   1.641   5.538   3.142
 7205SOL    HW222515   1.490   5.581   3.097
 7206SOL     OW22516   0.441   1.207   1.204
 7206SOL    HW122517   0.469   1.282   1.264
 7206SOL    HW222518   0.365   1.157   1.246
 7207SOL     OW22519   4.050   0.270   1.121
 7207SOL    HW122520   4.129   0.225   1.078
 7207SOL    HW222521   4.081   0.352   1.168
 7208SOL     OW22522   3.966   6.831   4.681
 7208SOL    HW122523   3.908   6.880   4.746
 7208SOL    HW222524   3.911   6.763   4.632
 7209SOL     OW22525   3.035   3.140   4.047
 7209SOL    HW122526   2.983   3.174   3.969
 7209SOL    HW222527   3.075   3.051   4.024
 7210SOL     OW22528   4.556   1.033   3.376
 7210SOL    HW122529   4.640   1.066   3.419
 7210SOL    HW222530   4.518   0.958   3.432
 7211SOL     OW22531   0.734   5.899   3.775
 7211SOL    HW122532   0.766   5.935   3.687
 7211SOL    HW222533   0.813   5.881   3.834
 7212SOL     OW22534   0.642   6.160   4.404
 7212SOL    HW122535   0.724   6.145   4.459
 7212SOL    HW222536   0.567   6.188   4.463
 7213SOL     OW22537   5.136   6.846   5.111
 7213SOL    HW122538   5.206   6.867   5.042
 7213SOL    HW222539   5.160   6.762   5.158
 7214SOL     OW22540   2.512   5.733   4.300
 7214SOL    HW122541   2.502   5.675   4.381
 7214SOL    HW222542   2.452   5.700   4.228
 7215SOL     OW22543   0.929   3.066   4.435
 7215SOL    HW122544   0.846   3.033   4.481
 7215SOL    HW222545   0.920   3.051   4.336
 7216SOL     OW22546   3.052   5.433   6.726
 7216SOL    HW122547   2.963   5.456   6.766
 7216SOL    HW222548   3.123   5.445   6.795
 7217SOL     OW22549   1.702   4.585   2.231
 7217SOL    HW122550   1.623   4.631   2.190
 7217SOL    HW222551   1.740   4.643   2.303
 7218SOL     OW22552   4.863   2.409   5.442
 7218SOL    HW122553   4.836   2.338   5.507
 7218SOL    HW222554   4.786   2.471   5.427
 7219SOL     OW22555   4.414   6.653   3.803
 7219SOL    HW122556   4.513   6.658   3.793
 7219SOL    HW222557   4.389   6.677   3.897
 7220SOL     OW22558   6.569   0.784   3.470
 7220SOL    HW122559   6.489   0.832   3.507
 7220SOL    HW222560   6.571   0.690   3.504
 7221SOL     OW22561   5.523   4.641   5.910
 7221SOL    HW122562   5.502   4.707   5.982
 7221SOL    HW222563   5.477   4.555   5.928
 7222SOL     OW22564   6.510   6.391   1.038
 7222SOL    HW122565   6.493   6.485   1.009
 7222SOL    HW222566   6.518   6.331   0.958
 7223SOL     OW22567   2.916   2.111   0.865
 7223SOL    HW122568   2.981   2.067   0.926
 7223SOL    HW222569   2.905   2.055   0.782
 7224SOL     OW22570   5.944   1.261   4.276
 7224SOL    HW122571   5.873   1.193   4.291
 7224SOL    HW222572   5.937   1.298   4.183
 7225SOL     OW22573   1.710   5.962   0.385
 7225SOL    HW122574   1.790   5.992   0.334
 7225SOL    HW222575   1.734   5.884   0.443
 7226SOL     OW22576   0.132   6.821   0.174
 7226SOL    HW122577   0.139   6.796   0.078
 7226SOL    HW222578   0.133   6.738   0.230
 7227SOL     OW22579   0.601   2.220   0.174
 7227SOL    HW122580   0.650   2.143   0.133
 7227SOL    HW222581   0.631   2.232   0.269
 7228SOL     OW22582   0.038   6.740   1.714
 7228SOL    HW122583   0.043   6.665   1.779
 7228SOL    HW222584   0.103   6.812   1.741
 7229SOL     OW22585   1.127   0.433   4.614
 7229SOL    HW122586   1.072   0.502   4.568
 7229SOL    HW222587   1.080   0.345   4.610
 7230SOL     OW22588   4.050   5.505   4.257
 7230SOL    HW122589   4.030   5.410   4.232
 7230SOL    HW222590   3.991   5.532   4.333
 7231SOL     OW22591   5.580   1.891   6.229
 7231SOL    HW122592   5.612   1.971   6.178
 7231SOL    HW222593   5.591   1.906   6.327
 7232SOL     OW22594   4.111   5.067   2.894
 7232SOL    HW122595   4.110   4.970   2.920
 7232SOL    HW222596   4.097   5.075   2.795
 7233SOL     OW22597   0.571   2.741   5.192
 7233SOL    HW122598   0.624   2.814   5.148
 7233SOL    HW222599   0.495   2.781   5.243
 7234SOL     OW22600   5.851   2.511   1.881
 7234SOL    HW122601   5.911   2.443   1.925
 7234SOL    HW222602   5.818   2.575   1.950
 7235SOL     OW22603   5.584   4.177   4.748
 7235SOL    HW122604   5.598   4.192   4.650
 7235SOL    HW222605   5.592   4.264   4.796
 7236SOL     OW22606   3.613   1.819   2.976
 7236SOL    HW122607   3.543   1.803   2.905
 7236SOL    HW222608   3.616   1.741   3.038
 7237SOL     OW22609   6.541   6.121   5.070
 7237SOL    HW122610   6.620   6.061   5.058
 7237SOL    HW222611   6.539   6.155   5.164
 7238SOL     OW22612   2.506   1.713   2.416
 7238SOL    HW122613   2.562   1.633   2.392
 7238SOL    HW222614   2.412   1.697   2.387
 7239SOL     OW22615   1.935   1.763   2.953
 7239SOL    HW122616   2.014   1.800   2.904
 7239SOL    HW222617   1.915   1.671   2.918
 7240SOL     OW22618   3.060   3.891   0.651
 7240SOL    HW122619   2.979   3.904   0.709
 7240SOL    HW222620   3.033   3.896   0.555
 7241SOL     OW22621   3.598   0.706   5.702
 7241SOL    HW122622   3.684   0.696   5.652
 7241SOL    HW222623   3.617   0.712   5.800
 7242SOL     OW22624   5.911   4.165   6.862
 7242SOL    HW122625   5.976   4.233   6.898
 7242SOL    HW222626   5.830   4.164   6.920
 7243SOL     OW22627   1.522   4.838   6.388
 7243SOL    HW122628   1.482   4.908   6.330
 7243SOL    HW222629   1.540   4.756   6.334
 7244SOL     OW22630   5.594   1.684   0.832
 7244SOL    HW122631   5.641   1.596   0.822
 7244SOL    HW222632   5.552   1.690   0.922
 7245SOL     OW22633   0.130   2.301   4.716
 7245SOL    HW122634   0.152   2.228   4.651
 7245SOL    HW222635   0.160   2.275   4.807
 7246SOL     OW22636   6.105   6.993   4.690
 7246SOL    HW122637   6.085   0.016   4.608
 7246SOL    HW222638   6.045   7.024   4.764
 7247SOL     OW22639   2.920   6.207   1.700
 7247SOL    HW122640   2.908   6.192   1.798
 7247SOL    HW222641   2.850   6.157   1.649
 7248SOL     OW22642   3.985   1.167   4.353
 7248SOL    HW122643   3.912   1.170   4.285
 7248SOL    HW222644   4.057   1.105   4.322
 7249SOL     OW22645   5.415   4.469   0.979
 7249SOL    HW122646   5.319   4.486   1.000
 7249SOL    HW222647   5.458   4.422   1.057
 7250SOL     OW22648   1.975   4.974   6.459
 7250SOL    HW122649   1.979   4.894   6.519
 7250SOL    HW222650   1.967   5.057   6.516
 7251SOL     OW22651   6.810   6.664   4.862
 7251SOL    HW122652   6.808   6.565   4.844
 7251SOL    HW222653   6.854   6.711   4.786
 7252SOL     OW22654   2.972   3.303   4.918
 7252SOL    HW122655   2.944   3.222   4.866
 7252SOL    HW222656   2.910   3.316   4.995
 7253SOL     OW22657   2.915   6.598   1.146
 7253SOL    HW122658   2.910   6.572   1.243
 7253SOL    HW222659   2.840   6.661   1.125
 7254SOL     OW22660   3.592   5.270   3.846
 7254SOL    HW122661   3.629   5.328   3.919
 7254SOL    HW222662   3.653   5.191   3.832
 7255SOL     OW22663   2.879   3.364   2.240
 7255SOL    HW122664   2.872   3.443   2.179
 7255SOL    HW222665   2.821   3.291   2.206
 7256SOL     OW22666   3.996   5.143   4.472
 7256SOL    HW122667   4.035   5.058   4.507
 7256SOL    HW222668   4.006   5.145   4.372
 7257SOL     OW22669   5.608   2.595   3.022
 7257SOL    HW122670   5.707   2.581   3.021
 7257SOL    HW222671   5.565   2.535   2.954
 7258SOL     OW22672   4.064   0.399   4.687
 7258SOL    HW122673   4.036   0.305   4.668
 7258SOL    HW222674   3.984   0.459   4.683
 7259SOL     OW22675   2.483   3.750   6.765
 7259SOL    HW122676   2.567   3.761   6.712
 7259SOL    HW222677   2.455   3.839   6.801
 7260SOL     OW22678   3.674   2.052   2.646
 7260SOL    HW122679   3.634   2.065   2.737
 7260SOL    HW222680   3.615   1.991   2.593
 7261SOL     OW22681   2.158   3.299   1.771
 7261SOL    HW122682   2.184   3.268   1.680
 7261SOL    HW222683   2.228   3.360   1.807
 7262SOL     OW22684   5.287   1.951   4.316
 7262SOL    HW122685   5.329   2.039   4.295
 7262SOL    HW222686   5.341   1.877   4.274
 7263SOL     OW22687   1.088   5.711   1.120
 7263SOL    HW122688   1.185   5.690   1.110
 7263SOL    HW222689   1.049   5.656   1.194
 7264SOL     OW22690   6.617   1.106   6.630
 7264SOL    HW122691   6.641   1.011   6.607
 7264SOL    HW222692   6.696   1.151   6.671
 7265SOL     OW22693   5.245   4.854   5.983
 7265SOL    HW122694   5.228   4.770   5.931
 7265SOL    HW222695   5.205   4.932   5.936
 7266SOL     OW22696   4.940   0.786   1.540
 7266SOL    HW122697   4.872   0.753   1.606
 7266SOL    HW222698   4.919   0.881   1.516
 7267SOL     OW22699   0.429   3.789   4.674
 7267SOL    HW122700   0.509   3.786   4.735
 7267SOL    HW222701   0.440   3.721   4.602
 7268SOL     OW22702   4.041   5.949   1.546
 7268SOL    HW122703   4.012   5.940   1.641
 7268SOL    HW222704   4.132   5.909   1.535
 7269SOL     OW22705   0.850   5.558   1.892
 7269SOL    HW122706   0.925   5.566   1.826
 7269SOL    HW222707   0.861   5.628   1.963
 7270SOL     OW22708   2.621   2.085   2.662
 7270SOL    HW122709   2.614   2.120   2.568
 7270SOL    HW222710   2.626   1.985   2.660
 7271SOL     OW22711   0.002   3.684   3.108
 7271SOL    HW122712   0.022   3.704   3.204
 7271SOL    HW222713   0.068   3.617   3.073
 7272SOL     OW22714   4.805   2.655   2.877
 7272SOL    HW122715   4.731   2.589   2.865
 7272SOL    HW222716   4.772   2.732   2.932
 7273SOL     OW22717   5.534   4.508   1.498
 7273SOL    HW122718   5.483   4.486   1.581
 7273SOL    HW222719   5.548   4.606   1.492
 7274SOL     OW22720   6.676   5.163   5.836
 7274SOL    HW122721   6.672   5.131   5.742
 7274SOL    HW222722   6.767   5.148   5.874
 7275SOL     OW22723   0.050   0.523   6.827
 7275SOL    HW122724   0.107   0.539   6.908
 7275SOL    HW222725   0.059   0.601   6.765
 7276SOL     OW22726   2.019   2.079   3.675
 7276SOL    HW122727   2.025   2.175   3.646
 7276SOL    HW222728   1.926   2.046   3.662
 7277SOL     OW22729   4.814   1.265   4.672
 7277SOL    HW122730   4.822   1.363   4.650
 7277SOL    HW222731   4.802   1.254   4.770
 7278SOL     OW22732   3.484   1.414   3.585
 7278SOL    HW122733   3.404   1.458   3.626
 7278SOL    HW222734   3.504   1.329   3.633
 7279SOL     OW22735   4.445   4.618   0.104
 7279SOL    HW122736   4.404   4.697   0.151
 7279SOL    HW222737   4.541   4.637   0.085
 7280SOL     OW22738   5.301   1.834   5.418
 7280SOL    HW122739   5.202   1.849   5.423
 7280SOL    HW222740   5.329   1.827   5.323
 7281SOL     OW22741   3.574   6.483   1.847
 7281SOL    HW122742   3.529   6.428   1.918
 7281SOL    HW222743   3.506   6.519   1.783
 7282SOL     OW22744   6.554   5.579   2.322
 7282SOL    HW122745   6.538   5.583   2.420
 7282SOL    HW222746   6.531   5.667   2.281
 7283SOL     OW22747   3.843   5.222   2.965
 7283SOL    HW122748   3.766   5.189   2.911
 7283SOL    HW222749   3.925   5.168   2.944
 7284SOL     OW22750   6.649   1.765   3.671
 7284SOL    HW122751   6.726   1.815   3.631
 7284SOL    HW222752   6.607   1.709   3.600
 7285SOL     OW22753   4.929   2.822   1.912
 7285SOL    HW122754   4.906   2.725   1.921
 7285SOL    HW222755   4.847   2.877   1.927
 7286SOL     OW22756   0.562   0.903   0.468
 7286SOL    HW122757   0.467   0.924   0.489
 7286SOL    HW222758   0.569   0.809   0.433
 7287SOL     OW22759   1.307   2.559   3.523
 7287SOL    HW122760   1.220   2.555   3.475
 7287SOL    HW222761   1.324   2.471   3.567
 7288SOL     OW22762   2.948   2.283   2.966
 7288SOL    HW122763   2.864   2.330   2.994
 7288SOL    HW222764   2.976   2.315   2.876
 7289SOL     OW22765   6.103   2.360   1.407
 7289SOL    HW122766   6.158   2.384   1.487
 7289SOL    HW222767   6.106   2.435   1.341
 7290SOL     OW22768   3.800   1.531   4.744
 7290SOL    HW122769   3.750   1.617   4.741
 7290SOL    HW222770   3.890   1.543   4.701
 7291SOL     OW22771   4.136   0.924   0.319
 7291SOL    HW122772   4.190   0.863   0.260
 7291SOL    HW222773   4.089   0.870   0.389
 7292SOL     OW22774   2.185   0.120   2.944
 7292SOL    HW122775   2.246   0.135   2.866
 7292SOL    HW222776   2.155   0.025   2.945
 7293SOL     OW22777   1.386   0.807   5.023
 7293SOL    HW122778   1.296   0.808   5.066
 7293SOL    HW222779   1.386   0.740   4.948
 7294SOL     OW22780   3.102   4.707   1.321
 7294SOL    HW122781   3.052   4.635   1.371
 7294SOL    HW222782   3.114   4.679   1.226
 7295SOL     OW22783   6.308   5.389   2.465
 7295SOL    HW122784   6.298   5.399   2.366
 7295SOL    HW222785   6.258   5.461   2.512
 7296SOL     OW22786   4.046   4.897   2.270
 7296SOL    HW122787   4.108   4.827   2.236
 7296SOL    HW222788   4.088   4.987   2.258
 7297SOL     OW22789   3.669   6.298   1.565
 7297SOL    HW122790   3.715   6.346   1.491
 7297SOL    HW222791   3.572   6.288   1.544
 7298SOL     OW22792   4.867   5.522   6.582
 7298SOL    HW122793   4.958   5.489   6.557
 7298SOL    HW222794   4.801   5.448   6.575
 7299SOL     OW22795   1.294   2.957   0.359
 7299SOL    HW122796   1.293   3.057   0.362
 7299SOL    HW222797   1.384   2.924   0.389
 7300SOL     OW22798   1.009   4.649   1.644
 7300SOL    HW122799   0.973   4.691   1.728
 7300SOL    HW222800   0.978   4.554   1.638
 7301SOL     OW22801   5.616   6.421   5.666
 7301SOL    HW122802   5.688   6.485   5.692
 7301SOL    HW222803   5.638   6.380   5.578
 7302SOL     OW22804   5.076   2.781   5.492
 7302SOL    HW122805   5.063   2.872   5.533
 7302SOL    HW222806   5.171   2.752   5.506
 7303SOL     OW22807   2.623   0.917   0.998
 7303SOL    HW122808   2.638   0.974   1.080
 7303SOL    HW222809   2.536   0.942   0.956
 7304SOL     OW22810   2.951   5.411   1.934
 7304SOL    HW122811   2.969   5.420   1.836
 7304SOL    HW222812   2.911   5.321   1.952
 7305SOL     OW22813   5.868   2.358   0.559
 7305SOL    HW122814   5.884   2.299   0.480
 7305SOL    HW222815   5.845   2.450   0.528
 7306SOL     OW22816   2.238   1.380   1.504
 7306SOL    HW122817   2.216   1.456   1.564
 7306SOL    HW222818   2.173   1.305   1.519
 7307SOL     OW22819   1.640   6.554   1.142
 7307SOL    HW122820   1.672   6.565   1.236
 7307SOL    HW222821   1.592   6.636   1.113
 7308SOL     OW22822   4.700   0.758   2.121
 7308SOL    HW122823   4.700   0.688   2.050
 7308SOL    HW222824   4.659   0.721   2.204
 7309SOL     OW22825   2.136   5.073   2.934
 7309SOL    HW122826   2.164   5.168   2.923
 7309SOL    HW222827   2.082   5.063   3.017
 7310SOL     OW22828   1.772   2.587   0.275
 7310SOL    HW122829   1.699   2.522   0.297
 7310SOL    HW222830   1.810   2.566   0.185
 7311SOL     OW22831   0.195   6.796   6.269
 7311SOL    HW122832   0.279   6.742   6.256
 7311SOL    HW222833   0.167   6.789   6.365
 7312SOL     OW22834   0.306   2.458   5.520
 7312SOL    HW122835   0.270   2.426   5.607
 7312SOL    HW222836   0.234   2.504   5.468
 7313SOL     OW22837   2.276   0.531   1.825
 7313SOL    HW122838   2.205   0.500   1.888
 7313SOL    HW222839   2.355   0.469   1.830
 7314SOL     OW22840   0.221   4.273   6.898
 7314SOL    HW122841   0.248   4.257   6.993
 7314SOL    HW222842   0.185   4.189   6.858
 7315SOL     OW22843   0.996   5.107   2.660
 7315SOL    HW122844   0.985   5.092   2.562
 7315SOL    HW222845   0.993   5.019   2.707
 7316SOL     OW22846   2.973   1.967   0.224
 7316SOL    HW122847   3.019   1.946   0.138
 7316SOL    HW222848   2.962   2.066   0.233
 7317SOL     OW22849   3.750   1.192   2.049
 7317SOL    HW122850   3.700   1.108   2.024
 7317SOL    HW222851   3.833   1.198   1.994
 7318SOL     OW22852   3.591   0.077   1.698
 7318SOL    HW122853   3.578   0.174   1.715
 7318SOL    HW222854   3.604   0.062   1.600
 7319SOL     OW22855   6.688   4.911   0.426
 7319SOL    HW122856   6.765   4.851   0.448
 7319SOL    HW222857   6.701   4.999   0.472
 7320SOL     OW22858   7.016   3.102   1.038
 7320SOL    HW122859   7.005   3.132   1.132
 7320SOL    HW222860   0.078   3.124   1.006
 7321SOL     OW22861   2.235   6.042   6.702
 7321SOL    HW122862   2.303   5.968   6.694
 7321SOL    HW222863   2.259   6.101   6.779
 7322SOL     OW22864   0.511   2.364   2.349
 7322SOL    HW122865   0.417   2.328   2.355
 7322SOL    HW222866   0.508   2.463   2.334
 7323SOL     OW22867   1.196   1.511   1.097
 7323SOL    HW122868   1.115   1.548   1.052
 7323SOL    HW222869   1.171   1.469   1.184
 7324SOL     OW22870   5.724   4.740   2.976
 7324SOL    HW122871   5.818   4.706   2.971
 7324SOL    HW222872   5.706   4.776   3.068
 7325SOL     OW22873   3.705   1.037   5.897
 7325SOL    HW122874   3.765   1.110   5.931
 7325SOL    HW222875   3.746   0.996   5.815
 7326SOL     OW22876   2.775   0.510   7.020
 7326SOL    HW122877   2.820   0.592   6.984
 7326SOL    HW222878   2.692   0.492   6.967
 7327SOL     OW22879   6.050   3.893   3.186
 7327SOL    HW122880   6.103   3.978   3.196
 7327SOL    HW222881   6.109   3.815   3.204
 7328SOL     OW22882   4.078   5.022   5.379
 7328SOL    HW122883   4.038   4.941   5.336
 7328SOL    HW222884   4.123   5.078   5.310
 7329SOL     OW22885   2.417   3.279   0.729
 7329SOL    HW122886   2.511   3.256   0.706
 7329SOL    HW222887   2.415   3.334   0.812
 7330SOL     OW22888   3.725   2.833   1.639
 7330SOL    HW122889   3.664   2.772   1.690
 7330SOL    HW222890   3.673   2.882   1.569
 7331SOL     OW22891   4.425   0.902   1.813
 7331SOL    HW122892   4.349   0.922   1.875
 7331SOL    HW222893   4.392   0.849   1.734
 7332SOL     OW22894   3.099   4.099   6.796
 7332SOL    HW122895   3.148   4.015   6.817
 7332SOL    HW222896   3.072   4.144   6.881
 7333SOL     OW22897   6.518   2.394   1.758
 7333SOL    HW122898   6.582   2.470   1.772
 7333SOL    HW222899   6.548   2.316   1.813
 7334SOL     OW22900   3.016   6.782   5.608
 7334SOL    HW122901   3.086   6.800   5.677
 7334SOL    HW222902   2.959   6.863   5.595
 7335SOL     OW22903   6.722   2.990   2.476
 7335SOL    HW122904   6.673   2.930   2.412
 7335SOL    HW222905   6.752   3.072   2.427
 7336SOL     OW22906   1.765   5.967   1.286
 7336SOL    HW122907   1.699   5.892   1.295
 7336SOL    HW222908   1.720   6.045   1.243
 7337SOL     OW22909   2.162   2.101   2.695
 7337SOL    HW122910   2.255   2.136   2.706
 7337SOL    HW222911   2.113   2.158   2.629
 7338SOL     OW22912   5.544   2.869   1.828
 7338SOL    HW122913   5.605   2.946   1.844
 7338SOL    HW222914   5.476   2.864   1.901
 7339SOL     OW22915   6.540   5.720   4.992
 7339SOL    HW122916   6.496   5.765   4.915
 7339SOL    HW222917   6.485   5.643   5.022
 7340SOL     OW22918   2.627   0.092   0.480
 7340SOL    HW122919   2.591   0.072   0.571
 7340SOL    HW222920   2.606   0.016   0.418
 7341SOL     OW22921   6.936   5.120   4.080
 7341SOL    HW122922   6.897   5.102   4.171
 7341SOL    HW222923   6.863   5.121   4.012
 7342SOL     OW22924   6.455   0.059   0.665
 7342SOL    HW122925   6.374   0.099   0.709
 7342SOL    HW222926   6.463   0.095   0.572
 7343SOL     OW22927   5.921   3.789   2.861
 7343SOL    HW122928   5.874   3.707   2.894
 7343SOL    HW222929   5.902   3.866   2.922
 7344SOL     OW22930   2.164   6.464   0.066
 7344SOL    HW122931   2.165   6.471   6.996
 7344SOL    HW222932   2.246   6.416   0.097
 7345SOL     OW22933   4.406   5.184   5.746
 7345SOL    HW122934   4.315   5.180   5.704
 7345SOL    HW222935   4.434   5.280   5.754
 7346SOL     OW22936   3.903   4.627   1.305
 7346SOL    HW122937   3.820   4.579   1.333
 7346SOL    HW222938   3.891   4.725   1.317
 7347SOL     OW22939   5.962   1.598   2.073
 7347SOL    HW122940   5.923   1.615   2.164
 7347SOL    HW222941   5.950   1.679   2.016
 7348SOL     OW22942   1.646   2.137   3.885
 7348SOL    HW122943   1.593   2.222   3.889
 7348SOL    HW222944   1.607   2.076   3.816
 7349SOL     OW22945   3.560   1.971   0.860
 7349SOL    HW122946   3.640   2.002   0.808
 7349SOL    HW222947   3.540   2.037   0.932
 7350SOL     OW22948   1.102   2.343   2.975
 7350SOL    HW122949   1.162   2.421   2.994
 7350SOL    HW222950   1.152   2.275   2.922
 7351SOL     OW22951   4.598   4.967   6.692
 7351SOL    HW122952   4.628   5.050   6.738
 7351SOL    HW222953   4.522   4.987   6.630
 7352SOL     OW22954   0.969   1.892   2.286
 7352SOL    HW122955   0.994   1.942   2.203
 7352SOL    HW222956   0.931   1.803   2.261
 7353SOL     OW22957   6.174   1.754   4.595
 7353SOL    HW122958   6.128   1.839   4.621
 7353SOL    HW222959   6.216   1.764   4.505
 7354SOL     OW22960   6.538   6.289   5.311
 7354SOL    HW122961   6.508   6.261   5.402
 7354SOL    HW222962   6.484   6.368   5.282
 7355SOL     OW22963   1.102   5.582   1.743
 7355SOL    HW122964   1.144   5.671   1.763
 7355SOL    HW222965   1.132   5.551   1.653
 7356SOL     OW22966   6.246   1.819   6.709
 7356SOL    HW122967   6.263   1.765   6.627
 7356SOL    HW222968   6.328   1.821   6.766
 7357SOL     OW22969   5.345   1.913   6.648
 7357SOL    HW122970   5.394   1.875   6.570
 7357SOL    HW222971   5.369   1.861   6.730
 7358SOL     OW22972   3.366   1.535   3.999
 7358SOL    HW122973   3.395   1.622   3.961
 7358SOL    HW222974   3.290   1.549   4.063
 7359SOL     OW22975   3.761   3.632   2.545
 7359SOL    HW122976   3.678   3.679   2.516
 7359SOL    HW222977   3.738   3.540   2.577
 7360SOL     OW22978   1.148   2.128   5.286
 7360SOL    HW122979   1.214   2.203   5.285
 7360SOL    HW222980   1.162   2.073   5.369
 7361SOL     OW22981   5.056   6.269   1.458
 7361SOL    HW122982   4.971   6.310   1.425
 7361SOL    HW222983   5.134   6.317   1.419
 7362SOL     OW22984   1.902   6.296   5.210
 7362SOL    HW122985   1.822   6.244   5.182
 7362SOL    HW222986   1.970   6.234   5.250
 7363SOL     OW22987   5.271   2.993   6.943
 7363SOL    HW122988   5.342   3.020   7.009
 7363SOL    HW222989   5.184   3.034   6.969
 7364SOL     OW22990   4.288   6.690   0.925
 7364SOL    HW122991   4.237   6.702   0.840
 7364SOL    HW222992   4.283   6.594   0.954
 7365SOL     OW22993   2.974   0.151   2.602
 7365SOL    HW122994   2.889   0.180   2.558
 7365SOL    HW222995   3.040   0.124   2.532
 7366SOL     OW22996   6.889   5.343   6.503
 7366SOL    HW122997   6.913   5.439   6.521
 7366SOL    HW222998   6.828   5.310   6.576
 7367SOL     OW22999   4.717   3.739   1.822
 7367SOL    HW123000   4.804   3.691   1.822
 7367SOL    HW223001   4.721   3.817   1.884
 7368SOL     OW23002   3.104   3.318   4.593
 7368SOL    HW123003   3.036   3.386   4.567
 7368SOL    HW223004   3.094   3.237   4.536
 7369SOL     OW23005   5.140   4.275   0.831
 7369SOL    HW123006   5.202   4.308   0.760
 7369SOL    HW223007   5.178   4.295   0.921
 7370SOL     OW23008   2.461   0.012   0.717
 7370SOL    HW123009   2.376   0.029   0.767
 7370SOL    HW223010   2.447   6.968   0.652
 7371SOL     OW23011   2.914   4.884   4.170
 7371SOL    HW123012   2.876   4.947   4.239
 7371SOL    HW223013   3.006   4.913   4.146
 7372SOL     OW23014   4.018   0.241   6.243
 7372SOL    HW123015   3.930   0.258   6.198
 7372SOL    HW223016   4.083   0.313   6.219
 7373SOL     OW23017   3.828   0.834   3.656
 7373SOL    HW123018   3.782   0.752   3.621
 7373SOL    HW223019   3.916   0.808   3.695
 7374SOL     OW23020   1.771   2.976   6.142
 7374SOL    HW123021   1.713   2.943   6.216
 7374SOL    HW223022   1.862   2.997   6.177
 7375SOL     OW23023   1.425   0.948   4.484
 7375SOL    HW123024   1.357   1.009   4.525
 7375SOL    HW223025   1.421   0.956   4.385
 7376SOL     OW23026   2.835   2.870   0.050
 7376SOL    HW123027   2.879   2.947   0.003
 7376SOL    HW223028   2.847   2.787   7.025
 7377SOL     OW23029   4.796   4.453   1.742
 7377SOL    HW123030   4.832   4.377   1.795
 7377SOL    HW223031   4.791   4.534   1.800
 7378SOL     OW23032   0.454   1.949   4.659
 7378SOL    HW123033   0.429   1.854   4.644
 7378SOL    HW223034   0.532   1.972   4.600
 7379SOL     OW23035   3.783   0.954   1.897
 7379SOL    HW123036   3.806   0.962   1.800
 7379SOL    HW223037   3.711   0.887   1.908
 7380SOL     OW23038   6.972   3.230   5.823
 7380SOL    HW123039   6.952   3.214   5.726
 7380SOL    HW223040   0.023   3.177   5.850
 7381SOL     OW23041   4.732   2.650   2.101
 7381SOL    HW123042   4.675   2.569   2.088
 7381SOL    HW223043   4.694   2.727   2.049
 7382SOL     OW23044   0.500   4.463   4.612
 7382SOL    HW123045   0.543   4.383   4.570
 7382SOL    HW223046   0.567   4.536   4.622
 7383SOL     OW23047   0.380   6.464   2.620
 7383SOL    HW123048   0.445   6.389   2.621
 7383SOL    HW223049   0.310   6.449   2.690
 7384SOL     OW23050   5.170   6.811   2.170
 7384SOL    HW123051   5.218   6.770   2.248
 7384SOL    HW223052   5.173   6.911   2.178
 7385SOL     OW23053   4.569   6.151   1.895
 7385SOL    HW123054   4.598   6.056   1.909
 7385SOL    HW223055   4.644   6.203   1.854
 7386SOL     OW23056   1.094   2.560   5.364
 7386SOL    HW123057   1.038   2.642   5.355
 7386SOL    HW223058   1.104   2.537   5.461
 7387SOL     OW23059   4.706   5.317   4.038
 7387SOL    HW123060   4.630   5.378   4.057
 7387SOL    HW223061   4.766   5.312   4.118
 7388SOL     OW23062   6.526   4.931   4.173
 7388SOL    HW123063   6.594   4.898   4.108
 7388SOL    HW223064   6.537   4.883   4.260
 7389SOL     OW23065   1.510   3.581   6.942
 7389SOL    HW123066   1.557   3.574   0.000
 7389SOL    HW223067   1.537   3.665   6.896
 7390SOL     OW23068   0.291   1.860   6.340
 7390SOL    HW123069   0.285   1.781   6.401
 7390SOL    HW223070   0.241   1.841   6.256
 7391SOL     OW23071   5.768   3.759   5.894
 7391SOL    HW123072   5.728   3.667   5.891
 7391SOL    HW223073   5.823   3.768   5.977
 7392SOL     OW23074   1.636   4.990   4.845
 7392SOL    HW123075   1.629   4.911   4.785
 7392SOL    HW223076   1.591   4.970   4.932
 7393SOL     OW23077   6.105   5.579   2.526
 7393SOL    HW123078   6.134   5.675   2.530
 7393SOL    HW223079   6.083   5.555   2.432
 7394SOL     OW23080   4.085   3.716   6.452
 7394SOL    HW123081   4.160   3.653   6.472
 7394SOL    HW223082   4.011   3.702   6.518
 7395SOL     OW23083   0.636   0.208   6.477
 7395SOL    HW123084   0.590   0.201   6.389
 7395SOL    HW223085   0.596   0.143   6.541
 7396SOL     OW23086   1.168   0.758   5.880
 7396SOL    HW123087   1.229   0.685   5.848
 7396SOL    HW223088   1.101   0.779   5.810
 7397SOL     OW23089   6.856   4.446   4.667
 7397SOL    HW123090   6.845   4.357   4.712
 7397SOL    HW223091   6.877   4.431   4.570
 7398SOL     OW23092   4.745   4.930   4.274
 7398SOL    HW123093   4.749   5.029   4.291
 7398SOL    HW223094   4.803   4.883   4.340
 7399SOL     OW23095   6.271   3.845   5.861
 7399SOL    HW123096   6.171   3.841   5.867
 7399SOL    HW223097   6.311   3.772   5.917
 7400SOL     OW23098   3.309   4.479   0.075
 7400SOL    HW123099   3.244   4.554   0.062
 7400SOL    HW223100   3.297   4.441   0.167
 7401SOL     OW23101   0.020   1.496   4.127
 7401SOL    HW123102   0.110   1.460   4.103
 7401SOL    HW223103   6.994   1.506   4.044
 7402SOL     OW23104   1.999   0.173   3.824
 7402SOL    HW123105   2.077   0.116   3.797
 7402SOL    HW223106   1.968   0.226   3.745
 7403SOL     OW23107   1.865   3.336   3.846
 7403SOL    HW123108   1.873   3.315   3.943
 7403SOL    HW223109   1.824   3.426   3.833
 7404SOL     OW23110   1.167   0.543   1.173
 7404SOL    HW123111   1.167   0.601   1.255
 7404SOL    HW223112   1.077   0.502   1.161
 7405SOL     OW23113   2.668   5.277   5.413
 7405SOL    HW123114   2.632   5.240   5.499
 7405SOL    HW223115   2.759   5.314   5.428
 7406SOL     OW23116   1.670   3.508   2.453
 7406SOL    HW123117   1.572   3.528   2.456
 7406SOL    HW223118   1.720   3.580   2.501
 7407SOL     OW23119   0.947   6.284   5.266
 7407SOL    HW123120   0.976   6.301   5.360
 7407SOL    HW223121   0.969   6.364   5.210
 7408SOL     OW23122   1.884   4.430   5.538
 7408SOL    HW123123   1.849   4.428   5.444
 7408SOL    HW223124   1.982   4.410   5.537
 7409SOL     OW23125   0.887   0.720   4.972
 7409SOL    HW123126   0.813   0.780   5.000
 7409SOL    HW223127   0.897   0.723   4.872
 7410SOL     OW23128   0.649   4.630   1.108
 7410SOL    HW123129   0.646   4.549   1.049
 7410SOL    HW223130   0.559   4.644   1.150
 7411SOL     OW23131   2.790   6.438   4.850
 7411SOL    HW123132   2.788   6.445   4.750
 7411SOL    HW223133   2.802   6.342   4.877
 7412SOL     OW23134   1.982   0.962   0.878
 7412SOL    HW123135   2.006   0.996   0.969
 7412SOL    HW223136   2.004   0.864   0.872
 7413SOL     OW23137   6.545   3.068   4.368
 7413SOL    HW123138   6.637   3.040   4.343
 7413SOL    HW223139   6.498   2.990   4.411
 7414SOL     OW23140   6.610   6.997   2.037
 7414SOL    HW123141   6.562   6.912   2.016
 7414SOL    HW223142   6.583   0.039   1.972
 7415SOL     OW23143   1.904   3.158   2.812
 7415SOL    HW123144   1.991   3.198   2.842
 7415SOL    HW223145   1.901   3.158   2.712
 7416SOL     OW23146   3.639   1.361   4.611
 7416SOL    HW123147   3.708   1.413   4.661
 7416SOL    HW223148   3.636   1.391   4.516
 7417SOL     OW23149   1.533   6.842   5.883
 7417SOL    HW123150   1.567   6.893   5.803
 7417SOL    HW223151   1.443   6.877   5.909
 7418SOL     OW23152   2.542   4.168   1.084
 7418SOL    HW123153   2.546   4.128   0.993
 7418SOL    HW223154   2.617   4.131   1.140
 7419SOL     OW23155   5.358   1.311   5.136
 7419SOL    HW123156   5.286   1.257   5.180
 7419SOL    HW223157   5.416   1.251   5.081
 7420SOL     OW23158   6.812   6.470   1.661
 7420SOL    HW123159   6.789   6.511   1.749
 7420SOL    HW223160   6.850   6.540   1.600
 7421SOL     OW23161   3.793   4.140   1.544
 7421SOL    HW123162   3.751   4.055   1.576
 7421SOL    HW223163   3.882   4.119   1.503
 7422SOL     OW23164   0.180   3.348   0.904
 7422SOL    HW123165   0.200   3.349   0.806
 7422SOL    HW223166   0.098   3.402   0.921
 7423SOL     OW23167   2.124   4.694   6.163
 7423SOL    HW123168   2.195   4.707   6.232
 7423SOL    HW223169   2.035   4.723   6.200
 7424SOL     OW23170   5.622   1.758   4.498
 7424SOL    HW123171   5.713   1.728   4.468
 7424SOL    HW223172   5.554   1.690   4.473
 7425SOL     OW23173   3.517   4.327   5.947
 7425SOL    HW123174   3.433   4.297   5.992
 7425SOL    HW223175   3.592   4.265   5.971
 7426SOL     OW23176   0.490   1.998   6.209
 7426SOL    HW123177   0.430   1.931   6.252
 7426SOL    HW223178   0.575   2.006   6.262
 7427SOL     OW23179   3.226   6.332   4.765
 7427SOL    HW123180   3.257   6.239   4.744
 7427SOL    HW223181   3.148   6.328   4.827
 7428SOL     OW23182   3.474   2.471   5.869
 7428SOL    HW123183   3.519   2.484   5.781
 7428SOL    HW223184   3.459   2.560   5.912
 7429SOL     OW23185   6.801   0.097   2.484
 7429SOL    HW123186   6.822   0.002   2.506
 7429SOL    HW223187   6.738   0.100   2.406
 7430SOL     OW23188   6.995   3.634   4.984
 7430SOL    HW123189   0.035   3.658   4.915
 7430SOL    HW223190   6.906   3.628   4.940
 7431SOL     OW23191   0.658   3.373   1.898
 7431SOL    HW123192   0.706   3.358   1.811
 7431SOL    HW223193   0.564   3.401   1.880
 7432SOL     OW23194   0.862   6.699   3.609
 7432SOL    HW123195   0.939   6.753   3.643
 7432SOL    HW223196   0.822   6.745   3.530
 7433SOL     OW23197   6.282   5.600   1.040
 7433SOL    HW123198   6.256   5.634   0.950
 7433SOL    HW223199   6.252   5.506   1.051
 7434SOL     OW23200   2.205   1.911   6.880
 7434SOL    HW123201   2.230   1.982   6.946
 7434SOL    HW223202   2.179   1.828   6.930
 7435SOL     OW23203   3.479   6.507   6.547
 7435SOL    HW123204   3.469   6.531   6.451
 7435SOL    HW223205   3.571   6.470   6.563
 7436SOL     OW23206   5.644   3.347   7.022
 7436SOL    HW123207   5.697   3.414   0.044
 7436SOL    HW223208   5.689   3.258   7.026
 7437SOL     OW23209   0.196   5.036   6.392
 7437SOL    HW123210   0.143   5.003   6.314
 7437SOL    HW223211   0.216   4.959   6.453
 7438SOL     OW23212   0.793   4.439   2.356
 7438SOL    HW123213   0.724   4.473   2.291
 7438SOL    HW223214   0.860   4.511   2.374
 7439SOL     OW23215   2.182   0.060   4.407
 7439SOL    HW123216   2.109   0.080   4.472
 7439SOL    HW223217   2.270   0.082   4.448
 7440SOL     OW23218   1.219   2.649   4.478
 7440SOL    HW123219   1.126   2.622   4.506
 7440SOL    HW223220   1.263   2.697   4.554
 7441SOL     OW23221   5.098   0.868   4.299
 7441SOL    HW123222   5.112   0.804   4.223
 7441SOL    HW223223   5.185   0.884   4.345
 7442SOL     OW23224   0.884   1.763   6.514
 7442SOL    HW123225   0.837   1.834   6.566
 7442SOL    HW223226   0.837   1.748   6.427
 7443SOL     OW23227   0.459   1.998   6.752
 7443SOL    HW123228   0.539   1.949   6.789
 7443SOL    HW223229   0.396   2.020   6.827
 7444SOL     OW23230   6.677   3.370   6.376
 7444SOL    HW123231   6.752   3.413   6.427
 7444SOL    HW223232   6.594   3.425   6.387
 7445SOL     OW23233   5.269   1.503   1.297
 7445SOL    HW123234   5.261   1.420   1.243
 7445SOL    HW223235   5.300   1.480   1.390
 7446SOL     OW23236   6.552   4.113   0.369
 7446SOL    HW123237   6.641   4.104   0.413
 7446SOL    HW223238   6.536   4.035   0.309
 7447SOL     OW23239   1.982   4.176   0.554
 7447SOL    HW123240   1.943   4.237   0.623
 7447SOL    HW223241   2.070   4.214   0.523
 7448SOL     OW23242   5.620   6.959   5.817
 7448SOL    HW123243   5.582   6.878   5.773
 7448SOL    HW223244   5.548   7.008   5.866
 7449SOL     OW23245   5.001   2.216   1.788
 7449SOL    HW123246   4.911   2.218   1.833
 7449SOL    HW223247   5.002   2.144   1.719
 7450SOL     OW23248   4.633   2.440   2.889
 7450SOL    HW123249   4.603   2.352   2.925
 7450SOL    HW223250   4.584   2.459   2.803
 7451SOL     OW23251   1.795   1.130   4.701
 7451SOL    HW123252   1.839   1.081   4.776
 7451SOL    HW223253   1.732   1.199   4.738
 7452SOL     OW23254   1.941   0.559   4.935
 7452SOL    HW123255   2.016   0.493   4.942
 7452SOL    HW223256   1.857   0.517   4.968
 7453SOL     OW23257   5.937   6.569   4.928
 7453SOL    HW123258   5.919   6.668   4.926
 7453SOL    HW223259   5.961   6.537   4.837
 7454SOL     OW23260   0.992   3.518   1.570
 7454SOL    HW123261   1.023   3.613   1.568
 7454SOL    HW223262   1.000   3.478   1.478
 7455SOL     OW23263   5.265   2.154   0.279
 7455SOL    HW123264   5.248   2.057   0.297
 7455SOL    HW223265   5.306   2.163   0.189
 7456SOL     OW23266   1.564   3.127   4.761
 7456SOL    HW123267   1.465   3.121   4.746
 7456SOL    HW223268   1.603   3.196   4.700
 7457SOL     OW23269   5.588   1.032   5.280
 7457SOL    HW123270   5.575   1.076   5.191
 7457SOL    HW223271   5.605   1.102   5.349
 7458SOL     OW23272   2.912   0.163   6.972
 7458SOL    HW123273   2.965   0.247   6.984
 7458SOL    HW223274   2.957   0.106   6.903
 7459SOL     OW23275   4.938   0.142   5.566
 7459SOL    HW123276   5.015   0.089   5.601
 7459SOL    HW223277   4.962   0.181   5.478
 7460SOL     OW23278   2.121   4.467   0.741
 7460SOL    HW123279   2.158   4.521   0.665
 7460SOL    HW223280   2.022   4.460   0.733
 7461SOL     OW23281   5.563   1.271   5.924
 7461SOL    HW123282   5.576   1.248   6.020
 7461SOL    HW223283   5.481   1.328   5.914
 7462SOL     OW23284   2.043   1.792   1.849
 7462SOL    HW123285   2.021   1.726   1.921
 7462SOL    HW223286   1.963   1.847   1.828
 7463SOL     OW23287   3.469   3.063   1.719
 7463SOL    HW123288   3.444   3.142   1.662
 7463SOL    HW223289   3.547   3.088   1.777
 7464SOL     OW23290   4.110   6.044   0.754
 7464SOL    HW123291   4.026   6.092   0.778
 7464SOL    HW223292   4.101   6.005   0.662
 7465SOL     OW23293   2.107   6.858   1.321
 7465SOL    HW123294   2.136   6.795   1.249
 7465SOL    HW223295   2.026   6.908   1.290
 7466SOL     OW23296   0.173   0.589   6.004
 7466SOL    HW123297   0.269   0.568   6.019
 7466SOL    HW223298   0.128   0.510   5.961
 7467SOL     OW23299   6.965   2.428   1.305
 7467SOL    HW123300   6.940   2.500   1.369
 7467SOL    HW223301   7.004   2.351   1.355
 7468SOL     OW23302   5.298   1.803   2.118
 7468SOL    HW123303   5.261   1.886   2.075
 7468SOL    HW223304   5.268   1.798   2.213
 7469SOL     OW23305   1.340   7.014   6.225
 7469SOL    HW123306   1.256   6.966   6.198
 7469SOL    HW223307   1.377   6.973   6.308
 7470SOL     OW23308   0.670   1.866   2.361
 7470SOL    HW123309   0.721   1.782   2.344
 7470SOL    HW223310   0.689   1.932   2.288
 7471SOL     OW23311   6.640   6.995   4.859
 7471SOL    HW123312   6.673   6.970   4.951
 7471SOL    HW223313   6.556   6.945   4.839
 7472SOL     OW23314   4.053   0.066   4.733
 7472SOL    HW123315   4.065   0.011   4.650
 7472SOL    HW223316   3.955   0.073   4.754
 7473SOL     OW23317   6.877   3.631   4.222
 7473SOL    HW123318   6.917   3.649   4.311
 7473SOL    HW223319   6.895   3.708   4.161
 7474SOL     OW23320   3.115   0.935   4.171
 7474SOL    HW123321   3.056   0.892   4.239
 7474SOL    HW223322   3.203   0.889   4.169
 7475SOL     OW23323   4.220   0.346   2.193
 7475SOL    HW123324   4.233   0.267   2.133
 7475SOL    HW223325   4.239   0.430   2.142
 7476SOL     OW23326   4.675   6.059   4.592
 7476SOL    HW123327   4.701   5.988   4.658
 7476SOL    HW223328   4.575   6.063   4.587
 7477SOL     OW23329   4.083   1.439   4.137
 7477SOL    HW123330   4.119   1.348   4.155
 7477SOL    HW223331   4.098   1.497   4.217
 7478SOL     OW23332   2.693   3.478   6.514
 7478SOL    HW123333   2.634   3.506   6.439
 7478SOL    HW223334   2.681   3.539   6.592
 7479SOL     OW23335   4.224   1.465   0.306
 7479SOL    HW123336   4.154   1.515   0.356
 7479SOL    HW223337   4.200   1.368   0.303
 7480SOL     OW23338   5.610   5.942   1.467
 7480SOL    HW123339   5.607   6.033   1.507
 7480SOL    HW223340   5.542   5.935   1.394
 7481SOL     OW23341   5.109   5.166   0.968
 7481SOL    HW123342   5.201   5.168   0.931
 7481SOL    HW223343   5.045   5.136   0.897
 7482SOL     OW23344   3.966   0.864   2.068
 7482SOL    HW123345   3.942   0.877   2.165
 7482SOL    HW223346   3.894   0.903   2.011
 7483SOL     OW23347   3.613   1.986   4.120
 7483SOL    HW123348   3.591   2.003   4.216
 7483SOL    HW223349   3.530   1.960   4.071
 7484SOL     OW23350   1.783   6.621   1.391
 7484SOL    HW123351   1.691   6.633   1.429
 7484SOL    HW223352   1.834   6.557   1.448
 7485SOL     OW23353   3.062   6.110   6.029
 7485SOL    HW123354   3.105   6.066   6.107
 7485SOL    HW223355   3.086   6.207   6.027
 7486SOL     OW23356   3.222   6.754   5.425
 7486SOL    HW123357   3.197   6.785   5.334
 7486SOL    HW223358   3.146   6.767   5.488
 7487SOL     OW23359   2.664   6.589   3.218
 7487SOL    HW123360   2.591   6.655   3.198
 7487SOL    HW223361   2.720   6.576   3.136
 7488SOL     OW23362   3.219   6.855   5.794
 7488SOL    HW123363   3.298   6.909   5.764
 7488SOL    HW223364   3.173   6.902   5.870
 7489SOL     OW23365   4.534   2.201   4.202
 7489SOL    HW123366   4.501   2.221   4.294
 7489SOL    HW223367   4.505   2.108   4.176
 7490SOL     OW23368   0.252   0.657   0.662
 7490SOL    HW123369   0.336   0.667   0.715
 7490SOL    HW223370   0.247   0.564   0.626
 7491SOL     OW23371   0.077   5.604   6.118
 7491SOL    HW123372   0.040   5.511   6.117
 7491SOL    HW223373   0.147   5.611   6.189
 7492SOL     OW23374   1.646   2.291   5.379
 7492SOL    HW123375   1.643   2.296   5.479
 7492SOL    HW223376   1.667   2.381   5.341
 7493SOL     OW23377   6.034   4.424   6.189
 7493SOL    HW123378   5.984   4.341   6.166
 7493SOL    HW223379   6.061   4.422   6.285
 7494SOL     OW23380   5.875   0.876   2.357
 7494SOL    HW123381   5.879   0.803   2.426
 7494SOL    HW223382   5.798   0.859   2.296
 7495SOL     OW23383   2.155   1.439   0.818
 7495SOL    HW123384   2.103   1.355   0.807
 7495SOL    HW223385   2.121   1.508   0.754
 7496SOL     OW23386   1.311   5.089   5.968
 7496SOL    HW123387   1.251   5.014   5.938
 7496SOL    HW223388   1.256   5.168   5.993
 7497SOL     OW23389   2.603   5.047   2.244
 7497SOL    HW123390   2.564   5.003   2.163
 7497SOL    HW223391   2.530   5.068   2.309
 7498SOL     OW23392   2.757   1.196   4.704
 7498SOL    HW123393   2.827   1.252   4.749
 7498SOL    HW223394   2.754   1.106   4.748
 7499SOL     OW23395   5.746   6.672   3.776
 7499SOL    HW123396   5.676   6.622   3.726
 7499SOL    HW223397   5.821   6.610   3.799
 7500SOL     OW23398   4.330   5.851   2.595
 7500SOL    HW123399   4.395   5.812   2.659
 7500SOL    HW223400   4.289   5.933   2.634
 7501SOL     OW23401   0.960   3.032   4.147
 7501SOL    HW123402   0.998   2.940   4.131
 7501SOL    HW223403   0.860   3.028   4.140
 7502SOL     OW23404   2.052   1.072   5.201
 7502SOL    HW123405   2.057   1.029   5.111
 7502SOL    HW223406   2.002   1.013   5.264
 7503SOL     OW23407   2.650   0.910   6.283
 7503SOL    HW123408   2.711   0.923   6.204
 7503SOL    HW223409   2.704   0.915   6.367
 7504SOL     OW23410   3.950   6.479   3.667
 7504SOL    HW123411   3.983   6.516   3.753
 7504SOL    HW223412   4.021   6.486   3.597
 7505SOL     OW23413   2.518   0.890   5.166
 7505SOL    HW123414   2.615   0.899   5.187
 7505SOL    HW223415   2.466   0.961   5.213
 7506SOL     OW23416   3.702   1.005   2.671
 7506SOL    HW123417   3.625   1.064   2.645
 7506SOL    HW223418   3.782   1.061   2.691
 7507SOL     OW23419   0.714   6.377   6.186
 7507SOL    HW123420   0.771   6.333   6.116
 7507SOL    HW223421   0.749   6.469   6.204
 7508SOL     OW23422   5.477   6.502   2.858
 7508SOL    HW123423   5.431   6.430   2.909
 7508SOL    HW223424   5.549   6.543   2.915
 7509SOL     OW23425   5.448   4.488   0.014
 7509SOL    HW123426   5.421   4.503   0.109
 7509SOL    HW223427   5.367   4.466   6.989
 7510SOL     OW23428   3.231   4.123   4.431
 7510SOL    HW123429   3.288   4.165   4.502
 7510SOL    HW223430   3.152   4.079   4.474
 7511SOL     OW23431   1.668   0.287   2.465
 7511SOL    HW123432   1.749   0.310   2.517
 7511SOL    HW223433   1.691   0.280   2.368
 7512SOL     OW23434   2.565   3.671   1.181
 7512SOL    HW123435   2.654   3.632   1.157
 7512SOL    HW223436   2.578   3.739   1.254
 7513SOL     OW23437   1.315   2.871   6.491
 7513SOL    HW123438   1.309   2.771   6.501
 7513SOL    HW223439   1.396   2.894   6.436
 7514SOL     OW23440   3.119   6.010   1.774
 7514SOL    HW123441   3.194   6.033   1.835
 7514SOL    HW223442   3.063   6.091   1.759
 7515SOL     OW23443   0.336   0.317   2.653
 7515SOL    HW123444   0.344   0.337   2.555
 7515SOL    HW223445   0.249   0.271   2.671
 7516SOL     OW23446   6.764   6.841   4.176
 7516SOL    HW123447   6.809   6.768   4.228
 7516SOL    HW223448   6.775   6.824   4.078
 7517SOL     OW23449   7.003   3.801   1.394
 7517SOL    HW123450   6.967   3.744   1.321
 7517SOL    HW223451   0.070   3.782   1.408
 7518SOL     OW23452   4.130   5.657   3.528
 7518SOL    HW123453   4.049   5.665   3.470
 7518SOL    HW223454   4.116   5.584   3.595
 7519SOL     OW23455   1.257   6.833   4.795
 7519SOL    HW123456   1.303   6.851   4.708
 7519SOL    HW223457   1.239   6.920   4.841
 7520SOL     OW23458   1.651   6.793   2.837
 7520SOL    HW123459   1.742   6.787   2.880
 7520SOL    HW223460   1.661   6.822   2.742
 7521SOL     OW23461   4.498   4.500   5.427
 7521SOL    HW123462   4.458   4.420   5.471
 7521SOL    HW223463   4.466   4.583   5.472
 7522SOL     OW23464   2.351   1.104   0.052
 7522SOL    HW123465   2.411   1.085   7.003
 7522SOL    HW223466   2.300   1.021   0.074
 7523SOL     OW23467   6.203   6.735   5.318
 7523SOL    HW123468   6.178   6.684   5.235
 7523SOL    HW223469   6.120   6.755   5.370
 7524SOL     OW23470   0.006   1.774   5.725
 7524SOL    HW123471   0.012   1.681   5.690
 7524SOL    HW223472   0.090   1.824   5.703
 7525SOL     OW23473   1.976   0.209   0.546
 7525SOL    HW123474   1.997   0.305   0.525
 7525SOL    HW223475   2.061   0.157   0.551
 7526SOL     OW23476   3.566   3.299   4.537
 7526SOL    HW123477   3.590   3.212   4.581
 7526SOL    HW223478   3.645   3.360   4.540
 7527SOL     OW23479   5.060   4.123   2.456
 7527SOL    HW123480   4.990   4.187   2.486
 7527SOL    HW223481   5.147   4.145   2.502
 7528SOL     OW23482   4.544   2.726   0.728
 7528SOL    HW123483   4.596   2.667   0.790
 7528SOL    HW223484   4.447   2.721   0.750
 7529SOL     OW23485   4.165   0.915   4.210
 7529SOL    HW123486   4.102   0.842   4.181
 7529SOL    HW223487   4.249   0.874   4.245
 7530SOL     OW23488   0.149   3.543   2.597
 7530SOL    HW123489   0.199   3.475   2.543
 7530SOL    HW223490   0.188   3.634   2.580
 7531SOL     OW23491   4.475   1.779   3.746
 7531SOL    HW123492   4.553   1.755   3.803
 7531SOL    HW223493   4.507   1.821   3.661
 7532SOL     OW23494   5.296   5.791   2.020
 7532SOL    HW123495   5.219   5.814   2.080
 7532SOL    HW223496   5.323   5.872   1.968
 7533SOL     OW23497   2.576   1.298   3.666
 7533SOL    HW123498   2.507   1.244   3.617
 7533SOL    HW223499   2.566   1.282   3.764
 7534SOL     OW23500   3.932   6.318   5.302
 7534SOL    HW123501   4.001   6.344   5.370
 7534SOL    HW223502   3.845   6.300   5.349
 7535SOL     OW23503   2.325   1.811   5.256
 7535SOL    HW123504   2.410   1.860   5.278
 7535SOL    HW223505   2.300   1.829   5.161
 7536SOL     OW23506   4.874   5.068   4.988
 7536SOL    HW123507   4.795   5.087   5.045
 7536SOL    HW223508   4.858   4.984   4.935
 7537SOL     OW23509   2.284   4.494   4.716
 7537SOL    HW123510   2.276   4.395   4.730
 7537SOL    HW223511   2.209   4.541   4.762
 7538SOL     OW23512   3.409   3.297   3.145
 7538SOL    HW123513   3.466   3.336   3.073
 7538SOL    HW223514   3.415   3.355   3.227
 7539SOL     OW23515   1.942   2.798   5.422
 7539SOL    HW123516   1.924   2.888   5.383
 7539SOL    HW223517   2.027   2.761   5.385
 7540SOL     OW23518   2.911   0.740   6.939
 7540SOL    HW123519   2.995   0.709   6.894
 7540SOL    HW223520   2.909   0.840   6.942
 7541SOL     OW23521   6.427   2.921   5.478
 7541SOL    HW123522   6.384   3.011   5.492
 7541SOL    HW223523   6.363   2.861   5.430
 7542SOL     OW23524   1.044   0.205   5.562
 7542SOL    HW123525   0.981   0.127   5.570
 7542SOL    HW223526   0.996   0.282   5.522
 7543SOL     OW23527   4.097   2.448   0.536
 7543SOL    HW123528   4.082   2.515   0.463
 7543SOL    HW223529   4.195   2.437   0.551
 7544SOL     OW23530   0.377   2.088   2.894
 7544SOL    HW123531   0.310   2.015   2.906
 7544SOL    HW223532   0.444   2.061   2.825
 7545SOL     OW23533   4.409   6.701   2.712
 7545SOL    HW123534   4.359   6.755   2.780
 7545SOL    HW223535   4.356   6.698   2.627
 7546SOL     OW23536   4.997   1.091   0.122
 7546SOL    HW123537   4.916   1.135   0.159
 7546SOL    HW223538   5.077   1.151   0.135
 7547SOL     OW23539   4.221   0.686   0.184
 7547SOL    HW123540   4.197   0.590   0.191
 7547SOL    HW223541   4.307   0.696   0.136
 7548SOL     OW23542   2.319   1.624   0.908
 7548SOL    HW123543   2.260   1.559   0.859
 7548SOL    HW223544   2.270   1.709   0.923
 7549SOL     OW23545   5.772   1.613   2.479
 7549SOL    HW123546   5.742   1.567   2.395
 7549SOL    HW223547   5.835   1.553   2.529
 7550SOL     OW23548   1.988   5.877   2.422
 7550SOL    HW123549   1.896   5.841   2.406
 7550SOL    HW223550   2.055   5.814   2.382
 7551SOL     OW23551   4.448   3.463   6.984
 7551SOL    HW123552   4.503   3.547   6.984
 7551SOL    HW223553   4.426   3.438   0.049
 7552SOL     OW23554   2.726   5.580   4.518
 7552SOL    HW123555   2.640   5.628   4.533
 7552SOL    HW223556   2.709   5.497   4.465
 7553SOL     OW23557   4.313   4.676   6.210
 7553SOL    HW123558   4.311   4.608   6.283
 7553SOL    HW223559   4.292   4.766   6.249
 7554SOL     OW23560   4.930   2.096   0.766
 7554SOL    HW123561   4.885   2.158   0.831
 7554SOL    HW223562   4.900   2.118   0.674
 7555SOL     OW23563   0.791   5.532   5.219
 7555SOL    HW123564   0.829   5.581   5.298
 7555SOL    HW223565   0.736   5.595   5.165
 7556SOL     OW23566   0.551   3.148   5.376
 7556SOL    HW123567   0.500   3.067   5.347
 7556SOL    HW223568   0.530   3.167   5.472
 7557SOL     OW23569   5.263   3.977   6.247
 7557SOL    HW123570   5.298   3.920   6.322
 7557SOL    HW223571   5.193   4.039   6.284
 7558SOL     OW23572   2.021   2.375   3.597
 7558SOL    HW123573   2.098   2.416   3.647
 7558SOL    HW223574   1.936   2.417   3.629
 7559SOL     OW23575   6.469   5.275   1.012
 7559SOL    HW123576   6.510   5.347   1.066
 7559SOL    HW223577   6.459   5.305   0.917
 7560SOL     OW23578   4.870   0.191   0.324
 7560SOL    HW123579   4.939   0.123   0.296
 7560SOL    HW223580   4.909   0.252   0.392
 7561SOL     OW23581   0.810   3.719   0.973
 7561SOL    HW123582   0.861   3.695   1.055
 7561SOL    HW223583   0.874   3.733   0.897
 7562SOL     OW23584   5.552   6.248   4.746
 7562SOL    HW123585   5.568   6.199   4.832
 7562SOL    HW223586   5.636   6.294   4.718
 7563SOL     OW23587   2.662   0.376   1.621
 7563SOL    HW123588   2.619   0.380   1.711
 7563SOL    HW223589   2.599   0.411   1.552
 7564SOL     OW23590   5.462   0.057   3.125
 7564SOL    HW123591   5.466   0.107   3.039
 7564SOL    HW223592   5.366   0.049   3.154
 7565SOL     OW23593   4.899   5.217   6.557
 7565SOL    HW123594   4.972   5.284   6.554
 7565SOL    HW223595   4.845   5.222   6.473
 7566SOL     OW23596   0.081   4.858   3.984
 7566SOL    HW123597   0.177   4.883   3.998
 7566SOL    HW223598   0.022   4.936   4.006
 7567SOL     OW23599   2.550   4.113   6.132
 7567SOL    HW123600   2.615   4.184   6.162
 7567SOL    HW223601   2.476   4.156   6.080
 7568SOL     OW23602   5.794   5.421   4.031
 7568SOL    HW123603   5.732   5.411   3.953
 7568SOL    HW223604   5.761   5.366   4.108
 7569SOL     OW23605   4.202   6.086   6.674
 7569SOL    HW123606   4.241   6.156   6.613
 7569SOL    HW223607   4.231   5.996   6.642
 7570SOL     OW23608   5.528   4.426   4.888
 7570SOL    HW123609   5.555   4.440   4.983
 7570SOL    HW223610   5.475   4.505   4.857
 7571SOL     OW23611   5.316   3.701   2.033
 7571SOL    HW123612   5.298   3.613   1.989
 7571SOL    HW223613   5.285   3.775   1.973
 7572SOL     OW23614   5.153   0.308   3.955
 7572SOL    HW123615   5.123   0.301   3.860
 7572SOL    HW223616   5.247   0.276   3.963
 7573SOL     OW23617   6.841   5.905   4.319
 7573SOL    HW123618   6.905   5.874   4.389
 7573SOL    HW223619   6.818   5.830   4.257
 7574SOL     OW23620   5.973   1.316   3.636
 7574SOL    HW123621   5.994   1.222   3.661
 7574SOL    HW223622   6.053   1.374   3.654
 7575SOL     OW23623   4.366   1.096   6.264
 7575SOL    HW123624   4.444   1.116   6.206
 7575SOL    HW223625   4.397   1.088   6.359
 7576SOL     OW23626   5.641   5.151   0.204
 7576SOL    HW123627   5.646   5.051   0.202
 7576SOL    HW223628   5.545   5.179   0.202
 7577SOL     OW23629   6.447   0.111   4.494
 7577SOL    HW123630   6.517   0.181   4.508
 7577SOL    HW223631   6.415   0.078   4.583
 7578SOL     OW23632   2.072   6.527   4.283
 7578SOL    HW123633   2.016   6.470   4.343
 7578SOL    HW223634   2.148   6.472   4.247
 7579SOL     OW23635   4.314   2.310   2.314
 7579SOL    HW123636   4.243   2.334   2.249
 7579SOL    HW223637   4.385   2.380   2.314
 7580SOL     OW23638   1.315   3.587   2.910
 7580SOL    HW123639   1.289   3.682   2.929
 7580SOL    HW223640   1.363   3.549   2.989
 7581SOL     OW23641   5.265   2.271   0.528
 7581SOL    HW123642   5.268   2.217   0.444
 7581SOL    HW223643   5.174   2.310   0.540
 7582SOL     OW23644   3.761   1.602   0.515
 7582SOL    HW123645   3.757   1.557   0.604
 7582SOL    HW223646   3.695   1.561   0.452
 7583SOL     OW23647   6.008   4.387   2.167
 7583SOL    HW123648   5.972   4.324   2.236
 7583SOL    HW223649   6.104   4.364   2.148
 7584SOL     OW23650   2.463   6.548   1.263
 7584SOL    HW123651   2.507   6.605   1.332
 7584SOL    HW223652   2.369   6.577   1.250
 7585SOL     OW23653   1.274   4.283   6.364
 7585SOL    HW123654   1.271   4.206   6.428
 7585SOL    HW223655   1.360   4.280   6.312
 7586SOL     OW23656   2.709   0.311   2.545
 7586SOL    HW123657   2.734   0.387   2.485
 7586SOL    HW223658   2.721   0.339   2.640
 7587SOL     OW23659   2.177   1.525   6.623
 7587SOL    HW123660   2.116   1.601   6.600
 7587SOL    HW223661   2.174   1.509   6.722
 7588SOL     OW23662   0.855   4.813   2.243
 7588SOL    HW123663   0.827   4.907   2.224
 7588SOL    HW223664   0.823   4.786   2.333
 7589SOL     OW23665   5.806   5.997   0.487
 7589SOL    HW123666   5.836   5.942   0.409
 7589SOL    HW223667   5.870   5.986   0.562
 7590SOL     OW23668   2.782   1.752   5.523
 7590SOL    HW123669   2.762   1.815   5.448
 7590SOL    HW223670   2.876   1.764   5.553
 7591SOL     OW23671   0.433   4.741   0.440
 7591SOL    HW123672   0.334   4.749   0.447
 7591SOL    HW223673   0.474   4.832   0.437
 7592SOL     OW23674   7.016   4.813   0.213
 7592SOL    HW123675   6.983   4.771   0.297
 7592SOL    HW223676   6.950   4.880   0.180
 7593SOL     OW23677   5.334   2.690   6.930
 7593SOL    HW123678   5.329   2.676   7.029
 7593SOL    HW223679   5.315   2.786   6.909
 7594SOL     OW23680   0.764   4.823   3.130
 7594SOL    HW123681   0.684   4.769   3.102
 7594SOL    HW223682   0.844   4.763   3.138
 7595SOL     OW23683   0.251   3.364   6.519
 7595SOL    HW123684   0.268   3.324   6.609
 7595SOL    HW223685   0.219   3.292   6.456
 7596SOL     OW23686   5.001   5.032   2.603
 7596SOL    HW123687   5.056   5.077   2.674
 7596SOL    HW223688   5.016   4.933   2.606
 7597SOL     OW23689   3.205   5.791   2.175
 7597SOL    HW123690   3.232   5.871   2.229
 7597SOL    HW223691   3.286   5.751   2.133
 7598SOL     OW23692   6.724   0.425   2.924
 7598SOL    HW123693   6.742   0.479   3.006
 7598SOL    HW223694   6.717   0.329   2.948
 7599SOL     OW23695   5.395   1.374   3.674
 7599SOL    HW123696   5.436   1.456   3.635
 7599SOL    HW223697   5.308   1.398   3.718
 7600SOL     OW23698   1.505   0.497   2.034
 7600SOL    HW123699   1.453   0.545   2.104
 7600SOL    HW223700   1.493   0.543   1.946
 7601SOL     OW23701   1.968   5.181   3.598
 7601SOL    HW123702   1.951   5.086   3.572
 7601SOL    HW223703   1.919   5.202   3.683
 7602SOL     OW23704   2.403   4.479   4.991
 7602SOL    HW123705   2.481   4.536   4.966
 7602SOL    HW223706   2.334   4.483   4.919
 7603SOL     OW23707   1.376   6.379   6.426
 7603SOL    HW123708   1.346   6.349   6.517
 7603SOL    HW223709   1.476   6.376   6.421
 7604SOL     OW23710   3.487   5.886   3.918
 7604SOL    HW123711   3.419   5.908   3.848
 7604SOL    HW223712   3.571   5.853   3.874
 7605SOL     OW23713   1.506   5.785   0.069
 7605SOL    HW123714   1.467   5.836   7.022
 7605SOL    HW223715   1.604   5.804   0.075
 7606SOL     OW23716   0.375   2.949   2.154
 7606SOL    HW123717   0.336   2.860   2.176
 7606SOL    HW223718   0.440   2.975   2.226
 7607SOL     OW23719   4.525   6.962   0.057
 7607SOL    HW123720   4.531   7.023   0.136
 7607SOL    HW223721   4.495   6.872   0.086
 7608SOL     OW23722   3.308   4.072   3.691
 7608SOL    HW123723   3.382   4.138   3.707
 7608SOL    HW223724   3.262   4.051   3.777
 7609SOL     OW23725   6.746   3.706   3.695
 7609SOL    HW123726   6.755   3.703   3.596
 7609SOL    HW223727   6.696   3.789   3.721
 7610SOL     OW23728   6.038   0.642   1.300
 7610SOL    HW123729   6.033   0.646   1.200
 7610SOL    HW223730   6.051   0.547   1.329
 7611SOL     OW23731   1.099   1.825   0.156
 7611SOL    HW123732   1.087   1.896   0.087
 7611SOL    HW223733   1.192   1.827   0.191
 7612SOL     OW23734   3.699   1.686   4.305
 7612SOL    HW123735   3.765   1.761   4.299
 7612SOL    HW223736   3.638   1.702   4.383
 7613SOL     OW23737   4.817   2.001   1.294
 7613SOL    HW123738   4.848   1.918   1.247
 7613SOL    HW223739   4.725   1.987   1.330
 7614SOL     OW23740   3.892   2.480   1.737
 7614SOL    HW123741   3.943   2.394   1.743
 7614SOL    HW223742   3.811   2.474   1.796
 7615SOL     OW23743   5.170   4.868   6.871
 7615SOL    HW123744   5.237   4.938   6.895
 7615SOL    HW223745   5.203   4.815   6.793
 7616SOL     OW23746   0.804   4.279   4.155
 7616SOL    HW123747   0.705   4.271   4.161
 7616SOL    HW223748   0.847   4.214   4.218
 7617SOL     OW23749   3.175   5.834   4.007
 7617SOL    HW123750   3.136   5.750   3.969
 7617SOL    HW223751   3.147   5.842   4.103
 7618SOL     OW23752   1.216   2.405   6.307
 7618SOL    HW123753   1.222   2.317   6.355
 7618SOL    HW223754   1.208   2.388   6.209
 7619SOL     OW23755   5.567   3.583   5.886
 7619SOL    HW123756   5.523   3.575   5.796
 7619SOL    HW223757   5.503   3.555   5.957
 7620SOL     OW23758   3.499   0.404   1.087
 7620SOL    HW123759   3.589   0.448   1.084
 7620SOL    HW223760   3.455   0.413   0.997
 7621SOL     OW23761   0.947   0.537   0.112
 7621SOL    HW123762   0.854   0.501   0.118
 7621SOL    HW223763   1.012   0.461   0.113
 7622SOL     OW23764   5.185   2.695   1.921
 7622SOL    HW123765   5.097   2.731   1.949
 7622SOL    HW223766   5.235   2.663   2.002
 7623SOL     OW23767   4.677   5.637   6.327
 7623SOL    HW123768   4.699   5.564   6.391
 7623SOL    HW223769   4.715   5.615   6.237
 7624SOL     OW23770   0.508   2.037   3.735
 7624SOL    HW123771   0.583   2.103   3.743
 7624SOL    HW223772   0.515   1.989   3.647
 7625SOL     OW23773   5.273   1.429   0.472
 7625SOL    HW123774   5.351   1.462   0.419
 7625SOL    HW223775   5.305   1.395   0.560
 7626SOL     OW23776   0.081   6.777   4.969
 7626SOL    HW123777   0.143   6.787   4.891
 7626SOL    HW223778   0.073   6.680   4.993
 7627SOL     OW23779   6.283   3.480   0.543
 7627SOL    HW123780   6.208   3.508   0.602
 7627SOL    HW223781   6.266   3.510   0.449
 7628SOL     OW23782   3.067   0.910   1.336
 7628SOL    HW123783   3.013   0.994   1.328
 7628SOL    HW223784   3.019   0.835   1.290
 7629SOL     OW23785   6.356   6.209   2.760
 7629SOL    HW123786   6.387   6.295   2.801
 7629SOL    HW223787   6.431   6.143   2.758
 7630SOL     OW23788   6.198   6.496   2.140
 7630SOL    HW123789   6.201   6.430   2.066
 7630SOL    HW223790   6.103   6.518   2.162
 7631SOL     OW23791   1.164   1.852   5.189
 7631SOL    HW123792   1.240   1.842   5.125
 7631SOL    HW223793   1.162   1.945   5.225
 7632SOL     OW23794   3.894   2.082   1.215
 7632SOL    HW123795   3.804   2.079   1.258
 7632SOL    HW223796   3.885   2.116   1.121
 7633SOL     OW23797   5.639   3.208   0.488
 7633SOL    HW123798   5.557   3.186   0.541
 7633SOL    HW223799   5.719   3.175   0.537
 7634SOL     OW23800   1.162   1.176   2.171
 7634SOL    HW123801   1.206   1.195   2.083
 7634SOL    HW223802   1.112   1.256   2.202
 7635SOL     OW23803   2.578   5.651   5.428
 7635SOL    HW123804   2.646   5.616   5.363
 7635SOL    HW223805   2.606   5.626   5.521
 7636SOL     OW23806   1.213   1.277   3.714
 7636SOL    HW123807   1.177   1.184   3.704
 7636SOL    HW223808   1.311   1.272   3.735
 7637SOL     OW23809   1.745   6.756   3.896
 7637SOL    HW123810   1.772   6.783   3.988
 7637SOL    HW223811   1.826   6.726   3.846
 7638SOL     OW23812   5.561   5.677   1.612
 7638SOL    HW123813   5.573   5.613   1.536
 7638SOL    HW223814   5.572   5.771   1.579
 7639SOL     OW23815   1.454   2.080   6.543
 7639SOL    HW123816   1.380   2.027   6.503
 7639SOL    HW223817   1.521   2.018   6.585
 7640SOL     OW23818   2.215   2.069   0.312
 7640SOL    HW123819   2.299   2.085   0.261
 7640SOL    HW223820   2.208   2.134   0.388
 7641SOL     OW23821   0.846   4.570   2.047
 7641SOL    HW123822   0.779   4.626   2.096
 7641SOL    HW223823   0.918   4.543   2.110
 7642SOL     OW23824   2.889   1.825   2.774
 7642SOL    HW123825   2.969   1.786   2.819
 7642SOL    HW223826   2.839   1.881   2.839
 7643SOL     OW23827   5.019   2.523   3.533
 7643SOL    HW123828   4.930   2.489   3.503
 7643SOL    HW223829   5.034   2.496   3.628
 7644SOL     OW23830   6.264   2.079   2.416
 7644SOL    HW123831   6.214   2.051   2.498
 7644SOL    HW223832   6.354   2.115   2.443
 7645SOL     OW23833   4.933   5.132   6.161
 7645SOL    HW123834   4.966   5.057   6.218
 7645SOL    HW223835   4.896   5.095   6.076
 7646SOL     OW23836   1.705   2.091   2.404
 7646SOL    HW123837   1.753   2.025   2.463
 7646SOL    HW223838   1.611   2.059   2.388
 7647SOL     OW23839   0.898   3.346   1.736
 7647SOL    HW123840   0.969   3.369   1.803
 7647SOL    HW223841   0.902   3.411   1.660
 7648SOL     OW23842   4.737   2.432   3.462
 7648SOL    HW123843   4.705   2.524   3.481
 7648SOL    HW223844   4.714   2.372   3.539
 7649SOL     OW23845   0.362   0.364   2.180
 7649SOL    HW123846   0.444   0.324   2.139
 7649SOL    HW223847   0.294   0.291   2.195
 7650SOL     OW23848   6.331   3.131   2.219
 7650SOL    HW123849   6.266   3.207   2.219
 7650SOL    HW223850   6.327   3.084   2.131
 7651SOL     OW23851   2.360   6.870   0.002
 7651SOL    HW123852   2.397   6.850   0.093
 7651SOL    HW223853   2.349   6.968   7.021
 7652SOL     OW23854   6.590   3.811   4.216
 7652SOL    HW123855   6.650   3.791   4.293
 7652SOL    HW223856   6.644   3.849   4.141
 7653SOL     OW23857   1.992   1.250   0.721
 7653SOL    HW123858   2.043   1.165   0.717
 7653SOL    HW223859   1.946   1.266   0.633
 7654SOL     OW23860   4.859   2.459   3.123
 7654SOL    HW123861   4.834   2.527   3.192
 7654SOL    HW223862   4.784   2.449   3.058
 7655SOL     OW23863   4.064   0.397   3.972
 7655SOL    HW123864   4.008   0.466   3.926
 7655SOL    HW223865   4.098   0.331   3.905
 7656SOL     OW23866   0.560   5.883   5.970
 7656SOL    HW123867   0.597   5.822   5.901
 7656SOL    HW223868   0.467   5.911   5.944
 7657SOL     OW23869   3.191   2.178   2.747
 7657SOL    HW123870   3.113   2.130   2.707
 7657SOL    HW223871   3.268   2.175   2.684
 7658SOL     OW23872   4.619   7.028   6.111
 7658SOL    HW123873   4.617   0.087   6.157
 7658SOL    HW223874   4.593   0.009   6.016
 7659SOL     OW23875   5.688   6.795   0.295
 7659SOL    HW123876   5.706   6.809   0.393
 7659SOL    HW223877   5.639   6.708   0.283
 7660SOL     OW23878   5.784   5.708   3.903
 7660SOL    HW123879   5.832   5.621   3.904
 7660SOL    HW223880   5.808   5.759   3.820
 7661SOL     OW23881   5.982   1.958   4.639
 7661SOL    HW123882   5.926   1.977   4.558
 7661SOL    HW223883   5.922   1.945   4.718
 7662SOL     OW23884   1.632   2.472   1.744
 7662SOL    HW123885   1.720   2.425   1.747
 7662SOL    HW223886   1.567   2.425   1.804
 7663SOL     OW23887   6.862   5.628   6.361
 7663SOL    HW123888   6.959   5.635   6.336
 7663SOL    HW223889   6.809   5.599   6.282
 7664SOL     OW23890   3.200   6.856   2.851
 7664SOL    HW123891   3.179   6.811   2.764
 7664SOL    HW223892   3.174   6.796   2.926
 7665SOL     OW23893   3.359   6.921   3.670
 7665SOL    HW123894   3.287   6.986   3.691
 7665SOL    HW223895   3.439   6.969   3.634
 7666SOL     OW23896   0.116   0.030   1.328
 7666SOL    HW123897   0.059   7.022   1.255
 7666SOL    HW223898   0.209   7.023   1.320
 7667SOL     OW23899   5.002   5.686   0.287
 7667SOL    HW123900   5.044   5.648   0.369
 7667SOL    HW223901   5.055   5.659   0.207
 7668SOL     OW23902   3.421   3.938   1.566
 7668SOL    HW123903   3.520   3.930   1.551
 7668SOL    HW223904   3.375   3.953   1.479
 7669SOL     OW23905   5.147   1.141   4.545
 7669SOL    HW123906   5.072   1.159   4.482
 7669SOL    HW223907   5.119   1.164   4.638
 7670SOL     OW23908   1.417   6.059   6.570
 7670SOL    HW123909   1.357   6.126   6.614
 7670SOL    HW223910   1.509   6.067   6.610
 7671SOL     OW23911   4.511   1.162   4.154
 7671SOL    HW123912   4.536   1.110   4.236
 7671SOL    HW223913   4.586   1.159   4.088
 7672SOL     OW23914   5.988   0.067   3.409
 7672SOL    HW123915   5.977   6.998   3.396
 7672SOL    HW223916   6.069   0.085   3.465
 7673SOL     OW23917   2.023   5.098   0.704
 7673SOL    HW123918   2.105   5.056   0.665
 7673SOL    HW223919   2.024   5.196   0.686
 7674SOL     OW23920   6.703   1.719   4.075
 7674SOL    HW123921   6.631   1.730   4.144
 7674SOL    HW223922   6.790   1.699   4.119
 7675SOL     OW23923   5.059   0.678   2.229
 7675SOL    HW123924   5.131   0.694   2.161
 7675SOL    HW223925   4.991   0.751   2.223
 7676SOL     OW23926   0.590   2.218   6.672
 7676SOL    HW123927   0.526   2.141   6.685
 7676SOL    HW223928   0.596   2.270   6.757
 7677SOL     OW23929   1.721   2.705   1.636
 7677SOL    HW123930   1.681   2.615   1.652
 7677SOL    HW223931   1.802   2.696   1.578
 7678SOL     OW23932   1.527   1.037   6.143
 7678SOL    HW123933   1.453   1.100   6.119
 7678SOL    HW223934   1.490   0.946   6.155
 7679SOL     OW23935   1.420   5.853   5.149
 7679SOL    HW123936   1.427   5.899   5.061
 7679SOL    HW223937   1.441   5.756   5.137
 7680SOL     OW23938   2.480   2.896   6.897
 7680SOL    HW123939   2.558   2.857   6.847
 7680SOL    HW223940   2.493   2.883   6.995
 7681SOL     OW23941   3.277   0.286   0.191
 7681SOL    HW123942   3.336   0.361   0.160
 7681SOL    HW223943   3.182   0.315   0.186
 7682SOL     OW23944   2.288   6.892   1.706
 7682SOL    HW123945   2.276   6.812   1.648
 7682SOL    HW223946   2.385   6.903   1.728
 7683SOL     OW23947   6.596   2.692   3.151
 7683SOL    HW123948   6.543   2.777   3.152
 7683SOL    HW223949   6.689   2.711   3.183
 7684SOL     OW23950   5.856   2.431   6.853
 7684SOL    HW123951   5.935   2.370   6.860
 7684SOL    HW223952   5.777   2.380   6.819
 7685SOL     OW23953   3.528   2.409   6.911
 7685SOL    HW123954   3.553   2.333   6.971
 7685SOL    HW223955   3.446   2.384   6.859
 7686SOL     OW23956   4.265   0.402   3.126
 7686SOL    HW123957   4.257   0.328   3.194
 7686SOL    HW223958   4.349   0.388   3.072
 7687SOL     OW23959   5.412   6.023   6.200
 7687SOL    HW123960   5.364   6.094   6.149
 7687SOL    HW223961   5.429   6.054   6.293
 7688SOL     OW23962   6.705   0.048   6.078
 7688SOL    HW123963   6.781   0.033   6.142
 7688SOL    HW223964   6.736   0.033   5.985
 7689SOL     OW23965   5.068   6.088   3.846
 7689SOL    HW123966   5.141   6.085   3.914
 7689SOL    HW223967   5.076   6.009   3.784
 7690SOL     OW23968   5.763   5.605   2.519
 7690SOL    HW123969   5.791   5.564   2.432
 7690SOL    HW223970   5.729   5.534   2.580
 7691SOL     OW23971   4.964   3.126   3.994
 7691SOL    HW123972   4.908   3.054   3.953
 7691SOL    HW223973   5.032   3.084   4.055
 7692SOL     OW23974   0.831   6.965   1.002
 7692SOL    HW123975   0.930   6.978   1.006
 7692SOL    HW223976   0.801   6.915   1.084
 7693SOL     OW23977   4.527   0.972   6.772
 7693SOL    HW123978   4.491   0.881   6.795
 7693SOL    HW223979   4.495   1.038   6.840
 7694SOL     OW23980   0.765   4.443   3.622
 7694SOL    HW123981   0.792   4.388   3.701
 7694SOL    HW223982   0.683   4.496   3.644
 7695SOL     OW23983   4.296   0.460   1.005
 7695SOL    HW123984   4.327   0.495   1.093
 7695SOL    HW223985   4.218   0.515   0.973
 7696SOL     OW23986   6.836   2.269   4.120
 7696SOL    HW123987   6.830   2.178   4.162
 7696SOL    HW223988   6.931   2.287   4.096
 7697SOL     OW23989   2.383   1.076   2.777
 7697SOL    HW123990   2.449   1.147   2.751
 7697SOL    HW223991   2.404   0.991   2.729
 7698SOL     OW23992   0.048   3.389   4.333
 7698SOL    HW123993   0.019   3.381   4.238
 7698SOL    HW223994   0.135   3.438   4.337
 7699SOL     OW23995   2.558   5.820   6.834
 7699SOL    HW123996   2.656   5.823   6.817
 7699SOL    HW223997   2.510   5.853   6.753
 7700SOL     OW23998   4.607   6.591   5.259
 7700SOL    HW123999   4.601   6.689   5.278
 7700SOL    HW224000   4.594   6.576   5.161
 7701SOL     OW24001   6.424   1.475   6.267
 7701SOL    HW124002   6.362   1.397   6.281
 7701SOL    HW224003   6.477   1.490   6.351
 7702SOL     OW24004   3.908   6.451   6.029
 7702SOL    HW124005   3.892   6.506   6.111
 7702SOL    HW224006   3.846   6.480   5.956
 7703SOL     OW24007   6.489   1.405   5.106
 7703SOL    HW124008   6.452   1.475   5.046
 7703SOL    HW224009   6.438   1.320   5.093
 7704SOL     OW24010   4.165   4.761   5.831
 7704SOL    HW124011   4.225   4.750   5.751
 7704SOL    HW224012   4.216   4.807   5.904
 7705SOL     OW24013   3.450   4.640   5.442
 7705SOL    HW124014   3.376   4.637   5.375
 7705SOL    HW224015   3.473   4.735   5.463
 7706SOL     OW24016   5.861   1.011   5.675
 7706SOL    HW124017   5.942   1.030   5.731
 7706SOL    HW224018   5.779   1.025   5.731
 7707SOL     OW24019   0.265   5.527   6.313
 7707SOL    HW124020   0.361   5.555   6.316
 7707SOL    HW224021   0.254   5.441   6.364
 7708SOL     OW24022   5.065   5.917   5.022
 7708SOL    HW124023   5.102   6.005   5.052
 7708SOL    HW224024   4.979   5.899   5.070
 7709SOL     OW24025   5.091   2.908   2.449
 7709SOL    HW124026   5.009   2.959   2.477
 7709SOL    HW224027   5.096   2.904   2.350
 7710SOL     OW24028   2.251   0.069   0.881
 7710SOL    HW124029   2.191   0.012   0.937
 7710SOL    HW224030   2.207   0.158   0.865
 7711SOL     OW24031   6.396   6.539   5.222
 7711SOL    HW124032   6.335   6.616   5.239
 7711SOL    HW224033   6.390   6.511   5.126
 7712SOL     OW24034   6.869   5.354   1.307
 7712SOL    HW124035   6.777   5.389   1.323
 7712SOL    HW224036   6.894   5.371   1.211
 7713SOL     OW24037   2.379   4.088   0.707
 7713SOL    HW124038   2.286   4.051   0.697
 7713SOL    HW224039   2.387   4.172   0.653
 7714SOL     OW24040   6.330   4.782   4.575
 7714SOL    HW124041   6.235   4.767   4.549
 7714SOL    HW224042   6.349   4.880   4.578
 7715SOL     OW24043   5.182   0.851   0.920
 7715SOL    HW124044   5.174   0.832   1.018
 7715SOL    HW224045   5.103   0.905   0.891
 7716SOL     OW24046   4.730   2.911   2.954
 7716SOL    HW124047   4.681   2.991   2.919
 7716SOL    HW224048   4.828   2.921   2.936
 7717SOL     OW24049   2.578   1.576   4.889
 7717SOL    HW124050   2.537   1.508   4.827
 7717SOL    HW224051   2.526   1.579   4.974
 7718SOL     OW24052   1.853   1.771   3.197
 7718SOL    HW124053   1.920   1.724   3.254
 7718SOL    HW224054   1.877   1.759   3.101
 7719SOL     OW24055   0.264   3.354   3.766
 7719SOL    HW124056   0.165   3.365   3.754
 7719SOL    HW224057   0.283   3.263   3.802
 7720SOL     OW24058   6.628   6.248   0.810
 7720SOL    HW124059   6.586   6.166   0.770
 7720SOL    HW224060   6.625   6.323   0.743
 7721SOL     OW24061   1.973   4.623   3.047
 7721SOL    HW124062   2.018   4.658   2.965
 7721SOL    HW224063   1.994   4.526   3.058
 7722SOL     OW24064   0.328   5.331   2.739
 7722SOL    HW124065   0.420   5.352   2.705
 7722SOL    HW224066   0.299   5.403   2.802
 7723SOL     OW24067   6.869   3.781   0.716
 7723SOL    HW124068   6.956   3.736   0.735
 7723SOL    HW224069   6.832   3.747   0.629
 7724SOL     OW24070   2.026   4.501   2.156
 7724SOL    HW124071   2.090   4.463   2.089
 7724SOL    HW224072   1.941   4.449   2.154
 7725SOL     OW24073   5.072   2.247   2.807
 7725SOL    HW124074   5.014   2.227   2.727
 7725SOL    HW224075   5.097   2.344   2.806
 7726SOL     OW24076   0.087   4.250   3.811
 7726SOL    HW124077   0.048   4.158   3.813
 7726SOL    HW224078   0.172   4.249   3.758
 7727SOL     OW24079   6.109   1.982   3.836
 7727SOL    HW124080   6.112   2.082   3.843
 7727SOL    HW224081   6.197   1.944   3.864
 7728SOL     OW24082   1.239   3.150   2.947
 7728SOL    HW124083   1.152   3.106   2.923
 7728SOL    HW224084   1.301   3.144   2.869
 7729SOL     OW24085   6.100   2.549   1.214
 7729SOL    HW124086   6.028   2.531   1.147
 7729SOL    HW224087   6.160   2.621   1.179
 7730SOL     OW24088   5.713   5.957   2.214
 7730SOL    HW124089   5.741   5.918   2.301
 7730SOL    HW224090   5.748   5.900   2.139
 7731SOL     OW24091   6.474   1.055   0.822
 7731SOL    HW124092   6.451   0.958   0.831
 7731SOL    HW224093   6.423   1.094   0.746
 7732SOL     OW24094   4.770   5.828   0.868
 7732SOL    HW124095   4.810   5.739   0.890
 7732SOL    HW224096   4.718   5.861   0.947
 7733SOL     OW24097   4.023   6.904   1.317
 7733SOL    HW124098   3.973   6.976   1.269
 7733SOL    HW224099   4.106   6.881   1.265
 7734SOL     OW24100   1.571   3.398   3.506
 7734SOL    HW124101   1.654   3.384   3.452
 7734SOL    HW224102   1.573   3.488   3.549
 7735SOL     OW24103   4.735   4.588   6.845
 7735SOL    HW124104   4.705   4.493   6.839
 7735SOL    HW224105   4.725   4.632   6.755
 7736SOL     OW24106   5.224   4.642   0.543
 7736SOL    HW124107   5.231   4.679   0.636
 7736SOL    HW224108   5.288   4.691   0.483
 7737SOL     OW24109   4.432   1.952   0.942
 7737SOL    HW124110   4.375   1.973   1.021
 7737SOL    HW224111   4.471   2.036   0.906
 7738SOL     OW24112   2.526   5.891   0.995
 7738SOL    HW124113   2.590   5.958   0.958
 7738SOL    HW224114   2.529   5.894   1.095
 7739SOL     OW24115   0.764   2.417   0.916
 7739SOL    HW124116   0.710   2.335   0.897
 7739SOL    HW224117   0.732   2.493   0.858
 7740SOL     OW24118   0.059   6.914   2.791
 7740SOL    HW124119   6.989   6.918   2.783
 7740SOL    HW224120   0.085   6.834   2.845
 7741SOL     OW24121   1.719   5.524   4.613
 7741SOL    HW124122   1.739   5.622   4.614
 7741SOL    HW224123   1.742   5.485   4.703
 7742SOL     OW24124   6.328   2.104   3.197
 7742SOL    HW124125   6.374   2.180   3.151
 7742SOL    HW224126   6.380   2.078   3.279
 7743SOL     OW24127   4.402   2.965   5.862
 7743SOL    HW124128   4.330   3.033   5.847
 7743SOL    HW224129   4.402   2.899   5.786
 7744SOL     OW24130   6.942   6.278   4.014
 7744SOL    HW124131   6.899   6.227   3.939
 7744SOL    HW224132   6.947   6.221   4.095
 7745SOL     OW24133   3.860   2.089   6.346
 7745SOL    HW124134   3.872   2.109   6.443
 7745SOL    HW224135   3.912   2.156   6.291
 7746SOL     OW24136   1.922   7.002   0.237
 7746SOL    HW124137   1.963   6.920   0.196
 7746SOL    HW224138   1.960   0.054   0.193
 7747SOL     OW24139   4.901   6.603   0.819
 7747SOL    HW124140   4.999   6.600   0.841
 7747SOL    HW224141   4.882   6.543   0.742
 7748SOL     OW24142   3.171   3.667   5.862
 7748SOL    HW124143   3.229   3.660   5.943
 7748SOL    HW224144   3.084   3.621   5.880
 7749SOL     OW24145   4.945   3.231   5.449
 7749SOL    HW124146   5.016   3.223   5.379
 7749SOL    HW224147   4.858   3.198   5.411
 7750SOL     OW24148   0.823   6.555   1.709
 7750SOL    HW124149   0.836   6.464   1.748
 7750SOL    HW224150   0.743   6.598   1.751
 7751SOL     OW24151   0.940   1.495   2.050
 7751SOL    HW124152   1.025   1.458   2.012
 7751SOL    HW224153   0.906   1.568   1.990
 7752SOL     OW24154   4.933   0.601   4.541
 7752SOL    HW124155   4.864   0.609   4.612
 7752SOL    HW224156   5.023   0.587   4.583
 7753SOL     OW24157   1.843   1.236   4.150
 7753SOL    HW124158   1.843   1.254   4.249
 7753SOL    HW224159   1.902   1.303   4.105
 7754SOL     OW24160   3.464   5.986   1.983
 7754SOL    HW124161   3.545   6.041   2.005
 7754SOL    HW224162   3.388   6.047   1.961
 7755SOL     OW24163   1.835   4.094   6.678
 7755SOL    HW124164   1.855   4.001   6.710
 7755SOL    HW224165   1.891   4.159   6.729
 7756SOL     OW24166   2.211   5.669   1.422
 7756SOL    HW124167   2.214   5.622   1.334
 7756SOL    HW224168   2.127   5.724   1.427
 7757SOL     OW24169   0.128   4.565   1.949
 7757SOL    HW124170   0.172   4.641   1.997
 7757SOL    HW224171   0.146   4.480   1.998
 7758SOL     OW24172   1.543   0.789   5.655
 7758SOL    HW124173   1.488   0.790   5.572
 7758SOL    HW224174   1.543   0.880   5.697
 7759SOL     OW24175   2.563   2.461   6.229
 7759SOL    HW124176   2.575   2.482   6.132
 7759SOL    HW224177   2.596   2.368   6.247
 7760SOL     OW24178   4.359   1.994   1.792
 7760SOL    HW124179   4.328   1.903   1.765
 7760SOL    HW224180   4.334   2.060   1.722
 7761SOL     OW24181   5.294   5.359   4.708
 7761SOL    HW124182   5.210   5.412   4.693
 7761SOL    HW224183   5.294   5.322   4.801
 7762SOL     OW24184   0.279   0.217   3.904
 7762SOL    HW124185   0.242   0.147   3.966
 7762SOL    HW224186   0.219   0.228   3.826
 7763SOL     OW24187   2.702   0.467   5.340
 7763SOL    HW124188   2.616   0.418   5.330
 7763SOL    HW224189   2.691   0.561   5.307
 7764SOL     OW24190   3.302   3.607   5.630
 7764SOL    HW124191   3.259   3.680   5.578
 7764SOL    HW224192   3.287   3.623   5.728
 7765SOL     OW24193   0.012   3.412   4.044
 7765SOL    HW124194   6.968   3.476   4.067
 7765SOL    HW224195   7.015   3.356   3.966
 7766SOL     OW24196   0.664   4.608   0.149
 7766SOL    HW124197   0.577   4.559   0.162
 7766SOL    HW224198   0.739   4.555   0.189
 7767SOL     OW24199   3.305   0.599   2.643
 7767SOL    HW124200   3.294   0.513   2.593
 7767SOL    HW224201   3.279   0.585   2.739
 7768SOL     OW24202   4.230   4.771   2.924
 7768SOL    HW124203   4.135   4.743   2.910
 7768SOL    HW224204   4.286   4.689   2.938
 7769SOL     OW24205   3.656   2.266   5.495
 7769SOL    HW124206   3.751   2.250   5.520
 7769SOL    HW224207   3.645   2.255   5.396
 7770SOL     OW24208   1.298   3.183   4.791
 7770SOL    HW124209   1.308   3.281   4.807
 7770SOL    HW224210   1.222   3.167   4.728
 7771SOL     OW24211   2.895   2.685   5.701
 7771SOL    HW124212   2.910   2.587   5.685
 7771SOL    HW224213   2.983   2.732   5.705
 7772SOL     OW24214   5.242   0.917   1.176
 7772SOL    HW124215   5.316   0.888   1.235
 7772SOL    HW224216   5.167   0.953   1.231
 7773SOL     OW24217   3.236   5.733   0.343
 7773SOL    HW124218   3.313   5.689   0.297
 7773SOL    HW224219   3.200   5.671   0.413
 7774SOL     OW24220   5.227   1.491   2.582
 7774SOL    HW124221   5.244   1.586   2.607
 7774SOL    HW224222   5.171   1.447   2.652
 7775SOL     OW24223   3.463   1.007   6.906
 7775SOL    HW124224   3.524   1.049   6.973
 7775SOL    HW224225   3.444   1.072   6.833
 7776SOL     OW24226   1.082   6.766   5.427
 7776SOL    HW124227   1.106   6.811   5.341
 7776SOL    HW224228   1.098   6.667   5.418
 7777SOL     OW24229   5.725   4.945   3.872
 7777SOL    HW124230   5.715   4.851   3.839
 7777SOL    HW224231   5.649   5.001   3.840
 7778SOL     OW24232   6.177   4.247   2.977
 7778SOL    HW124233   6.115   4.185   2.928
 7778SOL    HW224234   6.272   4.224   2.952
 7779SOL     OW24235   3.282   6.186   1.966
 7779SOL    HW124236   3.219   6.248   1.919
 7779SOL    HW224237   3.344   6.238   2.024
 7780SOL     OW24238   6.417   5.758   5.287
 7780SOL    HW124239   6.507   5.738   5.326
 7780SOL    HW224240   6.396   5.691   5.215
 7781SOL     OW24241   1.741   2.822   0.664
 7781SOL    HW124242   1.777   2.890   0.728
 7781SOL    HW224243   1.817   2.774   0.620
 7782SOL     OW24244   6.167   5.183   3.357
 7782SOL    HW124245   6.133   5.106   3.303
 7782SOL    HW224246   6.170   5.265   3.300
 7783SOL     OW24247   0.930   0.147   5.276
 7783SOL    HW124248   1.004   0.093   5.236
 7783SOL    HW224249   0.921   0.234   5.227
 7784SOL     OW24250   2.419   2.148   2.203
 7784SOL    HW124251   2.504   2.163   2.151
 7784SOL    HW224252   2.354   2.096   2.147
 7785SOL     OW24253   1.362   6.350   2.485
 7785SOL    HW124254   1.278   6.391   2.451
 7785SOL    HW224255   1.439   6.382   2.430
 7786SOL     OW24256   4.428   0.489   6.582
 7786SOL    HW124257   4.473   0.408   6.619
 7786SOL    HW224258   4.493   0.541   6.527
 7787SOL     OW24259   2.612   3.266   1.171
 7787SOL    HW124260   2.604   3.268   1.270
 7787SOL    HW224261   2.701   3.302   1.144
 7788SOL     OW24262   1.505   4.704   1.398
 7788SOL    HW124263   1.431   4.642   1.373
 7788SOL    HW224264   1.467   4.784   1.444
 7789SOL     OW24265   3.293   0.693   6.452
 7789SOL    HW124266   3.265   0.654   6.539
 7789SOL    HW224267   3.390   0.717   6.455
 7790SOL     OW24268   5.730   5.064   2.239
 7790SOL    HW124269   5.660   5.002   2.207
 7790SOL    HW224270   5.820   5.030   2.212
 7791SOL     OW24271   2.422   5.660   1.653
 7791SOL    HW124272   2.417   5.587   1.721
 7791SOL    HW224273   2.357   5.642   1.579
 7792SOL     OW24274   0.748   1.512   2.700
 7792SOL    HW124275   0.800   1.597   2.691
 7792SOL    HW224276   0.793   1.452   2.767
 7793SOL     OW24277   4.427   1.673   0.419
 7793SOL    HW124278   4.462   1.727   0.342
 7793SOL    HW224279   4.362   1.604   0.385
 7794SOL     OW24280   0.791   5.361   3.091
 7794SOL    HW124281   0.859   5.335   3.022
 7794SOL    HW224282   0.808   5.309   3.175
 7795SOL     OW24283   2.571   5.412   5.934
 7795SOL    HW124284   2.631   5.386   6.009
 7795SOL    HW224285   2.619   5.401   5.847
 7796SOL     OW24286   3.835   3.280   6.328
 7796SOL    HW124287   3.890   3.210   6.281
 7796SOL    HW224288   3.768   3.236   6.388
 7797SOL     OW24289   0.668   5.477   3.732
 7797SOL    HW124290   0.630   5.489   3.824
 7797SOL    HW224291   0.615   5.532   3.668
 7798SOL     OW24292   0.407   2.004   1.451
 7798SOL    HW124293   0.458   2.011   1.537
 7798SOL    HW224294   0.358   2.090   1.435
 7799SOL     OW24295   2.709   6.438   3.468
 7799SOL    HW124296   2.686   6.497   3.390
 7799SOL    HW224297   2.630   6.380   3.489
 7800SOL     OW24298   0.516   6.104   1.132
 7800SOL    HW124299   0.511   6.173   1.204
 7800SOL    HW224300   0.606   6.061   1.133
 7801SOL     OW24301   1.261   2.502   2.387
 7801SOL    HW124302   1.281   2.514   2.484
 7801SOL    HW224303   1.164   2.519   2.370
 7802SOL     OW24304   6.651   4.146   5.693
 7802SOL    HW124305   6.642   4.230   5.748
 7802SOL    HW224306   6.571   4.089   5.706
 7803SOL     OW24307   5.127   2.445   5.392
 7803SOL    HW124308   5.036   2.422   5.426
 7803SOL    HW224309   5.133   2.544   5.378
 7804SOL     OW24310   2.460   2.202   4.601
 7804SOL    HW124311   2.485   2.108   4.579
 7804SOL    HW224312   2.363   2.216   4.584
 7805SOL     OW24313   5.466   2.425   1.424
 7805SOL    HW124314   5.480   2.521   1.449
 7805SOL    HW224315   5.480   2.367   1.504
 7806SOL     OW24316   6.273   2.364   5.457
 7806SOL    HW124317   6.361   2.324   5.432
 7806SOL    HW224318   6.241   2.424   5.383
 7807SOL     OW24319   2.465   4.831   6.100
 7807SOL    HW124320   2.504   4.774   6.027
 7807SOL    HW224321   2.435   4.772   6.175
 7808SOL     OW24322   5.242   4.262   2.738
 7808SOL    HW124323   5.278   4.212   2.816
 7808SOL    HW224324   5.238   4.360   2.760
 7809SOL     OW24325   5.001   4.747   3.569
 7809SOL    HW124326   4.979   4.651   3.584
 7809SOL    HW224327   4.934   4.804   3.617
 7810SOL     OW24328   4.062   6.184   5.090
 7810SOL    HW124329   4.040   6.086   5.087
 7810SOL    HW224330   4.022   6.224   5.173
 7811SOL     OW24331   1.153   5.617   2.183
 7811SOL    HW124332   1.232   5.676   2.200
 7811SOL    HW224333   1.070   5.662   2.216
 7812SOL     OW24334   2.319   2.964   5.617
 7812SOL    HW124335   2.378   3.035   5.579
 7812SOL    HW224336   2.268   3.002   5.694
 7813SOL     OW24337   5.865   2.288   1.261
 7813SOL    HW124338   5.830   2.381   1.256
 7813SOL    HW224339   5.942   2.284   1.325
 7814SOL     OW24340   6.594   3.304   2.098
 7814SOL    HW124341   6.581   3.214   2.138
 7814SOL    HW224342   6.528   3.368   2.139
 7815SOL     OW24343   6.136   2.763   5.494
 7815SOL    HW124344   6.068   2.780   5.423
 7815SOL    HW224345   6.134   2.839   5.560
 7816SOL     OW24346   0.730   2.005   5.118
 7816SOL    HW124347   0.760   2.092   5.157
 7816SOL    HW224348   0.630   2.004   5.111
 7817SOL     OW24349   3.170   3.111   6.656
 7817SOL    HW124350   3.113   3.029   6.656
 7817SOL    HW224351   3.199   3.131   6.562
 7818SOL     OW24352   5.650   1.360   2.347
 7818SOL    HW124353   5.737   1.328   2.309
 7818SOL    HW224354   5.659   1.371   2.446
 7819SOL     OW24355   1.222   3.632   4.320
 7819SOL    HW124356   1.143   3.617   4.380
 7819SOL    HW224357   1.206   3.586   4.233
 7820SOL     OW24358   1.395   0.786   5.423
 7820SOL    HW124359   1.345   0.705   5.456
 7820SOL    HW224360   1.340   0.831   5.352
 7821SOL     OW24361   6.296   5.746   0.069
 7821SOL    HW124362   6.241   5.671   0.105
 7821SOL    HW224363   6.356   5.711   7.026
 7822SOL     OW24364   1.309   1.167   4.604
 7822SOL    HW124365   1.337   1.156   4.699
 7822SOL    HW224366   1.285   1.262   4.586
 7823SOL     OW24367   1.607   3.802   6.823
 7823SOL    HW124368   1.692   3.800   6.771
 7823SOL    HW224369   1.598   3.890   6.870
 7824SOL     OW24370   5.340   2.509   2.343
 7824SOL    HW124371   5.273   2.578   2.371
 7824SOL    HW224372   5.324   2.424   2.394
 7825SOL     OW24373   2.708   3.020   1.510
 7825SOL    HW124374   2.719   3.099   1.451
 7825SOL    HW224375   2.796   2.973   1.522
 7826SOL     OW24376   6.373   1.070   0.386
 7826SOL    HW124377   6.343   1.087   0.479
 7826SOL    HW224378   6.446   1.001   0.386
 7827SOL     OW24379   4.811   5.215   1.687
 7827SOL    HW124380   4.717   5.195   1.658
 7827SOL    HW224381   4.814   5.306   1.729
 7828SOL     OW24382   0.599   6.323   0.504
 7828SOL    HW124383   0.619   6.388   0.578
 7828SOL    HW224384   0.573   6.373   0.421
 7829SOL     OW24385   2.957   2.986   1.688
 7829SOL    HW124386   2.941   2.894   1.723
 7829SOL    HW224387   2.997   3.043   1.760
 7830SOL     OW24388   6.237   3.350   6.677
 7830SOL    HW124389   6.273   3.320   6.766
 7830SOL    HW224390   6.149   3.306   6.661
 7831SOL     OW24391   1.406   3.414   0.554
 7831SOL    HW124392   1.409   3.438   0.651
 7831SOL    HW224393   1.357   3.484   0.504
 7832SOL     OW24394   2.725   1.905   5.325
 7832SOL    HW124395   2.633   1.939   5.339
 7832SOL    HW224396   2.756   1.929   5.233
 7833SOL     OW24397   0.657   6.609   0.397
 7833SOL    HW124398   0.725   6.628   0.326
 7833SOL    HW224399   0.567   6.636   0.365
 7834SOL     OW24400   0.620   0.760   1.824
 7834SOL    HW124401   0.531   0.805   1.816
 7834SOL    HW224402   0.611   0.676   1.878
 7835SOL     OW24403   2.246   2.931   4.732
 7835SOL    HW124404   2.156   2.907   4.768
 7835SOL    HW224405   2.298   2.981   4.802
 7836SOL     OW24406   3.394   6.601   6.786
 7836SOL    HW124407   3.412   6.544   6.707
 7836SOL    HW224408   3.320   6.561   6.841
 7837SOL     OW24409   5.930   6.240   2.516
 7837SOL    HW124410   5.859   6.228   2.446
 7837SOL    HW224411   6.017   6.206   2.480
 7838SOL     OW24412   4.309   7.018   4.991
 7838SOL    HW124413   4.290   0.015   5.085
 7838SOL    HW224414   4.229   6.969   4.953
 7839SOL     OW24415   6.081   4.761   4.848
 7839SOL    HW124416   6.036   4.782   4.762
 7839SOL    HW224417   6.039   4.814   4.922
 7840SOL     OW24418   5.126   3.023   4.195
 7840SOL    HW124419   5.060   3.045   4.267
 7840SOL    HW224420   5.154   2.928   4.204
 7841SOL     OW24421   0.109   2.233   6.630
 7841SOL    HW124422   0.121   2.258   6.726
 7841SOL    HW224423   0.176   2.163   6.605
 7842SOL     OW24424   2.282   1.563   3.181
 7842SOL    HW124425   2.197   1.588   3.228
 7842SOL    HW224426   2.327   1.646   3.147
 7843SOL     OW24427   5.822   4.323   1.165
 7843SOL    HW124428   5.879   4.256   1.212
 7843SOL    HW224429   5.849   4.328   1.069
 7844SOL     OW24430   4.271   0.851   3.468
 7844SOL    HW124431   4.247   0.923   3.404
 7844SOL    HW224432   4.284   0.765   3.418
 7845SOL     OW24433   6.672   0.985   4.366
 7845SOL    HW124434   6.741   0.949   4.302
 7845SOL    HW224435   6.710   1.064   4.414
 7846SOL     OW24436   2.173   0.557   1.397
 7846SOL    HW124437   2.258   0.553   1.450
 7846SOL    HW224438   2.157   0.652   1.369
 7847SOL     OW24439   0.226   0.379   0.501
 7847SOL    HW124440   0.194   0.314   0.569
 7847SOL    HW224441   0.319   0.356   0.472
 7848SOL     OW24442   4.039   3.739   1.396
 7848SOL    HW124443   4.034   3.664   1.462
 7848SOL    HW224444   4.050   3.826   1.445
 7849SOL     OW24445   4.933   3.033   4.375
 7849SOL    HW124446   4.917   3.132   4.367
 7849SOL    HW224447   4.918   3.005   4.470
 7850SOL     OW24448   0.047   1.109   5.323
 7850SOL    HW124449   0.078   1.051   5.398
 7850SOL    HW224450   7.012   1.177   5.358
 7851SOL     OW24451   5.981   0.280   0.042
 7851SOL    HW124452   5.902   0.232   0.003
 7851SOL    HW224453   6.059   0.272   7.010
 7852SOL     OW24454   3.265   6.344   6.890
 7852SOL    HW124455   3.355   6.305   6.872
 7852SOL    HW224456   3.198   6.305   6.827
 7853SOL     OW24457   2.839   2.247   0.581
 7853SOL    HW124458   2.864   2.151   0.594
 7853SOL    HW224459   2.879   2.302   0.655
 7854SOL     OW24460   3.294   3.992   2.027
 7854SOL    HW124461   3.312   4.036   2.115
 7854SOL    HW224462   3.376   3.998   1.970
 7855SOL     OW24463   4.400   5.063   6.503
 7855SOL    HW124464   4.418   5.149   6.455
 7855SOL    HW224465   4.308   5.031   6.481
 7856SOL     OW24466   5.868   3.764   5.178
 7856SOL    HW124467   5.790   3.821   5.153
 7856SOL    HW224468   5.848   3.669   5.155
 7857SOL     OW24469   6.034   1.770   5.886
 7857SOL    HW124470   6.028   1.859   5.840
 7857SOL    HW224471   6.111   1.770   5.950
 7858SOL     OW24472   6.392   4.151   3.902
 7858SOL    HW124473   6.325   4.218   3.932
 7858SOL    HW224474   6.473   4.198   3.865
 7859SOL     OW24475   1.127   4.906   5.851
 7859SOL    HW124476   1.046   4.963   5.838
 7859SOL    HW224477   1.145   4.853   5.768
 7860SOL     OW24478   4.009   6.776   1.566
 7860SOL    HW124479   4.014   6.802   1.470
 7860SOL    HW224480   4.094   6.802   1.612
 7861SOL     OW24481   3.917   5.376   1.253
 7861SOL    HW124482   3.964   5.289   1.262
 7861SOL    HW224483   3.888   5.389   1.158
 7862SOL     OW24484   2.936   4.088   1.758
 7862SOL    HW124485   2.965   4.182   1.739
 7862SOL    HW224486   2.872   4.058   1.687
 7863SOL     OW24487   6.575   6.213   2.160
 7863SOL    HW124488   6.545   6.305   2.184
 7863SOL    HW224489   6.658   6.190   2.211
 7864SOL     OW24490   0.667   5.674   5.025
 7864SOL    HW124491   0.616   5.761   5.022
 7864SOL    HW224492   0.755   5.686   4.980
 7865SOL     OW24493   3.529   6.274   3.181
 7865SOL    HW124494   3.570   6.295   3.269
 7865SOL    HW224495   3.584   6.206   3.133
 7866SOL     OW24496   2.516   1.842   3.355
 7866SOL    HW124497   2.520   1.940   3.336
 7866SOL    HW224498   2.555   1.823   3.445
 7867SOL     OW24499   6.324   5.884   2.298
 7867SOL    HW124500   6.394   5.882   2.226
 7867SOL    HW224501   6.362   5.928   2.379
 7868SOL     OW24502   5.105   6.418   0.938
 7868SOL    HW124503   5.139   6.423   0.844
 7868SOL    HW224504   5.031   6.351   0.943
 7869SOL     OW24505   0.001   3.005   2.029
 7869SOL    HW124506   0.004   2.911   2.064
 7869SOL    HW224507   6.936   3.029   2.007
 7870SOL     OW24508   6.830   5.491   3.962
 7870SOL    HW124509   6.746   5.461   4.007
 7870SOL    HW224510   6.854   5.426   3.889
 7871SOL     OW24511   5.984   2.843   3.064
 7871SOL    HW124512   5.985   2.898   2.980
 7871SOL    HW224513   5.963   2.748   3.041
 7872SOL     OW24514   0.375   3.448   2.841
 7872SOL    HW124515   0.436   3.403   2.906
 7872SOL    HW224516   0.282   3.449   2.877
 7873SOL     OW24517   0.040   6.442   6.169
 7873SOL    HW124518   0.026   6.367   6.234
 7873SOL    HW224519   0.107   6.414   6.100
 7874SOL     OW24520   5.825   1.646   6.980
 7874SOL    HW124521   5.731   1.674   7.000
 7874SOL    HW224522   5.883   1.727   6.974
 7875SOL     OW24523   5.038   3.861   6.497
 7875SOL    HW124524   4.943   3.881   6.475
 7875SOL    HW224525   5.078   3.937   6.548
 7876SOL     OW24526   6.800   0.219   4.229
 7876SOL    HW124527   6.735   0.186   4.161
 7876SOL    HW224528   6.824   0.145   4.291
 7877SOL     OW24529   6.504   2.671   2.833
 7877SOL    HW124530   6.505   2.752   2.774
 7877SOL    HW224531   6.570   2.682   2.906
 7878SOL     OW24532   4.755   4.649   2.294
 7878SOL    HW124533   4.792   4.728   2.245
 7878SOL    HW224534   4.730   4.677   2.387
 7879SOL     OW24535   4.980   6.378   3.400
 7879SOL    HW124536   5.047   6.310   3.429
 7879SOL    HW224537   4.893   6.333   3.380
 7880SOL     OW24538   0.639   6.201   6.858
 7880SOL    HW124539   0.620   6.266   6.785
 7880SOL    HW224540   0.709   6.136   6.828
 7881SOL     OW24541   0.337   4.337   5.330
 7881SOL    HW124542   0.297   4.428   5.316
 7881SOL    HW224543   0.426   4.332   5.285
 7882SOL     OW24544   0.717   2.970   2.585
 7882SOL    HW124545   0.740   3.034   2.657
 7882SOL    HW224546   0.793   2.963   2.521
 7883SOL     OW24547   2.832   1.243   2.987
 7883SOL    HW124548   2.772   1.209   3.058
 7883SOL    HW224549   2.791   1.323   2.943
 7884SOL     OW24550   1.681   4.570   3.842
 7884SOL    HW124551   1.757   4.517   3.805
 7884SOL    HW224552   1.666   4.651   3.785
 7885SOL     OW24553   5.887   5.732   2.758
 7885SOL    HW124554   5.841   5.699   2.676
 7885SOL    HW224555   5.870   5.668   2.833
 7886SOL     OW24556   4.827   3.034   1.681
 7886SOL    HW124557   4.854   2.938   1.681
 7886SOL    HW224558   4.746   3.046   1.738
 7887SOL     OW24559   4.036   3.473   6.790
 7887SOL    HW124560   3.998   3.424   6.868
 7887SOL    HW224561   3.967   3.536   6.754
 7888SOL     OW24562   6.107   1.545   4.252
 7888SOL    HW124563   6.165   1.623   4.276
 7888SOL    HW224564   6.123   1.471   4.317
 7889SOL     OW24565   5.665   5.400   0.459
 7889SOL    HW124566   5.675   5.350   0.373
 7889SOL    HW224567   5.741   5.376   0.520
 7890SOL     OW24568   1.272   2.660   4.211
 7890SOL    HW124569   1.346   2.725   4.194
 7890SOL    HW224570   1.253   2.657   4.309
 7891SOL     OW24571   0.049   2.450   4.084
 7891SOL    HW124572   0.128   2.485   4.134
 7891SOL    HW224573   0.051   2.483   3.990
 7892SOL     OW24574   1.528   3.078   5.439
 7892SOL    HW124575   1.582   3.051   5.359
 7892SOL    HW224576   1.540   3.175   5.456
 7893SOL     OW24577   6.303   0.344   1.905
 7893SOL    HW124578   6.294   0.403   1.985
 7893SOL    HW224579   6.238   0.268   1.913
 7894SOL     OW24580   2.333   1.479   5.897
 7894SOL    HW124581   2.357   1.384   5.880
 7894SOL    HW224582   2.287   1.517   5.817
 7895SOL     OW24583   3.671   6.166   3.817
 7895SOL    HW124584   3.722   6.104   3.877
 7895SOL    HW224585   3.573   6.143   3.823
 7896SOL     OW24586   4.356   2.392   1.833
 7896SOL    HW124587   4.313   2.321   1.777
 7896SOL    HW224588   4.373   2.473   1.777
 7897SOL     OW24589   4.166   3.996   6.471
 7897SOL    HW124590   4.192   4.005   6.567
 7897SOL    HW224591   4.149   3.900   6.450
 7898SOL     OW24592   5.065   0.418   4.735
 7898SOL    HW124593   5.065   0.343   4.669
 7898SOL    HW224594   5.129   0.489   4.706
 7899SOL     OW24595   5.085   5.229   1.629
 7899SOL    HW124596   5.101   5.159   1.558
 7899SOL    HW224597   4.990   5.225   1.658
 7900SOL     OW24598   0.508   4.119   0.775
 7900SOL    HW124599   0.504   4.054   0.699
 7900SOL    HW224600   0.421   4.166   0.783
 7901SOL     OW24601   5.358   1.072   6.208
 7901SOL    HW124602   5.286   1.043   6.272
 7901SOL    HW224603   5.445   1.032   6.237
 7902SOL     OW24604   0.088   6.017   2.845
 7902SOL    HW124605   0.061   5.932   2.890
 7902SOL    HW224606   0.092   6.090   2.913
 7903SOL     OW24607   2.675   1.771   4.294
 7903SOL    HW124608   2.756   1.827   4.313
 7903SOL    HW224609   2.625   1.812   4.217
 7904SOL     OW24610   6.165   0.942   2.326
 7904SOL    HW124611   6.076   0.896   2.322
 7904SOL    HW224612   6.219   0.915   2.247
 7905SOL     OW24613   5.660   1.086   0.802
 7905SOL    HW124614   5.620   1.083   0.711
 7905SOL    HW224615   5.604   1.032   0.865
 7906SOL     OW24616   1.676   5.061   0.896
 7906SOL    HW124617   1.752   5.112   0.938
 7906SOL    HW224618   1.712   5.002   0.823
 7907SOL     OW24619   5.985   0.477   2.569
 7907SOL    HW124620   6.008   0.429   2.654
 7907SOL    HW224621   5.982   0.576   2.587
 7908SOL     OW24622   0.571   1.182   6.317
 7908SOL    HW124623   0.494   1.161   6.257
 7908SOL    HW224624   0.655   1.187   6.263
 7909SOL     OW24625   5.424   4.161   2.549
 7909SOL    HW124626   5.364   4.211   2.610
 7909SOL    HW224627   5.462   4.082   2.596
 7910SOL     OW24628   2.082   3.426   0.875
 7910SOL    HW124629   2.035   3.400   0.959
 7910SOL    HW224630   2.178   3.398   0.880
 7911SOL     OW24631   0.985   4.008   0.903
 7911SOL    HW124632   0.980   4.088   0.843
 7911SOL    HW224633   0.917   4.016   0.976
 7912SOL     OW24634   5.055   5.213   0.401
 7912SOL    HW124635   5.010   5.125   0.383
 7912SOL    HW224636   5.082   5.254   0.314
 7913SOL     OW24637   0.748   3.852   0.463
 7913SOL    HW124638   0.744   3.811   0.372
 7913SOL    HW224639   0.721   3.784   0.532
 7914SOL     OW24640   6.650   5.090   5.578
 7914SOL    HW124641   6.735   5.069   5.530
 7914SOL    HW224642   6.593   5.007   5.584
 7915SOL     OW24643   3.804   0.478   3.034
 7915SOL    HW124644   3.896   0.498   3.002
 7915SOL    HW224645   3.773   0.391   2.997
 7916SOL     OW24646   0.711   0.077   4.632
 7916SOL    HW124647   0.750   0.003   4.578
 7916SOL    HW224648   0.751   0.075   4.724
 7917SOL     OW24649   4.030   2.618   0.067
 7917SOL    HW124650   3.993   2.649   7.009
 7917SOL    HW224651   3.976   2.541   0.101
 7918SOL     OW24652   2.149   0.919   4.944
 7918SOL    HW124653   2.056   0.883   4.948
 7918SOL    HW224654   2.155   0.991   4.874
 7919SOL     OW24655   1.485   4.928   3.301
 7919SOL    HW124656   1.540   4.845   3.302
 7919SOL    HW224657   1.535   5.001   3.254
 7920SOL     OW24658   4.972   0.757   1.245
 7920SOL    HW124659   5.059   0.785   1.204
 7920SOL    HW224660   4.984   0.748   1.344
 7921SOL     OW24661   5.124   1.869   1.663
 7921SOL    HW124662   5.136   1.772   1.646
 7921SOL    HW224663   5.214   1.912   1.672
 7922SOL     OW24664   0.980   6.329   7.001
 7922SOL    HW124665   1.035   6.254   6.963
 7922SOL    HW224666   1.028   6.416   6.985
 7923SOL     OW24667   4.200   1.770   6.824
 7923SOL    HW124668   4.276   1.730   6.774
 7923SOL    HW224669   4.131   1.804   6.759
 7924SOL     OW24670   5.984   6.622   1.469
 7924SOL    HW124671   6.063   6.560   1.468
 7924SOL    HW224672   6.017   6.716   1.481
 7925SOL     OW24673   2.803   6.385   0.553
 7925SOL    HW124674   2.783   6.388   0.455
 7925SOL    HW224675   2.901   6.369   0.566
 7926SOL     OW24676   5.704   0.609   6.702
 7926SOL    HW124677   5.770   0.630   6.775
 7926SOL    HW224678   5.651   0.529   6.727
 7927SOL     OW24679   4.867   0.060   2.371
 7927SOL    HW124680   4.955   0.100   2.393
 7927SOL    HW224681   4.835   0.003   2.448
 7928SOL     OW24682   6.826   0.901   3.411
 7928SOL    HW124683   6.881   0.822   3.438
 7928SOL    HW224684   6.731   0.887   3.440
 7929SOL     OW24685   4.705   3.656   6.409
 7929SOL    HW124686   4.699   3.693   6.502
 7929SOL    HW224687   4.631   3.694   6.353
 7930SOL     OW24688   3.796   5.906   5.684
 7930SOL    HW124689   3.720   5.845   5.666
 7930SOL    HW224690   3.882   5.854   5.684
 7931SOL     OW24691   2.494   2.237   0.276
 7931SOL    HW124692   2.563   2.241   0.204
 7931SOL    HW224693   2.481   2.142   0.305
 7932SOL     OW24694   0.010   5.615   0.834
 7932SOL    HW124695   0.055   5.672   0.765
 7932SOL    HW224696   0.065   5.534   0.852
 7933SOL     OW24697   6.323   1.143   5.450
 7933SOL    HW124698   6.272   1.129   5.535
 7933SOL    HW224699   6.414   1.101   5.458
 7934SOL     OW24700   1.432   4.472   0.828
 7934SOL    HW124701   1.388   4.491   0.915
 7934SOL    HW224702   1.526   4.441   0.844
 7935SOL     OW24703   5.509   4.087   2.982
 7935SOL    HW124704   5.574   4.163   2.981
 7935SOL    HW224705   5.550   4.009   3.029
 7936SOL     OW24706   4.034   6.558   3.917
 7936SOL    HW124707   3.997   6.643   3.954
 7936SOL    HW224708   3.965   6.486   3.923
 7937SOL     OW24709   2.354   6.164   5.398
 7937SOL    HW124710   2.346   6.071   5.434
 7937SOL    HW224711   2.349   6.230   5.474
 7938SOL     OW24712   5.088   0.024   5.294
 7938SOL    HW124713   4.994   0.054   5.309
 7938SOL    HW224714   5.088   6.970   5.239
 7939SOL     OW24715   1.092   1.588   4.978
 7939SOL    HW124716   1.026   1.660   4.997
 7939SOL    HW224717   1.143   1.566   5.062
 7940SOL     OW24718   4.351   1.790   2.474
 7940SOL    HW124719   4.425   1.749   2.528
 7940SOL    HW224720   4.388   1.861   2.415
 7941SOL     OW24721   4.323   6.631   2.419
 7941SOL    HW124722   4.300   6.558   2.355
 7941SOL    HW224723   4.422   6.645   2.420
 7942SOL     OW24724   0.634   2.687   1.802
 7942SOL    HW124725   0.562   2.618   1.791
 7942SOL    HW224726   0.674   2.679   1.893
 7943SOL     OW24727   2.424   5.092   6.010
 7943SOL    HW124728   2.491   5.147   6.059
 7943SOL    HW224729   2.416   5.003   6.054
 7944SOL     OW24730   0.657   2.916   1.132
 7944SOL    HW124731   0.633   2.964   1.217
 7944SOL    HW224732   0.574   2.892   1.083
 7945SOL     OW24733   6.007   5.155   3.023
 7945SOL    HW124734   5.914   5.143   2.989
 7945SOL    HW224735   6.018   5.247   3.060
 7946SOL     OW24736   4.059   0.529   5.976
 7946SOL    HW124737   4.131   0.503   6.041
 7946SOL    HW224738   3.978   0.558   6.026
 7947SOL     OW24739   1.678   2.661   5.608
 7947SOL    HW124740   1.693   2.694   5.702
 7947SOL    HW224741   1.687   2.561   5.606
 7948SOL     OW24742   1.566   5.014   2.133
 7948SOL    HW124743   1.468   5.018   2.151
 7948SOL    HW224744   1.613   5.079   2.193
 7949SOL     OW24745   4.677   4.734   5.798
 7949SOL    HW124746   4.636   4.783   5.721
 7949SOL    HW224747   4.613   4.735   5.876
 7950SOL     OW24748   5.775   5.747   5.804
 7950SOL    HW124749   5.749   5.843   5.791
 7950SOL    HW224750   5.863   5.742   5.850
 7951SOL     OW24751   2.984   5.761   2.347
 7951SOL    HW124752   3.055   5.760   2.277
 7951SOL    HW224753   2.927   5.680   2.339
 7952SOL     OW24754   5.805   3.846   0.169
 7952SOL    HW124755   5.851   3.906   0.234
 7952SOL    HW224756   5.835   3.867   0.076
 7953SOL     OW24757   3.811   2.038   0.694
 7953SOL    HW124758   3.893   2.092   0.676
 7953SOL    HW224759   3.826   1.944   0.664
 7954SOL     OW24760   4.053   3.217   6.661
 7954SOL    HW124761   4.080   3.219   6.565
 7954SOL    HW224762   4.053   3.310   6.698
 7955SOL     OW24763   1.899   1.316   6.671
 7955SOL    HW124764   1.912   1.340   6.768
 7955SOL    HW224765   1.852   1.391   6.624
 7956SOL     OW24766   6.235   1.275   1.702
 7956SOL    HW124767   6.222   1.220   1.620
 7956SOL    HW224768   6.176   1.356   1.698
 7957SOL     OW24769   4.217   0.785   5.680
 7957SOL    HW124770   4.170   0.781   5.768
 7957SOL    HW224771   4.151   0.797   5.606
 7958SOL     OW24772   5.689   3.493   6.502
 7958SOL    HW124773   5.714   3.451   6.589
 7958SOL    HW224774   5.763   3.477   6.436
 7959SOL     OW24775   4.990   0.832   6.134
 7959SOL    HW124776   5.084   0.833   6.167
 7959SOL    HW224777   4.989   0.809   6.037
 7960SOL     OW24778   6.707   0.844   6.569
 7960SOL    HW124779   6.647   0.808   6.497
 7960SOL    HW224780   6.789   0.787   6.575
 7961SOL     OW24781   6.518   6.535   6.899
 7961SOL    HW124782   6.579   6.581   6.835
 7961SOL    HW224783   6.429   6.581   6.898
 7962SOL     OW24784   6.525   6.708   6.223
 7962SOL    HW124785   6.528   6.808   6.233
 7962SOL    HW224786   6.504   6.684   6.129
 7963SOL     OW24787   6.051   4.366   4.482
 7963SOL    HW124788   6.114   4.348   4.407
 7963SOL    HW224789   6.095   4.425   4.550
 7964SOL     OW24790   7.017   3.380   1.612
 7964SOL    HW124791   7.010   3.411   1.707
 7964SOL    HW224792   0.083   3.386   1.582
 7965SOL     OW24793   4.592   2.129   6.865
 7965SOL    HW124794   4.572   2.184   6.784
 7965SOL    HW224795   4.592   2.187   6.946
 7966SOL     OW24796   4.197   4.317   5.368
 7966SOL    HW124797   4.099   4.313   5.346
 7966SOL    HW224798   4.248   4.354   5.291
 7967SOL     OW24799   1.953   5.389   2.046
 7967SOL    HW124800   1.946   5.430   1.956
 7967SOL    HW224801   2.013   5.443   2.104
 7968SOL     OW24802   6.488   2.051   4.569
 7968SOL    HW124803   6.390   2.052   4.551
 7968SOL    HW224804   6.521   2.145   4.576
 7969SOL     OW24805   4.676   5.764   0.042
 7969SOL    HW124806   4.750   5.731   7.013
 7969SOL    HW224807   4.674   5.710   0.126
 7970SOL     OW24808   6.264   3.010   2.859
 7970SOL    HW124809   6.352   3.020   2.813
 7970SOL    HW224810   6.223   2.923   2.834
 7971SOL     OW24811   3.264   1.263   1.255
 7971SOL    HW124812   3.327   1.335   1.227
 7971SOL    HW224813   3.312   1.175   1.254
 7972SOL     OW24814   4.131   3.307   2.371
 7972SOL    HW124815   4.156   3.224   2.320
 7972SOL    HW224816   4.204   3.330   2.434
 7973SOL     OW24817   6.356   3.988   3.590
 7973SOL    HW124818   6.351   4.001   3.689
 7973SOL    HW224819   6.281   4.036   3.546
 7974SOL     OW24820   5.972   1.663   5.173
 7974SOL    HW124821   5.982   1.656   5.272
 7974SOL    HW224822   6.026   1.592   5.129
 7975SOL     OW24823   4.218   1.689   0.639
 7975SOL    HW124824   4.238   1.708   0.735
 7975SOL    HW224825   4.304   1.672   0.590
 7976SOL     OW24826   1.866   6.978   6.357
 7976SOL    HW124827   1.848   6.896   6.412
 7976SOL    HW224828   1.781   0.000   6.345
 7977SOL     OW24829   5.605   6.241   3.139
 7977SOL    HW124830   5.670   6.227   3.064
 7977SOL    HW224831   5.511   6.231   3.104
 7978SOL     OW24832   0.373   4.315   0.991
 7978SOL    HW124833   0.277   4.289   0.991
 7978SOL    HW224834   0.396   4.361   1.076
 7979SOL     OW24835   2.113   3.602   4.660
 7979SOL    HW124836   2.102   3.696   4.694
 7979SOL    HW224837   2.095   3.538   4.735
 7980SOL     OW24838   3.656   4.667   5.958
 7980SOL    HW124839   3.606   4.587   5.923
 7980SOL    HW224840   3.591   4.740   5.980
 7981SOL     OW24841   1.900   4.903   3.569
 7981SOL    HW124842   1.912   4.860   3.479
 7981SOL    HW224843   1.805   4.932   3.579
 7982SOL     OW24844   1.187   1.683   5.992
 7982SOL    HW124845   1.211   1.589   5.970
 7982SOL    HW224846   1.252   1.745   5.950
 7983SOL     OW24847   5.285   1.313   1.107
 7983SOL    HW124848   5.354   1.318   1.035
 7983SOL    HW224849   5.314   1.249   1.177
 7984SOL     OW24850   0.666   1.733   1.006
 7984SOL    HW124851   0.592   1.756   1.069
 7984SOL    HW224852   0.689   1.814   0.952
 7985SOL     OW24853   2.358   2.271   5.627
 7985SOL    HW124854   2.441   2.325   5.617
 7985SOL    HW224855   2.336   2.226   5.540
 7986SOL     OW24856   3.551   1.793   4.526
 7986SOL    HW124857   3.551   1.879   4.476
 7986SOL    HW224858   3.457   1.767   4.549
 7987SOL     OW24859   1.606   3.664   0.918
 7987SOL    HW124860   1.690   3.620   0.885
 7987SOL    HW224861   1.554   3.598   0.973
 7988SOL     OW24862   6.500   1.140   1.649
 7988SOL    HW124863   6.446   1.131   1.733
 7988SOL    HW224864   6.452   1.199   1.584
 7989SOL     OW24865   1.599   3.992   0.471
 7989SOL    HW124866   1.585   4.090   0.487
 7989SOL    HW224867   1.567   3.940   0.551
 7990SOL     OW24868   2.345   6.572   5.061
 7990SOL    HW124869   2.313   6.559   5.156
 7990SOL    HW224870   2.425   6.514   5.045
 7991SOL     OW24871   5.398   1.425   4.859
 7991SOL    HW124872   5.472   1.489   4.840
 7991SOL    HW224873   5.372   1.430   4.955
 7992SOL     OW24874   2.243   0.504   0.697
 7992SOL    HW124875   2.171   0.455   0.747
 7992SOL    HW224876   2.328   0.452   0.703
 7993SOL     OW24877   0.025   0.090   1.584
 7993SOL    HW124878   6.990   0.019   1.610
 7993SOL    HW224879   0.057   0.074   1.491
 7994SOL     OW24880   5.003   0.490   3.209
 7994SOL    HW124881   4.959   0.491   3.119
 7994SOL    HW224882   4.940   0.528   3.277
 7995SOL     OW24883   6.347   4.686   2.135
 7995SOL    HW124884   6.411   4.632   2.080
 7995SOL    HW224885   6.328   4.637   2.221
 7996SOL     OW24886   4.249   0.173   3.285
 7996SOL    HW124887   4.239   0.186   3.384
 7996SOL    HW224888   4.243   0.076   3.263
 7997SOL     OW24889   0.893   1.984   6.873
 7997SOL    HW124890   0.900   1.885   6.861
 7997SOL    HW224891   0.872   2.027   6.785
 7998SOL     OW24892   2.659   0.044   0.009
 7998SOL    HW124893   2.690   6.981   7.017
 7998SOL    HW224894   2.727   0.110   7.007
 7999SOL     OW24895   1.094   1.999   5.520
 7999SOL    HW124896   1.047   1.911   5.523
 7999SOL    HW224897   1.127   2.023   5.611
 8000SOL     OW24898   5.842   6.474   6.144
 8000SOL    HW124899   5.802   6.397   6.094
 8000SOL    HW224900   5.901   6.526   6.082
 8001SOL     OW24901   5.260   0.343   0.787
 8001SOL    HW124902   5.225   0.309   0.700
 8001SOL    HW224903   5.212   0.298   0.862
 8002SOL     OW24904   0.708   0.949   5.744
 8002SOL    HW124905   0.667   1.037   5.768
 8002SOL    HW224906   0.680   0.880   5.810
 8003SOL     OW24907   2.107   6.714   2.729
 8003SOL    HW124908   2.009   6.695   2.735
 8003SOL    HW224909   2.150   6.644   2.671
 8004SOL     OW24910   1.821   2.739   3.391
 8004SOL    HW124911   1.803   2.832   3.358
 8004SOL    HW224912   1.735   2.688   3.398
 8005SOL     OW24913   2.870   0.092   4.320
 8005SOL    HW124914   2.783   0.076   4.367
 8005SOL    HW224915   2.911   0.004   4.298
 8006SOL     OW24916   3.836   5.443   4.885
 8006SOL    HW124917   3.885   5.523   4.851
 8006SOL    HW224918   3.893   5.394   4.951
 8007SOL     OW24919   6.200   1.935   6.218
 8007SOL    HW124920   6.287   1.968   6.256
 8007SOL    HW224921   6.128   2.003   6.235
 8008SOL     OW24922   3.886   6.603   0.276
 8008SOL    HW124923   3.934   6.674   0.225
 8008SOL    HW224924   3.795   6.589   0.237
 8009SOL     OW24925   4.977   1.832   1.147
 8009SOL    HW124926   4.975   1.757   1.080
 8009SOL    HW224927   5.000   1.795   1.237
 8010SOL     OW24928   2.614   2.620   5.443
 8010SOL    HW124929   2.559   2.703   5.431
 8010SOL    HW224930   2.708   2.638   5.413
 8011SOL     OW24931   3.674   2.003   1.774
 8011SOL    HW124932   3.684   2.041   1.866
 8011SOL    HW224933   3.630   1.914   1.778
 8012SOL     OW24934   1.107   2.953   5.622
 8012SOL    HW124935   1.172   2.928   5.551
 8012SOL    HW224936   1.099   3.053   5.626
 8013SOL     OW24937   1.018   2.664   3.453
 8013SOL    HW124938   1.008   2.700   3.545
 8013SOL    HW224939   1.028   2.739   3.388
 8014SOL     OW24940   1.711   0.447   3.221
 8014SOL    HW124941   1.709   0.498   3.307
 8014SOL    HW224942   1.801   0.405   3.210
 8015SOL     OW24943   1.368   0.441   5.720
 8015SOL    HW124944   1.419   0.477   5.798
 8015SOL    HW224945   1.358   0.342   5.730
 8016SOL     OW24946   3.998   1.682   5.213
 8016SOL    HW124947   3.988   1.734   5.298
 8016SOL    HW224948   3.908   1.652   5.181
 8017SOL     OW24949   6.765   6.867   0.677
 8017SOL    HW124950   6.709   6.949   0.669
 8017SOL    HW224951   6.861   6.889   0.660
 8018SOL     OW24952   4.150   1.797   0.217
 8018SOL    HW124953   4.128   1.700   0.230
 8018SOL    HW224954   4.119   1.849   0.297
 8019SOL     OW24955   3.264   3.509   0.871
 8019SOL    HW124956   3.280   3.411   0.862
 8019SOL    HW224957   3.178   3.525   0.919
 8020SOL     OW24958   6.187   0.055   5.047
 8020SOL    HW124959   6.265   0.104   5.087
 8020SOL    HW224960   6.212   6.989   5.032
 8021SOL     OW24961   2.119   1.982   2.336
 8021SOL    HW124962   2.168   1.916   2.392
 8021SOL    HW224963   2.149   1.974   2.241
 8022SOL     OW24964   5.562   0.527   2.129
 8022SOL    HW124965   5.497   0.504   2.056
 8022SOL    HW224966   5.514   0.578   2.201
 8023SOL     OW24967   5.562   5.971   3.328
 8023SOL    HW124968   5.498   5.894   3.325
 8023SOL    HW224969   5.640   5.952   3.270
 8024SOL     OW24970   1.756   6.108   6.188
 8024SOL    HW124971   1.825   6.126   6.258
 8024SOL    HW224972   1.672   6.077   6.232
 8025SOL     OW24973   1.620   4.768   1.717
 8025SOL    HW124974   1.677   4.821   1.654
 8025SOL    HW224975   1.615   4.673   1.686
 8026SOL     OW24976   0.319   4.339   0.411
 8026SOL    HW124977   0.390   4.372   0.349
 8026SOL    HW224978   0.319   4.394   0.495
 8027SOL     OW24979   4.093   6.796   5.842
 8027SOL    HW124980   4.042   6.785   5.927
 8027SOL    HW224981   4.066   6.724   5.777
 8028SOL     OW24982   3.535   5.656   4.465
 8028SOL    HW124983   3.564   5.563   4.485
 8028SOL    HW224984   3.447   5.675   4.509
 8029SOL     OW24985   5.593   1.597   1.865
 8029SOL    HW124986   5.603   1.535   1.943
 8029SOL    HW224987   5.544   1.679   1.893
 8030SOL     OW24988   6.042   5.014   1.012
 8030SOL    HW124989   6.132   5.030   0.972
 8030SOL    HW224990   6.020   4.917   1.008
 8031SOL     OW24991   5.550   0.499   3.331
 8031SOL    HW124992   5.531   0.516   3.234
 8031SOL    HW224993   5.578   0.404   3.344
 8032SOL     OW24994   5.349   3.270   1.562
 8032SOL    HW124995   5.273   3.256   1.625
 8032SOL    HW224996   5.328   3.345   1.499
 8033SOL     OW24997   4.033   3.735   0.583
 8033SOL    HW124998   4.104   3.677   0.544
 8033SOL    HW224999   4.034   3.824   0.537
 8034SOL     OW25000   5.508   0.034   5.145
 8034SOL    HW125001   5.558   0.002   5.224
 8034SOL    HW225002   5.562   0.019   5.062
 8035SOL     OW25003   4.311   0.990   2.584
 8035SOL    HW125004   4.269   0.926   2.519
 8035SOL    HW225005   4.286   0.962   2.677
 8036SOL     OW25006   6.638   2.846   3.765
 8036SOL    HW125007   6.681   2.870   3.678
 8036SOL    HW225008   6.581   2.765   3.753
 8037SOL     OW25009   1.330   3.028   6.740
 8037SOL    HW125010   1.337   2.997   6.645
 8037SOL    HW225011   1.233   3.036   6.765
 8038SOL     OW25012   5.934   6.518   2.217
 8038SOL    HW125013   5.901   6.494   2.126
 8038SOL    HW225014   5.914   6.443   2.280
 8039SOL     OW25015   0.314   2.404   5.166
 8039SOL    HW125016   0.403   2.415   5.211
 8039SOL    HW225017   0.243   2.450   5.221
 8040SOL     OW25018   1.545   6.056   5.757
 8040SOL    HW125019   1.631   6.072   5.804
 8040SOL    HW225020   1.541   6.113   5.675
 8041SOL     OW25021   3.139   1.571   3.257
 8041SOL    HW125022   3.119   1.507   3.183
 8041SOL    HW225023   3.237   1.570   3.277
 8042SOL     OW25024   4.244   4.037   5.959
 8042SOL    HW125025   4.248   4.128   6.000
 8042SOL    HW225026   4.336   4.004   5.941
 8043SOL     OW25027   4.757   4.987   1.461
 8043SOL    HW125028   4.700   4.912   1.495
 8043SOL    HW225029   4.797   5.037   1.538
 8044SOL     OW25030   3.837   3.803   1.198
 8044SOL    HW125031   3.893   3.770   1.274
 8044SOL    HW225032   3.877   3.887   1.161
 8045SOL     OW25033   0.292   1.495   2.920
 8045SOL    HW125034   0.334   1.541   2.842
 8045SOL    HW225035   0.350   1.418   2.948
 8046SOL     OW25036   0.298   5.047   2.138
 8046SOL    HW125037   0.297   5.065   2.237
 8046SOL    HW225038   0.378   5.091   2.097
 8047SOL     OW25039   3.977   6.878   6.436
 8047SOL    HW125040   4.051   6.819   6.405
 8047SOL    HW225041   3.894   6.825   6.448
 8048SOL     OW25042   3.562   3.532   0.439
 8048SOL    HW125043   3.638   3.584   0.477
 8048SOL    HW225044   3.511   3.488   0.513
 8049SOL     OW25045   1.260   6.744   0.631
 8049SOL    HW125046   1.213   6.783   0.552
 8049SOL    HW225047   1.211   6.768   0.714
 8050SOL     OW25048   1.545   4.230   4.546
 8050SOL    HW125049   1.581   4.255   4.456
 8050SOL    HW225050   1.607   4.264   4.617
 8051SOL     OW25051   5.021   5.878   4.295
 8051SOL    HW125052   4.978   5.829   4.219
 8051SOL    HW225053   5.024   5.820   4.376
 8052SOL     OW25054   2.621   1.446   2.094
 8052SOL    HW125055   2.684   1.518   2.125
 8052SOL    HW225056   2.528   1.469   2.123
 8053SOL     OW25057   2.974   3.334   6.182
 8053SOL    HW125058   2.963   3.433   6.188
 8053SOL    HW225059   2.885   3.292   6.161
 8054SOL     OW25060   5.701   4.167   5.312
 8054SOL    HW125061   5.767   4.160   5.237
 8054SOL    HW225062   5.725   4.102   5.384
 8055SOL     OW25063   0.271   0.777   5.187
 8055SOL    HW125064   0.338   0.851   5.185
 8055SOL    HW225065   0.183   0.810   5.151
 8056SOL     OW25066   2.679   6.742   4.110
 8056SOL    HW125067   2.722   6.719   4.197
 8056SOL    HW225068   2.729   6.817   4.067
 8057SOL     OW25069   2.281   1.900   1.732
 8057SOL    HW125070   2.281   1.996   1.759
 8057SOL    HW225071   2.219   1.849   1.792
 8058SOL     OW25072   3.255   6.474   3.542
 8058SOL    HW125073   3.266   6.442   3.448
 8058SOL    HW225074   3.323   6.545   3.561
 8059SOL     OW25075   3.012   2.077   5.665
 8059SOL    HW125076   2.961   2.029   5.735
 8059SOL    HW225077   3.095   2.027   5.643
 8060SOL     OW25078   7.003   0.549   6.399
 8060SOL    HW125079   0.043   0.594   6.343
 8060SOL    HW225080   6.957   0.479   6.344
 8061SOL     OW25081   0.307   0.912   2.118
 8061SOL    HW125082   0.234   0.980   2.123
 8061SOL    HW225083   0.270   0.821   2.139
 8062SOL     OW25084   4.210   5.470   4.999
 8062SOL    HW125085   4.220   5.370   5.004
 8062SOL    HW225086   4.288   5.508   4.949
 8063SOL     OW25087   3.539   0.618   3.162
 8063SOL    HW125088   3.561   0.713   3.186
 8063SOL    HW225089   3.622   0.562   3.168
 8064SOL     OW25090   6.377   3.528   0.246
 8064SOL    HW125091   6.345   3.434   0.233
 8064SOL    HW225092   6.316   3.590   0.197
 8065SOL     OW25093   3.552   0.028   4.650
 8065SOL    HW125094   3.548   6.972   4.598
 8065SOL    HW225095   3.468   0.038   4.703
 8066SOL     OW25096   6.554   1.343   4.675
 8066SOL    HW125097   6.560   1.252   4.716
 8066SOL    HW225098   6.644   1.386   4.675
 8067SOL     OW25099   5.255   3.410   3.707
 8067SOL    HW125100   5.273   3.326   3.656
 8067SOL    HW225101   5.336   3.435   3.760
 8068SOL     OW25102   0.582   4.588   1.642
 8068SOL    HW125103   0.649   4.517   1.621
 8068SOL    HW225104   0.495   4.546   1.667
 8069SOL     OW25105   2.950   5.244   2.408
 8069SOL    HW125106   2.929   5.147   2.395
 8069SOL    HW225107   2.876   5.300   2.372
 8070SOL     OW25108   3.970   4.443   0.690
 8070SOL    HW125109   4.029   4.464   0.768
 8070SOL    HW225110   4.024   4.395   0.620
 8071SOL     OW25111   4.167   6.891   5.449
 8071SOL    HW125112   4.224   6.834   5.508
 8071SOL    HW225113   4.165   6.852   5.357
 8072SOL     OW25114   2.645   2.446   0.650
 8072SOL    HW125115   2.703   2.364   0.647
 8072SOL    HW225116   2.551   2.420   0.672
 8073SOL     OW25117   3.103   6.792   6.104
 8073SOL    HW125118   3.089   6.884   6.065
 8073SOL    HW225119   3.042   6.727   6.058
 8074SOL     OW25120   1.876   1.061   0.238
 8074SOL    HW125121   1.804   1.119   0.202
 8074SOL    HW225122   1.852   0.965   0.222
 8075SOL     OW25123   0.681   6.612   6.838
 8075SOL    HW125124   0.584   6.593   6.856
 8075SOL    HW225125   0.725   6.530   6.801
 8076SOL     OW25126   6.919   7.005   6.284
 8076SOL    HW125127   6.903   6.908   6.267
 8076SOL    HW225128   6.966   7.016   6.372
 8077SOL     OW25129   3.884   5.948   1.795
 8077SOL    HW125130   3.869   6.047   1.787
 8077SOL    HW225131   3.815   5.900   1.741
 8078SOL     OW25132   1.346   1.483   0.432
 8078SOL    HW125133   1.407   1.507   0.507
 8078SOL    HW225134   1.257   1.456   0.470
 8079SOL     OW25135   0.543   1.448   4.458
 8079SOL    HW125136   0.596   1.446   4.373
 8079SOL    HW225137   0.587   1.509   4.524
 8080SOL     OW25138   1.171   3.022   2.249
 8080SOL    HW125139   1.166   2.922   2.241
 8080SOL    HW225140   1.181   3.047   2.345
 8081SOL     OW25141   5.724   4.473   5.876
 8081SOL    HW125142   5.752   4.436   5.964
 8081SOL    HW225143   5.653   4.542   5.890
 8082SOL     OW25144   2.869   1.020   2.154
 8082SOL    HW125145   2.883   1.118   2.170
 8082SOL    HW225146   2.775   0.995   2.177
 8083SOL     OW25147   5.402   2.666   4.099
 8083SOL    HW125148   5.412   2.642   4.003
 8083SOL    HW225149   5.380   2.584   4.152
 8084SOL     OW25150   2.352   0.607   5.925
 8084SOL    HW125151   2.295   0.689   5.928
 8084SOL    HW225152   2.448   0.633   5.918
 8085SOL     OW25153   6.874   6.022   3.029
 8085SOL    HW125154   6.965   5.982   3.039
 8085SOL    HW225155   6.810   5.952   2.997
 8086SOL     OW25156   0.181   1.341   1.514
 8086SOL    HW125157   0.164   1.377   1.605
 8086SOL    HW225158   0.105   1.365   1.454
 8087SOL     OW25159   1.094   0.549   6.398
 8087SOL    HW125160   1.028   0.483   6.432
 8087SOL    HW225161   1.087   0.555   6.298
 8088SOL     OW25162   5.509   6.655   6.480
 8088SOL    HW125163   5.463   6.690   6.398
 8088SOL    HW225164   5.589   6.601   6.453
 8089SOL     OW25165   5.618   2.699   6.316
 8089SOL    HW125166   5.683   2.651   6.375
 8089SOL    HW225167   5.539   2.729   6.370
 8090SOL     OW25168   4.115   1.291   6.633
 8090SOL    HW125169   4.103   1.193   6.614
 8090SOL    HW225170   4.040   1.342   6.592
 8091SOL     OW25171   1.343   4.444   4.650
 8091SOL    HW125172   1.366   4.361   4.597
 8091SOL    HW225173   1.246   4.444   4.672
 8092SOL     OW25174   4.557   1.999   5.408
 8092SOL    HW125175   4.653   1.999   5.434
 8092SOL    HW225176   4.521   1.905   5.410
 8093SOL     OW25177   3.135   6.062   2.767
 8093SOL    HW125178   3.122   5.981   2.710
 8093SOL    HW225179   3.045   6.098   2.793
 8094SOL     OW25180   0.866   4.258   5.272
 8094SOL    HW125181   0.889   4.209   5.356
 8094SOL    HW225182   0.930   4.333   5.258
 8095SOL     OW25183   1.291   4.762   4.965
 8095SOL    HW125184   1.349   4.705   4.908
 8095SOL    HW225185   1.341   4.845   4.992
 8096SOL     OW25186   0.852   0.400   2.293
 8096SOL    HW125187   0.810   0.478   2.247
 8096SOL    HW225188   0.895   0.341   2.225
 8097SOL     OW25189   4.101   0.204   4.960
 8097SOL    HW125190   4.154   0.283   4.931
 8097SOL    HW225191   4.074   0.151   4.879
 8098SOL     OW25192   1.290   6.267   4.069
 8098SOL    HW125193   1.190   6.257   4.066
 8098SOL    HW225194   1.313   6.364   4.074
 8099SOL     OW25195   4.390   6.061   4.580
 8099SOL    HW125196   4.343   6.067   4.492
 8099SOL    HW225197   4.345   5.992   4.637
 8100SOL     OW25198   5.827   1.102   6.257
 8100SOL    HW125199   5.866   1.132   6.170
 8100SOL    HW225200   5.835   1.003   6.264
 8101SOL     OW25201   2.050   5.374   0.643
 8101SOL    HW125202   2.107   5.424   0.707
 8101SOL    HW225203   2.088   5.382   0.551
 8102SOL     OW25204   0.946   3.354   4.537
 8102SOL    HW125205   0.869   3.333   4.476
 8102SOL    HW225206   0.950   3.286   4.610
 8103SOL     OW25207   3.526   0.800   1.877
 8103SOL    HW125208   3.533   0.812   1.976
 8103SOL    HW225209   3.450   0.739   1.855
 8104SOL     OW25210   1.959   6.933   5.921
 8104SOL    HW125211   2.003   6.981   5.997
 8104SOL    HW225212   1.866   6.908   5.946
 8105SOL     OW25213   0.101   2.256   2.890
 8105SOL    HW125214   0.196   2.285   2.876
 8105SOL    HW225215   0.082   2.175   2.834
 8106SOL     OW25216   2.357   6.462   3.567
 8106SOL    HW125217   2.421   6.391   3.540
 8106SOL    HW225218   2.341   6.458   3.665
 8107SOL     OW25219   1.505   5.764   4.872
 8107SOL    HW125220   1.445   5.800   4.801
 8107SOL    HW225221   1.491   5.665   4.881
 8108SOL     OW25222   6.630   1.575   6.828
 8108SOL    HW125223   6.541   1.547   6.793
 8108SOL    HW225224   6.639   1.547   6.924
 8109SOL     OW25225   0.009   4.039   6.343
 8109SOL    HW125226   0.005   3.996   6.433
 8109SOL    HW225227   0.033   3.971   6.274
 8110SOL     OW25228   4.184   4.879   1.423
 8110SOL    HW125229   4.110   4.835   1.475
 8110SOL    HW225230   4.197   4.831   1.336
 8111SOL     OW25231   5.338   0.958   3.778
 8111SOL    HW125232   5.325   1.057   3.770
 8111SOL    HW225233   5.316   0.928   3.870
 8112SOL     OW25234   0.893   3.171   4.829
 8112SOL    HW125235   0.965   3.103   4.840
 8112SOL    HW225236   0.823   3.158   4.899
 8113SOL     OW25237   6.377   3.359   1.384
 8113SOL    HW125238   6.418   3.312   1.462
 8113SOL    HW225239   6.293   3.312   1.357
 8114SOL     OW25240   1.418   4.089   2.160
 8114SOL    HW125241   1.425   4.186   2.138
 8114SOL    HW225242   1.335   4.052   2.117
 8115SOL     OW25243   3.141   6.367   6.024
 8115SOL    HW125244   3.159   6.434   5.953
 8115SOL    HW225245   3.049   6.382   6.062
 8116SOL     OW25246   4.072   5.032   0.355
 8116SOL    HW125247   3.993   5.087   0.383
 8116SOL    HW225248   4.122   5.002   0.436
 8117SOL     OW25249   2.090   6.891   2.937
 8117SOL    HW125250   2.103   6.847   2.848
 8117SOL    HW225251   2.023   6.839   2.990
 8118SOL     OW25252   6.523   4.414   6.652
 8118SOL    HW125253   6.605   4.465   6.681
 8118SOL    HW225254   6.547   4.354   6.576
 8119SOL     OW25255   4.941   6.563   6.193
 8119SOL    HW125256   4.968   6.586   6.099
 8119SOL    HW225257   4.859   6.615   6.217
 8120SOL     OW25258   2.468   5.201   0.660
 8120SOL    HW125259   2.538   5.204   0.589
 8120SOL    HW225260   2.511   5.206   0.750
 8121SOL     OW25261   1.303   4.277   2.646
 8121SOL    HW125262   1.325   4.226   2.563
 8121SOL    HW225263   1.220   4.331   2.632
 8122SOL     OW25264   1.083   4.442   2.631
 8122SOL    HW125265   1.058   4.495   2.712
 8122SOL    HW225266   1.060   4.494   2.549
 8123SOL     OW25267   0.351   1.266   6.908
 8123SOL    HW125268   0.396   1.218   6.833
 8123SOL    HW225269   0.391   1.237   6.995
 8124SOL     OW25270   5.645   6.284   3.826
 8124SOL    HW125271   5.674   6.367   3.777
 8124SOL    HW225272   5.706   6.209   3.804
 8125SOL     OW25273   1.195   1.104   2.491
 8125SOL    HW125274   1.220   1.027   2.432
 8125SOL    HW225275   1.137   1.168   2.441
 8126SOL     OW25276   4.785   4.886   3.680
 8126SOL    HW125277   4.711   4.880   3.613
 8126SOL    HW225278   4.799   4.981   3.706
 8127SOL     OW25279   2.927   2.886   6.688
 8127SOL    HW125280   2.830   2.866   6.678
 8127SOL    HW225281   2.943   2.935   6.773
 8128SOL     OW25282   3.173   2.267   1.792
 8128SOL    HW125283   3.116   2.348   1.783
 8128SOL    HW225284   3.252   2.275   1.731
 8129SOL     OW25285   2.009   2.029   6.742
 8129SOL    HW125286   2.095   2.020   6.793
 8129SOL    HW225287   1.940   2.071   6.801
 8130SOL     OW25288   1.872   6.575   0.084
 8130SOL    HW125289   1.819   6.558   0.000
 8130SOL    HW225290   1.953   6.516   0.085
 8131SOL     OW25291   2.725   2.693   1.239
 8131SOL    HW125292   2.679   2.757   1.177
 8131SOL    HW225293   2.705   2.719   1.334
 8132SOL     OW25294   6.232   6.681   4.396
 8132SOL    HW125295   6.204   6.756   4.336
 8132SOL    HW225296   6.213   6.705   4.491
 8133SOL     OW25297   3.651   5.318   2.428
 8133SOL    HW125298   3.624   5.251   2.358
 8133SOL    HW225299   3.695   5.396   2.384
 8134SOL     OW25300   6.574   1.027   6.003
 8134SOL    HW125301   6.626   1.101   5.960
 8134SOL    HW225302   6.633   0.977   6.067
 8135SOL     OW25303   1.668   0.463   1.704
 8135SOL    HW125304   1.584   0.509   1.732
 8135SOL    HW225305   1.747   0.521   1.726
 8136SOL     OW25306   5.362   5.305   2.467
 8136SOL    HW125307   5.352   5.404   2.460
 8136SOL    HW225308   5.428   5.273   2.398
 8137SOL     OW25309   2.803   1.217   5.000
 8137SOL    HW125310   2.718   1.174   4.968
 8137SOL    HW225311   2.783   1.274   5.080
 8138SOL     OW25312   5.492   1.248   1.662
 8138SOL    HW125313   5.556   1.288   1.595
 8138SOL    HW225314   5.543   1.220   1.744
 8139SOL     OW25315   0.424   1.248   2.086
 8139SOL    HW125316   0.455   1.153   2.089
 8139SOL    HW225317   0.497   1.305   2.047
 8140SOL     OW25318   4.567   0.992   4.350
 8140SOL    HW125319   4.556   1.062   4.420
 8140SOL    HW225320   4.649   0.939   4.369
 8141SOL     OW25321   4.044   5.202   5.908
 8141SOL    HW125322   4.001   5.125   5.860
 8141SOL    HW225323   4.130   5.172   5.948
 8142SOL     OW25324   6.250   5.301   0.209
 8142SOL    HW125325   6.333   5.330   0.161
 8142SOL    HW225326   6.192   5.249   0.147
 8143SOL     OW25327   6.256   4.972   6.875
 8143SOL    HW125328   6.179   4.962   6.813
 8143SOL    HW225329   6.309   4.887   6.876
 8144SOL     OW25330   5.743   0.098   6.843
 8144SOL    HW125331   5.703   0.034   6.909
 8144SOL    HW225332   5.677   0.116   6.769
 8145SOL     OW25333   5.577   6.193   2.540
 8145SOL    HW125334   5.578   6.108   2.488
 8145SOL    HW225335   5.606   6.176   2.634
 8146SOL     OW25336   3.491   1.337   5.705
 8146SOL    HW125337   3.456   1.282   5.781
 8146SOL    HW225338   3.430   1.414   5.690
 8147SOL     OW25339   5.289   1.817   3.147
 8147SOL    HW125340   5.210   1.818   3.086
 8147SOL    HW225341   5.327   1.724   3.152
 8148SOL     OW25342   5.658   3.457   2.524
 8148SOL    HW125343   5.609   3.532   2.481
 8148SOL    HW225344   5.603   3.419   2.599
 8149SOL     OW25345   2.538   6.171   3.183
 8149SOL    HW125346   2.575   6.242   3.124
 8149SOL    HW225347   2.598   6.091   3.181
 8150SOL     OW25348   0.541   4.833   0.881
 8150SOL    HW125349   0.591   4.772   0.943
 8150SOL    HW225350   0.468   4.782   0.836
 8151SOL     OW25351   0.951   2.131   3.178
 8151SOL    HW125352   0.870   2.179   3.213
 8151SOL    HW225353   1.019   2.198   3.149
 8152SOL     OW25354   1.664   1.353   3.009
 8152SOL    HW125355   1.651   1.348   3.108
 8152SOL    HW225356   1.668   1.260   2.971
 8153SOL     OW25357   2.898   6.929   2.695
 8153SOL    HW125358   2.928   7.024   2.691
 8153SOL    HW225359   2.970   6.870   2.659
 8154SOL     OW25360   2.360   5.905   4.541
 8154SOL    HW125361   2.372   5.956   4.456
 8154SOL    HW225362   2.338   5.968   4.615
 8155SOL     OW25363   3.164   3.001   2.655
 8155SOL    HW125364   3.255   2.960   2.667
 8155SOL    HW225365   3.120   2.963   2.574
 8156SOL     OW25366   5.801   0.340   5.117
 8156SOL    HW125367   5.781   0.428   5.161
 8156SOL    HW225368   5.793   0.267   5.184
 8157SOL     OW25369   5.647   5.353   6.915
 8157SOL    HW125370   5.623   5.440   6.871
 8157SOL    HW225371   5.589   5.339   6.995
 8158SOL     OW25372   1.099   5.931   0.625
 8158SOL    HW125373   1.188   5.904   0.588
 8158SOL    HW225374   1.083   5.884   0.712
 8159SOL     OW25375   2.261   5.474   2.085
 8159SOL    HW125376   2.228   5.402   2.146
 8159SOL    HW225377   2.358   5.461   2.066
 8160SOL     OW25378   4.675   1.778   1.056
 8160SOL    HW125379   4.580   1.810   1.058
 8160SOL    HW225380   4.735   1.852   1.027
 8161SOL     OW25381   4.949   1.277   0.789
 8161SOL    HW125382   4.984   1.332   0.865
 8161SOL    HW225383   4.988   1.309   0.703
 8162SOL     OW25384   6.175   6.568   0.492
 8162SOL    HW125385   6.264   6.570   0.446
 8162SOL    HW225386   6.122   6.648   0.464
 8163SOL     OW25387   2.817   4.185   5.328
 8163SOL    HW125388   2.894   4.241   5.356
 8163SOL    HW225389   2.773   4.146   5.409
 8164SOL     OW25390   5.489   3.025   1.541
 8164SOL    HW125391   5.457   3.112   1.577
 8164SOL    HW225392   5.579   3.003   1.580
 8165SOL     OW25393   2.126   4.368   1.578
 8165SOL    HW125394   2.120   4.357   1.479
 8165SOL    HW225395   2.073   4.448   1.606
 8166SOL     OW25396   2.067   0.481   1.994
 8166SOL    HW125397   2.039   0.506   2.087
 8166SOL    HW225398   2.013   0.402   1.963
 8167SOL     OW25399   6.065   2.573   4.066
 8167SOL    HW125400   6.107   2.488   4.100
 8167SOL    HW225401   5.991   2.550   4.003
 8168SOL     OW25402   3.328   1.572   3.005
 8168SOL    HW125403   3.232   1.580   2.976
 8168SOL    HW225404   3.355   1.657   3.051
 8169SOL     OW25405   4.310   4.009   1.018
 8169SOL    HW125406   4.339   3.915   1.001
 8169SOL    HW225407   4.352   4.070   0.950
 8170SOL     OW25408   1.487   5.992   3.519
 8170SOL    HW125409   1.452   5.993   3.425
 8170SOL    HW225410   1.433   5.928   3.573
 8171SOL     OW25411   0.511   2.221   6.404
 8171SOL    HW125412   0.438   2.158   6.431
 8171SOL    HW225413   0.569   2.240   6.483
 8172SOL     OW25414   0.176   6.951   0.622
 8172SOL    HW125415   0.080   6.974   0.641
 8172SOL    HW225416   0.200   6.986   0.531
 8173SOL     OW25417   3.703   2.569   6.775
 8173SOL    HW125418   3.654   2.490   6.812
 8173SOL    HW225419   3.649   2.611   6.703
 8174SOL     OW25420   5.798   1.903   1.065
 8174SOL    HW125421   5.782   1.952   0.980
 8174SOL    HW225422   5.750   1.950   1.140
 8175SOL     OW25423   6.757   2.242   6.431
 8175SOL    HW125424   6.674   2.298   6.428
 8175SOL    HW225425   6.819   2.279   6.501
 8176SOL     OW25426   2.628   5.972   2.235
 8176SOL    HW125427   2.614   5.878   2.268
 8176SOL    HW225428   2.725   5.996   2.243
 8177SOL     OW25429   1.529   6.136   4.188
 8177SOL    HW125430   1.604   6.103   4.131
 8177SOL    HW225431   1.457   6.174   4.130
 8178SOL     OW25432   2.483   6.889   6.288
 8178SOL    HW125433   2.413   6.960   6.287
 8178SOL    HW225434   2.573   6.932   6.275
 8179SOL     OW25435   3.120   2.745   0.131
 8179SOL    HW125436   3.196   2.684   0.110
 8179SOL    HW225437   3.046   2.731   0.065
 8180SOL     OW25438   0.338   0.017   4.365
 8180SOL    HW125439   0.397   0.096   4.381
 8180SOL    HW225440   0.263   0.017   4.431
 8181SOL     OW25441   2.637   2.450   2.761
 8181SOL    HW125442   2.567   2.452   2.689
 8181SOL    HW225443   2.719   2.405   2.726
 8182SOL     OW25444   3.111   2.555   5.854
 8182SOL    HW125445   3.154   2.549   5.764
 8182SOL    HW225446   3.077   2.465   5.881
 8183SOL     OW25447   0.714   3.672   5.159
 8183SOL    HW125448   0.692   3.599   5.095
 8183SOL    HW225449   0.736   3.633   5.248
 8184SOL     OW25450   6.752   0.600   5.621
 8184SOL    HW125451   6.825   0.553   5.572
 8184SOL    HW225452   6.711   0.669   5.561
 8185SOL     OW25453   2.745   0.742   1.210
 8185SOL    HW125454   2.845   0.736   1.208
 8185SOL    HW225455   2.715   0.822   1.159
 8186SOL     OW25456   3.533   6.308   5.900
 8186SOL    HW125457   3.512   6.271   5.991
 8186SOL    HW225458   3.469   6.270   5.833
 8187SOL     OW25459   1.641   1.584   5.152
 8187SOL    HW125460   1.582   1.615   5.227
 8187SOL    HW225461   1.650   1.484   5.157
 8188SOL     OW25462   5.251   1.756   2.383
 8188SOL    HW125463   5.295   1.670   2.358
 8188SOL    HW225464   5.281   1.783   2.475
 8189SOL     OW25465   5.598   4.648   2.109
 8189SOL    HW125466   5.564   4.733   2.150
 8189SOL    HW225467   5.526   4.579   2.110
 8190SOL     OW25468   5.319   3.863   4.275
 8190SOL    HW125469   5.252   3.816   4.333
 8190SOL    HW225470   5.407   3.817   4.283
 8191SOL     OW25471   0.883   5.634   3.830
 8191SOL    HW125472   0.859   5.703   3.898
 8191SOL    HW225473   0.799   5.588   3.798
 8192SOL     OW25474   2.763   5.469   1.542
 8192SOL    HW125475   2.799   5.469   1.448
 8192SOL    HW225476   2.817   5.532   1.598
 8193SOL     OW25477   5.219   6.405   5.126
 8193SOL    HW125478   5.183   6.498   5.130
 8193SOL    HW225479   5.296   6.396   5.189
 8194SOL     OW25480   6.386   1.526   6.753
 8194SOL    HW125481   6.309   1.580   6.787
 8194SOL    HW225482   6.356   1.432   6.739
 8195SOL     OW25483   6.843   0.123   0.253
 8195SOL    HW125484   6.756   0.119   0.203
 8195SOL    HW225485   6.913   0.163   0.195
 8196SOL     OW25486   3.710   6.712   6.191
 8196SOL    HW125487   3.670   6.747   6.106
 8196SOL    HW225488   3.642   6.718   6.264
 8197SOL     OW25489   6.697   0.859   6.163
 8197SOL    HW125490   6.646   0.809   6.233
 8197SOL    HW225491   6.771   0.801   6.128
 8198SOL     OW25492   2.855   6.577   2.973
 8198SOL    HW125493   2.787   6.649   2.959
 8198SOL    HW225494   2.925   6.583   2.902
 8199SOL     OW25495   0.531   4.172   0.233
 8199SOL    HW125496   0.579   4.156   0.147
 8199SOL    HW225497   0.576   4.244   0.285
 8200SOL     OW25498   4.583   4.051   1.639
 8200SOL    HW125499   4.544   4.141   1.621
 8200SOL    HW225500   4.511   3.983   1.641
 8201SOL     OW25501   5.462   0.341   4.216
 8201SOL    HW125502   5.482   0.393   4.133
 8201SOL    HW225503   5.487   0.245   4.202
 8202SOL     OW25504   1.954   4.768   3.792
 8202SOL    HW125505   1.948   4.674   3.759
 8202SOL    HW225506   1.952   4.831   3.713
 8203SOL     OW25507   4.928   3.726   1.543
 8203SOL    HW125508   4.898   3.696   1.453
 8203SOL    HW225509   4.928   3.648   1.606
 8204SOL     OW25510   3.359   6.895   2.382
 8204SOL    HW125511   3.350   6.813   2.326
 8204SOL    HW225512   3.417   6.876   2.461
 8205SOL     OW25513   5.456   5.450   2.096
 8205SOL    HW125514   5.472   5.529   2.154
 8205SOL    HW225515   5.424   5.480   2.006
 8206SOL     OW25516   4.013   2.057   5.649
 8206SOL    HW125517   3.996   2.055   5.747
 8206SOL    HW225518   3.989   2.147   5.613
 8207SOL     OW25519   3.344   5.017   5.826
 8207SOL    HW125520   3.407   4.947   5.860
 8207SOL    HW225521   3.396   5.091   5.784
 8208SOL     OW25522   1.994   5.225   1.782
 8208SOL    HW125523   2.059   5.165   1.830
 8208SOL    HW225524   2.001   5.318   1.819
 8209SOL     OW25525   1.655   0.890   5.078
 8209SOL    HW125526   1.560   0.891   5.047
 8209SOL    HW225527   1.659   0.909   5.176
 8210SOL     OW25528   2.183   1.069   0.359
 8210SOL    HW125529   2.194   1.015   0.443
 8210SOL    HW225530   2.106   1.131   0.369
 8211SOL     OW25531   2.962   3.577   3.970
 8211SOL    HW125532   2.881   3.522   3.952
 8211SOL    HW225533   3.014   3.589   3.885
 8212SOL     OW25534   2.172   0.015   1.522
 8212SOL    HW125535   2.145   6.976   1.455
 8212SOL    HW225536   2.227   7.001   1.593
 8213SOL     OW25537   4.368   4.497   1.820
 8213SOL    HW125538   4.276   4.490   1.782
 8213SOL    HW225539   4.395   4.409   1.860
 8214SOL     OW25540   3.191   5.393   4.333
 8214SOL    HW125541   3.209   5.412   4.429
 8214SOL    HW225542   3.268   5.342   4.294
 8215SOL     OW25543   3.889   6.437   7.004
 8215SOL    HW125544   3.906   6.351   6.957
 8215SOL    HW225545   3.798   6.472   6.980
 8216SOL     OW25546   4.511   6.353   2.441
 8216SOL    HW125547   4.445   6.296   2.393
 8216SOL    HW225548   4.590   6.298   2.467
 8217SOL     OW25549   2.538   5.054   3.576
 8217SOL    HW125550   2.476   5.119   3.531
 8217SOL    HW225551   2.616   5.035   3.516
 8218SOL     OW25552   1.926   0.245   4.838
 8218SOL    HW125553   1.829   0.270   4.840
 8218SOL    HW225554   1.944   0.175   4.907
 8219SOL     OW25555   4.196   3.382   0.792
 8219SOL    HW125556   4.185   3.289   0.758
 8219SOL    HW225557   4.154   3.390   0.883
 8220SOL     OW25558   3.823   4.144   4.758
 8220SOL    HW125559   3.883   4.184   4.689
 8220SOL    HW225560   3.869   4.067   4.802
 8221SOL     OW25561   6.006   3.370   3.879
 8221SOL    HW125562   6.095   3.410   3.900
 8221SOL    HW225563   5.993   3.367   3.779
 8222SOL     OW25564   5.904   2.229   1.556
 8222SOL    HW125565   5.975   2.273   1.501
 8222SOL    HW225566   5.846   2.300   1.597
 8223SOL     OW25567   6.675   5.637   5.373
 8223SOL    HW125568   6.771   5.610   5.373
 8223SOL    HW225569   6.619   5.564   5.412
 8224SOL     OW25570   4.967   1.792   7.012
 8224SOL    HW125571   4.968   1.829   6.919
 8224SOL    HW225572   4.932   1.698   7.010
 8225SOL     OW25573   4.661   1.652   0.201
 8225SOL    HW125574   4.643   1.662   0.103
 8225SOL    HW225575   4.601   1.581   0.238
 8226SOL     OW25576   3.525   0.795   0.271
 8226SOL    HW125577   3.473   0.872   0.308
 8226SOL    HW225578   3.604   0.830   0.219
 8227SOL     OW25579   5.394   1.759   2.892
 8227SOL    HW125580   5.330   1.832   2.914
 8227SOL    HW225581   5.426   1.715   2.977
 8228SOL     OW25582   0.806   0.865   5.474
 8228SOL    HW125583   0.788   0.923   5.395
 8228SOL    HW225584   0.743   0.889   5.549
 8229SOL     OW25585   4.261   4.790   1.137
 8229SOL    HW125586   4.340   4.850   1.126
 8229SOL    HW225587   4.292   4.695   1.149
 8230SOL     OW25588   4.252   0.859   6.177
 8230SOL    HW125589   4.263   0.958   6.172
 8230SOL    HW225590   4.158   0.837   6.202
 8231SOL     OW25591   3.359   1.571   1.885
 8231SOL    HW125592   3.437   1.518   1.918
 8231SOL    HW225593   3.282   1.509   1.868
 8232SOL     OW25594   4.421   0.128   2.660
 8232SOL    HW125595   4.337   0.119   2.606
 8232SOL    HW225596   4.492   0.168   2.602
 8233SOL     OW25597   0.500   0.873   5.404
 8233SOL    HW125598   0.455   0.941   5.348
 8233SOL    HW225599   0.600   0.883   5.395
 8234SOL     OW25600   2.522   2.514   0.104
 8234SOL    HW125601   2.529   2.599   0.158
 8234SOL    HW225602   2.581   2.444   0.145
 8235SOL     OW25603   0.107   5.368   0.320
 8235SOL    HW125604   0.099   5.458   0.364
 8235SOL    HW225605   0.201   5.336   0.326
 8236SOL     OW25606   1.245   6.632   6.026
 8236SOL    HW125607   1.206   6.598   5.940
 8236SOL    HW225608   1.226   6.730   6.035
 8237SOL     OW25609   4.595   5.424   6.018
 8237SOL    HW125610   4.678   5.480   6.023
 8237SOL    HW225611   4.545   5.446   5.935
 8238SOL     OW25612   2.143   4.701   0.521
 8238SOL    HW125613   2.192   4.739   0.599
 8238SOL    HW225614   2.208   4.677   0.449
 8239SOL     OW25615   0.517   1.914   5.473
 8239SOL    HW125616   0.591   1.967   5.431
 8239SOL    HW225617   0.448   1.895   5.403
 8240SOL     OW25618   3.600   3.974   5.034
 8240SOL    HW125619   3.646   3.976   5.122
 8240SOL    HW225620   3.628   3.892   4.984
 8241SOL     OW25621   1.875   3.622   6.356
 8241SOL    HW125622   1.813   3.565   6.410
 8241SOL    HW225623   1.912   3.569   6.280
 8242SOL     OW25624   1.003   4.020   4.286
 8242SOL    HW125625   1.061   4.094   4.320
 8242SOL    HW225626   1.041   3.984   4.201
 8243SOL     OW25627   0.534   4.639   4.872
 8243SOL    HW125628   0.528   4.674   4.966
 8243SOL    HW225629   0.459   4.676   4.818
 8244SOL     OW25630   1.876   0.337   3.627
 8244SOL    HW125631   1.941   0.377   3.562
 8244SOL    HW225632   1.814   0.408   3.659
 8245SOL     OW25633   5.343   1.103   4.269
 8245SOL    HW125634   5.333   1.201   4.254
 8245SOL    HW225635   5.405   1.087   4.345
 8246SOL     OW25636   1.577   4.390   6.881
 8246SOL    HW125637   1.526   4.325   6.825
 8246SOL    HW225638   1.513   4.439   6.941
 8247SOL     OW25639   2.998   5.576   3.469
 8247SOL    HW125640   2.940   5.495   3.469
 8247SOL    HW225641   3.089   5.551   3.436
 8248SOL     OW25642   0.846   5.019   2.952
 8248SOL    HW125643   0.806   4.957   3.020
 8248SOL    HW225644   0.774   5.074   2.910
 8249SOL     OW25645   2.464   2.022   6.250
 8249SOL    HW125646   2.402   1.988   6.179
 8249SOL    HW225647   2.424   2.101   6.296
 8250SOL     OW25648   1.693   1.614   6.334
 8250SOL    HW125649   1.608   1.665   6.323
 8250SOL    HW225650   1.770   1.677   6.338
 8251SOL     OW25651   0.011   2.876   4.876
 8251SOL    HW125652   0.044   2.799   4.822
 8251SOL    HW225653   6.942   2.866   4.892
 8252SOL     OW25654   1.729   2.332   6.665
 8252SOL    HW125655   1.752   2.418   6.711
 8252SOL    HW225656   1.723   2.348   6.566
 8253SOL     OW25657   3.978   5.735   0.443
 8253SOL    HW125658   3.881   5.760   0.451
 8253SOL    HW225659   3.996   5.705   0.349
 8254SOL     OW25660   5.452   5.446   0.598
 8254SOL    HW125661   5.436   5.373   0.665
 8254SOL    HW225662   5.534   5.426   0.545
 8255SOL     OW25663   0.445   6.623   6.066
 8255SOL    HW125664   0.374   6.573   6.016
 8255SOL    HW225665   0.531   6.618   6.015
 8256SOL     OW25666   1.829   5.916   2.738
 8256SOL    HW125667   1.926   5.891   2.734
 8256SOL    HW225668   1.776   5.841   2.777
 8257SOL     OW25669   4.764   4.117   4.185
 8257SOL    HW125670   4.727   4.030   4.218
 8257SOL    HW225671   4.815   4.102   4.101
 8258SOL     OW25672   6.442   3.618   1.997
 8258SOL    HW125673   6.398   3.704   2.024
 8258SOL    HW225674   6.449   3.557   2.076
 8259SOL     OW25675   4.505   1.957   4.051
 8259SOL    HW125676   4.416   1.924   4.082
 8259SOL    HW225677   4.561   1.879   4.022
 8260SOL     OW25678   2.856   0.522   0.768
 8260SOL    HW125679   2.805   0.588   0.713
 8260SOL    HW225680   2.844   0.543   0.865
 8261SOL     OW25681   5.248   0.546   3.597
 8261SOL    HW125682   5.263   0.579   3.504
 8261SOL    HW225683   5.276   0.451   3.604
 8262SOL     OW25684   6.973   3.941   1.625
 8262SOL    HW125685   6.994   4.032   1.590
 8262SOL    HW225686   6.958   3.879   1.548
 8263SOL     OW25687   6.915   2.385   6.615
 8263SOL    HW125688   6.980   2.310   6.621
 8263SOL    HW225689   6.960   2.466   6.578
 8264SOL     OW25690   1.543   6.434   3.338
 8264SOL    HW125691   1.614   6.365   3.349
 8264SOL    HW225692   1.583   6.525   3.340
 8265SOL     OW25693   5.475   0.663   0.804
 8265SOL    HW125694   5.461   0.691   0.899
 8265SOL    HW225695   5.392   0.679   0.751
 8266SOL     OW25696   2.274   0.137   4.133
 8266SOL    HW125697   2.226   0.219   4.100
 8266SOL    HW225698   2.216   0.088   4.198
 8267SOL     OW25699   1.713   3.633   3.217
 8267SOL    HW125700   1.670   3.723   3.223
 8267SOL    HW225701   1.772   3.629   3.137
 8268SOL     OW25702   3.407   4.318   6.346
 8268SOL    HW125703   3.316   4.285   6.372
 8268SOL    HW225704   3.458   4.244   6.302
 8269SOL     OW25705   4.569   2.251   3.161
 8269SOL    HW125706   4.555   2.189   3.238
 8269SOL    HW225707   4.578   2.344   3.195
 8270SOL     OW25708   3.992   0.029   6.065
 8270SOL    HW125709   4.052   0.042   5.986
 8270SOL    HW225710   4.030   0.076   6.145
 8271SOL     OW25711   4.594   6.332   5.083
 8271SOL    HW125712   4.685   6.356   5.116
 8271SOL    HW225713   4.601   6.278   4.999
 8272SOL     OW25714   0.379   7.008   1.452
 8272SOL    HW125715   0.436   0.039   1.397
 8272SOL    HW225716   0.403   7.017   1.549
 8273SOL     OW25717   2.977   6.354   6.728
 8273SOL    HW125718   2.962   6.313   6.818
 8273SOL    HW225719   2.957   6.286   6.657
 8274SOL     OW25720   5.066   6.611   6.635
 8274SOL    HW125721   4.993   6.677   6.646
 8274SOL    HW225722   5.055   6.537   6.702
 8275SOL     OW25723   6.063   0.964   4.856
 8275SOL    HW125724   6.047   1.060   4.876
 8275SOL    HW225725   6.074   0.952   4.757
 8276SOL     OW25726   6.723   3.275   6.676
 8276SOL    HW125727   6.751   3.204   6.741
 8276SOL    HW225728   6.629   3.259   6.648
 8277SOL     OW25729   1.049   5.429   6.111
 8277SOL    HW125730   1.062   5.405   6.015
 8277SOL    HW225731   1.092   5.359   6.169
 8278SOL     OW25732   3.492   1.384   0.069
 8278SOL    HW125733   3.504   1.462   0.007
 8278SOL    HW225734   3.498   1.416   0.164
 8279SOL     OW25735   4.832   5.965   6.104
 8279SOL    HW125736   4.780   5.977   6.019
 8279SOL    HW225737   4.769   5.942   6.178
 8280SOL     OW25738   5.450   2.924   0.336
 8280SOL    HW125739   5.386   2.971   0.397
 8280SOL    HW225740   5.483   2.987   0.266
 8281SOL     OW25741   2.274   4.576   6.918
 8281SOL    HW125742   2.249   4.495   6.864
 8281SOL    HW225743   2.191   4.627   6.942
 8282SOL     OW25744   3.114   2.848   0.945
 8282SOL    HW125745   3.119   2.849   0.845
 8282SOL    HW225746   3.058   2.771   0.976
 8283SOL     OW25747   6.956   4.561   3.284
 8283SOL    HW125748   6.970   4.658   3.265
 8283SOL    HW225749   7.018   4.532   3.357
 8284SOL     OW25750   2.027   2.268   2.091
 8284SOL    HW125751   1.936   2.276   2.133
 8284SOL    HW225752   2.093   2.319   2.146
 8285SOL     OW25753   3.289   4.270   6.055
 8285SOL    HW125754   3.269   4.367   6.048
 8285SOL    HW225755   3.204   4.218   6.061
 8286SOL     OW25756   5.258   0.986   4.842
 8286SOL    HW125757   5.332   1.046   4.810
 8286SOL    HW225758   5.283   0.947   4.931
 8287SOL     OW25759   1.994   0.514   3.443
 8287SOL    HW125760   1.971   0.600   3.397
 8287SOL    HW225761   2.035   0.451   3.377
 8288SOL     OW25762   1.466   1.205   2.486
 8288SOL    HW125763   1.488   1.258   2.567
 8288SOL    HW225764   1.375   1.164   2.497
 8289SOL     OW25765   6.490   1.510   5.389
 8289SOL    HW125766   6.445   1.519   5.477
 8289SOL    HW225767   6.421   1.503   5.317
 8290SOL     OW25768   3.541   2.658   1.768
 8290SOL    HW125769   3.516   2.703   1.854
 8290SOL    HW225770   3.594   2.576   1.788
 8291SOL     OW25771   6.010   5.776   6.207
 8291SOL    HW125772   6.067   5.811   6.281
 8291SOL    HW225773   6.035   5.681   6.188
 8292SOL     OW25774   1.395   3.816   4.796
 8292SOL    HW125775   1.369   3.810   4.700
 8292SOL    HW225776   1.400   3.723   4.835
 8293SOL     OW25777   2.724   5.580   3.173
 8293SOL    HW125778   2.687   5.544   3.088
 8293SOL    HW225779   2.727   5.507   3.242
 8294SOL     OW25780   6.379   4.039   6.057
 8294SOL    HW125781   6.478   4.046   6.069
 8294SOL    HW225782   6.358   3.959   6.000
 8295SOL     OW25783   4.637   4.390   2.262
 8295SOL    HW125784   4.677   4.478   2.238
 8295SOL    HW225785   4.593   4.350   2.182
 8296SOL     OW25786   3.615   6.595   1.171
 8296SOL    HW125787   3.585   6.641   1.255
 8296SOL    HW225788   3.706   6.628   1.145
 8297SOL     OW25789   6.186   4.574   2.848
 8297SOL    HW125790   6.243   4.501   2.811
 8297SOL    HW225791   6.195   4.656   2.791
 8298SOL     OW25792   6.737   0.307   6.525
 8298SOL    HW125793   6.837   0.313   6.520
 8298SOL    HW225794   6.696   0.363   6.453
 8299SOL     OW25795   0.791   4.002   1.641
 8299SOL    HW125796   0.840   4.003   1.728
 8299SOL    HW225797   0.857   3.990   1.566
 8300SOL     OW25798   5.759   5.141   3.310
 8300SOL    HW125799   5.815   5.170   3.387
 8300SOL    HW225800   5.666   5.122   3.341
 8301SOL     OW25801   4.162   6.504   0.741
 8301SOL    HW125802   4.064   6.511   0.727
 8301SOL    HW225803   4.210   6.546   0.664
 8302SOL     OW25804   3.678   6.828   5.181
 8302SOL    HW125805   3.635   6.881   5.108
 8302SOL    HW225806   3.644   6.734   5.179
 8303SOL     OW25807   6.663   6.581   2.705
 8303SOL    HW125808   6.685   6.561   2.610
 8303SOL    HW225809   6.745   6.617   2.751
 8304SOL     OW25810   5.892   4.337   3.539
 8304SOL    HW125811   5.818   4.345   3.606
 8304SOL    HW225812   5.866   4.272   3.468
 8305SOL     OW25813   5.186   5.624   4.393
 8305SOL    HW125814   5.254   5.676   4.445
 8305SOL    HW225815   5.210   5.623   4.297
 8306SOL     OW25816   6.144   1.239   2.417
 8306SOL    HW125817   6.158   1.156   2.363
 8306SOL    HW225818   6.189   1.316   2.371
 8307SOL     OW25819   2.292   4.826   2.298
 8307SOL    HW125820   2.228   4.848   2.371
 8307SOL    HW225821   2.312   4.728   2.300
 8308SOL     OW25822   1.304   4.974   0.020
 8308SOL    HW125823   1.314   5.072   0.003
 8308SOL    HW225824   1.242   4.960   0.097
 8309SOL     OW25825   6.130   4.231   4.216
 8309SOL    HW125826   6.150   4.140   4.253
 8309SOL    HW225827   6.047   4.225   4.160
 8310SOL     OW25828   0.776   6.613   0.142
 8310SOL    HW125829   0.752   6.551   0.067
 8310SOL    HW225830   0.872   6.599   0.166
 8311SOL     OW25831   5.509   0.052   4.376
 8311SOL    HW125832   5.538   7.004   4.433
 8311SOL    HW225833   5.512   0.136   4.430
 8312SOL     OW25834   5.480   1.219   6.558
 8312SOL    HW125835   5.509   1.244   6.466
 8312SOL    HW225836   5.411   1.147   6.552
 8313SOL     OW25837   4.508   1.615   4.814
 8313SOL    HW125838   4.486   1.621   4.717
 8313SOL    HW225839   4.607   1.619   4.827
 8314SOL     OW25840   4.891   6.321   5.757
 8314SOL    HW125841   4.990   6.335   5.752
 8314SOL    HW225842   4.848   6.359   5.675
 8315SOL     OW25843   3.710   3.463   4.864
 8315SOL    HW125844   3.684   3.370   4.890
 8315SOL    HW225845   3.736   3.465   4.768
 8316SOL     OW25846   1.497   2.720   6.922
 8316SOL    HW125847   1.580   2.690   6.874
 8316SOL    HW225848   1.459   2.643   6.974
 8317SOL     OW25849   1.466   1.476   3.399
 8317SOL    HW125850   1.479   1.552   3.462
 8317SOL    HW225851   1.376   1.484   3.356
 8318SOL     OW25852   4.283   6.859   6.906
 8318SOL    HW125853   4.271   6.760   6.914
 8318SOL    HW225854   4.380   6.880   6.896
 8319SOL     OW25855   2.297   0.046   6.267
 8319SOL    HW125856   2.211   0.036   6.218
 8319SOL    HW225857   2.330   0.140   6.260
 8320SOL     OW25858   2.970   3.753   4.438
 8320SOL    HW125859   2.981   3.804   4.523
 8320SOL    HW225860   3.059   3.721   4.407
 8321SOL     OW25861   6.397   6.349   0.575
 8321SOL    HW125862   6.478   6.385   0.621
 8321SOL    HW225863   6.349   6.287   0.636
 8322SOL     OW25864   0.198   0.633   0.003
 8322SOL    HW125865   0.266   0.705   0.017
 8322SOL    HW225866   0.161   0.605   0.091
 8323SOL     OW25867   4.574   4.834   1.139
 8323SOL    HW125868   4.627   4.756   1.173
 8323SOL    HW225869   4.608   4.918   1.182
 8324SOL     OW25870   5.697   6.365   6.500
 8324SOL    HW125871   5.608   6.373   6.456
 8324SOL    HW225872   5.748   6.450   6.486
 8325SOL     OW25873   1.071   5.656   5.613
 8325SOL    HW125874   1.149   5.718   5.600
 8325SOL    HW225875   1.014   5.691   5.688
 8326SOL     OW25876   1.822   3.844   1.976
 8326SOL    HW125877   1.805   3.863   2.073
 8326SOL    HW225878   1.894   3.775   1.969
 8327SOL     OW25879   0.940   0.231   4.582
 8327SOL    HW125880   0.991   0.157   4.540
 8327SOL    HW225881   0.842   0.216   4.567
 8328SOL     OW25882   1.731   0.195   6.428
 8328SOL    HW125883   1.769   0.284   6.403
 8328SOL    HW225884   1.682   0.157   6.350
 8329SOL     OW25885   1.153   2.575   4.959
 8329SOL    HW125886   1.123   2.482   4.936
 8329SOL    HW225887   1.236   2.570   5.014
 8330SOL     OW25888   3.082   1.295   6.664
 8330SOL    HW125889   3.032   1.381   6.666
 8330SOL    HW225890   3.120   1.277   6.755
 8331SOL     OW25891   1.863   2.175   6.965
 8331SOL    HW125892   1.811   2.240   6.910
 8331SOL    HW225893   1.800   2.111   7.009
 8332SOL     OW25894   5.858   4.837   2.040
 8332SOL    HW125895   5.775   4.859   1.988
 8332SOL    HW225896   5.862   4.739   2.057
 8333SOL     OW25897   2.715   4.482   1.338
 8333SOL    HW125898   2.672   4.517   1.421
 8333SOL    HW225899   2.814   4.499   1.342
 8334SOL     OW25900   3.661   1.727   6.622
 8334SOL    HW125901   3.674   1.748   6.525
 8334SOL    HW225902   3.571   1.687   6.636
 8335SOL     OW25903   5.089   3.481   5.612
 8335SOL    HW125904   5.087   3.485   5.712
 8335SOL    HW225905   5.045   3.396   5.581
 8336SOL     OW25906   1.299   3.427   3.322
 8336SOL    HW125907   1.207   3.454   3.350
 8336SOL    HW225908   1.362   3.438   3.398
 8337SOL     OW25909   0.521   1.309   4.113
 8337SOL    HW125910   0.554   1.269   4.027
 8337SOL    HW225911   0.598   1.351   4.162
 8338SOL     OW25912   4.075   5.365   2.712
 8338SOL    HW125913   4.115   5.351   2.803
 8338SOL    HW225914   4.040   5.278   2.677
 8339SOL     OW25915   6.715   0.104   0.637
 8339SOL    HW125916   6.709   0.164   0.557
 8339SOL    HW225917   6.629   0.110   0.689
 8340SOL     OW25918   5.576   2.679   0.194
 8340SOL    HW125919   5.489   2.635   0.177
 8340SOL    HW225920   5.561   2.764   0.245
 8341SOL     OW25921   3.253   0.878   7.020
 8341SOL    HW125922   3.329   0.906   6.961
 8341SOL    HW225923   3.268   0.915   0.082
 8342SOL     OW25924   4.599   0.209   0.179
 8342SOL    HW125925   4.581   0.304   0.205
 8342SOL    HW225926   4.695   0.187   0.197
 8343SOL     OW25927   6.268   3.899   3.952
 8343SOL    HW125928   6.299   3.993   3.933
 8343SOL    HW225929   6.333   3.834   3.913
 8344SOL     OW25930   1.346   5.612   5.288
 8344SOL    HW125931   1.434   5.565   5.283
 8344SOL    HW225932   1.361   5.709   5.305
 8345SOL     OW25933   4.566   0.646   2.340
 8345SOL    HW125934   4.536   0.616   2.431
 8345SOL    HW225935   4.493   0.699   2.296
 8346SOL     OW25936   4.713   3.019   5.287
 8346SOL    HW125937   4.681   3.109   5.317
 8346SOL    HW225938   4.643   2.951   5.309
 8347SOL     OW25939   2.427   0.322   6.207
 8347SOL    HW125940   2.446   0.317   6.109
 8347SOL    HW225941   2.377   0.406   6.228
 8348SOL     OW25942   3.732   6.777   2.095
 8348SOL    HW125943   3.814   6.818   2.136
 8348SOL    HW225944   3.689   6.844   2.034
 8349SOL     OW25945   1.410   6.274   1.811
 8349SOL    HW125946   1.488   6.213   1.827
 8349SOL    HW225947   1.441   6.357   1.765
 8350SOL     OW25948   2.683   6.974   6.709
 8350SOL    HW125949   2.600   7.025   6.730
 8350SOL    HW225950   2.742   7.028   6.649
 8351SOL     OW25951   6.989   3.995   3.703
 8351SOL    HW125952   6.983   4.052   3.622
 8351SOL    HW225953   6.904   4.002   3.755
 8352SOL     OW25954   2.922   5.061   1.617
 8352SOL    HW125955   2.829   5.096   1.631
 8352SOL    HW225956   2.988   5.132   1.644
 8353SOL     OW25957   1.661   3.915   2.930
 8353SOL    HW125958   1.712   3.874   2.855
 8353SOL    HW225959   1.658   3.851   3.008
 8354SOL     OW25960   3.208   0.255   3.963
 8354SOL    HW125961   3.167   0.185   3.904
 8354SOL    HW225962   3.275   0.213   4.024
 8355SOL     OW25963   2.004   6.214   5.639
 8355SOL    HW125964   2.004   6.277   5.717
 8355SOL    HW225965   2.043   6.126   5.667
 8356SOL     OW25966   1.407   5.368   1.077
 8356SOL    HW125967   1.430   5.424   0.998
 8356SOL    HW225968   1.488   5.318   1.108
 8357SOL     OW25969   4.267   6.182   6.085
 8357SOL    HW125970   4.291   6.214   5.993
 8357SOL    HW225971   4.168   6.191   6.099
 8358SOL     OW25972   1.092   2.316   4.855
 8358SOL    HW125973   0.996   2.344   4.866
 8358SOL    HW225974   1.112   2.242   4.920
 8359SOL     OW25975   3.145   1.965   5.245
 8359SOL    HW125976   3.075   2.022   5.289
 8359SOL    HW225977   3.141   1.977   5.146
 8360SOL     OW25978   5.054   7.005   0.594
 8360SOL    HW125979   5.024   6.941   0.523
 8360SOL    HW225980   5.105   6.955   0.664
 8361SOL     OW25981   3.290   0.190   0.457
 8361SOL    HW125982   3.324   0.096   0.455
 8361SOL    HW225983   3.295   0.229   0.365
 8362SOL     OW25984   6.666   3.785   1.351
 8362SOL    HW125985   6.650   3.701   1.299
 8362SOL    HW225986   6.710   3.762   1.438
 8363SOL     OW25987   2.954   2.609   6.963
 8363SOL    HW125988   2.893   2.562   6.898
 8363SOL    HW225989   3.029   2.549   6.988
 8364SOL     OW25990   0.152   2.573   3.774
 8364SOL    HW125991   0.171   2.492   3.718
 8364SOL    HW225992   0.236   2.602   3.820
 8365SOL     OW25993   2.012   2.509   2.864
 8365SOL    HW125994   2.004   2.534   2.961
 8365SOL    HW225995   2.018   2.410   2.855
 8366SOL     OW25996   4.966   5.896   1.140
 8366SOL    HW125997   5.018   5.948   1.207
 8366SOL    HW225998   4.869   5.894   1.167
 8367SOL     OW25999   4.316   5.243   4.648
 8367SOL    HW126000   4.240   5.294   4.607
 8367SOL    HW226001   4.328   5.156   4.599
 8368SOL     OW26002   0.898   6.165   0.246
 8368SOL    HW126003   0.873   6.111   0.165
 8368SOL    HW226004   0.831   6.239   0.258
 8369SOL     OW26005   1.318   1.364   6.813
 8369SOL    HW126006   1.234   1.338   6.862
 8369SOL    HW226007   1.294   1.392   6.720
 8370SOL     OW26008   3.169   2.490   0.382
 8370SOL    HW126009   3.190   2.410   0.437
 8370SOL    HW226010   3.230   2.492   0.302
 8371SOL     OW26011   1.778   4.408   6.048
 8371SOL    HW126012   1.719   4.466   6.103
 8371SOL    HW226013   1.768   4.432   5.951
 8372SOL     OW26014   1.723   6.209   2.350
 8372SOL    HW126015   1.696   6.131   2.293
 8372SOL    HW226016   1.712   6.184   2.447
 8373SOL     OW26017   0.076   1.020   4.235
 8373SOL    HW126018   0.163   0.998   4.278
 8373SOL    HW226019   0.052   1.115   4.254
 8374SOL     OW26020   1.882   0.850   4.959
 8374SOL    HW126021   1.884   0.756   4.926
 8374SOL    HW226022   1.794   0.867   5.003
 8375SOL     OW26023   4.289   1.441   4.940
 8375SOL    HW126024   4.230   1.521   4.955
 8375SOL    HW226025   4.327   1.410   5.027
 8376SOL     OW26026   1.905   0.658   3.021
 8376SOL    HW126027   1.883   0.647   2.924
 8376SOL    HW226028   1.903   0.569   3.066
 8377SOL     OW26029   5.115   5.407   6.516
 8377SOL    HW126030   5.177   5.430   6.440
 8377SOL    HW226031   5.155   5.333   6.570
 8378SOL     OW26032   6.564   5.874   3.606
 8378SOL    HW126033   6.525   5.935   3.675
 8378SOL    HW226034   6.539   5.780   3.626
 8379SOL     OW26035   5.901   1.355   2.205
 8379SOL    HW126036   5.967   1.409   2.153
 8379SOL    HW226037   5.901   1.261   2.171
 8380SOL     OW26038   6.576   5.560   0.644
 8380SOL    HW126039   6.652   5.495   0.639
 8380SOL    HW226040   6.504   5.532   0.581
 8381SOL     OW26041   0.181   1.772   2.690
 8381SOL    HW126042   0.082   1.767   2.682
 8381SOL    HW226043   0.223   1.715   2.618
 8382SOL     OW26044   2.671   0.391   0.443
 8382SOL    HW126045   2.667   0.292   0.427
 8382SOL    HW226046   2.639   0.439   0.361
 8383SOL     OW26047   2.908   6.533   5.137
 8383SOL    HW126048   2.964   6.451   5.130
 8383SOL    HW226049   2.873   6.557   5.047
 8384SOL     OW26050   0.350   2.764   0.776
 8384SOL    HW126051   0.276   2.768   0.843
 8384SOL    HW226052   0.406   2.683   0.794
 8385SOL     OW26053   4.641   3.463   0.679
 8385SOL    HW126054   4.667   3.559   0.690
 8385SOL    HW226055   4.713   3.405   0.717
 8386SOL     OW26056   1.784   5.648   1.892
 8386SOL    HW126057   1.809   5.577   1.825
 8386SOL    HW226058   1.831   5.733   1.869
 8387SOL     OW26059   2.044   1.189   1.582
 8387SOL    HW126060   1.985   1.130   1.637
 8387SOL    HW226061   2.015   1.185   1.486
 8388SOL     OW26062   3.100   6.432   0.542
 8388SOL    HW126063   3.145   6.402   0.625
 8388SOL    HW226064   3.042   6.511   0.561
 8389SOL     OW26065   1.144   2.319   4.574
 8389SOL    HW126066   1.141   2.302   4.673
 8389SOL    HW226067   1.094   2.403   4.553
 8390SOL     OW26068   1.862   0.615   5.963
 8390SOL    HW126069   1.932   0.608   6.033
 8390SOL    HW226070   1.780   0.659   6.001
 8391SOL     OW26071   4.983   5.624   1.852
 8391SOL    HW126072   5.031   5.629   1.764
 8391SOL    HW226073   5.013   5.543   1.902
 8392SOL     OW26074   5.835   6.106   5.129
 8392SOL    HW126075   5.768   6.180   5.133
 8392SOL    HW226076   5.792   6.024   5.090
 8393SOL     OW26077   0.104   6.254   3.021
 8393SOL    HW126078   0.030   6.321   3.028
 8393SOL    HW226079   0.140   6.235   3.113
 8394SOL     OW26080   0.826   1.709   3.365
 8394SOL    HW126081   0.770   1.646   3.311
 8394SOL    HW226082   0.906   1.736   3.312
 8395SOL     OW26083   0.119   6.598   4.552
 8395SOL    HW126084   0.206   6.591   4.504
 8395SOL    HW226085   0.118   6.536   4.630
 8396SOL     OW26086   4.661   4.442   2.534
 8396SOL    HW126087   4.578   4.497   2.533
 8396SOL    HW226088   4.697   4.433   2.441
 8397SOL     OW26089   1.637   6.050   2.572
 8397SOL    HW126090   1.703   5.994   2.624
 8397SOL    HW226091   1.549   6.003   2.570
 8398SOL     OW26092   4.330   1.521   0.033
 8398SOL    HW126093   4.392   1.476   0.097
 8398SOL    HW226094   4.254   1.562   0.084
 8399SOL     OW26095   5.794   6.257   0.420
 8399SOL    HW126096   5.808   6.169   0.466
 8399SOL    HW226097   5.882   6.298   0.398
 8400SOL     OW26098   0.087   0.152   2.771
 8400SOL    HW126099   0.096   0.056   2.799
 8400SOL    HW226100   0.066   0.156   2.673
 8401SOL     OW26101   3.717   3.837   6.356
 8401SOL    HW126102   3.805   3.825   6.310
 8401SOL    HW226103   3.646   3.791   6.303
 8402SOL     OW26104   3.833   1.818   6.339
 8402SOL    HW126105   3.743   1.793   6.304
 8402SOL    HW226106   3.836   1.916   6.356
 8403SOL     OW26107   1.517   1.407   4.171
 8403SOL    HW126108   1.590   1.340   4.185
 8403SOL    HW226109   1.431   1.370   4.206
 8404SOL     OW26110   4.675   6.028   5.885
 8404SOL    HW126111   4.687   6.127   5.893
 8404SOL    HW226112   4.647   6.005   5.791
 8405SOL     OW26113   0.396   2.637   6.475
 8405SOL    HW126114   0.482   2.675   6.507
 8405SOL    HW226115   0.329   2.637   6.549
 8406SOL     OW26116   4.779   2.201   1.006
 8406SOL    HW126117   4.826   2.274   1.056
 8406SOL    HW226118   4.749   2.131   1.071
 8407SOL     OW26119   5.630   4.479   4.150
 8407SOL    HW126120   5.706   4.435   4.199
 8407SOL    HW226121   5.650   4.481   4.052
 8408SOL     OW26122   4.798   1.100   4.097
 8408SOL    HW126123   4.819   1.018   4.044
 8408SOL    HW226124   4.801   1.180   4.037
 8409SOL     OW26125   1.151   1.362   3.980
 8409SOL    HW126126   1.183   1.331   3.890
 8409SOL    HW226127   1.202   1.445   4.006
 8410SOL     OW26128   4.253   6.890   1.620
 8410SOL    HW126129   4.272   6.931   1.530
 8410SOL    HW226130   4.331   6.905   1.680
 8411SOL     OW26131   1.665   4.390   4.344
 8411SOL    HW126132   1.582   4.359   4.297
 8411SOL    HW226133   1.742   4.390   4.279
 8412SOL     OW26134   4.584   2.517   1.876
 8412SOL    HW126135   4.528   2.567   1.810
 8412SOL    HW226136   4.526   2.453   1.927
 8413SOL     OW26137   3.490   4.984   0.357
 8413SOL    HW126138   3.568   4.933   0.322
 8413SOL    HW226139   3.451   4.936   0.435
 8414SOL     OW26140   3.847   5.936   3.568
 8414SOL    HW126141   3.900   5.887   3.637
 8414SOL    HW226142   3.847   6.033   3.589
 8415SOL     OW26143   0.015   4.133   3.475
 8415SOL    HW126144   0.058   4.063   3.418
 8415SOL    HW226145   6.993   4.196   3.418
 8416SOL     OW26146   5.192   3.916   2.697
 8416SOL    HW126147   5.234   3.916   2.606
 8416SOL    HW226148   5.166   4.010   2.721
 8417SOL     OW26149   2.334   6.252   6.390
 8417SOL    HW126150   2.247   6.212   6.418
 8417SOL    HW226151   2.364   6.210   6.305
 8418SOL     OW26152   6.229   5.788   2.736
 8418SOL    HW126153   6.173   5.854   2.686
 8418SOL    HW226154   6.282   5.734   2.671
 8419SOL     OW26155   4.394   0.297   2.416
 8419SOL    HW126156   4.465   0.232   2.387
 8419SOL    HW226157   4.332   0.315   2.340
 8420SOL     OW26158   3.768   0.632   6.728
 8420SOL    HW126159   3.824   0.553   6.701
 8420SOL    HW226160   3.789   0.656   6.822
 8421SOL     OW26161   1.754   6.790   2.138
 8421SOL    HW126162   1.770   6.853   2.062
 8421SOL    HW226163   1.669   6.816   2.185
 8422SOL     OW26164   5.022   6.791   0.396
 8422SOL    HW126165   5.008   6.692   0.403
 8422SOL    HW226166   5.043   6.816   0.302
 8423SOL     OW26167   3.595   4.753   0.109
 8423SOL    HW126168   3.666   4.683   0.102
 8423SOL    HW226169   3.538   4.751   0.026
 8424SOL     OW26170   3.442   1.889   2.442
 8424SOL    HW126171   3.418   1.847   2.355
 8424SOL    HW226172   3.453   1.818   2.512
 8425SOL     OW26173   6.290   5.187   1.593
 8425SOL    HW126174   6.358   5.131   1.640
 8425SOL    HW226175   6.268   5.267   1.649
 8426SOL     OW26176   3.828   3.428   3.849
 8426SOL    HW126177   3.735   3.447   3.817
 8426SOL    HW226178   3.824   3.383   3.938
 8427SOL     OW26179   1.918   3.847   6.768
 8427SOL    HW126180   1.957   3.797   6.846
 8427SOL    HW226181   1.955   3.810   6.683
 8428SOL     OW26182   0.579   4.541   2.235
 8428SOL    HW126183   0.553   4.570   2.143
 8428SOL    HW226184   0.503   4.556   2.298
 8429SOL     OW26185   2.561   5.441   3.999
 8429SOL    HW126186   2.578   5.373   3.928
 8429SOL    HW226187   2.465   5.467   3.999
 8430SOL     OW26188   4.668   4.522   2.798
 8430SOL    HW126189   4.650   4.473   2.714
 8430SOL    HW226190   4.767   4.532   2.810
 8431SOL     OW26191   3.606   4.838   1.092
 8431SOL    HW126192   3.508   4.839   1.113
 8431SOL    HW226193   3.624   4.772   1.019
 8432SOL     OW26194   4.318   5.375   6.384
 8432SOL    HW126195   4.306   5.359   6.482
 8432SOL    HW226196   4.366   5.462   6.371
 8433SOL     OW26197   0.888   2.867   6.655
 8433SOL    HW126198   0.952   2.874   6.578
 8433SOL    HW226199   0.860   2.771   6.666
 8434SOL     OW26200   4.496   6.494   5.948
 8434SOL    HW126201   4.506   6.568   5.882
 8434SOL    HW226202   4.429   6.428   5.914
 8435SOL     OW26203   4.254   2.077   1.114
 8435SOL    HW126204   4.336   2.112   1.160
 8435SOL    HW226205   4.212   2.005   1.169
 8436SOL     OW26206   3.980   4.812   2.565
 8436SOL    HW126207   3.908   4.799   2.632
 8436SOL    HW226208   3.943   4.797   2.473
 8437SOL     OW26209   0.429   0.892   0.948
 8437SOL    HW126210   0.452   0.840   0.866
 8437SOL    HW226211   0.330   0.904   0.953
 8438SOL     OW26212   2.645   4.662   2.498
 8438SOL    HW126213   2.609   4.755   2.509
 8438SOL    HW226214   2.691   4.655   2.410
 8439SOL     OW26215   6.864   5.401   2.139
 8439SOL    HW126216   6.819   5.353   2.214
 8439SOL    HW226217   6.918   5.477   2.176
 8440SOL     OW26218   6.886   0.718   1.483
 8440SOL    HW126219   6.824   0.797   1.490
 8440SOL    HW226220   6.967   0.735   1.539
 8441SOL     OW26221   5.274   5.759   6.825
 8441SOL    HW126222   5.189   5.804   6.852
 8441SOL    HW226223   5.341   5.768   6.900
 8442SOL     OW26224   2.837   4.534   0.213
 8442SOL    HW126225   2.836   4.486   0.126
 8442SOL    HW226226   2.805   4.628   0.200
 8443SOL     OW26227   0.895   0.605   3.326
 8443SOL    HW126228   0.918   0.655   3.410
 8443SOL    HW226229   0.911   0.507   3.340
 8444SOL     OW26230   3.942   6.389   4.193
 8444SOL    HW126231   3.988   6.477   4.181
 8444SOL    HW226232   3.867   6.381   4.128
 8445SOL     OW26233   3.520   5.498   3.177
 8445SOL    HW126234   3.424   5.489   3.152
 8445SOL    HW226235   3.574   5.524   3.097
 8446SOL     OW26236   5.334   5.379   3.092
 8446SOL    HW126237   5.265   5.433   3.141
 8446SOL    HW226238   5.347   5.418   3.000
 8447SOL     OW26239   5.119   2.594   1.588
 8447SOL    HW126240   5.209   2.610   1.627
 8447SOL    HW226241   5.074   2.682   1.572
 8448SOL     OW26242   0.065   3.792   6.203
 8448SOL    HW126243   0.035   3.789   6.108
 8448SOL    HW226244   0.146   3.735   6.214
 8449SOL     OW26245   0.343   3.446   4.785
 8449SOL    HW126246   0.353   3.516   4.855
 8449SOL    HW226247   0.300   3.365   4.824
 8450SOL     OW26248   1.522   5.968   2.927
 8450SOL    HW126249   1.582   5.901   2.883
 8450SOL    HW226250   1.567   6.004   3.009
 8451SOL     OW26251   3.555   3.223   1.055
 8451SOL    HW126252   3.547   3.139   1.108
 8451SOL    HW226253   3.647   3.261   1.066
 8452SOL     OW26254   6.662   0.418   0.803
 8452SOL    HW126255   6.636   0.445   0.896
 8452SOL    HW226256   6.756   0.382   0.803
 8453SOL     OW26257   6.465   4.822   6.555
 8453SOL    HW126258   6.445   4.916   6.585
 8453SOL    HW226259   6.564   4.809   6.551
 8454SOL     OW26260   1.536   6.565   2.910
 8454SOL    HW126261   1.578   6.636   2.854
 8454SOL    HW226262   1.453   6.531   2.865
 8455SOL     OW26263   4.904   1.508   1.302
 8455SOL    HW126264   4.823   1.564   1.285
 8455SOL    HW226265   4.976   1.564   1.343
 8456SOL     OW26266   5.475   5.255   4.062
 8456SOL    HW126267   5.476   5.160   4.094
 8456SOL    HW226268   5.536   5.265   3.984
 8457SOL     OW26269   6.699   0.225   5.490
 8457SOL    HW126270   6.661   0.185   5.573
 8457SOL    HW226271   6.765   0.296   5.514
 8458SOL     OW26272   2.102   1.720   0.016
 8458SOL    HW126273   2.023   1.725   6.984
 8458SOL    HW226274   2.164   1.649   7.015
 8459SOL     OW26275   3.947   5.976   2.477
 8459SOL    HW126276   3.890   5.981   2.396
 8459SOL    HW226277   3.915   6.042   2.545
 8460SOL     OW26278   4.584   2.638   6.776
 8460SOL    HW126279   4.566   2.540   6.776
 8460SOL    HW226280   4.508   2.685   6.823
 8461SOL     OW26281   0.494   3.957   1.709
 8461SOL    HW126282   0.449   4.017   1.642
 8461SOL    HW226283   0.593   3.962   1.698
 8462SOL     OW26284   3.745   3.668   6.959
 8462SOL    HW126285   3.682   3.680   6.883
 8462SOL    HW226286   3.696   3.633   0.009
 8463SOL     OW26287   6.891   2.174   7.012
 8463SOL    HW126288   6.829   2.105   0.019
 8463SOL    HW226289   6.850   2.265   7.021
 8464SOL     OW26290   7.024   3.505   6.390
 8464SOL    HW126291   0.062   3.433   6.370
 8464SOL    HW226292   7.011   3.562   6.309
 8465SOL     OW26293   3.234   2.468   0.969
 8465SOL    HW126294   3.270   2.526   1.042
 8465SOL    HW226295   3.158   2.414   1.003
 8466SOL     OW26296   5.402   0.586   5.311
 8466SOL    HW126297   5.434   0.511   5.252
 8466SOL    HW226298   5.427   0.674   5.271
 8467SOL     OW26299   3.586   0.815   0.553
 8467SOL    HW126300   3.565   0.800   0.457
 8467SOL    HW226301   3.500   0.823   0.605
 8468SOL     OW26302   6.136   3.598   6.570
 8468SOL    HW126303   6.164   3.511   6.610
 8468SOL    HW226304   6.070   3.642   6.631
 8469SOL     OW26305   4.210   2.647   5.626
 8469SOL    HW126306   4.116   2.674   5.648
 8469SOL    HW226307   4.219   2.635   5.527
 8470SOL     OW26308   0.995   4.894   1.270
 8470SOL    HW126309   0.993   4.883   1.370
 8470SOL    HW226310   0.903   4.914   1.237
 8471SOL     OW26311   2.996   0.461   4.635
 8471SOL    HW126312   3.047   0.375   4.633
 8471SOL    HW226313   2.944   0.467   4.720
 8472SOL     OW26314   5.620   1.278   6.313
 8472SOL    HW126315   5.673   1.362   6.300
 8472SOL    HW226316   5.678   1.199   6.298
 8473SOL     OW26317   4.725   4.626   0.073
 8473SOL    HW126318   4.723   4.726   0.086
 8473SOL    HW226319   4.769   4.605   7.015
 8474SOL     OW26320   2.998   3.343   3.088
 8474SOL    HW126321   3.037   3.265   3.039
 8474SOL    HW226322   2.932   3.390   3.029
 8475SOL     OW26323   0.236   3.688   1.347
 8475SOL    HW126324   0.283   3.739   1.275
 8475SOL    HW226325   0.195   3.605   1.309
 8476SOL     OW26326   6.313   0.552   1.475
 8476SOL    HW126327   6.394   0.553   1.417
 8476SOL    HW226328   6.322   0.479   1.543
 8477SOL     OW26329   4.922   6.601   1.530
 8477SOL    HW126330   4.868   6.521   1.503
 8477SOL    HW226331   4.997   6.615   1.465
 8478SOL     OW26332   1.043   0.832   5.620
 8478SOL    HW126333   0.953   0.834   5.576
 8478SOL    HW226334   1.087   0.744   5.604
 8479SOL     OW26335   1.943   2.162   0.942
 8479SOL    HW126336   1.894   2.090   0.893
 8479SOL    HW226337   1.882   2.240   0.956
 8480SOL     OW26338   4.504   2.775   0.366
 8480SOL    HW126339   4.584   2.808   0.416
 8480SOL    HW226340   4.510   2.676   0.355
 8481SOL     OW26341   3.865   2.073   4.473
 8481SOL    HW126342   3.902   2.150   4.420
 8481SOL    HW226343   3.884   2.088   4.570
 8482SOL     OW26344   4.404   1.206   6.911
 8482SOL    HW126345   4.316   1.249   6.932
 8482SOL    HW226346   4.477   1.256   6.958
 8483SOL     OW26347   3.358   6.263   3.706
 8483SOL    HW126348   3.387   6.186   3.649
 8483SOL    HW226349   3.330   6.339   3.647
 8484SOL     OW26350   6.315   5.957   5.146
 8484SOL    HW126351   6.393   6.014   5.118
 8484SOL    HW226352   6.345   5.891   5.214
 8485SOL     OW26353   3.589   2.348   0.274
 8485SOL    HW126354   3.613   2.270   0.332
 8485SOL    HW226355   3.602   2.322   0.178
 8486SOL     OW26356   1.849   1.399   2.270
 8486SOL    HW126357   1.791   1.389   2.189
 8486SOL    HW226358   1.938   1.435   2.242
 8487SOL     OW26359   5.199   1.757   6.179
 8487SOL    HW126360   5.284   1.796   6.145
 8487SOL    HW226361   5.205   1.743   6.277
 8488SOL     OW26362   5.762   5.268   2.737
 8488SOL    HW126363   5.719   5.262   2.647
 8488SOL    HW226364   5.730   5.194   2.795
 8489SOL     OW26365   5.463   0.951   1.608
 8489SOL    HW126366   5.454   0.889   1.686
 8489SOL    HW226367   5.434   1.043   1.636
 8490SOL     OW26368   2.748   7.018   6.288
 8490SOL    HW126369   2.802   0.018   6.209
 8490SOL    HW226370   2.769   0.046   6.367
 8491SOL     OW26371   2.000   6.139   2.890
 8491SOL    HW126372   1.997   6.150   2.989
 8491SOL    HW226373   1.916   6.093   2.859
 8492SOL     OW26374   5.931   3.874   4.419
 8492SOL    HW126375   5.956   3.782   4.451
 8492SOL    HW226376   5.891   3.868   4.328
 8493SOL     OW26377   2.800   1.165   0.230
 8493SOL    HW126378   2.875   1.104   0.257
 8493SOL    HW226379   2.814   1.255   0.271
 8494SOL     OW26380   5.634   4.928   1.855
 8494SOL    HW126381   5.682   5.013   1.836
 8494SOL    HW226382   5.568   4.909   1.782
 8495SOL     OW26383   6.187   5.611   0.806
 8495SOL    HW126384   6.150   5.529   0.762
 8495SOL    HW226385   6.124   5.687   0.794
 8496SOL     OW26386   5.596   1.413   2.077
 8496SOL    HW126387   5.641   1.377   2.159
 8496SOL    HW226388   5.512   1.461   2.104
 8497SOL     OW26389   0.173   0.275   3.586
 8497SOL    HW126390   0.263   0.236   3.565
 8497SOL    HW226391   0.184   0.353   3.648
 8498SOL     OW26392   5.296   6.833   3.829
 8498SOL    HW126393   5.256   6.874   3.910
 8498SOL    HW226394   5.225   6.814   3.762
 8499SOL     OW26395   0.641   5.605   0.572
 8499SOL    HW126396   0.710   5.637   0.508
 8499SOL    HW226397   0.637   5.505   0.569
 8500SOL     OW26398   1.573   0.571   5.856
 8500SOL    HW126399   1.570   0.638   5.783
 8500SOL    HW226400   1.648   0.506   5.839
 8501SOL     OW26401   0.340   2.273   0.088
 8501SOL    HW126402   0.429   2.231   0.109
 8501SOL    HW226403   0.315   2.335   0.162
 8502SOL     OW26404   0.613   3.244   7.018
 8502SOL    HW126405   0.538   3.207   0.042
 8502SOL    HW226406   0.687   3.177   7.013
 8503SOL     OW26407   6.573   6.287   4.370
 8503SOL    HW126408   6.479   6.284   4.405
 8503SOL    HW226409   6.593   6.201   4.323
 8504SOL     OW26410   2.395   5.145   2.391
 8504SOL    HW126411   2.370   5.215   2.458
 8504SOL    HW226412   2.315   5.123   2.334
 8505SOL     OW26413   5.430   3.698   2.615
 8505SOL    HW126414   5.446   3.638   2.536
 8505SOL    HW226415   5.410   3.791   2.582
 8506SOL     OW26416   1.526   0.751   6.487
 8506SOL    HW126417   1.556   0.808   6.563
 8506SOL    HW226418   1.475   0.673   6.522
 8507SOL     OW26419   4.540   0.167   5.216
 8507SOL    HW126420   4.441   0.170   5.233
 8507SOL    HW226421   4.557   0.150   5.119
 8508SOL     OW26422   4.013   1.866   6.595
 8508SOL    HW126423   3.985   1.869   6.499
 8508SOL    HW226424   3.932   1.864   6.653
 8509SOL     OW26425   5.570   0.227   3.311
 8509SOL    HW126426   5.523   0.167   3.246
 8509SOL    HW226427   5.659   0.188   3.334
 8510SOL     OW26428   5.203   2.777   4.244
 8510SOL    HW126429   5.227   2.764   4.340
 8510SOL    HW226430   5.261   2.719   4.187
 8511SOL     OW26431   5.773   3.205   2.362
 8511SOL    HW126432   5.824   3.151   2.430
 8511SOL    HW226433   5.718   3.274   2.409
 8512SOL     OW26434   2.301   0.381   3.572
 8512SOL    HW126435   2.324   0.441   3.649
 8512SOL    HW226436   2.265   0.436   3.497
 8513SOL     OW26437   5.979   6.076   0.190
 8513SOL    HW126438   6.043   6.040   0.258
 8513SOL    HW226439   5.994   6.174   0.178
 8514SOL     OW26440   3.307   6.409   3.281
 8514SOL    HW126441   3.376   6.357   3.231
 8514SOL    HW226442   3.316   6.506   3.258
 8515SOL     OW26443   5.698   2.512   0.937
 8515SOL    HW126444   5.751   2.574   0.880
 8515SOL    HW226445   5.714   2.417   0.909
 8516SOL     OW26446   6.569   2.175   2.423
 8516SOL    HW126447   6.510   2.249   2.452
 8516SOL    HW226448   6.570   2.103   2.492
 8517SOL     OW26449   0.988   2.398   6.803
 8517SOL    HW126450   1.028   2.323   6.749
 8517SOL    HW226451   0.947   2.361   6.886
 8518SOL     OW26452   3.509   5.253   0.298
 8518SOL    HW126453   3.565   5.280   0.219
 8518SOL    HW226454   3.512   5.153   0.308
 8519SOL     OW26455   1.682   5.988   2.190
 8519SOL    HW126456   1.593   5.960   2.156
 8519SOL    HW226457   1.711   5.925   2.262
 8520SOL     OW26458   4.072   1.202   0.295
 8520SOL    HW126459   4.095   1.105   0.295
 8520SOL    HW226460   4.035   1.227   0.206
 8521SOL     OW26461   0.092   6.490   5.720
 8521SOL    HW126462   0.019   6.425   5.742
 8521SOL    HW226463   0.162   6.489   5.792
 8522SOL     OW26464   1.044   6.865   3.715
 8522SOL    HW126465   1.109   6.907   3.778
 8522SOL    HW226466   0.964   6.925   3.705
 8523SOL     OW26467   2.581   6.624   6.139
 8523SOL    HW126468   2.539   6.679   6.211
 8523SOL    HW226469   2.678   6.646   6.132
 8524SOL     OW26470   0.997   3.476   5.197
 8524SOL    HW126471   0.985   3.509   5.290
 8524SOL    HW226472   0.908   3.453   5.158
 8525SOL     OW26473   5.762   3.338   3.143
 8525SOL    HW126474   5.738   3.401   3.069
 8525SOL    HW226475   5.814   3.261   3.106
 8526SOL     OW26476   2.305   2.912   1.740
 8526SOL    HW126477   2.238   2.971   1.694
 8526SOL    HW226478   2.397   2.949   1.726
 8527SOL     OW26479   4.573   0.430   4.449
 8527SOL    HW126480   4.597   0.464   4.540
 8527SOL    HW226481   4.652   0.438   4.389
 8528SOL     OW26482   4.808   3.088   6.082
 8528SOL    HW126483   4.711   3.065   6.087
 8528SOL    HW226484   4.834   3.137   6.166
 8529SOL     OW26485   1.538   4.862   0.225
 8529SOL    HW126486   1.464   4.920   0.191
 8529SOL    HW226487   1.555   4.883   0.321
 8530SOL     OW26488   1.531   4.383   5.510
 8530SOL    HW126489   1.549   4.284   5.509
 8530SOL    HW226490   1.432   4.399   5.501
 8531SOL     OW26491   5.221   4.529   2.790
 8531SOL    HW126492   5.176   4.542   2.879
 8531SOL    HW226493   5.182   4.592   2.723
 8532SOL     OW26494   3.531   5.563   5.291
 8532SOL    HW126495   3.512   5.465   5.289
 8532SOL    HW226496   3.584   5.590   5.211
 8533SOL     OW26497   3.188   1.271   4.415
 8533SOL    HW126498   3.187   1.217   4.500
 8533SOL    HW226499   3.167   1.366   4.436
 8534SOL     OW26500   1.482   3.529   3.144
 8534SOL    HW126501   1.561   3.577   3.182
 8534SOL    HW226502   1.409   3.526   3.212
 8535SOL     OW26503   0.645   2.058   4.514
 8535SOL    HW126504   0.622   2.152   4.489
 8535SOL    HW226505   0.744   2.049   4.519
 8536SOL     OW26506   6.853   1.792   5.926
 8536SOL    HW126507   6.920   1.793   5.852
 8536SOL    HW226508   6.901   1.795   6.014
 8537SOL     OW26509   5.719   0.600   1.342
 8537SOL    HW126510   5.654   0.597   1.418
 8537SOL    HW226511   5.796   0.660   1.366
 8538SOL     OW26512   6.922   0.657   4.865
 8538SOL    HW126513   6.888   0.643   4.772
 8538SOL    HW226514   6.876   0.594   4.927
 8539SOL     OW26515   0.297   2.631   2.031
 8539SOL    HW126516   0.208   2.664   2.001
 8539SOL    HW226517   0.342   2.584   1.955
 8540SOL     OW26518   3.076   0.734   0.727
 8540SOL    HW126519   3.096   0.638   0.708
 8540SOL    HW226520   2.977   0.747   0.735
 8541SOL     OW26521   2.990   1.393   4.741
 8541SOL    HW126522   2.943   1.434   4.662
 8541SOL    HW226523   3.060   1.330   4.708
 8542SOL     OW26524   1.996   4.364   6.792
 8542SOL    HW126525   1.936   4.380   6.871
 8542SOL    HW226526   2.079   4.318   6.822
 8543SOL     OW26527   2.280   2.426   5.072
 8543SOL    HW126528   2.319   2.382   4.991
 8543SOL    HW226529   2.349   2.429   5.144
 8544SOL     OW26530   4.969   3.988   5.317
 8544SOL    HW126531   4.931   4.041   5.392
 8544SOL    HW226532   5.059   4.022   5.293
 8545SOL     OW26533   3.703   6.828   5.702
 8545SOL    HW126534   3.734   6.774   5.624
 8545SOL    HW226535   3.761   6.908   5.712
 8546SOL     OW26536   5.567   0.598   1.562
 8546SOL    HW126537   5.595   0.627   1.654
 8546SOL    HW226538   5.562   0.498   1.560
 8547SOL     OW26539   6.711   6.288   5.706
 8547SOL    HW126540   6.709   6.353   5.630
 8547SOL    HW226541   6.653   6.209   5.684
 8548SOL     OW26542   0.840   3.100   5.982
 8548SOL    HW126543   0.934   3.068   5.975
 8548SOL    HW226544   0.785   3.032   6.030
 8549SOL     OW26545   2.185   0.799   3.129
 8549SOL    HW126546   2.183   0.884   3.076
 8549SOL    HW226547   2.128   0.730   3.084
 8550SOL     OW26548   0.966   4.611   6.906
 8550SOL    HW126549   1.038   4.578   6.968
 8550SOL    HW226550   0.885   4.554   6.917
 8551SOL     OW26551   2.105   2.041   6.334
 8551SOL    HW126552   2.053   2.100   6.272
 8551SOL    HW226553   2.070   1.947   6.328
 8552SOL     OW26554   2.693   1.450   2.826
 8552SOL    HW126555   2.763   1.498   2.774
 8552SOL    HW226556   2.612   1.507   2.835
 8553SOL     OW26557   4.797   2.971   1.038
 8553SOL    HW126558   4.737   3.038   1.082
 8553SOL    HW226559   4.892   2.988   1.065
 8554SOL     OW26560   0.780   6.523   0.903
 8554SOL    HW126561   0.869   6.478   0.904
 8554SOL    HW226562   0.735   6.508   0.815
 8555SOL     OW26563   4.600   1.375   3.819
 8555SOL    HW126564   4.573   1.280   3.804
 8555SOL    HW226565   4.531   1.436   3.780
 8556SOL     OW26566   2.051   6.166   0.066
 8556SOL    HW126567   1.973   6.175   0.003
 8556SOL    HW226568   2.065   6.252   0.114
 8557SOL     OW26569   6.694   0.760   6.835
 8557SOL    HW126570   6.736   0.851   6.833
 8557SOL    HW226571   6.637   0.748   6.753
 8558SOL     OW26572   3.112   4.894   3.282
 8558SOL    HW126573   3.172   4.932   3.352
 8558SOL    HW226574   3.024   4.867   3.323
 8559SOL     OW26575   1.099   5.360   2.692
 8559SOL    HW126576   1.059   5.272   2.664
 8559SOL    HW226577   1.072   5.379   2.787
 8560SOL     OW26578   2.303   4.824   1.358
 8560SOL    HW126579   2.281   4.730   1.332
 8560SOL    HW226580   2.402   4.834   1.370
 8561SOL     OW26581   3.325   0.317   2.628
 8561SOL    HW126582   3.285   0.328   2.537
 8561SOL    HW226583   3.316   0.222   2.657
 8562SOL     OW26584   3.966   1.292   0.012
 8562SOL    HW126585   4.039   1.330   6.985
 8562SOL    HW226586   3.919   1.366   0.059
 8563SOL     OW26587   1.667   5.465   3.399
 8563SOL    HW126588   1.604   5.389   3.389
 8563SOL    HW226589   1.620   5.551   3.377
 8564SOL     OW26590   3.981   6.831   0.079
 8564SOL    HW126591   3.891   6.800   0.047
 8564SOL    HW226592   4.052   6.780   0.031
 8565SOL     OW26593   3.122   5.209   1.285
 8565SOL    HW126594   3.171   5.263   1.353
 8565SOL    HW226595   3.186   5.180   1.213
 8566SOL     OW26596   3.169   1.044   3.105
 8566SOL    HW126597   3.196   1.121   3.163
 8566SOL    HW226598   3.178   1.070   3.009
 8567SOL     OW26599   1.794   1.931   1.369
 8567SOL    HW126600   1.849   1.863   1.318
 8567SOL    HW226601   1.741   1.884   1.439
 8568SOL     OW26602   0.002   1.692   0.089
 8568SOL    HW126603   6.934   1.708   0.077
 8568SOL    HW226604   0.050   1.780   0.093
 8569SOL     OW26605   5.253   2.516   6.093
 8569SOL    HW126606   5.312   2.594   6.070
 8569SOL    HW226607   5.206   2.535   6.180
 8570SOL     OW26608   0.928   2.162   4.478
 8570SOL    HW126609   0.956   2.083   4.423
 8570SOL    HW226610   1.010   2.212   4.507
 8571SOL     OW26611   2.093   0.727   4.131
 8571SOL    HW126612   2.102   0.827   4.123
 8571SOL    HW226613   2.069   0.703   4.225
 8572SOL     OW26614   3.309   4.136   5.807
 8572SOL    HW126615   3.339   4.162   5.898
 8572SOL    HW226616   3.315   4.215   5.746
 8573SOL     OW26617   3.547   5.926   1.144
 8573SOL    HW126618   3.638   5.959   1.122
 8573SOL    HW226619   3.486   5.941   1.066
 8574SOL     OW26620   6.935   6.337   5.488
 8574SOL    HW126621   6.925   6.298   5.396
 8574SOL    HW226622   6.910   6.269   5.556
 8575SOL     OW26623   3.327   6.568   2.691
 8575SOL    HW126624   3.385   6.649   2.691
 8575SOL    HW226625   3.283   6.559   2.601
 8576SOL     OW26626   0.620   3.892   4.180
 8576SOL    HW126627   0.552   3.921   4.248
 8576SOL    HW226628   0.690   3.835   4.224
 8577SOL     OW26629   1.518   1.411   6.261
 8577SOL    HW126630   1.554   1.333   6.312
 8577SOL    HW226631   1.577   1.490   6.274
 8578SOL     OW26632   6.304   6.836   5.021
 8578SOL    HW126633   6.236   6.777   5.065
 8578SOL    HW226634   6.393   6.790   5.022
 8579SOL     OW26635   2.555   6.248   2.611
 8579SOL    HW126636   2.635   6.188   2.624
 8579SOL    HW226637   2.542   6.265   2.513
 8580SOL     OW26638   1.298   6.535   1.298
 8580SOL    HW126639   1.222   6.594   1.327
 8580SOL    HW226640   1.327   6.561   1.206
 8581SOL     OW26641   3.821   4.882   1.322
 8581SOL    HW126642   3.803   4.961   1.380
 8581SOL    HW226643   3.755   4.879   1.247
 8582SOL     OW26644   4.142   4.794   5.546
 8582SOL    HW126645   4.055   4.759   5.582
 8582SOL    HW226646   4.124   4.875   5.490
 8583SOL     OW26647   4.017   0.653   2.711
 8583SOL    HW126648   3.977   0.566   2.681
 8583SOL    HW226649   3.944   0.714   2.742
 8584SOL     OW26650   6.413   1.013   4.434
 8584SOL    HW126651   6.510   0.992   4.423
 8584SOL    HW226652   6.370   0.941   4.488
 8585SOL     OW26653   6.000   1.982   1.326
 8585SOL    HW126654   5.990   1.948   1.232
 8585SOL    HW226655   6.007   1.904   1.389
 8586SOL     OW26656   5.468   6.578   1.318
 8586SOL    HW126657   5.401   6.508   1.292
 8586SOL    HW226658   5.517   6.609   1.236
 8587SOL     OW26659   1.078   1.317   5.842
 8587SOL    HW126660   1.010   1.390   5.836
 8587SOL    HW226661   1.039   1.232   5.806
 8588SOL     OW26662   2.780   1.763   7.007
 8588SOL    HW126663   2.832   1.828   6.952
 8588SOL    HW226664   2.730   1.813   0.048
 8589SOL     OW26665   0.413   3.333   5.881
 8589SOL    HW126666   0.398   3.403   5.811
 8589SOL    HW226667   0.396   3.373   5.971
 8590SOL     OW26668   0.074   2.019   2.767
 8590SOL    HW126669   7.012   1.991   2.738
 8590SOL    HW226670   0.138   1.943   2.755
 8591SOL     OW26671   6.887   5.254   0.293
 8591SOL    HW126672   6.976   5.296   0.309
 8591SOL    HW226673   6.863   5.196   0.372
 8592SOL     OW26674   0.705   2.556   0.038
 8592SOL    HW126675   0.769   2.492   0.080
 8592SOL    HW226676   0.753   2.641   0.015
 8593SOL     OW26677   2.746   0.318   6.412
 8593SOL    HW126678   2.801   0.254   6.465
 8593SOL    HW226679   2.649   0.299   6.426
 8594SOL     OW26680   6.111   2.658   6.073
 8594SOL    HW126681   6.134   2.665   6.170
 8594SOL    HW226682   6.188   2.687   6.017
 8595SOL     OW26683   4.908   6.689   2.187
 8595SOL    HW126684   4.998   6.727   2.164
 8595SOL    HW226685   4.919   6.620   2.259
 8596SOL     OW26686   1.361   3.399   3.830
 8596SOL    HW126687   1.451   3.356   3.833
 8596SOL    HW226688   1.297   3.337   3.784
 8597SOL     OW26689   6.356   3.649   1.335
 8597SOL    HW126690   6.359   3.551   1.356
 8597SOL    HW226691   6.443   3.676   1.293
 8598SOL     OW26692   5.476   0.727   4.754
 8598SOL    HW126693   5.451   0.776   4.671
 8598SOL    HW226694   5.566   0.757   4.785
 8599SOL     OW26695   1.538   2.660   3.385
 8599SOL    HW126696   1.477   2.619   3.452
 8599SOL    HW226697   1.484   2.711   3.318
 8600SOL     OW26698   4.434   3.501   0.824
 8600SOL    HW126699   4.347   3.454   0.807
 8600SOL    HW226700   4.499   3.478   0.752
 8601SOL     OW26701   0.892   0.843   3.773
 8601SOL    HW126702   0.872   0.930   3.819
 8601SOL    HW226703   0.811   0.812   3.723
 8602SOL     OW26704   2.646   6.923   4.487
 8602SOL    HW126705   2.594   6.861   4.429
 8602SOL    HW226706   2.710   6.871   4.543
 8603SOL     OW26707   6.948   0.306   0.075
 8603SOL    HW126708   6.887   0.340   0.003
 8603SOL    HW226709   6.959   0.376   0.145
 8604SOL     OW26710   1.232   4.266   6.020
 8604SOL    HW126711   1.277   4.234   5.937
 8604SOL    HW226712   1.300   4.306   6.081
 8605SOL     OW26713   6.933   4.670   4.788
 8605SOL    HW126714   6.856   4.702   4.844
 8605SOL    HW226715   6.904   4.591   4.733
 8606SOL     OW26716   2.006   2.322   6.661
 8606SOL    HW126717   1.917   2.338   6.618
 8606SOL    HW226718   2.026   2.224   6.660
 8607SOL     OW26719   2.035   4.821   1.434
 8607SOL    HW126720   1.990   4.873   1.362
 8607SOL    HW226721   2.134   4.826   1.422
 8608SOL     OW26722   2.729   4.680   3.237
 8608SOL    HW126723   2.697   4.585   3.235
 8608SOL    HW226724   2.734   4.715   3.144
 8609SOL     OW26725   5.010   1.460   3.434
 8609SOL    HW126726   5.082   1.450   3.366
 8609SOL    HW226727   4.991   1.372   3.476
 8610SOL     OW26728   6.957   6.532   3.087
 8610SOL    HW126729   0.006   6.535   3.149
 8610SOL    HW226730   6.877   6.501   3.137
 8611SOL     OW26731   3.109   1.249   3.568
 8611SOL    HW126732   3.096   1.236   3.666
 8611SOL    HW226733   3.152   1.167   3.529
 8612SOL     OW26734   4.024   3.527   3.194
 8612SOL    HW126735   4.008   3.553   3.290
 8612SOL    HW226736   4.044   3.429   3.189
 8613SOL     OW26737   2.958   2.570   1.459
 8613SOL    HW126738   3.030   2.507   1.488
 8613SOL    HW226739   2.874   2.518   1.443
 8614SOL     OW26740   1.140   2.173   1.257
 8614SOL    HW126741   1.212   2.230   1.216
 8614SOL    HW226742   1.073   2.148   1.187
 8615SOL     OW26743   4.686   2.177   3.618
 8615SOL    HW126744   4.689   2.192   3.717
 8615SOL    HW226745   4.776   2.147   3.586
 8616SOL     OW26746   4.291   4.979   2.563
 8616SOL    HW126747   4.270   4.882   2.573
 8616SOL    HW226748   4.384   4.997   2.596
 8617SOL     OW26749   5.149   7.012   4.008
 8617SOL    HW126750   5.243   0.017   4.009
 8617SOL    HW226751   5.086   0.057   4.030
 8618SOL     OW26752   6.027   3.911   1.513
 8618SOL    HW126753   6.048   3.994   1.461
 8618SOL    HW226754   5.963   3.934   1.587
 8619SOL     OW26755   5.211   4.950   2.174
 8619SOL    HW126756   5.192   4.858   2.207
 8619SOL    HW226757   5.210   5.014   2.252
 8620SOL     OW26758   2.420   0.726   4.949
 8620SOL    HW126759   2.322   0.744   4.939
 8620SOL    HW226760   2.461   0.793   5.011
 8621SOL     OW26761   4.869   2.552   1.815
 8621SOL    HW126762   4.770   2.535   1.816
 8621SOL    HW226763   4.887   2.637   1.765
 8622SOL     OW26764   6.592   5.280   2.670
 8622SOL    HW126765   6.623   5.365   2.712
 8622SOL    HW226766   6.671   5.227   2.640
 8623SOL     OW26767   6.813   3.525   4.800
 8623SOL    HW126768   6.883   3.455   4.785
 8623SOL    HW226769   6.761   3.538   4.716
 8624SOL     OW26770   3.296   3.604   6.108
 8624SOL    HW126771   3.215   3.605   6.167
 8624SOL    HW226772   3.355   3.527   6.134
 8625SOL     OW26773   3.368   1.704   5.358
 8625SOL    HW126774   3.456   1.672   5.394
 8625SOL    HW226775   3.296   1.638   5.383
 8626SOL     OW26776   4.758   3.199   0.766
 8626SOL    HW126777   4.781   3.163   0.675
 8626SOL    HW226778   4.773   3.127   0.834
 8627SOL     OW26779   1.750   1.205   2.652
 8627SOL    HW126780   1.681   1.222   2.723
 8627SOL    HW226781   1.796   1.118   2.672
 8628SOL     OW26782   0.183   6.508   6.984
 8628SOL    HW126783   0.222   6.502   0.046
 8628SOL    HW226784   0.183   6.417   6.942
 8629SOL     OW26785   0.976   0.163   4.223
 8629SOL    HW126786   0.926   0.241   4.261
 8629SOL    HW226787   0.954   0.081   4.275
 8630SOL     OW26788   4.974   3.299   3.577
 8630SOL    HW126789   5.068   3.265   3.575
 8630SOL    HW226790   4.938   3.300   3.484
 8631SOL     OW26791   2.605   5.860   0.158
 8631SOL    HW126792   2.506   5.847   0.149
 8631SOL    HW226793   2.636   5.926   0.090
 8632SOL     OW26794   4.314   4.743   5.245
 8632SOL    HW126795   4.327   4.799   5.326
 8632SOL    HW226796   4.233   4.685   5.257
 8633SOL     OW26797   5.269   4.009   5.808
 8633SOL    HW126798   5.206   4.023   5.883
 8633SOL    HW226799   5.355   3.970   5.843
 8634SOL     OW26800   5.598   5.185   0.690
 8634SOL    HW126801   5.612   5.107   0.629
 8634SOL    HW226802   5.686   5.215   0.726
 8635SOL     OW26803   6.282   2.946   6.844
 8635SOL    HW126804   6.228   2.872   6.886
 8635SOL    HW226805   6.344   2.984   6.913
 8636SOL     OW26806   4.234   5.981   0.987
 8636SOL    HW126807   4.183   5.979   0.901
 8636SOL    HW226808   4.194   6.050   1.048
 8637SOL     OW26809   1.761   1.545   6.568
 8637SOL    HW126810   1.719   1.628   6.605
 8637SOL    HW226811   1.758   1.548   6.468
 8638SOL     OW26812   4.087   2.870   5.471
 8638SOL    HW126813   4.171   2.895   5.423
 8638SOL    HW226814   4.087   2.912   5.562
 8639SOL     OW26815   4.842   3.029   6.745
 8639SOL    HW126816   4.785   3.019   6.664
 8639SOL    HW226817   4.800   2.982   6.822
 8640SOL     OW26818   3.282   3.310   1.132
 8640SOL    HW126819   3.319   3.391   1.176
 8640SOL    HW226820   3.355   3.245   1.112
 8641SOL     OW26821   4.735   5.275   2.922
 8641SOL    HW126822   4.724   5.234   2.831
 8641SOL    HW226823   4.733   5.375   2.914
 8642SOL     OW26824   0.994   6.448   4.192
 8642SOL    HW126825   0.993   6.402   4.104
 8642SOL    HW226826   0.962   6.385   4.263
 8643SOL     OW26827   3.454   6.676   0.676
 8643SOL    HW126828   3.482   6.584   0.705
 8643SOL    HW226829   3.471   6.741   0.749
 8644SOL     OW26830   6.264   2.273   6.534
 8644SOL    HW126831   6.329   2.325   6.591
 8644SOL    HW226832   6.300   2.266   6.441
 8645SOL     OW26833   5.836   4.302   1.871
 8645SOL    HW126834   5.758   4.304   1.809
 8645SOL    HW226835   5.859   4.395   1.899
 8646SOL     OW26836   0.538   2.318   5.577
 8646SOL    HW126837   0.577   2.342   5.666
 8646SOL    HW226838   0.458   2.376   5.559
 8647SOL     OW26839   2.561   4.885   1.320
 8647SOL    HW126840   2.632   4.846   1.378
 8647SOL    HW226841   2.569   4.984   1.319
 8648SOL     OW26842   5.921   6.349   1.126
 8648SOL    HW126843   5.901   6.368   1.030
 8648SOL    HW226844   5.963   6.258   1.134
 8649SOL     OW26845   4.521   7.023   0.435
 8649SOL    HW126846   4.545   6.929   0.456
 8649SOL    HW226847   4.603   0.051   0.438
 8650SOL     OW26848   2.160   0.405   4.872
 8650SOL    HW126849   2.100   0.326   4.861
 8650SOL    HW226850   2.251   0.374   4.900
 8651SOL     OW26851   2.645   1.343   0.886
 8651SOL    HW126852   2.742   1.366   0.896
 8651SOL    HW226853   2.604   1.335   0.977
 8652SOL     OW26854   1.446   4.310   4.212
 8652SOL    HW126855   1.413   4.228   4.164
 8652SOL    HW226856   1.385   4.387   4.191
 8653SOL     OW26857   0.071   2.128   5.986
 8653SOL    HW126858   0.100   2.168   6.073
 8653SOL    HW226859   0.102   2.033   5.982
 8654SOL     OW26860   1.080   4.575   2.183
 8654SOL    HW126861   1.144   4.608   2.113
 8654SOL    HW226862   1.108   4.484   2.213
 8655SOL     OW26863   6.720   1.640   5.300
 8655SOL    HW126864   6.682   1.702   5.230
 8655SOL    HW226865   6.666   1.556   5.302
 8656SOL     OW26866   4.782   6.973   1.754
 8656SOL    HW126867   4.779   0.030   1.805
 8656SOL    HW226868   4.837   6.907   1.804
 8657SOL     OW26869   5.565   0.396   2.417
 8657SOL    HW126870   5.540   0.493   2.424
 8657SOL    HW226871   5.658   0.389   2.382
 8658SOL     OW26872   6.395   5.038   1.357
 8658SOL    HW126873   6.327   5.101   1.395
 8658SOL    HW226874   6.349   4.956   1.324
 8659SOL     OW26875   4.886   1.774   2.634
 8659SOL    HW126876   4.812   1.833   2.666
 8659SOL    HW226877   4.926   1.814   2.551
 8660SOL     OW26878   0.738   2.646   1.203
 8660SOL    HW126879   0.745   2.742   1.176
 8660SOL    HW226880   0.815   2.595   1.165
 8661SOL     OW26881   6.075   3.013   3.256
 8661SOL    HW126882   6.005   3.075   3.291
 8661SOL    HW226883   6.039   2.964   3.176
 8662SOL     OW26884   3.262   5.858   2.600
 8662SOL    HW126885   3.356   5.847   2.634
 8662SOL    HW226886   3.207   5.780   2.632
 8663SOL     OW26887   3.337   5.684   3.438
 8663SOL    HW126888   3.393   5.726   3.510
 8663SOL    HW226889   3.303   5.755   3.377
 8664SOL     OW26890   2.512   5.832   3.447
 8664SOL    HW126891   2.437   5.897   3.453
 8664SOL    HW226892   2.495   5.768   3.372
 8665SOL     OW26893   5.835   4.883   5.977
 8665SOL    HW126894   5.840   4.787   6.005
 8665SOL    HW226895   5.903   4.936   6.028
 8666SOL     OW26896   5.657   0.396   3.764
 8666SOL    HW126897   5.683   0.488   3.794
 8666SOL    HW226898   5.692   0.328   3.829
 8667SOL     OW26899   4.867   1.459   4.044
 8667SOL    HW126900   4.925   1.514   4.103
 8667SOL    HW226901   4.772   1.465   4.075
 8668SOL     OW26902   5.648   2.500   5.179
 8668SOL    HW126903   5.562   2.544   5.204
 8668SOL    HW226904   5.634   2.402   5.168
 8669SOL     OW26905   6.184   6.421   6.234
 8669SOL    HW126906   6.118   6.410   6.159
 8669SOL    HW226907   6.156   6.365   6.312
 8670SOL     OW26908   5.636   5.001   6.114
 8670SOL    HW126909   5.708   4.955   6.063
 8670SOL    HW226910   5.565   4.936   6.139
 8671SOL     OW26911   0.228   2.412   2.612
 8671SOL    HW126912   0.167   2.468   2.555
 8671SOL    HW226913   0.321   2.450   2.607
 8672SOL     OW26914   0.031   0.464   3.390
 8672SOL    HW126915   0.070   0.398   3.454
 8672SOL    HW226916   6.972   0.431   3.358
 8673SOL     OW26917   0.468   0.908   6.810
 8673SOL    HW126918   0.557   0.874   6.780
 8673SOL    HW226919   0.457   1.003   6.779
 8674SOL     OW26920   0.614   4.086   3.138
 8674SOL    HW126921   0.701   4.097   3.090
 8674SOL    HW226922   0.595   4.168   3.191
 8675SOL     OW26923   3.167   1.491   6.083
 8675SOL    HW126924   3.245   1.537   6.042
 8675SOL    HW226925   3.176   1.392   6.070
 8676SOL     OW26926   5.622   1.127   1.160
 8676SOL    HW126927   5.609   1.208   1.102
 8676SOL    HW226928   5.640   1.048   1.101
 8677SOL     OW26929   1.629   6.588   5.846
 8677SOL    HW126930   1.567   6.665   5.865
 8677SOL    HW226931   1.604   6.510   5.903
 8678SOL     OW26932   1.364   0.115   0.354
 8678SOL    HW126933   1.296   0.092   0.424
 8678SOL    HW226934   1.439   0.049   0.357
 8679SOL     OW26935   2.356   1.005   4.113
 8679SOL    HW126936   2.285   0.963   4.170
 8679SOL    HW226937   2.413   0.934   4.073
 8680SOL     OW26938   6.413   2.575   6.293
 8680SOL    HW126939   6.320   2.588   6.329
 8680SOL    HW226940   6.434   2.647   6.228
 8681SOL     OW26941   5.271   6.028   0.787
 8681SOL    HW126942   5.183   6.040   0.834
 8681SOL    HW226943   5.255   6.019   0.689
 8682SOL     OW26944   6.945   0.301   0.922
 8682SOL    HW126945   7.021   0.329   0.981
 8682SOL    HW226946   6.971   0.314   0.826
 8683SOL     OW26947   1.712   3.618   5.121
 8683SOL    HW126948   1.614   3.637   5.124
 8683SOL    HW226949   1.759   3.694   5.076
 8684SOL     OW26950   0.767   4.145   4.884
 8684SOL    HW126951   0.719   4.068   4.925
 8684SOL    HW226952   0.756   4.142   4.784
 8685SOL     OW26953   4.902   2.509   5.895
 8685SOL    HW126954   4.914   2.553   5.806
 8685SOL    HW226955   4.942   2.417   5.892
 8686SOL     OW26956   6.444   6.428   2.265
 8686SOL    HW126957   6.362   6.460   2.217
 8686SOL    HW226958   6.417   6.384   2.350
 8687SOL     OW26959   6.184   3.082   3.485
 8687SOL    HW126960   6.155   3.061   3.391
 8687SOL    HW226961   6.283   3.074   3.491
 8688SOL     OW26962   1.706   4.152   6.141
 8688SOL    HW126963   1.746   4.237   6.108
 8688SOL    HW226964   1.779   4.090   6.170
 8689SOL     OW26965   4.278   2.959   0.700
 8689SOL    HW126966   4.270   2.862   0.724
 8689SOL    HW226967   4.298   2.968   0.603
 8690SOL     OW26968   1.223   1.749   2.753
 8690SOL    HW126969   1.283   1.822   2.718
 8690SOL    HW226970   1.260   1.660   2.727
 8691SOL     OW26971   2.929   1.994   4.541
 8691SOL    HW126972   2.989   1.957   4.470
 8691SOL    HW226973   2.974   2.073   4.585
 8692SOL     OW26974   4.453   2.310   5.949
 8692SOL    HW126975   4.362   2.351   5.950
 8692SOL    HW226976   4.521   2.379   5.973
 8693SOL     OW26977   6.403   1.116   6.807
 8693SOL    HW126978   6.320   1.075   6.770
 8693SOL    HW226979   6.480   1.098   6.746
 8694SOL     OW26980   5.734   3.371   3.996
 8694SOL    HW126981   5.704   3.278   3.975
 8694SOL    HW226982   5.829   3.383   3.970
 8695SOL     OW26983   4.284   3.636   6.801
 8695SOL    HW126984   4.294   3.613   6.704
 8695SOL    HW226985   4.334   3.570   6.857
 8696SOL     OW26986   2.789   5.620   5.906
 8696SOL    HW126987   2.834   5.679   5.973
 8696SOL    HW226988   2.809   5.524   5.928
 8697SOL     OW26989   1.733   4.246   5.747
 8697SOL    HW126990   1.708   4.184   5.673
 8697SOL    HW226991   1.780   4.326   5.709
 8698SOL     OW26992   5.230   5.991   5.847
 8698SOL    HW126993   5.190   6.005   5.756
 8698SOL    HW226994   5.244   5.893   5.862
 8699SOL     OW26995   2.606   2.437   6.683
 8699SOL    HW126996   2.531   2.378   6.654
 8699SOL    HW226997   2.623   2.506   6.612
 8700SOL     OW26998   0.661   0.459   5.172
 8700SOL    HW126999   0.626   0.553   5.169
 8700SOL    HW227000   0.602   0.402   5.228
 8701SOL     OW27001   0.763   2.036   6.607
 8701SOL    HW127002   0.711   2.117   6.634
 8701SOL    HW227003   0.730   2.003   6.518
 8702SOL     OW27004   5.309   4.799   1.679
 8702SOL    HW127005   5.221   4.800   1.630
 8702SOL    HW227006   5.308   4.866   1.752
 8703SOL     OW27007   2.608   4.544   0.430
 8703SOL    HW127008   2.684   4.495   0.388
 8703SOL    HW227009   2.627   4.559   0.527
 8704SOL     OW27010   0.792   2.147   3.944
 8704SOL    HW127011   0.845   2.160   3.860
 8704SOL    HW227012   0.847   2.176   4.023
 8705SOL     OW27013   4.366   2.748   6.884
 8705SOL    HW127014   4.372   2.709   6.975
 8705SOL    HW227015   4.280   2.799   6.874
 8706SOL     OW27016   5.540   3.128   0.151
 8706SOL    HW127017   5.520   3.223   0.129
 8706SOL    HW227018   5.639   3.116   0.161
 8707SOL     OW27019   1.468   1.690   4.513
 8707SOL    HW127020   1.504   1.768   4.563
 8707SOL    HW227021   1.387   1.718   4.461
 8708SOL     OW27022   5.442   2.143   2.980
 8708SOL    HW127023   5.402   2.191   3.058
 8708SOL    HW227024   5.372   2.083   2.939
 8709SOL     OW27025   6.478   6.982   6.183
 8709SOL    HW127026   6.567   7.014   6.150
 8709SOL    HW227027   6.406   0.011   6.146
 8710SOL     OW27028   2.153   1.030   2.950
 8710SOL    HW127029   2.166   1.126   2.976
 8710SOL    HW227030   2.220   1.006   2.880
 8711SOL     OW27031   1.417   0.984   1.885
 8711SOL    HW127032   1.383   0.913   1.946
 8711SOL    HW227033   1.340   1.029   1.839
 8712SOL     OW27034   2.219   2.624   5.255
 8712SOL    HW127035   2.304   2.649   5.301
 8712SOL    HW227036   2.240   2.563   5.178
 8713SOL     OW27037   1.165   4.313   2.284
 8713SOL    HW127038   1.168   4.257   2.366
 8713SOL    HW227039   1.142   4.256   2.205
 8714SOL     OW27040   0.084   6.136   6.621
 8714SOL    HW127041   0.142   6.153   6.541
 8714SOL    HW227042   0.031   6.218   6.642
 8715SOL     OW27043   2.715   1.842   0.507
 8715SOL    HW127044   2.771   1.788   0.444
 8715SOL    HW227045   2.633   1.875   0.459
 8716SOL     OW27046   6.914   6.552   1.387
 8716SOL    HW127047   6.832   6.596   1.349
 8716SOL    HW227048   6.910   6.454   1.369
 8717SOL     OW27049   2.475   4.195   6.988
 8717SOL    HW127050   2.551   4.210   0.023
 8717SOL    HW227051   2.511   4.187   6.895
 8718SOL     OW27052   1.821   4.136   6.408
 8718SOL    HW127053   1.907   4.164   6.365
 8718SOL    HW227054   1.840   4.105   6.502
 8719SOL     OW27055   3.401   0.801   6.106
 8719SOL    HW127056   3.376   0.879   6.162
 8719SOL    HW227057   3.319   0.750   6.081
 8720SOL     OW27058   6.311   4.403   5.278
 8720SOL    HW127059   6.328   4.403   5.376
 8720SOL    HW227060   6.379   4.346   5.232
 8721SOL     OW27061   0.068   6.835   6.559
 8721SOL    HW127062   0.070   6.770   6.635
 8721SOL    HW227063   0.014   6.915   6.586
 8722SOL     OW27064   3.894   0.732   1.159
 8722SOL    HW127065   3.837   0.810   1.133
 8722SOL    HW227066   3.923   0.741   1.254
 8723SOL     OW27067   5.143   0.218   1.950
 8723SOL    HW127068   5.116   0.136   2.001
 8723SOL    HW227069   5.146   0.197   1.853
 8724SOL     OW27070   4.123   0.378   4.426
 8724SOL    HW127071   4.099   0.407   4.519
 8724SOL    HW227072   4.206   0.425   4.397
 8725SOL     OW27073   0.434   6.281   4.594
 8725SOL    HW127074   0.442   6.376   4.623
 8725SOL    HW227075   0.343   6.247   4.617
 8726SOL     OW27076   0.729   0.857   0.150
 8726SOL    HW127077   0.791   0.830   0.075
 8726SOL    HW227078   0.639   0.816   0.134
 8727SOL     OW27079   5.665   5.876   6.673
 8727SOL    HW127080   5.700   5.963   6.709
 8727SOL    HW227081   5.710   5.856   6.586
 8728SOL     OW27082   5.776   0.808   3.043
 8728SOL    HW127083   5.680   0.836   3.035
 8728SOL    HW227084   5.802   0.803   3.139
 8729SOL     OW27085   3.658   5.199   6.119
 8729SOL    HW127086   3.589   5.228   6.186
 8729SOL    HW227087   3.701   5.280   6.079
 8730SOL     OW27088   5.504   4.473   2.825
 8730SOL    HW127089   5.538   4.463   2.918
 8730SOL    HW227090   5.406   4.491   2.826
 8731SOL     OW27091   0.408   1.900   3.337
 8731SOL    HW127092   0.465   1.903   3.255
 8731SOL    HW227093   0.312   1.909   3.311
 8732SOL     OW27094   5.007   5.641   0.934
 8732SOL    HW127095   4.972   5.605   1.021
 8732SOL    HW227096   5.051   5.729   0.950
 8733SOL     OW27097   0.782   4.857   1.500
 8733SOL    HW127098   0.781   4.842   1.599
 8733SOL    HW227099   0.763   4.771   1.453
 8734SOL     OW27100   6.750   3.805   2.033
 8734SOL    HW127101   6.842   3.792   1.997
 8734SOL    HW227102   6.690   3.733   1.998
 8735SOL     OW27103   2.098   4.275   5.398
 8735SOL    HW127104   2.126   4.181   5.417
 8735SOL    HW227105   2.156   4.312   5.325
 8736SOL     OW27106   0.704   5.557   2.387
 8736SOL    HW127107   0.641   5.567   2.463
 8736SOL    HW227108   0.659   5.584   2.302
 8737SOL     OW27109   1.281   5.476   6.453
 8737SOL    HW127110   1.265   5.569   6.486
 8737SOL    HW227111   1.286   5.414   6.531
 8738SOL     OW27112   0.880   3.872   3.862
 8738SOL    HW127113   0.794   3.923   3.865
 8738SOL    HW227114   0.904   3.842   3.954
 8739SOL     OW27115   5.434   4.129   5.377
 8739SOL    HW127116   5.526   4.152   5.345
 8739SOL    HW227117   5.389   4.070   5.309
 8740SOL     OW27118   3.659   1.791   3.587
 8740SOL    HW127119   3.682   1.870   3.645
 8740SOL    HW227120   3.560   1.788   3.573
 8741SOL     OW27121   1.194   6.788   2.814
 8741SOL    HW127122   1.134   6.765   2.737
 8741SOL    HW227123   1.258   6.860   2.786
 8742SOL     OW27124   3.675   1.585   2.748
 8742SOL    HW127125   3.686   1.500   2.799
 8742SOL    HW227126   3.701   1.663   2.805
 8743SOL     OW27127   1.787   0.756   1.780
 8743SOL    HW127128   1.879   0.717   1.777
 8743SOL    HW227129   1.758   0.765   1.876
 8744SOL     OW27130   4.027   3.718   6.975
 8744SOL    HW127131   3.930   3.693   6.978
 8744SOL    HW227132   4.077   3.650   6.922
 8745SOL     OW27133   6.531   1.602   6.493
 8745SOL    HW127134   6.547   1.627   6.588
 8745SOL    HW227135   6.437   1.626   6.467
 8746SOL     OW27136   4.992   5.407   3.949
 8746SOL    HW127137   4.907   5.357   3.935
 8746SOL    HW227138   5.066   5.343   3.968
 8747SOL     OW27139   6.535   0.836   2.152
 8747SOL    HW127140   6.530   0.936   2.146
 8747SOL    HW227141   6.446   0.797   2.128
 8748SOL     OW27142   0.551   1.867   3.942
 8748SOL    HW127143   0.546   1.914   4.030
 8748SOL    HW227144   0.514   1.926   3.870
 8749SOL     OW27145   2.695   1.160   5.728
 8749SOL    HW127146   2.703   1.196   5.821
 8749SOL    HW227147   2.601   1.132   5.710
 8750SOL     OW27148   4.579   2.712   5.927
 8750SOL    HW127149   4.636   2.630   5.931
 8750SOL    HW227150   4.544   2.733   6.019
 8751SOL     OW27151   0.201   6.341   1.554
 8751SOL    HW127152   0.289   6.327   1.599
 8751SOL    HW227153   0.192   6.436   1.527
 8752SOL     OW27154   4.853   3.067   0.529
 8752SOL    HW127155   4.830   2.969   0.533
 8752SOL    HW227156   4.951   3.078   0.511
 8753SOL     OW27157   1.818   2.857   0.228
 8753SOL    HW127158   1.838   2.931   0.292
 8753SOL    HW227159   1.799   2.773   0.280
 8754SOL     OW27160   2.671   4.533   6.527
 8754SOL    HW127161   2.667   4.633   6.533
 8754SOL    HW227162   2.614   4.503   6.450
 8755SOL     OW27163   0.671   1.624   1.714
 8755SOL    HW127164   0.642   1.529   1.719
 8755SOL    HW227165   0.622   1.670   1.640
 8756SOL     OW27166   2.450   2.616   3.707
 8756SOL    HW127167   2.541   2.576   3.710
 8756SOL    HW227168   2.441   2.684   3.779
 8757SOL     OW27169   5.016   6.434   5.336
 8757SOL    HW127170   5.077   6.513   5.336
 8757SOL    HW227171   5.067   6.353   5.368
 8758SOL     OW27172   3.517   6.501   3.826
 8758SOL    HW127173   3.533   6.568   3.753
 8758SOL    HW227174   3.454   6.431   3.792
 8759SOL     OW27175   6.228   0.908   6.730
 8759SOL    HW127176   6.241   0.898   6.829
 8759SOL    HW227177   6.138   0.946   6.712
 8760SOL     OW27178   2.189   1.699   4.030
 8760SOL    HW127179   2.212   1.616   3.979
 8760SOL    HW227180   2.221   1.779   3.980
 8761SOL     OW27181   4.818   1.221   2.040
 8761SOL    HW127182   4.753   1.296   2.052
 8761SOL    HW227183   4.795   1.146   2.101
 8762SOL     OW27184   1.599   5.001   3.865
 8762SOL    HW127185   1.550   5.009   3.778
 8762SOL    HW227186   1.625   4.906   3.881
 8763SOL     OW27187   0.291   1.197   5.716
 8763SOL    HW127188   0.271   1.246   5.632
 8763SOL    HW227189   0.293   1.099   5.698
 8764SOL     OW27190   4.165   5.142   5.611
 8764SOL    HW127191   4.111   5.099   5.684
 8764SOL    HW227192   4.133   5.108   5.522
 8765SOL     OW27193   5.185   0.428   5.345
 8765SOL    HW127194   5.265   0.486   5.330
 8765SOL    HW227195   5.197   0.341   5.298
 8766SOL     OW27196   4.918   4.492   6.060
 8766SOL    HW127197   4.932   4.394   6.044
 8766SOL    HW227198   4.820   4.510   6.066
 8767SOL     OW27199   3.043   0.441   3.685
 8767SOL    HW127200   3.013   0.431   3.780
 8767SOL    HW227201   2.980   0.391   3.625
 8768SOL     OW27202   6.633   3.039   0.297
 8768SOL    HW127203   6.605   2.944   0.286
 8768SOL    HW227204   6.560   3.090   0.344
 8769SOL     OW27205   6.463   1.130   1.264
 8769SOL    HW127206   6.496   1.159   1.174
 8769SOL    HW227207   6.367   1.104   1.257
 8770SOL     OW27208   5.381   3.373   2.182
 8770SOL    HW127209   5.353   3.327   2.097
 8770SOL    HW227210   5.374   3.309   2.258
 8771SOL     OW27211   0.639   3.664   6.263
 8771SOL    HW127212   0.586   3.582   6.285
 8771SOL    HW227213   0.650   3.719   6.346
 8772SOL     OW27214   5.387   0.308   4.595
 8772SOL    HW127215   5.400   0.387   4.534
 8772SOL    HW227216   5.298   0.266   4.576
 8773SOL     OW27217   6.851   2.036   4.261
 8773SOL    HW127218   6.941   1.992   4.251
 8773SOL    HW227219   6.827   2.039   4.357
 8774SOL     OW27220   1.299   7.003   6.887
 8774SOL    HW127221   1.275   7.025   6.981
 8774SOL    HW227222   1.360   6.923   6.886
 8775SOL     OW27223   5.448   1.796   4.147
 8775SOL    HW127224   5.437   1.870   4.081
 8775SOL    HW227225   5.372   1.732   4.138
 8776SOL     OW27226   5.074   2.538   0.620
 8776SOL    HW127227   5.159   2.570   0.580
 8776SOL    HW227228   5.019   2.492   0.550
 8777SOL     OW27229   1.082   2.756   2.799
 8777SOL    HW127230   1.115   2.843   2.763
 8777SOL    HW227231   1.107   2.748   2.896
 8778SOL     OW27232   4.667   4.366   5.653
 8778SOL    HW127233   4.578   4.411   5.667
 8778SOL    HW227234   4.740   4.428   5.683
 8779SOL     OW27235   3.270   5.166   2.830
 8779SOL    HW127236   3.197   5.205   2.773
 8779SOL    HW227237   3.237   5.082   2.874
 8780SOL     OW27238   0.328   5.533   2.292
 8780SOL    HW127239   0.304   5.583   2.209
 8780SOL    HW227240   0.295   5.583   2.372
 8781SOL     OW27241   3.777   6.381   2.224
 8781SOL    HW127242   3.868   6.419   2.238
 8781SOL    HW227243   3.709   6.455   2.225
 8782SOL     OW27244   4.793   1.029   1.547
 8782SOL    HW127245   4.769   1.080   1.630
 8782SOL    HW227246   4.848   1.087   1.487
 8783SOL     OW27247   4.961   3.477   4.650
 8783SOL    HW127248   5.018   3.474   4.732
 8783SOL    HW227249   4.955   3.571   4.616
 8784SOL     OW27250   5.824   6.599   0.759
 8784SOL    HW127251   5.903   6.618   0.817
 8784SOL    HW227252   5.741   6.629   0.805
 8785SOL     OW27253   0.250   5.725   6.560
 8785SOL    HW127254   0.307   5.643   6.550
 8785SOL    HW227255   0.161   5.699   6.596
 8786SOL     OW27256   4.178   2.261   2.021
 8786SOL    HW127257   4.218   2.338   1.973
 8786SOL    HW227258   4.096   2.230   1.972
 8787SOL     OW27259   3.562   0.658   1.438
 8787SOL    HW127260   3.532   0.567   1.467
 8787SOL    HW227261   3.546   0.669   1.340
 8788SOL     OW27262   0.209   0.508   5.088
 8788SOL    HW127263   0.239   0.419   5.121
 8788SOL    HW227264   0.227   0.577   5.158
 8789SOL     OW27265   0.413   3.922   4.966
 8789SOL    HW127266   0.509   3.928   4.993
 8789SOL    HW227267   0.383   4.009   4.927
 8790SOL     OW27268   5.831   2.660   7.002
 8790SOL    HW127269   5.782   2.641   0.058
 8790SOL    HW227270   5.847   2.575   6.953
 8791SOL     OW27271   4.747   5.729   5.477
 8791SOL    HW127272   4.827   5.682   5.514
 8791SOL    HW227273   4.677   5.662   5.455
 8792SOL     OW27274   4.506   5.444   1.466
 8792SOL    HW127275   4.443   5.481   1.398
 8792SOL    HW227276   4.589   5.500   1.469
 8793SOL     OW27277   0.912   5.111   4.191
 8793SOL    HW127278   0.977   5.158   4.132
 8793SOL    HW227279   0.951   5.100   4.282
 8794SOL     OW27280   0.051   0.412   2.043
 8794SOL    HW127281   0.020   0.403   2.138
 8794SOL    HW227282   7.011   0.374   1.982
 8795SOL     OW27283   1.664   5.117   5.364
 8795SOL    HW127284   1.585   5.144   5.309
 8795SOL    HW227285   1.735   5.188   5.357
 8796SOL     OW27286   6.521   3.357   3.600
 8796SOL    HW127287   6.614   3.367   3.565
 8796SOL    HW227288   6.455   3.387   3.531
 8797SOL     OW27289   6.385   0.216   3.311
 8797SOL    HW127290   6.471   0.196   3.358
 8797SOL    HW227291   6.338   0.291   3.357
 8798SOL     OW27292   4.483   6.860   5.187
 8798SOL    HW127293   4.552   6.931   5.191
 8798SOL    HW227294   4.413   6.877   5.257
 8799SOL     OW27295   2.427   4.914   2.068
 8799SOL    HW127296   2.394   4.873   2.153
 8799SOL    HW227297   2.385   4.867   1.990
 8800SOL     OW27298   0.087   5.814   5.218
 8800SOL    HW127299   0.158   5.802   5.287
 8800SOL    HW227300   0.066   5.911   5.207
 8801SOL     OW27301   6.001   1.861   4.957
 8801SOL    HW127302   6.100   1.873   4.952
 8801SOL    HW227303   5.980   1.786   5.020
 8802SOL     OW27304   0.893   5.823   5.796
 8802SOL    HW127305   0.943   5.840   5.880
 8802SOL    HW227306   0.845   5.735   5.803
 8803SOL     OW27307   6.327   0.588   6.708
 8803SOL    HW127308   6.315   0.687   6.706
 8803SOL    HW227309   6.308   0.554   6.800
 8804SOL     OW27310   2.020   5.823   1.769
 8804SOL    HW127311   2.076   5.779   1.840
 8804SOL    HW227312   2.067   5.904   1.735
 8805SOL     OW27313   4.526   5.853   2.389
 8805SOL    HW127314   4.484   5.831   2.301
 8805SOL    HW227315   4.456   5.858   2.460
 8806SOL     OW27316   2.152   6.089   0.461
 8806SOL    HW127317   2.215   6.062   0.388
 8806SOL    HW227318   2.200   6.093   0.548
 8807SOL     OW27319   5.099   2.017   0.971
 8807SOL    HW127320   5.039   1.975   1.038
 8807SOL    HW227321   5.045   2.054   0.895
 8808SOL     OW27322   2.335   2.378   0.442
 8808SOL    HW127323   2.239   2.388   0.412
 8808SOL    HW227324   2.388   2.337   0.367
 8809SOL     OW27325   2.046   3.929   3.998
 8809SOL    HW127326   2.068   4.019   3.961
 8809SOL    HW227327   2.091   3.917   4.086
 8810SOL     OW27328   6.830   1.957   5.668
 8810SOL    HW127329   6.914   1.903   5.666
 8810SOL    HW227330   6.750   1.897   5.665
 8811SOL     OW27331   4.224   6.484   2.217
 8811SOL    HW127332   4.140   6.530   2.188
 8811SOL    HW227333   4.236   6.400   2.165
 8812SOL     OW27334   3.504   1.529   6.857
 8812SOL    HW127335   3.577   1.462   6.847
 8812SOL    HW227336   3.470   1.556   6.767
 8813SOL     OW27337   2.211   4.450   3.456
 8813SOL    HW127338   2.278   4.523   3.468
 8813SOL    HW227339   2.243   4.385   3.387
 8814SOL     OW27340   5.895   6.959   0.174
 8814SOL    HW127341   5.924   7.027   0.241
 8814SOL    HW227342   5.819   6.906   0.211
 8815SOL     OW27343   5.395   1.333   0.703
 8815SOL    HW127344   5.369   1.239   0.727
 8815SOL    HW227345   5.355   1.397   0.768
 8816SOL     OW27346   0.281   6.358   5.519
 8816SOL    HW127347   0.284   6.381   5.422
 8816SOL    HW227348   0.194   6.389   5.558
 8817SOL     OW27349   1.045   3.395   4.867
 8817SOL    HW127350   0.989   3.315   4.845
 8817SOL    HW227351   1.125   3.397   4.807
 8818SOL     OW27352   2.423   6.647   4.166
 8818SOL    HW127353   2.341   6.688   4.127
 8818SOL    HW227354   2.504   6.693   4.128
 8819SOL     OW27355   5.133   4.366   5.795
 8819SOL    HW127356   5.065   4.298   5.825
 8819SOL    HW227357   5.109   4.399   5.704
 8820SOL     OW27358   3.095   0.922   4.539
 8820SOL    HW127359   3.181   0.931   4.489
 8820SOL    HW227360   3.021   0.964   4.487
 8821SOL     OW27361   1.522   4.938   0.508
 8821SOL    HW127362   1.548   5.034   0.502
 8821SOL    HW227363   1.437   4.929   0.559
 8822SOL     OW27364   6.485   6.715   3.862
 8822SOL    HW127365   6.525   6.629   3.832
 8822SOL    HW227366   6.557   6.783   3.875
 8823SOL     OW27367   3.394   1.577   3.327
 8823SOL    HW127368   3.452   1.528   3.392
 8823SOL    HW227369   3.420   1.674   3.326
 8824SOL     OW27370   1.558   0.438   0.897
 8824SOL    HW127371   1.658   0.441   0.900
 8824SOL    HW227372   1.526   0.472   0.808
 8825SOL     OW27373   0.245   6.991   0.370
 8825SOL    HW127374   0.311   0.030   0.338
 8825SOL    HW227375   0.206   6.943   0.291
 8826SOL     OW27376   1.278   3.460   0.920
 8826SOL    HW127377   1.204   3.393   0.912
 8826SOL    HW227378   1.240   3.552   0.903
 8827SOL     OW27379   3.947   0.201   2.664
 8827SOL    HW127380   4.034   0.250   2.675
 8827SOL    HW227381   3.934   0.177   2.568
 8828SOL     OW27382   4.482   3.738   6.274
 8828SOL    HW127383   4.453   3.834   6.276
 8828SOL    HW227384   4.453   3.696   6.188
 8829SOL     OW27385   0.355   1.802   2.197
 8829SOL    HW127386   0.392   1.710   2.210
 8829SOL    HW227387   0.302   1.805   2.112
 8830SOL     OW27388   2.456   2.074   3.120
 8830SOL    HW127389   2.531   2.085   3.055
 8830SOL    HW227390   2.488   2.096   3.212
 8831SOL     OW27391   0.841   1.657   2.258
 8831SOL    HW127392   0.792   1.598   2.322
 8831SOL    HW227393   0.886   1.600   2.188
 8832SOL     OW27394   6.980   6.829   3.932
 8832SOL    HW127395   7.019   6.766   3.999
 8832SOL    HW227396   7.007   6.802   3.840
 8833SOL     OW27397   3.746   2.575   1.342
 8833SOL    HW127398   3.753   2.591   1.244
 8833SOL    HW227399   3.826   2.522   1.373
 8834SOL     OW27400   5.643   3.839   5.671
 8834SOL    HW127401   5.610   3.753   5.631
 8834SOL    HW227402   5.689   3.821   5.758
 8835SOL     OW27403   6.270   0.606   5.630
 8835SOL    HW127404   6.199   0.659   5.677
 8835SOL    HW227405   6.334   0.569   5.698
 8836SOL     OW27406   5.117   2.626   6.314
 8836SOL    HW127407   5.157   2.712   6.347
 8836SOL    HW227408   5.074   2.578   6.391
 8837SOL     OW27409   6.137   6.954   2.038
 8837SOL    HW127410   6.063   6.887   2.049
 8837SOL    HW227411   6.194   6.927   1.961
 8838SOL     OW27412   0.050   4.209   2.822
 8838SOL    HW127413   0.119   4.139   2.839
 8838SOL    HW227414   0.092   4.300   2.829
 8839SOL     OW27415   5.623   6.114   2.802
 8839SOL    HW127416   5.557   6.081   2.870
 8839SOL    HW227417   5.710   6.066   2.813
 8840SOL     OW27418   0.274   1.036   1.356
 8840SOL    HW127419   0.200   0.981   1.318
 8840SOL    HW227420   0.248   1.071   1.446
 8841SOL     OW27421   3.868   1.307   2.472
 8841SOL    HW127422   3.864   1.207   2.466
 8841SOL    HW227423   3.873   1.345   2.379
 8842SOL     OW27424   3.082   3.615   3.692
 8842SOL    HW127425   3.070   3.713   3.681
 8842SOL    HW227426   3.031   3.567   3.621
 8843SOL     OW27427   1.898   3.569   5.337
 8843SOL    HW127428   1.829   3.561   5.265
 8843SOL    HW227429   1.918   3.479   5.375
 8844SOL     OW27430   5.413   1.823   5.174
 8844SOL    HW127431   5.485   1.754   5.181
 8844SOL    HW227432   5.418   1.868   5.085
 8845SOL     OW27433   1.613   5.023   1.299
 8845SOL    HW127434   1.622   4.936   1.348
 8845SOL    HW227435   1.566   5.089   1.357
 8846SOL     OW27436   5.068   4.531   3.752
 8846SOL    HW127437   5.022   4.592   3.817
 8846SOL    HW227438   5.013   4.449   3.739
 8847SOL     OW27439   2.361   2.514   2.934
 8847SOL    HW127440   2.453   2.503   2.896
 8847SOL    HW227441   2.299   2.548   2.863
 8848SOL     OW27442   3.024   1.670   1.157
 8848SOL    HW127443   2.978   1.758   1.159
 8848SOL    HW227444   3.121   1.681   1.180
 8849SOL     OW27445   3.682   6.169   4.697
 8849SOL    HW127446   3.618   6.093   4.685
 8849SOL    HW227447   3.710   6.173   4.793
 8850SOL     OW27448   2.909   1.996   0.621
 8850SOL    HW127449   3.000   1.971   0.588
 8850SOL    HW227450   2.841   1.932   0.585
 8851SOL     OW27451   1.448   4.264   3.505
 8851SOL    HW127452   1.524   4.266   3.440
 8851SOL    HW227453   1.401   4.353   3.504
 8852SOL     OW27454   5.323   3.078   5.688
 8852SOL    HW127455   5.375   3.015   5.745
 8852SOL    HW227456   5.241   3.032   5.653
 8853SOL     OW27457   3.966   1.960   5.352
 8853SOL    HW127458   4.004   2.045   5.315
 8853SOL    HW227459   3.958   1.968   5.451
 8854SOL     OW27460   1.288   1.206   6.037
 8854SOL    HW127461   1.262   1.256   6.120
 8854SOL    HW227462   1.279   1.265   5.958
 8855SOL     OW27463   6.224   6.049   6.808
 8855SOL    HW127464   6.271   6.082   6.726
 8855SOL    HW227465   6.161   5.976   6.784
 8856SOL     OW27466   6.346   0.703   5.158
 8856SOL    HW127467   6.309   0.617   5.122
 8856SOL    HW227468   6.364   0.692   5.255
 8857SOL     OW27469   6.704   2.183   3.401
 8857SOL    HW127470   6.779   2.160   3.463
 8857SOL    HW227471   6.675   2.101   3.352
 8858SOL     OW27472   0.646   3.867   5.666
 8858SOL    HW127473   0.567   3.821   5.626
 8858SOL    HW227474   0.615   3.928   5.739
 8859SOL     OW27475   1.147   6.610   4.914
 8859SOL    HW127476   1.183   6.694   4.874
 8859SOL    HW227477   1.062   6.629   4.962
 8860SOL     OW27478   1.291   2.558   2.652
 8860SOL    HW127479   1.242   2.622   2.711
 8860SOL    HW227480   1.349   2.500   2.708
 8861SOL     OW27481   3.619   3.083   7.010
 8861SOL    HW127482   3.677   3.054   0.056
 8861SOL    HW227483   3.675   3.131   6.942
 8862SOL     OW27484   5.850   1.531   4.915
 8862SOL    HW127485   5.915   1.544   4.840
 8862SOL    HW227486   5.887   1.464   4.979
 8863SOL     OW27487   2.253   5.859   4.996
 8863SOL    HW127488   2.206   5.874   5.083
 8863SOL    HW227489   2.279   5.947   4.957
 8864SOL     OW27490   2.286   3.363   6.546
 8864SOL    HW127491   2.266   3.311   6.463
 8864SOL    HW227492   2.295   3.460   6.523
 8865SOL     OW27493   2.801   2.060   5.054
 8865SOL    HW127494   2.893   2.028   5.031
 8865SOL    HW227495   2.746   2.067   4.971
 8866SOL     OW27496   3.611   6.582   3.305
 8866SOL    HW127497   3.672   6.651   3.345
 8866SOL    HW227498   3.642   6.491   3.333
 8867SOL     OW27499   5.690   1.866   2.926
 8867SOL    HW127500   5.599   1.892   2.895
 8867SOL    HW227501   5.737   1.815   2.854
 8868SOL     OW27502   4.827   3.912   0.717
 8868SOL    HW127503   4.909   3.959   0.684
 8868SOL    HW227504   4.843   3.878   0.810
 8869SOL     OW27505   5.045   3.749   3.417
 8869SOL    HW127506   4.960   3.779   3.374
 8869SOL    HW227507   5.078   3.819   3.479
 8870SOL     OW27508   3.664   1.066   0.768
 8870SOL    HW127509   3.617   1.127   0.705
 8870SOL    HW227510   3.758   1.097   0.781
 8871SOL     OW27511   1.904   0.939   3.889
 8871SOL    HW127512   1.937   0.844   3.885
 8871SOL    HW227513   1.979   1.001   3.868
 8872SOL     OW27514   2.322   4.188   4.131
 8872SOL    HW127515   2.347   4.252   4.204
 8872SOL    HW227516   2.382   4.108   4.135
 8873SOL     OW27517   0.357   5.665   3.904
 8873SOL    HW127518   0.413   5.730   3.852
 8873SOL    HW227519   0.408   5.579   3.915
 8874SOL     OW27520   2.404   0.253   1.136
 8874SOL    HW127521   2.403   0.238   1.235
 8874SOL    HW227522   2.344   0.331   1.114
 8875SOL     OW27523   1.468   2.865   4.228
 8875SOL    HW127524   1.552   2.882   4.176
 8875SOL    HW227525   1.489   2.805   4.305
 8876SOL     OW27526   0.098   1.401   4.575
 8876SOL    HW127527   0.037   1.470   4.613
 8876SOL    HW227528   0.188   1.441   4.557
 8877SOL     OW27529   3.317   0.690   4.032
 8877SOL    HW127530   3.401   0.742   4.021
 8877SOL    HW227531   3.304   0.630   3.952
 8878SOL     OW27532   0.241   4.536   0.603
 8878SOL    HW127533   0.259   4.622   0.652
 8878SOL    HW227534   0.176   4.481   0.655
 8879SOL     OW27535   4.894   5.913   0.361
 8879SOL    HW127536   4.927   5.830   0.316
 8879SOL    HW227537   4.892   5.898   0.460
 8880SOL     OW27538   6.360   5.258   4.449
 8880SOL    HW127539   6.289   5.318   4.484
 8880SOL    HW227540   6.448   5.305   4.451
 8881SOL     OW27541   6.997   1.161   2.398
 8881SOL    HW127542   6.952   1.087   2.347
 8881SOL    HW227543   6.946   1.181   2.481
 8882SOL     OW27544   5.464   1.710   6.787
 8882SOL    HW127545   5.447   1.656   6.705
 8882SOL    HW227546   5.430   1.661   6.867
 8883SOL     OW27547   6.818   1.094   6.286
 8883SOL    HW127548   6.718   1.092   6.287
 8883SOL    HW227549   6.852   1.026   6.221
 8884SOL     OW27550   5.662   0.048   6.473
 8884SOL    HW127551   5.589   0.070   6.538
 8884SOL    HW227552   5.622   0.008   6.391
 8885SOL     OW27553   6.162   4.186   1.686
 8885SOL    HW127554   6.227   4.113   1.664
 8885SOL    HW227555   6.127   4.173   1.779
 8886SOL     OW27556   2.884   6.379   6.097
 8886SOL    HW127557   2.892   6.390   6.196
 8886SOL    HW227558   2.855   6.286   6.076
 8887SOL     OW27559   2.647   1.380   1.452
 8887SOL    HW127560   2.593   1.297   1.454
 8887SOL    HW227561   2.602   1.451   1.506
 8888SOL     OW27562   1.628   1.168   1.091
 8888SOL    HW127563   1.699   1.223   1.046
 8888SOL    HW227564   1.610   1.204   1.182
 8889SOL     OW27565   5.076   0.236   4.945
 8889SOL    HW127566   5.066   0.300   4.870
 8889SOL    HW227567   5.057   0.143   4.913
 8890SOL     OW27568   6.992   5.912   4.547
 8890SOL    HW127569   0.039   5.854   4.520
 8890SOL    HW227570   6.963   5.888   4.640
 8891SOL     OW27571   5.663   3.158   6.558
 8891SOL    HW127572   5.693   3.140   6.465
 8891SOL    HW227573   5.573   3.117   6.573
 8892SOL     OW27574   1.977   6.973   3.392
 8892SOL    HW127575   1.894   7.022   3.418
 8892SOL    HW227576   2.057   7.018   3.434
 8893SOL     OW27577   0.013   0.913   1.299
 8893SOL    HW127578   7.018   0.845   1.230
 8893SOL    HW227579   6.972   0.985   1.301
 8894SOL     OW27580   4.210   2.433   5.966
 8894SOL    HW127581   4.196   2.474   6.057
 8894SOL    HW227582   4.181   2.498   5.896
 8895SOL     OW27583   0.198   6.503   1.140
 8895SOL    HW127584   0.271   6.522   1.206
 8895SOL    HW227585   0.127   6.573   1.149
 8896SOL     OW27586   1.833   4.043   5.110
 8896SOL    HW127587   1.786   3.976   5.053
 8896SOL    HW227588   1.931   4.040   5.090
 8897SOL     OW27589   1.500   1.459   1.690
 8897SOL    HW127590   1.452   1.371   1.698
 8897SOL    HW227591   1.586   1.454   1.740
 8898SOL     OW27592   6.039   3.502   4.619
 8898SOL    HW127593   6.070   3.543   4.533
 8898SOL    HW227594   6.058   3.565   4.694
 8899SOL     OW27595   2.294   3.989   6.887
 8899SOL    HW127596   2.279   3.985   6.788
 8899SOL    HW227597   2.382   4.031   6.906
 8900SOL     OW27598   4.973   2.884   3.164
 8900SOL    HW127599   4.999   2.790   3.182
 8900SOL    HW227600   4.984   2.904   3.067
 8901SOL     OW27601   1.310   0.864   2.791
 8901SOL    HW127602   1.273   0.775   2.765
 8901SOL    HW227603   1.252   0.937   2.755
 8902SOL     OW27604   2.029   5.591   6.694
 8902SOL    HW127605   2.079   5.655   6.753
 8902SOL    HW227606   1.931   5.597   6.714
 8903SOL     OW27607   2.383   1.685   3.678
 8903SOL    HW127608   2.402   1.620   3.605
 8903SOL    HW227609   2.299   1.735   3.657
 8904SOL     OW27610   0.200   5.854   4.038
 8904SOL    HW127611   0.265   5.796   3.988
 8904SOL    HW227612   0.207   5.948   4.004
 8905SOL     OW27613   2.107   3.076   5.353
 8905SOL    HW127614   2.071   3.159   5.311
 8905SOL    HW227615   2.142   3.015   5.282
 8906SOL     OW27616   6.686   6.177   6.194
 8906SOL    HW127617   6.642   6.225   6.270
 8906SOL    HW227618   6.673   6.229   6.109
 8907SOL     OW27619   3.194   2.616   5.309
 8907SOL    HW127620   3.203   2.546   5.238
 8907SOL    HW227621   3.204   2.706   5.268
 8908SOL     OW27622   1.527   2.168   0.898
 8908SOL    HW127623   1.615   2.169   0.849
 8908SOL    HW227624   1.499   2.073   0.914
 8909SOL     OW27625   3.315   0.246   5.941
 8909SOL    HW127626   3.383   0.187   5.897
 8909SOL    HW227627   3.303   0.330   5.888
 8910SOL     OW27628   3.122   3.264   6.411
 8910SOL    HW127629   3.088   3.307   6.327
 8910SOL    HW227630   3.047   3.254   6.476
 8911SOL     OW27631   3.229   2.141   4.501
 8911SOL    HW127632   3.171   2.178   4.574
 8911SOL    HW227633   3.318   2.114   4.538
 8912SOL     OW27634   4.437   1.779   5.837
 8912SOL    HW127635   4.391   1.797   5.750
 8912SOL    HW227636   4.533   1.805   5.829
 8913SOL     OW27637   5.046   4.008   1.876
 8913SOL    HW127638   5.038   4.052   1.965
 8913SOL    HW227639   5.103   4.065   1.816
 8914SOL     OW27640   4.093   1.637   4.942
 8914SOL    HW127641   4.045   1.677   4.864
 8914SOL    HW227642   4.066   1.685   5.026
 8915SOL     OW27643   2.141   3.189   3.822
 8915SOL    HW127644   2.180   3.102   3.853
 8915SOL    HW227645   2.054   3.205   3.869
 8916SOL     OW27646   0.085   4.479   2.841
 8916SOL    HW127647   0.163   4.536   2.863
 8916SOL    HW227648   0.053   4.500   2.748
 8917SOL     OW27649   6.017   5.961   6.554
 8917SOL    HW127650   6.101   6.005   6.522
 8917SOL    HW227651   6.039   5.897   6.628
 8918SOL     OW27652   5.519   6.312   6.776
 8918SOL    HW127653   5.547   6.365   6.856
 8918SOL    HW227654   5.548   6.358   6.693
 8919SOL     OW27655   3.569   4.274   0.925
 8919SOL    HW127656   3.555   4.357   0.978
 8919SOL    HW227657   3.542   4.289   0.830
 8920SOL     OW27658   6.089   5.365   6.468
 8920SOL    HW127659   6.070   5.463   6.480
 8920SOL    HW227660   6.007   5.313   6.490
 8921SOL     OW27661   1.467   0.754   3.723
 8921SOL    HW127662   1.556   0.710   3.736
 8921SOL    HW227663   1.455   0.775   3.626
 8922SOL     OW27664   2.030   5.051   1.002
 8922SOL    HW127665   2.114   5.008   1.036
 8922SOL    HW227666   2.038   5.068   0.904
 8923SOL     OW27667   2.055   3.728   6.555
 8923SOL    HW127668   1.995   3.705   6.478
 8923SOL    HW227669   2.150   3.707   6.530
 8924SOL     OW27670   2.849   4.806   5.857
 8924SOL    HW127671   2.840   4.741   5.782
 8924SOL    HW227672   2.943   4.840   5.862
 8925SOL     OW27673   6.964   6.656   2.382
 8925SOL    HW127674   6.873   6.627   2.350
 8925SOL    HW227675   6.973   6.637   2.479
 8926SOL     OW27676   5.658   2.210   2.107
 8926SOL    HW127677   5.584   2.278   2.102
 8926SOL    HW227678   5.664   2.160   2.021
 8927SOL     OW27679   2.406   2.737   4.922
 8927SOL    HW127680   2.362   2.706   4.838
 8927SOL    HW227681   2.379   2.831   4.941
 8928SOL     OW27682   0.366   0.612   5.756
 8928SOL    HW127683   0.374   0.621   5.856
 8928SOL    HW227684   0.293   0.547   5.734
 8929SOL     OW27685   6.776   3.896   4.042
 8929SOL    HW127686   6.732   3.930   3.958
 8929SOL    HW227687   6.875   3.892   4.028
 8930SOL     OW27688   1.485   5.488   4.891
 8930SOL    HW127689   1.477   5.406   4.834
 8930SOL    HW227690   1.410   5.491   4.956
 8931SOL     OW27691   5.243   1.966   1.332
 8931SOL    HW127692   5.298   1.949   1.251
 8931SOL    HW227693   5.195   2.053   1.322
 8932SOL     OW27694   5.802   0.354   6.544
 8932SOL    HW127695   5.708   0.321   6.542
 8932SOL    HW227696   5.804   0.451   6.569
 8933SOL     OW27697   1.296   1.041   4.887
 8933SOL    HW127698   1.232   1.009   4.817
 8933SOL    HW227699   1.343   0.964   4.927
 8934SOL     OW27700   3.657   5.548   3.413
 8934SOL    HW127701   3.591   5.535   3.338
 8934SOL    HW227702   3.659   5.466   3.470
 8935SOL     OW27703   4.855   2.762   2.626
 8935SOL    HW127704   4.884   2.857   2.624
 8935SOL    HW227705   4.837   2.734   2.720
 8936SOL     OW27706   0.404   4.495   1.222
 8936SOL    HW127707   0.410   4.429   1.297
 8936SOL    HW227708   0.358   4.578   1.254
 8937SOL     OW27709   0.438   6.997   3.960
 8937SOL    HW127710   0.376   6.945   4.017
 8937SOL    HW227711   0.486   0.036   4.016
 8938SOL     OW27712   6.124   0.896   0.756
 8938SOL    HW127713   6.114   0.813   0.701
 8938SOL    HW227714   6.035   0.939   0.769
 8939SOL     OW27715   0.147   3.061   4.377
 8939SOL    HW127716   0.140   3.115   4.293
 8939SOL    HW227717   0.078   3.091   4.442
 8940SOL     OW27718   6.897   3.477   1.061
 8940SOL    HW127719   6.842   3.418   1.120
 8940SOL    HW227720   6.836   3.528   1.000
 8941SOL     OW27721   4.959   2.424   2.042
 8941SOL    HW127722   4.908   2.475   1.973
 8941SOL    HW227723   5.046   2.392   2.003
 8942SOL     OW27724   6.456   5.047   3.867
 8942SOL    HW127725   6.397   4.975   3.832
 8942SOL    HW227726   6.500   5.016   3.952
 8943SOL     OW27727   4.453   3.406   0.235
 8943SOL    HW127728   4.396   3.386   0.315
 8943SOL    HW227729   4.519   3.332   0.223
 8944SOL     OW27730   4.647   5.396   4.809
 8944SOL    HW127731   4.648   5.304   4.770
 8944SOL    HW227732   4.726   5.447   4.776
 8945SOL     OW27733   6.339   3.515   4.864
 8945SOL    HW127734   6.401   3.520   4.785
 8945SOL    HW227735   6.272   3.589   4.858
 8946SOL     OW27736   4.884   1.019   4.352
 8946SOL    HW127737   4.854   1.047   4.261
 8946SOL    HW227738   4.961   0.955   4.344
 8947SOL     OW27739   1.386   5.061   6.249
 8947SOL    HW127740   1.369   5.114   6.166
 8947SOL    HW227741   1.301   5.017   6.278
 8948SOL     OW27742   6.252   0.039   3.620
 8948SOL    HW127743   6.310   0.036   3.702
 8948SOL    HW227744   6.280   0.114   3.561
 8949SOL     OW27745   3.374   6.158   0.294
 8949SOL    HW127746   3.282   6.192   0.275
 8949SOL    HW227747   3.426   6.228   0.344
 8950SOL     OW27748   4.676   4.721   1.504
 8950SOL    HW127749   4.618   4.693   1.580
 8950SOL    HW227750   4.694   4.643   1.444
 8951SOL     OW27751   2.418   1.275   4.028
 8951SOL    HW127752   2.512   1.276   3.994
 8951SOL    HW227753   2.387   1.181   4.040
 8952SOL     OW27754   2.443   4.764   3.355
 8952SOL    HW127755   2.524   4.758   3.413
 8952SOL    HW227756   2.379   4.830   3.395
 8953SOL     OW27757   2.696   5.316   2.331
 8953SOL    HW127758   2.654   5.247   2.271
 8953SOL    HW227759   2.627   5.384   2.356
 8954SOL     OW27760   1.142   5.704   4.849
 8954SOL    HW127761   1.178   5.797   4.843
 8954SOL    HW227762   1.207   5.646   4.899
 8955SOL     OW27763   5.568   2.737   3.641
 8955SOL    HW127764   5.547   2.813   3.579
 8955SOL    HW227765   5.660   2.703   3.622
 8956SOL     OW27766   0.743   6.395   5.803
 8956SOL    HW127767   0.732   6.302   5.839
 8956SOL    HW227768   0.721   6.395   5.705
 8957SOL     OW27769   1.595   5.351   2.007
 8957SOL    HW127770   1.638   5.304   2.083
 8957SOL    HW227771   1.638   5.322   1.921
 8958SOL     OW27772   1.935   3.348   5.519
 8958SOL    HW127773   1.963   3.298   5.602
 8958SOL    HW227774   1.850   3.309   5.485
 8959SOL     OW27775   0.602   3.290   2.181
 8959SOL    HW127776   0.611   3.194   2.209
 8959SOL    HW227777   0.616   3.298   2.083
 8960SOL     OW27778   5.813   3.911   4.153
 8960SOL    HW127779   5.881   3.911   4.080
 8960SOL    HW227780   5.795   3.817   4.182
 8961SOL     OW27781   3.411   6.677   5.053
 8961SOL    HW127782   3.354   6.624   5.115
 8961SOL    HW227783   3.434   6.621   4.973
 8962SOL     OW27784   0.696   5.715   1.320
 8962SOL    HW127785   0.635   5.776   1.370
 8962SOL    HW227786   0.788   5.721   1.357
 8963SOL     OW27787   3.607   6.430   4.567
 8963SOL    HW127788   3.691   6.464   4.525
 8963SOL    HW227789   3.610   6.330   4.572
 8964SOL     OW27790   6.437   3.719   3.754
 8964SOL    HW127791   6.437   3.708   3.654
 8964SOL    HW227792   6.510   3.663   3.793
 8965SOL     OW27793   4.114   5.076   0.054
 8965SOL    HW127794   4.049   5.002   0.037
 8965SOL    HW227795   4.124   5.089   0.152
 8966SOL     OW27796   5.258   5.741   6.423
 8966SOL    HW127797   5.179   5.800   6.406
 8966SOL    HW227798   5.312   5.779   6.498
 8967SOL     OW27799   3.576   0.887   3.155
 8967SOL    HW127800   3.595   0.931   3.067
 8967SOL    HW227801   3.648   0.911   3.220
 8968SOL     OW27802   3.498   5.083   1.827
 8968SOL    HW127803   3.484   5.148   1.752
 8968SOL    HW227804   3.444   5.110   1.906
 8969SOL     OW27805   6.846   0.624   2.739
 8969SOL    HW127806   6.820   0.557   2.809
 8969SOL    HW227807   6.789   0.611   2.658
 8970SOL     OW27808   1.247   1.398   6.215
 8970SOL    HW127809   1.204   1.484   6.242
 8970SOL    HW227810   1.346   1.409   6.212
 8971SOL     OW27811   4.354   5.773   0.841
 8971SOL    HW127812   4.438   5.816   0.809
 8971SOL    HW227813   4.300   5.840   0.893
 8972SOL     OW27814   5.827   4.945   0.744
 8972SOL    HW127815   5.803   4.848   0.732
 8972SOL    HW227816   5.816   4.993   0.657
 8973SOL     OW27817   0.445   2.193   2.090
 8973SOL    HW127818   0.497   2.270   2.128
 8973SOL    HW227819   0.394   2.224   2.010
 8974SOL     OW27820   2.410   4.365   4.335
 8974SOL    HW127821   2.362   4.312   4.405
 8974SOL    HW227822   2.491   4.408   4.375
 8975SOL     OW27823   0.355   0.537   6.453
 8975SOL    HW127824   0.340   0.440   6.474
 8975SOL    HW227825   0.365   0.589   6.538
 8976SOL     OW27826   6.656   0.352   1.569
 8976SOL    HW127827   6.752   0.373   1.549
 8976SOL    HW227828   6.611   0.318   1.486
 8977SOL     OW27829   6.743   4.998   6.226
 8977SOL    HW127830   6.807   4.929   6.193
 8977SOL    HW227831   6.649   4.968   6.209
 8978SOL     OW27832   6.022   5.763   5.925
 8978SOL    HW127833   6.084   5.826   5.879
 8978SOL    HW227834   5.970   5.812   5.996
 8979SOL     OW27835   0.668   5.620   5.862
 8979SOL    HW127836   0.684   5.533   5.815
 8979SOL    HW227837   0.644   5.603   5.957
 8980SOL     OW27838   3.623   1.274   5.017
 8980SOL    HW127839   3.678   1.193   5.037
 8980SOL    HW227840   3.674   1.356   5.043
 8981SOL     OW27841   4.519   2.645   6.434
 8981SOL    HW127842   4.481   2.695   6.356
 8981SOL    HW227843   4.592   2.699   6.476
 8982SOL     OW27844   6.845   1.119   1.346
 8982SOL    HW127845   6.805   1.131   1.255
 8982SOL    HW227846   6.782   1.070   1.405
 8983SOL     OW27847   0.561   5.751   3.012
 8983SOL    HW127848   0.649   5.780   2.975
 8983SOL    HW227849   0.553   5.651   3.005
 8984SOL     OW27850   5.966   0.453   4.189
 8984SOL    HW127851   6.059   0.472   4.158
 8984SOL    HW227852   5.909   0.535   4.176
 8985SOL     OW27853   4.870   2.219   0.528
 8985SOL    HW127854   4.921   2.293   0.484
 8985SOL    HW227855   4.887   2.133   0.480
 8986SOL     OW27856   6.190   4.541   1.630
 8986SOL    HW127857   6.120   4.523   1.699
 8986SOL    HW227858   6.263   4.472   1.638
 8987SOL     OW27859   2.257   6.708   1.524
 8987SOL    HW127860   2.206   6.768   1.461
 8987SOL    HW227861   2.244   6.613   1.497
 8988SOL     OW27862   1.872   4.937   1.215
 8988SOL    HW127863   1.898   4.973   1.126
 8988SOL    HW227864   1.778   4.964   1.235
 8989SOL     OW27865   5.524   1.862   1.952
 8989SOL    HW127866   5.541   1.943   1.896
 8989SOL    HW227867   5.436   1.872   1.998
 8990SOL     OW27868   3.378   6.705   1.762
 8990SOL    HW127869   3.317   6.775   1.723
 8990SOL    HW227870   3.457   6.693   1.701
 8991SOL     OW27871   1.886   2.142   0.542
 8991SOL    HW127872   1.917   2.080   0.470
 8991SOL    HW227873   1.965   2.189   0.581
 8992SOL     OW27874   0.789   3.441   6.669
 8992SOL    HW127875   0.813   3.364   6.610
 8992SOL    HW227876   0.858   3.513   6.660
 8993SOL     OW27877   5.724   2.359   3.529
 8993SOL    HW127878   5.625   2.353   3.517
 8993SOL    HW227879   5.758   2.274   3.567
 8994SOL     OW27880   1.280   5.149   3.891
 8994SOL    HW127881   1.347   5.144   3.817
 8994SOL    HW227882   1.309   5.091   3.967
 8995SOL     OW27883   1.936   3.255   5.184
 8995SOL    HW127884   2.002   3.213   5.121
 8995SOL    HW227885   1.856   3.286   5.132
 8996SOL     OW27886   0.666   3.956   2.510
 8996SOL    HW127887   0.683   3.908   2.596
 8996SOL    HW227888   0.752   3.987   2.470
 8997SOL     OW27889   4.104   1.431   5.275
 8997SOL    HW127890   4.084   1.526   5.251
 8997SOL    HW227891   4.021   1.388   5.312
 8998SOL     OW27892   1.558   2.559   5.894
 8998SOL    HW127893   1.517   2.589   5.979
 8998SOL    HW227894   1.653   2.531   5.910
 8999SOL     OW27895   5.131   1.424   5.428
 8999SOL    HW127896   5.166   1.419   5.521
 8999SOL    HW227897   5.128   1.519   5.398
 9000SOL     OW27898   3.578   4.081   0.610
 9000SOL    HW127899   3.626   4.026   0.679
 9000SOL    HW227900   3.482   4.053   0.607
 9001SOL     OW27901   2.344   4.660   3.933
 9001SOL    HW127902   2.367   4.757   3.924
 9001SOL    HW227903   2.396   4.620   4.009
 9002SOL     OW27904   5.879   4.630   6.133
 9002SOL    HW127905   5.792   4.612   6.179
 9002SOL    HW227906   5.940   4.551   6.145
 9003SOL     OW27907   6.482   3.026   7.021
 9003SOL    HW127908   6.486   3.120   6.986
 9003SOL    HW227909   6.544   3.017   0.070
 9004SOL     OW27910   4.555   6.391   1.379
 9004SOL    HW127911   4.506   6.478   1.372
 9004SOL    HW227912   4.505   6.330   1.441
 9005SOL     OW27913   4.919   2.227   3.363
 9005SOL    HW127914   4.978   2.253   3.287
 9005SOL    HW227915   4.843   2.292   3.371
 9006SOL     OW27916   1.685   5.289   1.171
 9006SOL    HW127917   1.662   5.194   1.195
 9006SOL    HW227918   1.634   5.351   1.230
 9007SOL     OW27919   3.478   5.506   4.173
 9007SOL    HW127920   3.558   5.493   4.115
 9007SOL    HW227921   3.478   5.599   4.210
 9008SOL     OW27922   6.962   4.210   1.564
 9008SOL    HW127923   7.016   4.292   1.582
 9008SOL    HW227924   6.869   4.236   1.538
 9009SOL     OW27925   2.774   6.291   0.808
 9009SOL    HW127926   2.845   6.339   0.860
 9009SOL    HW227927   2.758   6.340   0.722
 9010SOL     OW27928   0.490   6.503   5.139
 9010SOL    HW127929   0.554   6.577   5.160
 9010SOL    HW227930   0.541   6.425   5.102
 9011SOL     OW27931   3.863   1.780   1.112
 9011SOL    HW127932   3.892   1.862   1.160
 9011SOL    HW227933   3.940   1.718   1.101
 9012SOL     OW27934   0.789   5.281   1.802
 9012SOL    HW127935   0.816   5.366   1.848
 9012SOL    HW227936   0.696   5.290   1.767
 9013SOL     OW27937   6.425   5.818   3.318
 9013SOL    HW127938   6.464   5.751   3.381
 9013SOL    HW227939   6.427   5.908   3.361
 9014SOL     OW27940   1.454   0.805   0.648
 9014SOL    HW127941   1.500   0.882   0.604
 9014SOL    HW227942   1.465   0.723   0.591
 9015SOL     OW27943   0.394   1.409   5.849
 9015SOL    HW127944   0.366   1.322   5.808
 9015SOL    HW227945   0.482   1.396   5.896
 9016SOL     OW27946   6.463   5.969   5.870
 9016SOL    HW127947   6.512   6.039   5.921
 9016SOL    HW227948   6.528   5.918   5.814
 9017SOL     OW27949   6.132   2.259   3.838
 9017SOL    HW127950   6.161   2.290   3.928
 9017SOL    HW227951   6.110   2.338   3.781
 9018SOL     OW27952   3.022   1.707   5.259
 9018SOL    HW127953   3.035   1.691   5.162
 9018SOL    HW227954   3.083   1.781   5.289
 9019SOL     OW27955   2.877   5.882   0.428
 9019SOL    HW127956   2.797   5.940   0.415
 9019SOL    HW227957   2.949   5.910   0.365
 9020SOL     OW27958   1.756   4.446   2.670
 9020SOL    HW127959   1.691   4.467   2.597
 9020SOL    HW227960   1.751   4.348   2.691
 9021SOL     OW27961   7.005   5.448   4.360
 9021SOL    HW127962   7.016   5.547   4.347
 9021SOL    HW227963   0.063   5.402   4.345
 9022SOL     OW27964   2.548   0.566   0.240
 9022SOL    HW127965   2.595   0.630   0.179
 9022SOL    HW227966   2.470   0.611   0.282
 9023SOL     OW27967   3.207   3.361   3.807
 9023SOL    HW127968   3.271   3.379   3.882
 9023SOL    HW227969   3.196   3.445   3.753
 9024SOL     OW27970   1.538   6.353   5.941
 9024SOL    HW127971   1.616   6.292   5.956
 9024SOL    HW227972   1.473   6.343   6.016
 9025SOL     OW27973   6.050   4.965   1.820
 9025SOL    HW127974   6.138   4.918   1.816
 9025SOL    HW227975   5.979   4.900   1.848
 9026SOL     OW27976   3.638   2.870   4.651
 9026SOL    HW127977   3.679   2.780   4.640
 9026SOL    HW227978   3.692   2.924   4.715
 9027SOL     OW27979   2.699   2.374   3.009
 9027SOL    HW127980   2.662   2.397   3.098
 9027SOL    HW227981   2.645   2.417   2.937
 9028SOL     OW27982   2.521   4.759   5.177
 9028SOL    HW127983   2.536   4.698   5.099
 9028SOL    HW227984   2.584   4.734   5.251
 9029SOL     OW27985   5.185   5.626   3.336
 9029SOL    HW127986   5.174   5.527   3.349
 9029SOL    HW227987   5.119   5.658   3.268
 9030SOL     OW27988   2.338   1.013   2.425
 9030SOL    HW127989   2.239   1.021   2.431
 9030SOL    HW227990   2.369   0.941   2.488
 9031SOL     OW27991   2.500   6.402   6.012
 9031SOL    HW127992   2.403   6.411   6.036
 9031SOL    HW227993   2.552   6.477   6.053
 9032SOL     OW27994   2.443   2.275   1.802
 9032SOL    HW127995   2.440   2.254   1.704
 9032SOL    HW227996   2.537   2.297   1.829
 9033SOL     OW27997   1.732   3.372   4.117
 9033SOL    HW127998   1.708   3.288   4.167
 9033SOL    HW227999   1.790   3.430   4.174
 9034SOL     OW28000   2.858   6.288   5.713
 9034SOL    HW128001   2.919   6.366   5.724
 9034SOL    HW228002   2.763   6.319   5.721
 9035SOL     OW28003   6.852   0.841   4.203
 9035SOL    HW128004   6.950   0.855   4.191
 9035SOL    HW228005   6.803   0.879   4.124
 9036SOL     OW28006   1.328   2.752   5.794
 9036SOL    HW128007   1.393   2.682   5.824
 9036SOL    HW228008   1.348   2.778   5.700
 9037SOL     OW28009   2.828   4.418   6.994
 9037SOL    HW128010   2.886   4.337   6.986
 9037SOL    HW228011   2.738   4.398   6.954
 9038SOL     OW28012   4.825   6.650   5.003
 9038SOL    HW128013   4.853   6.648   4.906
 9038SOL    HW228014   4.814   6.744   5.033
 9039SOL     OW28015   2.179   5.077   4.878
 9039SOL    HW128016   2.126   5.161   4.871
 9039SOL    HW228017   2.231   5.078   4.963
 9040SOL     OW28018   2.317   1.810   2.586
 9040SOL    HW128019   2.248   1.759   2.535
 9040SOL    HW228020   2.402   1.813   2.534
 9041SOL     OW28021   1.009   2.329   0.864
 9041SOL    HW128022   1.053   2.401   0.811
 9041SOL    HW228023   0.911   2.350   0.874
 9042SOL     OW28024   3.242   5.161   3.200
 9042SOL    HW128025   3.340   5.178   3.213
 9042SOL    HW228026   3.228   5.065   3.177
 9043SOL     OW28027   1.236   2.728   6.042
 9043SOL    HW128028   1.229   2.827   6.053
 9043SOL    HW228029   1.237   2.706   5.945
 9044SOL     OW28030   5.963   0.503   0.694
 9044SOL    HW128031   6.035   0.486   0.761
 9044SOL    HW228032   5.931   0.416   0.657
 9045SOL     OW28033   3.259   0.418   3.474
 9045SOL    HW128034   3.165   0.449   3.479
 9045SOL    HW228035   3.291   0.392   3.565
 9046SOL     OW28036   3.364   4.367   5.624
 9046SOL    HW128037   3.275   4.399   5.656
 9046SOL    HW228038   3.414   4.443   5.581
 9047SOL     OW28039   1.360   4.225   3.951
 9047SOL    HW128040   1.268   4.196   3.926
 9047SOL    HW228041   1.378   4.316   3.912
 9048SOL     OW28042   1.687   3.857   4.971
 9048SOL    HW128043   1.721   3.805   4.892
 9048SOL    HW228044   1.589   3.842   4.982
 9049SOL     OW28045   5.494   6.254   5.865
 9049SOL    HW128046   5.526   6.328   5.805
 9049SOL    HW228047   5.470   6.292   5.954
 9050SOL     OW28048   0.205   4.973   0.007
 9050SOL    HW128049   0.167   4.902   6.978
 9050SOL    HW228050   0.191   5.063   6.994
 9051SOL     OW28051   5.141   6.258   0.126
 9051SOL    HW128052   5.085   6.335   0.156
 9051SOL    HW228053   5.152   6.262   0.026
 9052SOL     OW28054   2.646   4.913   4.733
 9052SOL    HW128055   2.557   4.921   4.777
 9052SOL    HW228056   2.668   4.998   4.685
 9053SOL     OW28057   2.366   2.740   3.942
 9053SOL    HW128058   2.423   2.679   3.998
 9053SOL    HW228059   2.350   2.825   3.993
 9054SOL     OW28060   1.646   0.761   2.024
 9054SOL    HW128061   1.606   0.685   2.075
 9054SOL    HW228062   1.611   0.848   2.059
 9055SOL     OW28063   1.028   2.526   3.986
 9055SOL    HW128064   0.992   2.439   4.019
 9055SOL    HW228065   1.118   2.511   3.945
 9056SOL     OW28066   4.749   0.376   2.648
 9056SOL    HW128067   4.725   0.286   2.684
 9056SOL    HW228068   4.824   0.367   2.582
 9057SOL     OW28069   6.298   5.819   0.319
 9057SOL    HW128070   6.216   5.778   0.358
 9057SOL    HW228071   6.295   5.811   0.219
 9058SOL     OW28072   1.946   2.871   5.009
 9058SOL    HW128073   2.034   2.861   5.055
 9058SOL    HW228074   1.960   2.909   4.918
 9059SOL     OW28075   6.560   1.833   3.082
 9059SOL    HW128076   6.554   1.866   2.987
 9059SOL    HW228077   6.521   1.901   3.143
 9060SOL     OW28078   6.846   3.371   2.070
 9060SOL    HW128079   6.747   3.365   2.075
 9060SOL    HW228080   6.874   3.393   1.977
 9061SOL     OW28081   4.717   6.168   2.545
 9061SOL    HW128082   4.790   6.232   2.567
 9061SOL    HW228083   4.673   6.136   2.629
 9062SOL     OW28084   1.169   4.244   3.391
 9062SOL    HW128085   1.145   4.159   3.343
 9062SOL    HW228086   1.161   4.230   3.490
 9063SOL     OW28087   3.011   1.395   2.327
 9063SOL    HW128088   3.062   1.329   2.382
 9063SOL    HW228089   3.075   1.457   2.281
 9064SOL     OW28090   0.453   3.872   3.743
 9064SOL    HW128091   0.513   3.797   3.717
 9064SOL    HW228092   0.468   3.894   3.840
 9065SOL     OW28093   2.903   6.207   4.921
 9065SOL    HW128094   2.900   6.157   4.835
 9065SOL    HW228095   2.907   6.143   4.997
 9066SOL     OW28096   5.810   5.797   6.460
 9066SOL    HW128097   5.888   5.861   6.462
 9066SOL    HW228098   5.766   5.801   6.370
 9067SOL     OW28099   6.244   0.078   4.313
 9067SOL    HW128100   6.330   0.088   4.363
 9067SOL    HW228101   6.230   0.158   4.255
 9068SOL     OW28102   5.291   0.179   5.243
 9068SOL    HW128103   5.349   0.136   5.173
 9068SOL    HW228104   5.220   0.114   5.272
 9069SOL     OW28105   4.660   2.118   2.071
 9069SOL    HW128106   4.565   2.148   2.069
 9069SOL    HW228107   4.667   2.032   2.120
 9070SOL     OW28108   1.190   2.107   5.777
 9070SOL    HW128109   1.104   2.084   5.823
 9070SOL    HW228110   1.251   2.154   5.841
 9071SOL     OW28111   4.376   1.538   5.991
 9071SOL    HW128112   4.302   1.533   6.058
 9071SOL    HW228113   4.390   1.632   5.963
 9072SOL     OW28114   5.259   0.113   1.614
 9072SOL    HW128115   5.169   0.147   1.641
 9072SOL    HW228116   5.260   0.098   1.515
 9073SOL     OW28117   4.182   0.417   0.238
 9073SOL    HW128118   4.163   0.362   0.157
 9073SOL    HW228119   4.170   0.361   0.320
 9074SOL     OW28120   1.263   0.176   1.378
 9074SOL    HW128121   1.201   0.226   1.318
 9074SOL    HW228122   1.354   0.172   1.337
 9075SOL     OW28123   6.734   0.622   1.846
 9075SOL    HW128124   6.746   0.642   1.943
 9075SOL    HW228125   6.639   0.597   1.828
 9076SOL     OW28126   5.028   0.393   2.561
 9076SOL    HW128127   5.072   0.312   2.522
 9076SOL    HW228128   5.098   0.462   2.581
 9077SOL     OW28129   5.083   1.042   5.792
 9077SOL    HW128130   5.134   1.087   5.718
 9077SOL    HW228131   5.132   1.056   5.879
 9078SOL     OW28132   4.725   5.363   6.987
 9078SOL    HW128133   4.645   5.387   6.932
 9078SOL    HW228134   4.696   5.346   0.052
 9079SOL     OW28135   1.435   0.518   5.286
 9079SOL    HW128136   1.509   0.574   5.249
 9079SOL    HW228137   1.449   0.503   5.383
 9080SOL     OW28138   6.351   3.828   0.687
 9080SOL    HW128139   6.363   3.920   0.650
 9080SOL    HW228140   6.333   3.764   0.612
 9081SOL     OW28141   3.559   1.766   1.856
 9081SOL    HW128142   3.625   1.756   1.930
 9081SOL    HW228143   3.492   1.692   1.860
 9082SOL     OW28144   3.097   5.973   6.305
 9082SOL    HW128145   3.111   6.027   6.388
 9082SOL    HW228146   3.185   5.937   6.274
 9083SOL     OW28147   5.053   4.704   6.141
 9083SOL    HW128148   5.127   4.735   6.081
 9083SOL    HW228149   4.990   4.647   6.088
 9084SOL     OW28150   0.531   2.861   5.620
 9084SOL    HW128151   0.591   2.936   5.647
 9084SOL    HW228152   0.471   2.838   5.697
 9085SOL     OW28153   3.386   4.826   6.971
 9085SOL    HW128154   3.421   4.788   6.885
 9085SOL    HW228155   3.310   4.769   7.004
 9086SOL     OW28156   6.722   4.129   0.801
 9086SOL    HW128157   6.673   4.177   0.873
 9086SOL    HW228158   6.706   4.030   0.809
 9087SOL     OW28159   5.893   2.831   2.330
 9087SOL    HW128160   5.940   2.829   2.242
 9087SOL    HW228161   5.894   2.739   2.371
 9088SOL     OW28162   6.063   0.545   1.742
 9088SOL    HW128163   6.141   0.546   1.680
 9088SOL    HW228164   6.018   0.456   1.738
 9089SOL     OW28165   4.419   5.517   4.004
 9089SOL    HW128166   4.412   5.613   3.977
 9089SOL    HW228167   4.447   5.512   4.100
 9090SOL     OW28168   5.638   6.249   4.217
 9090SOL    HW128169   5.595   6.218   4.302
 9090SOL    HW228170   5.584   6.324   4.178
 9091SOL     OW28171   3.545   2.423   0.604
 9091SOL    HW128172   3.506   2.394   0.692
 9091SOL    HW228173   3.484   2.489   0.561
 9092SOL     OW28174   1.292   0.168   5.740
 9092SOL    HW128175   1.198   0.170   5.705
 9092SOL    HW228176   1.306   0.084   5.792
 9093SOL     OW28177   1.528   6.066   0.199
 9093SOL    HW128178   1.577   6.007   0.263
 9093SOL    HW228179   1.562   6.159   0.207
 9094SOL     OW28180   0.123   6.025   1.966
 9094SOL    HW128181   0.217   5.994   1.959
 9094SOL    HW228182   0.078   6.016   1.877
 9095SOL     OW28183   5.062   3.406   6.640
 9095SOL    HW128184   4.976   3.394   6.689
 9095SOL    HW228185   5.076   3.502   6.620
 9096SOL     OW28186   5.535   3.098   2.986
 9096SOL    HW128187   5.623   3.087   3.032
 9096SOL    HW228188   5.513   3.014   2.936
 9097SOL     OW28189   0.976   3.637   6.572
 9097SOL    HW128190   0.927   3.722   6.552
 9097SOL    HW228191   1.073   3.657   6.584
 9098SOL     OW28192   3.921   3.825   1.660
 9098SOL    HW128193   3.842   3.836   1.600
 9098SOL    HW228194   3.934   3.728   1.680
 9099SOL     OW28195   3.443   3.490   1.215
 9099SOL    HW128196   3.374   3.562   1.203
 9099SOL    HW228197   3.534   3.528   1.196
 9100SOL     OW28198   0.520   2.936   1.911
 9100SOL    HW128199   0.467   2.933   1.996
 9100SOL    HW228200   0.524   2.845   1.871
 9101SOL     OW28201   2.191   3.199   2.889
 9101SOL    HW128202   2.196   3.190   2.988
 9101SOL    HW228203   2.178   3.109   2.847
 9102SOL     OW28204   3.919   5.745   2.684
 9102SOL    HW128205   3.836   5.693   2.704
 9102SOL    HW228206   3.907   5.795   2.598
 9103SOL     OW28207   0.190   3.332   0.592
 9103SOL    HW128208   0.254   3.405   0.613
 9103SOL    HW228209   0.240   3.253   0.557
 9104SOL     OW28210   3.723   6.170   2.001
 9104SOL    HW128211   3.793   6.163   1.930
 9104SOL    HW228212   3.767   6.178   2.090
 9105SOL     OW28213   1.545   0.443   6.704
 9105SOL    HW128214   1.628   0.457   6.650
 9105SOL    HW228215   1.465   0.466   6.648
 9106SOL     OW28216   6.331   4.473   0.522
 9106SOL    HW128217   6.249   4.467   0.465
 9106SOL    HW228218   6.413   4.472   0.464
 9107SOL     OW28219   4.505   6.742   6.795
 9107SOL    HW128220   4.564   6.820   6.777
 9107SOL    HW228221   4.451   6.721   6.713
 9108SOL     OW28222   4.913   4.656   5.233
 9108SOL    HW128223   4.908   4.598   5.152
 9108SOL    HW228224   5.008   4.684   5.248
 9109SOL     OW28225   1.766   2.179   2.923
 9109SOL    HW128226   1.725   2.253   2.871
 9109SOL    HW228227   1.865   2.181   2.912
 9110SOL     OW28228   2.646   4.632   3.932
 9110SOL    HW128229   2.593   4.549   3.919
 9110SOL    HW228230   2.652   4.653   4.029
 9111SOL     OW28231   3.946   3.502   0.739
 9111SOL    HW128232   3.965   3.570   0.668
 9111SOL    HW228233   4.031   3.457   0.766
 9112SOL     OW28234   0.606   3.657   3.616
 9112SOL    HW128235   0.694   3.703   3.605
 9112SOL    HW228236   0.621   3.560   3.634
 9113SOL     OW28237   4.599   0.819   0.279
 9113SOL    HW128238   4.551   0.864   0.354
 9113SOL    HW228239   4.697   0.836   0.287
 9114SOL     OW28240   1.773   4.771   2.414
 9114SOL    HW128241   1.841   4.772   2.340
 9114SOL    HW228242   1.805   4.827   2.490
 9115SOL     OW28243   1.095   5.367   4.806
 9115SOL    HW128244   1.004   5.327   4.809
 9115SOL    HW228245   1.136   5.350   4.717
 9116SOL     OW28246   6.771   1.731   0.032
 9116SOL    HW128247   6.764   1.754   6.965
 9116SOL    HW228248   6.722   1.645   0.050
 9117SOL     OW28249   6.119   3.083   6.684
 9117SOL    HW128250   6.038   3.025   6.681
 9117SOL    HW228251   6.191   3.038   6.736
 9118SOL     OW28252   5.444   6.549   0.634
 9118SOL    HW128253   5.464   6.620   0.701
 9118SOL    HW228254   5.528   6.503   0.607
 9119SOL     OW28255   5.894   1.353   2.865
 9119SOL    HW128256   5.900   1.411   2.784
 9119SOL    HW228257   5.851   1.266   2.841
 9120SOL     OW28258   5.936   3.020   5.669
 9120SOL    HW128259   5.915   2.927   5.640
 9120SOL    HW228260   5.908   3.085   5.598
 9121SOL     OW28261   0.770   3.004   5.685
 9121SOL    HW128262   0.791   3.100   5.706
 9121SOL    HW228263   0.821   2.945   5.748
 9122SOL     OW28264   1.928   2.487   1.542
 9122SOL    HW128265   1.861   2.438   1.486
 9122SOL    HW228266   1.911   2.469   1.639
 9123SOL     OW28267   3.552   6.959   5.376
 9123SOL    HW128268   3.603   6.912   5.304
 9123SOL    HW228269   3.523   0.020   5.344
 9124SOL     OW28270   5.820   6.240   5.927
 9124SOL    HW128271   5.809   6.153   5.976
 9124SOL    HW228272   5.734   6.264   5.883
 9125SOL     OW28273   4.134   4.771   3.889
 9125SOL    HW128274   4.191   4.711   3.945
 9125SOL    HW228275   4.114   4.726   3.802
 9126SOL     OW28276   5.977   1.440   2.535
 9126SOL    HW128277   5.975   1.351   2.489
 9126SOL    HW228278   6.044   1.437   2.609
 9127SOL     OW28279   6.252   0.080   6.101
 9127SOL    HW128280   6.172   0.105   6.156
 9127SOL    HW228281   6.238   7.019   6.061
 9128SOL     OW28282   3.651   2.189   5.205
 9128SOL    HW128283   3.671   2.095   5.179
 9128SOL    HW228284   3.555   2.209   5.187
 9129SOL     OW28285   2.021   3.089   1.016
 9129SOL    HW128286   2.067   3.161   1.068
 9129SOL    HW228287   1.933   3.123   0.983
 9130SOL     OW28288   0.349   3.948   6.991
 9130SOL    HW128289   0.400   4.012   6.933
 9130SOL    HW228290   0.402   3.928   0.044
 9131SOL     OW28291   0.190   4.452   5.075
 9131SOL    HW128292   0.179   4.511   5.156
 9131SOL    HW228293   0.168   4.358   5.099
 9132SOL     OW28294   0.101   4.452   4.189
 9132SOL    HW128295   0.128   4.395   4.266
 9132SOL    HW228296   0.033   4.520   4.219
 9133SOL     OW28297   3.284   5.345   1.054
 9133SOL    HW128298   3.367   5.324   1.003
 9133SOL    HW228299   3.306   5.406   1.130
 9134SOL     OW28300   3.469   6.840   0.927
 9134SOL    HW128301   3.498   6.909   0.994
 9134SOL    HW228302   3.378   6.862   0.893
 9135SOL     OW28303   7.011   6.291   1.711
 9135SOL    HW128304   6.941   6.362   1.710
 9135SOL    HW228305   0.054   6.315   1.646
 9136SOL     OW28306   4.874   5.420   5.567
 9136SOL    HW128307   4.967   5.457   5.570
 9136SOL    HW228308   4.878   5.322   5.552
 9137SOL     OW28309   5.178   1.743   0.860
 9137SOL    HW128310   5.092   1.692   0.851
 9137SOL    HW228311   5.160   1.830   0.906
 9138SOL     OW28312   6.485   4.646   6.142
 9138SOL    HW128313   6.388   4.620   6.146
 9138SOL    HW228314   6.494   4.744   6.158
 9139SOL     OW28315   2.248   1.403   4.213
 9139SOL    HW128316   2.270   1.357   4.299
 9139SOL    HW228317   2.322   1.391   4.148
 9140SOL     OW28318   6.481   3.094   2.704
 9140SOL    HW128319   6.534   3.174   2.678
 9140SOL    HW228320   6.543   3.016   2.718
 9141SOL     OW28321   5.518   0.392   6.726
 9141SOL    HW128322   5.449   0.329   6.690
 9141SOL    HW228323   5.472   0.476   6.757
 9142SOL     OW28324   0.655   2.694   6.541
 9142SOL    HW128325   0.712   2.695   6.458
 9142SOL    HW228326   0.694   2.629   6.607
 9143SOL     OW28327   5.082   4.023   0.318
 9143SOL    HW128328   5.180   4.044   0.330
 9143SOL    HW228329   5.069   3.924   0.318
 9144SOL     OW28330   2.372   5.536   5.796
 9144SOL    HW128331   2.435   5.500   5.865
 9144SOL    HW228332   2.413   5.615   5.751
 9145SOL     OW28333   6.862   5.518   0.625
 9145SOL    HW128334   6.904   5.559   0.706
 9145SOL    HW228335   6.887   5.421   0.621
 9146SOL     OW28336   4.970   1.939   1.937
 9146SOL    HW128337   4.989   1.904   1.845
 9146SOL    HW228338   4.886   1.896   1.972
 9147SOL     OW28339   5.867   0.250   4.327
 9147SOL    HW128340   5.925   0.321   4.286
 9147SOL    HW228341   5.842   0.183   4.256
 9148SOL     OW28342   5.056   0.179   1.002
 9148SOL    HW128343   5.015   0.229   0.925
 9148SOL    HW228344   5.017   0.086   1.006
 9149SOL     OW28345   5.115   3.043   3.767
 9149SOL    HW128346   5.026   3.007   3.741
 9149SOL    HW228347   5.117   3.060   3.865
 9150SOL     OW28348   3.508   5.412   3.624
 9150SOL    HW128349   3.437   5.367   3.570
 9150SOL    HW228350   3.531   5.355   3.703
 9151SOL     OW28351   1.478   4.118   3.125
 9151SOL    HW128352   1.516   4.187   3.187
 9151SOL    HW228353   1.485   4.152   3.031
 9152SOL     OW28354   3.092   5.270   4.975
 9152SOL    HW128355   3.170   5.226   4.929
 9152SOL    HW228356   3.011   5.262   4.918
 9153SOL     OW28357   1.325   3.341   1.264
 9153SOL    HW128358   1.391   3.350   1.338
 9153SOL    HW228359   1.341   3.255   1.215
 9154SOL     OW28360   3.517   5.091   7.016
 9154SOL    HW128361   3.479   5.013   6.967
 9154SOL    HW228362   3.612   5.072   0.012
 9155SOL     OW28363   2.079   3.115   0.568
 9155SOL    HW128364   2.005   3.091   0.505
 9155SOL    HW228365   2.089   3.043   0.637
 9156SOL     OW28366   2.324   2.805   0.877
 9156SOL    HW128367   2.345   2.717   0.834
 9156SOL    HW228368   2.356   2.880   0.819
 9157SOL     OW28369   5.818   4.910   6.401
 9157SOL    HW128370   5.719   4.921   6.416
 9157SOL    HW228371   5.833   4.857   6.318
 9158SOL     OW28372   6.075   3.371   4.912
 9158SOL    HW128373   6.167   3.380   4.873
 9158SOL    HW228374   6.010   3.349   4.839
 9159SOL     OW28375   1.211   0.108   2.971
 9159SOL    HW128376   1.159   0.041   2.917
 9159SOL    HW228377   1.307   0.080   2.975
 9160SOL     OW28378   6.395   0.140   5.215
 9160SOL    HW128379   6.416   0.215   5.277
 9160SOL    HW228380   6.429   0.054   5.255
 9161SOL     OW28381   4.831   4.259   4.425
 9161SOL    HW128382   4.817   4.354   4.399
 9161SOL    HW228383   4.820   4.200   4.345
 9162SOL     OW28384   4.883   1.367   3.783
 9162SOL    HW128385   4.876   1.425   3.864
 9162SOL    HW228386   4.791   1.346   3.749
 9163SOL     OW28387   2.057   3.330   4.439
 9163SOL    HW128388   2.082   3.234   4.434
 9163SOL    HW228389   2.081   3.376   4.353
 9164SOL     OW28390   2.542   0.510   6.908
 9164SOL    HW128391   2.519   0.456   6.827
 9164SOL    HW228392   2.463   0.516   6.968
 9165SOL     OW28393   5.696   1.504   5.291
 9165SOL    HW128394   5.748   1.574   5.243
 9165SOL    HW228395   5.599   1.527   5.289
 9166SOL     OW28396   4.530   6.191   0.787
 9166SOL    HW128397   4.436   6.193   0.754
 9166SOL    HW228398   4.531   6.173   0.886
 9167SOL     OW28399   1.708   2.674   6.397
 9167SOL    HW128400   1.799   2.708   6.420
 9167SOL    HW228401   1.680   2.606   6.465
 9168SOL     OW28402   0.441   0.559   6.105
 9168SOL    HW128403   0.420   0.656   6.119
 9168SOL    HW228404   0.538   0.550   6.080
 9169SOL     OW28405   6.335   1.199   5.047
 9169SOL    HW128406   6.307   1.225   5.139
 9169SOL    HW228407   6.376   1.108   5.049
 9170SOL     OW28408   1.000   4.823   0.761
 9170SOL    HW128409   1.046   4.898   0.713
 9170SOL    HW228410   1.033   4.819   0.855
 9171SOL     OW28411   3.341   4.804   1.131
 9171SOL    HW128412   3.319   4.790   1.227
 9171SOL    HW228413   3.315   4.896   1.103
 9172SOL     OW28414   3.271   0.142   5.031
 9172SOL    HW128415   3.302   0.228   5.071
 9172SOL    HW228416   3.186   0.113   5.075
 9173SOL     OW28417   5.952   4.249   4.839
 9173SOL    HW128418   5.911   4.160   4.820
 9173SOL    HW228419   6.005   4.279   4.760
 9174SOL     OW28420   5.735   5.039   0.963
 9174SOL    HW128421   5.813   5.045   1.025
 9174SOL    HW228422   5.766   5.007   0.874
 9175SOL     OW28423   1.169   6.801   4.332
 9175SOL    HW128424   1.076   6.767   4.342
 9175SOL    HW228425   1.175   6.860   4.251
 9176SOL     OW28426   3.061   0.992   4.885
 9176SOL    HW128427   2.975   0.978   4.835
 9176SOL    HW228428   3.044   1.048   4.965
 9177SOL     OW28429   1.591   4.683   5.163
 9177SOL    HW128430   1.645   4.602   5.186
 9177SOL    HW228431   1.542   4.668   5.077
 9178SOL     OW28432   2.277   5.713   0.181
 9178SOL    HW128433   2.295   5.792   0.122
 9178SOL    HW228434   2.307   5.630   0.134
 9179SOL     OW28435   3.397   5.261   4.209
 9179SOL    HW128436   3.410   5.359   4.196
 9179SOL    HW228437   3.375   5.218   4.122
 9180SOL     OW28438   5.572   2.075   3.266
 9180SOL    HW128439   5.532   2.154   3.313
 9180SOL    HW228440   5.575   2.094   3.168
 9181SOL     OW28441   3.985   2.138   3.805
 9181SOL    HW128442   4.028   2.227   3.814
 9181SOL    HW228443   3.917   2.126   3.879
 9182SOL     OW28444   2.199   6.417   2.154
 9182SOL    HW128445   2.114   6.454   2.116
 9182SOL    HW228446   2.187   6.400   2.252
 9183SOL     OW28447   5.241   6.774   0.596
 9183SOL    HW128448   5.167   6.781   0.530
 9183SOL    HW228449   5.323   6.740   0.551
 9184SOL     OW28450   5.131   1.935   0.319
 9184SOL    HW128451   5.103   1.920   0.413
 9184SOL    HW228452   5.051   1.956   0.263
 9185SOL     OW28453   4.003   6.842   5.064
 9185SOL    HW128454   4.046   6.848   4.974
 9185SOL    HW228455   3.921   6.785   5.059
 9186SOL     OW28456   5.756   0.384   4.011
 9186SOL    HW128457   5.821   0.377   4.087
 9186SOL    HW228458   5.705   0.469   4.018
 9187SOL     OW28459   2.906   1.383   1.357
 9187SOL    HW128460   2.807   1.391   1.362
 9187SOL    HW228461   2.946   1.474   1.343
 9188SOL     OW28462   1.916   6.676   1.748
 9188SOL    HW128463   1.911   6.734   1.667
 9188SOL    HW228464   1.823   6.657   1.780
 9189SOL     OW28465   4.458   6.045   1.133
 9189SOL    HW128466   4.502   6.130   1.103
 9189SOL    HW228467   4.393   6.015   1.063
 9190SOL     OW28468   2.107   4.148   7.006
 9190SOL    HW128469   2.154   4.075   6.956
 9190SOL    HW228470   2.034   4.108   0.033
 9191SOL     OW28471   5.899   1.297   5.808
 9191SOL    HW128472   5.824   1.321   5.869
 9191SOL    HW228473   5.873   1.319   5.714
 9192SOL     OW28474   0.592   4.060   5.880
 9192SOL    HW128475   0.515   4.112   5.917
 9192SOL    HW228476   0.666   4.059   5.947
 9193SOL     OW28477   4.303   4.132   0.591
 9193SOL    HW128478   4.304   4.140   0.690
 9193SOL    HW228479   4.299   4.223   0.550
 9194SOL     OW28480   2.937   0.503   3.366
 9194SOL    HW128481   2.957   0.596   3.333
 9194SOL    HW228482   2.924   0.442   3.289
 9195SOL     OW28483   2.067   2.193   4.300
 9195SOL    HW128484   2.019   2.105   4.306
 9195SOL    HW228485   2.141   2.195   4.369
 9196SOL     OW28486   4.476   0.272   4.236
 9196SOL    HW128487   4.393   0.227   4.268
 9196SOL    HW228488   4.537   0.291   4.313
 9197SOL     OW28489   2.034   4.756   2.231
 9197SOL    HW128490   2.020   4.671   2.181
 9197SOL    HW228491   2.131   4.768   2.250
 9198SOL     OW28492   6.672   5.083   6.535
 9198SOL    HW128493   6.684   5.004   6.475
 9198SOL    HW228494   6.648   5.163   6.480
 9199SOL     OW28495   1.613   3.929   5.791
 9199SOL    HW128496   1.684   3.985   5.833
 9199SOL    HW228497   1.526   3.945   5.837
 9200SOL     OW28498   2.880   6.850   0.894
 9200SOL    HW128499   2.924   6.903   0.966
 9200SOL    HW228500   2.860   6.910   0.816
 9201SOL     OW28501   0.146   2.850   0.583
 9201SOL    HW128502   0.107   2.937   0.613
 9201SOL    HW228503   0.213   2.818   0.651
 9202SOL     OW28504   1.376   6.241   2.936
 9202SOL    HW128505   1.337   6.304   3.002
 9202SOL    HW228506   1.437   6.177   2.982
 9203SOL     OW28507   0.660   4.874   0.166
 9203SOL    HW128508   0.666   4.774   0.159
 9203SOL    HW228509   0.671   4.901   0.262
 9204SOL     OW28510   4.182   2.758   6.082
 9204SOL    HW128511   4.214   2.670   6.116
 9204SOL    HW228512   4.250   2.828   6.099
 9205SOL     OW28513   6.725   4.581   2.498
 9205SOL    HW128514   6.663   4.626   2.433
 9205SOL    HW228515   6.675   4.560   2.582
 9206SOL     OW28516   4.355   5.405   1.899
 9206SOL    HW128517   4.426   5.336   1.915
 9206SOL    HW228518   4.290   5.405   1.975
 9207SOL     OW28519   4.522   4.848   6.280
 9207SOL    HW128520   4.444   4.909   6.298
 9207SOL    HW228521   4.498   4.755   6.306
 9208SOL     OW28522   5.865   4.225   4.098
 9208SOL    HW128523   5.817   4.176   4.171
 9208SOL    HW228524   5.889   4.161   4.025
 9209SOL     OW28525   2.898   0.576   6.621
 9209SOL    HW128526   2.991   0.540   6.620
 9209SOL    HW228527   2.900   0.676   6.614
 9210SOL     OW28528   0.118   0.630   2.839
 9210SOL    HW128529   0.092   0.709   2.895
 9210SOL    HW228530   0.060   0.627   2.758
 9211SOL     OW28531   0.063   2.702   4.666
 9211SOL    HW128532   7.016   2.685   4.605
 9211SOL    HW228533   0.132   2.631   4.654
 9212SOL     OW28534   4.514   5.293   4.429
 9212SOL    HW128535   4.487   5.197   4.421
 9212SOL    HW228536   4.482   5.329   4.517
 9213SOL     OW28537   5.298   3.695   5.746
 9213SOL    HW128538   5.280   3.645   5.830
 9213SOL    HW228539   5.296   3.793   5.764
 9214SOL     OW28540   0.171   4.560   6.148
 9214SOL    HW128541   0.255   4.560   6.202
 9214SOL    HW228542   0.149   4.466   6.120
 9215SOL     OW28543   1.264   2.370   0.084
 9215SOL    HW128544   1.272   2.278   0.122
 9215SOL    HW228545   1.170   2.387   0.056
 9216SOL     OW28546   2.648   0.131   2.342
 9216SOL    HW128547   2.670   0.186   2.423
 9216SOL    HW228548   2.733   0.093   2.304
 9217SOL     OW28549   0.585   1.666   6.804
 9217SOL    HW128550   0.641   1.584   6.820
 9217SOL    HW228551   0.523   1.649   6.727
 9218SOL     OW28552   2.774   6.774   0.518
 9218SOL    HW128553   2.818   6.704   0.574
 9218SOL    HW228554   2.791   6.864   0.556
 9219SOL     OW28555   6.907   2.564   1.554
 9219SOL    HW128556   6.867   2.472   1.562
 9219SOL    HW228557   6.959   2.584   1.637
 9220SOL     OW28558   1.392   6.495   0.693
 9220SOL    HW128559   1.363   6.582   0.654
 9220SOL    HW228560   1.344   6.478   0.778
 9221SOL     OW28561   2.826   1.361   4.357
 9221SOL    HW128562   2.799   1.425   4.286
 9221SOL    HW228563   2.910   1.314   4.330
 9222SOL     OW28564   2.192   0.026   6.565
 9222SOL    HW128565   2.218   0.077   6.483
 9222SOL    HW228566   2.105   0.063   6.600
 9223SOL     OW28567   1.696   1.143   3.920
 9223SOL    HW128568   1.756   1.085   3.865
 9223SOL    HW228569   1.749   1.186   3.992
 9224SOL     OW28570   2.210   5.250   5.173
 9224SOL    HW128571   2.308   5.263   5.191
 9224SOL    HW228572   2.172   5.184   5.238
 9225SOL     OW28573   3.709   6.423   6.270
 9225SOL    HW128574   3.704   6.513   6.227
 9225SOL    HW228575   3.681   6.430   6.365
 9226SOL     OW28576   5.377   6.950   1.789
 9226SOL    HW128577   5.350   0.005   1.742
 9226SOL    HW228578   5.455   6.969   1.848
 9227SOL     OW28579   1.068   5.161   1.241
 9227SOL    HW128580   1.098   5.091   1.177
 9227SOL    HW228581   1.022   5.117   1.319
 9228SOL     OW28582   1.587   1.157   5.788
 9228SOL    HW128583   1.526   1.077   5.791
 9228SOL    HW228584   1.590   1.199   5.879
 9229SOL     OW28585   1.451   5.226   4.832
 9229SOL    HW128586   1.380   5.190   4.772
 9229SOL    HW228587   1.533   5.170   4.824
 9230SOL     OW28588   5.525   1.352   3.208
 9230SOL    HW128589   5.608   1.392   3.247
 9230SOL    HW228590   5.473   1.306   3.280
 9231SOL     OW28591   1.060   4.757   4.557
 9231SOL    HW128592   1.067   4.827   4.628
 9231SOL    HW228593   1.063   4.666   4.599
 9232SOL     OW28594   3.601   5.263   6.770
 9232SOL    HW128595   3.568   5.170   6.789
 9232SOL    HW228596   3.661   5.260   6.689
 9233SOL     OW28597   5.467   5.248   1.877
 9233SOL    HW128598   5.566   5.246   1.871
 9233SOL    HW228599   5.439   5.250   1.973
 9234SOL     OW28600   3.324   5.500   5.473
 9234SOL    HW128601   3.269   5.442   5.413
 9234SOL    HW228602   3.373   5.568   5.417
 9235SOL     OW28603   1.305   2.779   3.708
 9235SOL    HW128604   1.385   2.839   3.709
 9235SOL    HW228605   1.302   2.730   3.620
 9236SOL     OW28606   3.074   4.268   5.579
 9236SOL    HW128607   3.081   4.297   5.483
 9236SOL    HW228608   3.075   4.168   5.583
 9237SOL     OW28609   2.062   5.405   5.017
 9237SOL    HW128610   2.058   5.378   4.921
 9237SOL    HW228611   2.120   5.341   5.067
 9238SOL     OW28612   3.907   1.434   6.515
 9238SOL    HW128613   3.867   1.487   6.590
 9238SOL    HW228614   3.837   1.375   6.475
 9239SOL     OW28615   0.447   3.969   0.557
 9239SOL    HW128616   0.447   4.014   0.468
 9239SOL    HW228617   0.442   3.869   0.544
 9240SOL     OW28618   4.804   1.876   0.803
 9240SOL    HW128619   4.860   1.955   0.779
 9240SOL    HW228620   4.864   1.800   0.831
 9241SOL     OW28621   0.710   5.290   6.072
 9241SOL    HW128622   0.792   5.234   6.056
 9241SOL    HW228623   0.718   5.335   6.161
 9242SOL     OW28624   0.353   5.344   0.437
 9242SOL    HW128625   0.381   5.435   0.405
 9242SOL    HW228626   0.371   5.336   0.535
 9243SOL     OW28627   5.488   7.000   2.528
 9243SOL    HW128628   5.465   6.950   2.611
 9243SOL    HW228629   5.470   0.068   2.542
 9244SOL     OW28630   4.760   4.735   6.339
 9244SOL    HW128631   4.677   4.784   6.312
 9244SOL    HW228632   4.839   4.779   6.297
 9245SOL     OW28633   2.262   5.196   3.766
 9245SOL    HW128634   2.223   5.105   3.780
 9245SOL    HW228635   2.279   5.210   3.668
 9246SOL     OW28636   0.024   4.182   3.161
 9246SOL    HW128637   0.089   4.140   3.098
 9246SOL    HW228638   6.997   4.248   3.113
 9247SOL     OW28639   0.977   0.025   3.466
 9247SOL    HW128640   0.884   7.019   3.452
 9247SOL    HW228641   1.043   6.982   3.445
 9248SOL     OW28642   1.974   2.652   6.131
 9248SOL    HW128643   2.036   2.730   6.141
 9248SOL    HW228644   2.007   2.576   6.186
 9249SOL     OW28645   4.801   3.320   6.738
 9249SOL    HW128646   4.812   3.221   6.737
 9249SOL    HW228647   4.719   3.343   6.791
 9250SOL     OW28648   5.581   3.521   5.248
 9250SOL    HW128649   5.659   3.540   5.189
 9250SOL    HW228650   5.524   3.603   5.255
 9251SOL     OW28651   3.850   2.142   2.949
 9251SOL    HW128652   3.897   2.065   2.907
 9251SOL    HW228653   3.752   2.135   2.931
 9252SOL     OW28654   6.078   0.204   4.024
 9252SOL    HW128655   6.143   0.251   4.084
 9252SOL    HW228656   6.069   0.254   3.938
 9253SOL     OW28657   5.632   6.202   6.189
 9253SOL    HW128658   5.731   6.194   6.194
 9253SOL    HW228659   5.592   6.112   6.169
 9254SOL     OW28660   6.433   4.262   2.432
 9254SOL    HW128661   6.395   4.197   2.497
 9254SOL    HW228662   6.517   4.224   2.393
 9255SOL     OW28663   5.092   4.047   0.690
 9255SOL    HW128664   5.087   4.105   0.772
 9255SOL    HW228665   5.100   4.105   0.609
 9256SOL     OW28666   3.849   5.405   3.177
 9256SOL    HW128667   3.827   5.328   3.117
 9256SOL    HW228668   3.777   5.474   3.171
 9257SOL     OW28669   1.005   3.035   2.874
 9257SOL    HW128670   0.943   2.989   2.937
 9257SOL    HW228671   0.953   3.080   2.802
 9258SOL     OW28672   3.942   2.985   3.364
 9258SOL    HW128673   3.908   2.914   3.302
 9258SOL    HW228674   3.940   3.073   3.318
 9259SOL     OW28675   1.640   1.809   0.735
 9259SOL    HW128676   1.542   1.794   0.748
 9259SOL    HW228677   1.678   1.732   0.684
 9260SOL     OW28678   4.778   1.475   5.442
 9260SOL    HW128679   4.781   1.389   5.494
 9260SOL    HW228680   4.841   1.541   5.483
 9261SOL     OW28681   4.920   0.841   6.545
 9261SOL    HW128682   5.006   0.860   6.497
 9261SOL    HW228683   4.849   0.904   6.513
 9262SOL     OW28684   6.689   3.301   5.225
 9262SOL    HW128685   6.768   3.239   5.218
 9262SOL    HW228686   6.712   3.376   5.286
 9263SOL     OW28687   5.925   4.748   1.334
 9263SOL    HW128688   5.855   4.746   1.262
 9263SOL    HW228689   5.952   4.654   1.357
 9264SOL     OW28690   5.558   4.333   0.359
 9264SOL    HW128691   5.552   4.302   0.454
 9264SOL    HW228692   5.644   4.302   0.319
 9265SOL     OW28693   2.593   1.517   0.151
 9265SOL    HW128694   2.632   1.496   0.241
 9265SOL    HW228695   2.668   1.536   0.086
 9266SOL     OW28696   2.203   6.283   2.409
 9266SOL    HW128697   2.272   6.220   2.374
 9266SOL    HW228698   2.124   6.232   2.443
 9267SOL     OW28699   7.025   4.347   5.963
 9267SOL    HW128700   6.948   4.398   5.925
 9267SOL    HW228701   0.068   4.340   5.894
 9268SOL     OW28702   1.455   5.605   0.883
 9268SOL    HW128703   1.400   5.606   0.800
 9268SOL    HW228704   1.550   5.584   0.859
 9269SOL     OW28705   3.261   2.662   6.058
 9269SOL    HW128706   3.205   2.646   5.977
 9269SOL    HW228707   3.207   2.712   6.126
 9270SOL     OW28708   5.150   0.220   5.859
 9270SOL    HW128709   5.189   0.311   5.877
 9270SOL    HW228710   5.145   0.169   5.945
 9271SOL     OW28711   1.543   5.228   6.727
 9271SOL    HW128712   1.528   5.130   6.740
 9271SOL    HW228713   1.558   5.247   6.630
 9272SOL     OW28714   2.205   5.574   5.597
 9272SOL    HW128715   2.263   5.536   5.669
 9272SOL    HW228716   2.128   5.622   5.638
 9273SOL     OW28717   5.757   5.996   4.091
 9273SOL    HW128718   5.710   6.073   4.135
 9273SOL    HW228719   5.699   5.915   4.095
 9274SOL     OW28720   6.257   3.262   0.166
 9274SOL    HW128721   6.267   3.250   0.264
 9274SOL    HW228722   6.181   3.205   0.133
 9275SOL     OW28723   0.115   2.269   6.910
 9275SOL    HW128724   0.032   2.238   6.956
 9275SOL    HW228725   0.195   2.240   6.963
 9276SOL     OW28726   2.832   4.831   3.916
 9276SOL    HW128727   2.870   4.838   4.008
 9276SOL    HW228728   2.754   4.768   3.917
 9277SOL     OW28729   4.636   3.727   0.702
 9277SOL    HW128730   4.703   3.801   0.703
 9277SOL    HW228731   4.586   3.726   0.788
 9278SOL     OW28732   1.549   0.691   4.388
 9278SOL    HW128733   1.514   0.604   4.422
 9278SOL    HW228734   1.618   0.727   4.451
 9279SOL     OW28735   4.075   0.461   1.336
 9279SOL    HW128736   4.121   0.544   1.304
 9279SOL    HW228737   3.999   0.487   1.396
 9280SOL     OW28738   1.540   0.538   2.836
 9280SOL    HW128739   1.472   0.467   2.854
 9280SOL    HW228740   1.538   0.606   2.910
 9281SOL     OW28741   3.324   4.272   1.652
 9281SOL    HW128742   3.279   4.186   1.631
 9281SOL    HW228743   3.394   4.291   1.583
 9282SOL     OW28744   4.740   1.924   4.813
 9282SOL    HW128745   4.649   1.956   4.836
 9282SOL    HW228746   4.773   1.973   4.732
 9283SOL     OW28747   5.626   0.668   3.521
 9283SOL    HW128748   5.577   0.607   3.460
 9283SOL    HW228749   5.573   0.681   3.605
 9284SOL     OW28750   3.563   5.207   5.862
 9284SOL    HW128751   3.641   5.187   5.803
 9284SOL    HW228752   3.592   5.205   5.958
 9285SOL     OW28753   5.053   2.918   0.773
 9285SOL    HW128754   5.061   2.832   0.824
 9285SOL    HW228755   5.132   2.929   0.713
 9286SOL     OW28756   5.434   0.024   6.065
 9286SOL    HW128757   5.336   0.011   6.081
 9286SOL    HW228758   5.451   0.117   6.034
 9287SOL     OW28759   3.106   5.087   0.351
 9287SOL    HW128760   3.031   5.124   0.297
 9287SOL    HW228761   3.176   5.049   0.290
 9288SOL     OW28762   3.066   1.185   5.080
 9288SOL    HW128763   3.134   1.259   5.087
 9288SOL    HW228764   2.975   1.225   5.072
 9289SOL     OW28765   3.420   1.856   2.764
 9289SOL    HW128766   3.369   1.804   2.695
 9289SOL    HW228767   3.388   1.951   2.764
 9290SOL     OW28768   5.130   1.492   3.713
 9290SOL    HW128769   5.143   1.530   3.622
 9290SOL    HW228770   5.042   1.445   3.717
 9291SOL     OW28771   2.641   0.118   5.452
 9291SOL    HW128772   2.712   0.059   5.493
 9291SOL    HW228773   2.640   0.105   5.353
 9292SOL     OW28774   0.169   3.182   6.351
 9292SOL    HW128775   0.250   3.177   6.292
 9292SOL    HW228776   0.095   3.128   6.311
 9293SOL     OW28777   6.152   4.095   0.516
 9293SOL    HW128778   6.140   4.125   0.611
 9293SOL    HW228779   6.247   4.110   0.489
 9294SOL     OW28780   3.846   6.768   5.438
 9294SOL    HW128781   3.860   6.864   5.462
 9294SOL    HW228782   3.823   6.761   5.341
 9295SOL     OW28783   5.801   2.274   4.019
 9295SOL    HW128784   5.770   2.215   3.944
 9295SOL    HW228785   5.875   2.228   4.069
 9296SOL     OW28786   0.738   6.326   6.634
 9296SOL    HW128787   0.706   6.267   6.561
 9296SOL    HW228788   0.837   6.336   6.628
 9297SOL     OW28789   6.814   0.943   0.613
 9297SOL    HW128790   6.735   0.882   0.625
 9297SOL    HW228791   6.838   0.983   0.702
 9298SOL     OW28792   1.195   0.433   5.234
 9298SOL    HW128793   1.181   0.354   5.293
 9298SOL    HW228794   1.285   0.473   5.251
 9299SOL     OW28795   0.973   2.530   4.622
 9299SOL    HW128796   0.875   2.507   4.626
 9299SOL    HW228797   0.994   2.597   4.693
 9300SOL     OW28798   7.001   4.831   5.019
 9300SOL    HW128799   7.008   4.788   4.929
 9300SOL    HW228800   6.952   4.770   5.081
 9301SOL     OW28801   4.705   4.237   3.747
 9301SOL    HW128802   4.732   4.167   3.814
 9301SOL    HW228803   4.658   4.194   3.670
 9302SOL     OW28804   2.073   3.055   4.348
 9302SOL    HW128805   2.157   3.015   4.384
 9302SOL    HW228806   2.000   3.046   4.417
 9303SOL     OW28807   3.876   6.165   0.794
 9303SOL    HW128808   3.889   6.240   0.858
 9303SOL    HW228809   3.789   6.119   0.812
 9304SOL     OW28810   4.737   4.313   0.710
 9304SOL    HW128811   4.780   4.266   0.787
 9304SOL    HW228812   4.664   4.374   0.744
 9305SOL     OW28813   3.752   1.754   2.041
 9305SOL    HW128814   3.742   1.852   2.060
 9305SOL    HW228815   3.848   1.734   2.021
 9306SOL     OW28816   0.433   4.393   4.986
 9306SOL    HW128817   0.337   4.420   4.995
 9306SOL    HW228818   0.479   4.454   4.921
 9307SOL     OW28819   1.097   3.284   1.951
 9307SOL    HW128820   1.063   3.327   2.035
 9307SOL    HW228821   1.162   3.212   1.974
 9308SOL     OW28822   1.209   4.038   0.623
 9308SOL    HW128823   1.177   4.124   0.664
 9308SOL    HW228824   1.306   4.025   0.645
 9309SOL     OW28825   3.470   4.900   5.539
 9309SOL    HW128826   3.390   4.867   5.590
 9309SOL    HW228827   3.468   5.000   5.535
 9310SOL     OW28828   4.691   5.140   6.348
 9310SOL    HW128829   4.631   5.061   6.358
 9310SOL    HW228830   4.737   5.136   6.259
 9311SOL     OW28831   5.263   5.005   1.890
 9311SOL    HW128832   5.247   4.990   1.987
 9311SOL    HW228833   5.330   5.079   1.878
 9312SOL     OW28834   1.264   3.938   1.738
 9312SOL    HW128835   1.352   3.935   1.786
 9312SOL    HW228836   1.191   3.961   1.802
 9313SOL     OW28837   0.217   0.915   0.564
 9313SOL    HW128838   0.222   0.822   0.600
 9313SOL    HW228839   0.170   0.913   0.475
 9314SOL     OW28840   4.423   5.636   6.318
 9314SOL    HW128841   4.389   5.607   6.228
 9314SOL    HW228842   4.523   5.636   6.318
 9315SOL     OW28843   6.691   0.826   5.154
 9315SOL    HW128844   6.789   0.835   5.137
 9315SOL    HW228845   6.649   0.778   5.076
 9316SOL     OW28846   4.012   5.552   5.611
 9316SOL    HW128847   4.041   5.643   5.641
 9316SOL    HW228848   3.973   5.559   5.519
 9317SOL     OW28849   6.749   5.563   3.252
 9317SOL    HW128850   6.685   5.575   3.328
 9317SOL    HW228851   6.712   5.607   3.170
 9318SOL     OW28852   6.412   0.601   5.399
 9318SOL    HW128853   6.354   0.599   5.480
 9318SOL    HW228854   6.482   0.672   5.410
 9319SOL     OW28855   0.724   2.895   6.142
 9319SOL    HW128856   0.652   2.836   6.106
 9319SOL    HW228857   0.770   2.850   6.218
 9320SOL     OW28858   4.120   1.199   6.190
 9320SOL    HW128859   4.217   1.183   6.207
 9320SOL    HW228860   4.066   1.140   6.251
 9321SOL     OW28861   6.375   0.131   2.595
 9321SOL    HW128862   6.299   0.161   2.652
 9321SOL    HW228863   6.462   0.146   2.643
 9322SOL     OW28864   0.187   5.293   6.444
 9322SOL    HW128865   0.091   5.321   6.439
 9322SOL    HW228866   0.196   5.197   6.419
 9323SOL     OW28867   1.553   0.239   5.263
 9323SOL    HW128868   1.584   0.244   5.358
 9323SOL    HW228869   1.498   0.320   5.242
 9324SOL     OW28870   2.046   5.177   0.402
 9324SOL    HW128871   2.023   5.092   0.354
 9324SOL    HW228872   2.127   5.163   0.458
 9325SOL     OW28873   4.979   1.509   6.993
 9325SOL    HW128874   5.037   1.517   6.912
 9325SOL    HW228875   4.893   1.465   6.968
 9326SOL     OW28876   1.780   6.713   0.880
 9326SOL    HW128877   1.687   6.740   0.904
 9326SOL    HW228878   1.829   6.684   0.962
 9327SOL     OW28879   5.135   6.907   2.538
 9327SOL    HW128880   5.192   6.884   2.618
 9327SOL    HW228881   5.039   6.887   2.560
 9328SOL     OW28882   3.377   1.028   5.810
 9328SOL    HW128883   3.456   1.076   5.847
 9328SOL    HW228884   3.390   1.014   5.712
 9329SOL     OW28885   6.831   4.329   2.062
 9329SOL    HW128886   6.831   4.348   2.161
 9329SOL    HW228887   6.838   4.415   2.012
 9330SOL     OW28888   0.250   6.260   6.913
 9330SOL    HW128889   0.259   6.232   7.009
 9330SOL    HW228890   0.220   6.182   6.858
 9331SOL     OW28891   1.368   1.790   5.754
 9331SOL    HW128892   1.331   1.865   5.698
 9331SOL    HW228893   1.446   1.824   5.807
 9332SOL     OW28894   3.438   4.061   2.610
 9332SOL    HW128895   3.500   4.111   2.550
 9332SOL    HW228896   3.486   3.982   2.649
 9333SOL     OW28897   4.329   3.790   1.428
 9333SOL    HW128898   4.244   3.778   1.377
 9333SOL    HW228899   4.382   3.864   1.387
 9334SOL     OW28900   4.307   6.365   3.793
 9334SOL    HW128901   4.318   6.380   3.891
 9334SOL    HW228902   4.338   6.445   3.743
 9335SOL     OW28903   0.940   1.534   5.755
 9335SOL    HW128904   1.015   1.535   5.689
 9335SOL    HW228905   0.943   1.617   5.811
 9336SOL     OW28906   3.450   5.184   5.503
 9336SOL    HW128907   3.532   5.241   5.498
 9336SOL    HW228908   3.373   5.233   5.463
 9337SOL     OW28909   4.852   0.602   3.428
 9337SOL    HW128910   4.885   0.564   3.514
 9337SOL    HW228911   4.859   0.702   3.431
 9338SOL     OW28912   3.800   0.524   2.109
 9338SOL    HW128913   3.852   0.438   2.113
 9338SOL    HW228914   3.780   0.556   2.201
 9339SOL     OW28915   5.037   6.908   1.022
 9339SOL    HW128916   5.102   6.835   1.002
 9339SOL    HW228917   5.048   6.938   1.117
 9340SOL     OW28918   5.879   4.066   5.123
 9340SOL    HW128919   5.834   4.034   5.039
 9340SOL    HW228920   5.956   4.006   5.144
 9341SOL     OW28921   0.321   5.968   6.683
 9341SOL    HW128922   0.268   6.049   6.656
 9341SOL    HW228923   0.279   5.886   6.644
 9342SOL     OW28924   2.073   0.610   3.716
 9342SOL    HW128925   2.052   0.548   3.791
 9342SOL    HW228926   2.018   0.584   3.636
 9343SOL     OW28927   5.874   4.164   3.264
 9343SOL    HW128928   5.890   4.068   3.241
 9343SOL    HW228929   5.776   4.182   3.268
 9344SOL     OW28930   4.749   6.202   1.701
 9344SOL    HW128931   4.790   6.138   1.636
 9344SOL    HW228932   4.820   6.260   1.739
 9345SOL     OW28933   6.388   3.854   2.091
 9345SOL    HW128934   6.416   3.924   2.025
 9345SOL    HW228935   6.448   3.855   2.170
 9346SOL     OW28936   6.373   0.790   0.816
 9346SOL    HW128937   6.380   0.706   0.870
 9346SOL    HW228938   6.286   0.835   0.836
 9347SOL     OW28939   1.204   5.026   1.006
 9347SOL    HW128940   1.302   5.009   0.999
 9347SOL    HW228941   1.181   5.111   0.958
 9348SOL     OW28942   3.711   5.636   1.912
 9348SOL    HW128943   3.615   5.663   1.901
 9348SOL    HW228944   3.727   5.549   1.866
 9349SOL     OW28945   1.149   6.515   2.404
 9349SOL    HW128946   1.079   6.443   2.409
 9349SOL    HW228947   1.152   6.551   2.311
 9350SOL     OW28948   0.611   3.516   5.463
 9350SOL    HW128949   0.542   3.535   5.532
 9350SOL    HW228950   0.579   3.441   5.404
 9351SOL     OW28951   2.875   1.171   6.233
 9351SOL    HW128952   2.967   1.197   6.264
 9351SOL    HW228953   2.879   1.080   6.192
 9352SOL     OW28954   2.697   2.441   0.370
 9352SOL    HW128955   2.652   2.352   0.360
 9352SOL    HW228956   2.728   2.453   0.464
 9353SOL     OW28957   0.398   5.254   1.202
 9353SOL    HW128958   0.348   5.241   1.116
 9353SOL    HW228959   0.490   5.288   1.181
 9354SOL     OW28960   6.443   2.194   6.847
 9354SOL    HW128961   6.443   2.267   6.778
 9354SOL    HW228962   6.429   2.106   6.802
 9355SOL     OW28963   0.216   2.193   4.951
 9355SOL    HW128964   0.314   2.198   4.931
 9355SOL    HW228965   0.201   2.187   5.049
 9356SOL     OW28966   3.859   0.249   0.893
 9356SOL    HW128967   3.925   0.234   0.819
 9356SOL    HW228968   3.906   0.243   0.981
 9357SOL     OW28969   1.244   3.186   5.867
 9357SOL    HW128970   1.321   3.128   5.841
 9357SOL    HW228971   1.217   3.242   5.789
 9358SOL     OW28972   7.008   4.198   1.917
 9358SOL    HW128973   6.973   4.147   1.839
 9358SOL    HW228974   6.932   4.245   1.964
 9359SOL     OW28975   1.988   4.406   6.537
 9359SOL    HW128976   2.081   4.410   6.501
 9359SOL    HW228977   1.990   4.377   6.633
 9360SOL     OW28978   1.524   5.984   6.318
 9360SOL    HW128979   1.465   6.025   6.387
 9360SOL    HW228980   1.474   5.910   6.271
 9361SOL     OW28981   2.064   5.210   3.345
 9361SOL    HW128982   2.033   5.188   3.438
 9361SOL    HW228983   2.013   5.288   3.311
 9362SOL     OW28984   1.578   1.707   2.625
 9362SOL    HW128985   1.604   1.629   2.682
 9362SOL    HW228986   1.599   1.792   2.673
 9363SOL     OW28987   3.416   5.480   1.653
 9363SOL    HW128988   3.366   5.422   1.588
 9363SOL    HW228989   3.458   5.556   1.604
 9364SOL     OW28990   2.190   1.533   1.258
 9364SOL    HW128991   2.268   1.540   1.195
 9364SOL    HW228992   2.224   1.537   1.352
 9365SOL     OW28993   2.799   2.033   3.653
 9365SOL    HW128994   2.749   2.114   3.685
 9365SOL    HW228995   2.879   2.062   3.601
 9366SOL     OW28996   3.074   5.926   0.226
 9366SOL    HW128997   3.123   6.013   0.231
 9366SOL    HW228998   3.133   5.852   0.258
 9367SOL     OW28999   6.135   0.060   1.227
 9367SOL    HW129000   6.211   0.081   1.165
 9367SOL    HW229001   6.056   0.115   1.201
 9368SOL     OW29002   3.903   0.025   2.446
 9368SOL    HW129003   3.822   0.060   2.398
 9368SOL    HW229004   3.904   6.955   2.441
 9369SOL     OW29005   0.515   5.906   5.037
 9369SOL    HW129006   0.554   5.957   5.114
 9369SOL    HW229007   0.476   5.970   4.971
 9370SOL     OW29008   5.004   1.201   3.533
 9370SOL    HW129009   5.041   1.169   3.446
 9370SOL    HW229010   5.060   1.167   3.608
 9371SOL     OW29011   3.034   5.477   1.077
 9371SOL    HW129012   3.039   5.575   1.097
 9371SOL    HW229013   3.126   5.438   1.079
 9372SOL     OW29014   4.227   6.825   2.029
 9372SOL    HW129015   4.287   6.747   2.010
 9372SOL    HW229016   4.277   6.910   2.012
 9373SOL     OW29017   6.155   2.707   0.613
 9373SOL    HW129018   6.130   2.634   0.677
 9373SOL    HW229019   6.230   2.676   0.555
 9374SOL     OW29020   6.823   3.530   6.086
 9374SOL    HW129021   6.775   3.455   6.132
 9374SOL    HW229022   6.799   3.617   6.129
 9375SOL     OW29023   0.100   1.780   0.777
 9375SOL    HW129024   0.190   1.769   0.733
 9375SOL    HW229025   0.098   1.725   0.861
 9376SOL     OW29026   2.086   3.260   2.031
 9376SOL    HW129027   2.091   3.253   1.932
 9376SOL    HW229028   2.110   3.353   2.060
 9377SOL     OW29029   3.113   5.365   3.100
 9377SOL    HW129030   3.130   5.432   3.172
 9377SOL    HW229031   3.171   5.284   3.115
 9378SOL     OW29032   3.281   1.261   3.940
 9378SOL    HW129033   3.309   1.357   3.937
 9378SOL    HW229034   3.189   1.252   3.901
 9379SOL     OW29035   4.593   0.452   4.996
 9379SOL    HW129036   4.677   0.407   5.028
 9379SOL    HW229037   4.522   0.440   5.065
 9380SOL     OW29038   3.329   5.978   6.034
 9380SOL    HW129039   3.337   6.078   6.034
 9380SOL    HW229040   3.265   5.950   5.962
 9381SOL     OW29041   5.289   2.253   4.054
 9381SOL    HW129042   5.265   2.326   4.117
 9381SOL    HW229043   5.341   2.290   3.978
 9382SOL     OW29044   4.136   0.873   4.530
 9382SOL    HW129045   4.220   0.923   4.553
 9382SOL    HW229046   4.116   0.884   4.432
 9383SOL     OW29047   4.689   4.392   4.138
 9383SOL    HW129048   4.700   4.296   4.163
 9383SOL    HW229049   4.653   4.399   4.045
 9384SOL     OW29050   2.548   6.896   1.829
 9384SOL    HW129051   2.588   6.805   1.826
 9384SOL    HW229052   2.533   6.922   1.925
 9385SOL     OW29053   3.897   1.849   4.306
 9385SOL    HW129054   3.940   1.893   4.227
 9385SOL    HW229055   3.894   1.913   4.382
 9386SOL     OW29056   3.432   6.266   5.432
 9386SOL    HW129057   3.434   6.168   5.454
 9386SOL    HW229058   3.416   6.278   5.334
 9387SOL     OW29059   3.757   2.122   0.252
 9387SOL    HW129060   3.783   2.026   0.260
 9387SOL    HW229061   3.757   2.164   0.343
 9388SOL     OW29062   1.695   6.250   3.900
 9388SOL    HW129063   1.703   6.157   3.934
 9388SOL    HW229064   1.616   6.256   3.838
 9389SOL     OW29065   3.171   5.506   2.312
 9389SOL    HW129066   3.132   5.415   2.322
 9389SOL    HW229067   3.166   5.554   2.400
 9390SOL     OW29068   5.364   4.428   5.925
 9390SOL    HW129069   5.321   4.449   6.012
 9390SOL    HW229070   5.293   4.414   5.855
 9391SOL     OW29071   0.533   0.481   4.921
 9391SOL    HW129072   0.603   0.443   4.981
 9391SOL    HW229073   0.460   0.414   4.908
 9392SOL     OW29074   4.778   4.497   3.633
 9392SOL    HW129075   4.767   4.406   3.672
 9392SOL    HW229076   4.729   4.502   3.546
 9393SOL     OW29077   3.122   6.214   6.458
 9393SOL    HW129078   3.142   6.223   6.361
 9393SOL    HW229079   3.136   6.302   6.504
 9394SOL     OW29080   5.299   0.635   1.471
 9394SOL    HW129081   5.303   0.695   1.391
 9394SOL    HW229082   5.385   0.639   1.521
 9395SOL     OW29083   2.385   1.243   0.819
 9395SOL    HW129084   2.480   1.257   0.845
 9395SOL    HW229085   2.328   1.310   0.867
 9396SOL     OW29086   2.106   5.961   5.690
 9396SOL    HW129087   2.050   5.884   5.660
 9396SOL    HW229088   2.200   5.929   5.707
 9397SOL     OW29089   3.419   6.570   6.280
 9397SOL    HW129090   3.393   6.654   6.233
 9397SOL    HW229091   3.364   6.494   6.246
 9398SOL     OW29092   6.267   1.230   6.299
 9398SOL    HW129093   6.201   1.299   6.328
 9398SOL    HW229094   6.226   1.170   6.230
 9399SOL     OW29095   1.287   2.551   3.884
 9399SOL    HW129096   1.279   2.613   3.806
 9399SOL    HW229097   1.314   2.603   3.965
 9400SOL     OW29098   4.796   1.419   0.381
 9400SOL    HW129099   4.723   1.441   0.445
 9400SOL    HW229100   4.810   1.497   0.319
 9401SOL     OW29101   0.206   3.166   2.082
 9401SOL    HW129102   0.279   3.102   2.110
 9401SOL    HW229103   0.124   3.114   2.059
 9402SOL     OW29104   2.008   5.632   3.671
 9402SOL    HW129105   2.084   5.629   3.606
 9402SOL    HW229106   1.991   5.727   3.698
 9403SOL     OW29107   0.173   1.354   2.350
 9403SOL    HW129108   0.105   1.283   2.366
 9403SOL    HW229109   0.256   1.313   2.312
 9404SOL     OW29110   0.584   3.095   1.333
 9404SOL    HW129111   0.667   3.151   1.325
 9404SOL    HW229112   0.600   3.024   1.402
 9405SOL     OW29113   0.335   4.780   4.782
 9405SOL    HW129114   0.251   4.727   4.799
 9405SOL    HW229115   0.317   4.876   4.804
 9406SOL     OW29116   0.805   3.149   6.455
 9406SOL    HW129117   0.720   3.097   6.466
 9406SOL    HW229118   0.877   3.087   6.422
 9407SOL     OW29119   2.945   5.246   5.197
 9407SOL    HW129120   2.923   5.149   5.204
 9407SOL    HW229121   2.990   5.264   5.109
 9408SOL     OW29122   6.985   3.146   5.538
 9408SOL    HW129123   0.029   3.137   5.471
 9408SOL    HW229124   6.994   3.074   5.607
 9409SOL     OW29125   6.512   6.007   2.445
 9409SOL    HW129126   6.530   6.000   2.543
 9409SOL    HW229127   6.597   6.031   2.397
 9410SOL     OW29128   4.707   0.948   1.865
 9410SOL    HW129129   4.730   1.045   1.856
 9410SOL    HW229130   4.610   0.935   1.845
 9411SOL     OW29131   3.215   3.286   3.505
 9411SOL    HW129132   3.164   3.206   3.475
 9411SOL    HW229133   3.199   3.302   3.603
 9412SOL     OW29134   0.721   0.586   0.954
 9412SOL    HW129135   0.745   0.606   1.049
 9412SOL    HW229136   0.800   0.601   0.896
 9413SOL     OW29137   4.507   4.881   4.628
 9413SOL    HW129138   4.458   4.836   4.703
 9413SOL    HW229139   4.571   4.816   4.587
 9414SOL     OW29140   2.158   2.378   4.784
 9414SOL    HW129141   2.116   2.457   4.829
 9414SOL    HW229142   2.251   2.367   4.819
 9415SOL     OW29143   3.177   0.599   1.983
 9415SOL    HW129144   3.248   0.590   2.052
 9415SOL    HW229145   3.121   0.679   2.003
 9416SOL     OW29146   0.559   7.022   5.862
 9416SOL    HW129147   0.522   6.968   5.787
 9416SOL    HW229148   0.509   7.002   5.946
 9417SOL     OW29149   3.423   6.244   1.450
 9417SOL    HW129150   3.486   6.258   1.373
 9417SOL    HW229151   3.339   6.296   1.434
 9418SOL     OW29152   2.928   1.776   3.766
 9418SOL    HW129153   2.904   1.845   3.697
 9418SOL    HW229154   3.027   1.761   3.765
 9419SOL     OW29155   2.653   2.597   6.459
 9419SOL    HW129156   2.612   2.567   6.373
 9419SOL    HW229157   2.722   2.668   6.441
 9420SOL     OW29158   5.794   4.255   0.239
 9420SOL    HW129159   5.842   4.174   0.272
 9420SOL    HW229160   5.860   4.326   0.214
 9421SOL     OW29161   3.791   6.217   4.961
 9421SOL    HW129162   3.877   6.205   5.011
 9421SOL    HW229163   3.736   6.288   5.006
 9422SOL     OW29164   2.697   5.926   4.439
 9422SOL    HW129165   2.662   5.917   4.533
 9422SOL    HW229166   2.646   5.864   4.379
 9423SOL     OW29167   3.993   5.740   3.148
 9423SOL    HW129168   3.981   5.732   3.247
 9423SOL    HW229169   4.026   5.653   3.111
 9424SOL     OW29170   5.459   1.535   4.428
 9424SOL    HW129171   5.405   1.471   4.373
 9424SOL    HW229172   5.398   1.598   4.475
 9425SOL     OW29173   6.057   4.495   1.383
 9425SOL    HW129174   6.124   4.531   1.448
 9425SOL    HW229175   5.987   4.443   1.433
 9426SOL     OW29176   0.747   2.390   6.282
 9426SOL    HW129177   0.807   2.383   6.361
 9426SOL    HW229178   0.652   2.388   6.312
 9427SOL     OW29179   2.919   5.655   2.831
 9427SOL    HW129180   2.839   5.675   2.886
 9427SOL    HW229181   3.002   5.674   2.884
 9428SOL     OW29182   6.244   6.124   0.264
 9428SOL    HW129183   6.314   6.176   0.312
 9428SOL    HW229184   6.284   6.080   0.184
 9429SOL     OW29185   1.537   2.386   3.917
 9429SOL    HW129186   1.462   2.425   3.864
 9429SOL    HW229187   1.507   2.371   4.011
 9430SOL     OW29188   0.574   2.072   4.159
 9430SOL    HW129189   0.622   2.011   4.222
 9430SOL    HW229190   0.640   2.114   4.097
 9431SOL     OW29191   0.015   4.375   0.678
 9431SOL    HW129192   6.994   4.362   0.592
 9431SOL    HW229193   0.049   4.287   0.710
 9432SOL     OW29194   7.017   1.565   3.591
 9432SOL    HW129195   6.999   1.623   3.513
 9432SOL    HW229196   6.948   1.492   3.595
 9433SOL     OW29197   4.159   5.677   2.779
 9433SOL    HW129198   4.067   5.702   2.749
 9433SOL    HW229199   4.220   5.673   2.701
 9434SOL     OW29200   5.516   5.399   4.282
 9434SOL    HW129201   5.517   5.366   4.188
 9434SOL    HW229202   5.471   5.331   4.340
 9435SOL     OW29203   0.689   2.630   2.481
 9435SOL    HW129204   0.744   2.662   2.558
 9435SOL    HW229205   0.740   2.560   2.431
 9436SOL     OW29206   0.714   1.109   2.391
 9436SOL    HW129207   0.618   1.122   2.368
 9436SOL    HW229208   0.769   1.118   2.308
 9437SOL     OW29209   0.026   5.079   3.745
 9437SOL    HW129210   6.970   5.087   3.796
 9437SOL    HW229211   0.063   5.171   3.727
 9438SOL     OW29212   2.423   6.276   1.819
 9438SOL    HW129213   2.407   6.373   1.800
 9438SOL    HW229214   2.335   6.232   1.841
 9439SOL     OW29215   1.029   2.881   0.361
 9439SOL    HW129216   0.962   2.947   0.328
 9439SOL    HW229217   1.120   2.905   0.328
 9440SOL     OW29218   3.238   4.988   3.543
 9440SOL    HW129219   3.328   4.950   3.565
 9440SOL    HW229220   3.170   4.950   3.606
 9441SOL     OW29221   6.547   5.797   4.551
 9441SOL    HW129222   6.478   5.743   4.599
 9441SOL    HW229223   6.607   5.840   4.618
 9442SOL     OW29224   4.886   3.639   1.273
 9442SOL    HW129225   4.977   3.680   1.282
 9442SOL    HW229226   4.883   3.554   1.326
 9443SOL     OW29227   3.096   5.061   2.031
 9443SOL    HW129228   3.108   4.982   2.091
 9443SOL    HW229229   3.172   5.125   2.045
 9444SOL     OW29230   2.176   3.756   0.279
 9444SOL    HW129231   2.130   3.708   0.353
 9444SOL    HW229232   2.144   3.851   0.276
 9445SOL     OW29233   0.620   1.408   3.819
 9445SOL    HW129234   0.640   1.506   3.808
 9445SOL    HW229235   0.703   1.361   3.848
 9446SOL     OW29236   6.245   4.891   3.725
 9446SOL    HW129237   6.286   4.839   3.650
 9446SOL    HW229238   6.218   4.981   3.693
 9447SOL     OW29239   5.404   5.168   2.703
 9447SOL    HW129240   5.467   5.092   2.685
 9447SOL    HW229241   5.397   5.225   2.621
 9448SOL     OW29242   5.854   6.823   5.901
 9448SOL    HW129243   5.923   6.855   5.837
 9448SOL    HW229244   5.778   6.888   5.904
 9449SOL     OW29245   5.187   0.207   0.538
 9449SOL    HW129246   5.226   0.208   0.446
 9449SOL    HW229247   5.122   0.131   0.546
 9450SOL     OW29248   1.556   5.937   4.574
 9450SOL    HW129249   1.613   5.998   4.520
 9450SOL    HW229250   1.581   5.946   4.671
 9451SOL     OW29251   3.734   5.763   6.131
 9451SOL    HW129252   3.639   5.795   6.129
 9451SOL    HW229253   3.762   5.749   6.226
 9452SOL     OW29254   0.848   4.059   1.139
 9452SOL    HW129255   0.832   4.101   1.228
 9452SOL    HW229256   0.761   4.050   1.090
 9453SOL     OW29257   3.555   5.229   3.269
 9453SOL    HW129258   3.632   5.212   3.331
 9453SOL    HW229259   3.544   5.328   3.256
 9454SOL     OW29260   4.544   4.429   0.888
 9454SOL    HW129261   4.562   4.392   0.979
 9454SOL    HW229262   4.505   4.521   0.896
 9455SOL     OW29263   2.818   2.270   2.292
 9455SOL    HW129264   2.818   2.302   2.197
 9455SOL    HW229265   2.860   2.179   2.296
 9456SOL     OW29266   6.344   3.726   2.447
 9456SOL    HW129267   6.444   3.736   2.444
 9456SOL    HW229268   6.311   3.745   2.539
 9457SOL     OW29269   1.614   4.800   4.319
 9457SOL    HW129270   1.712   4.785   4.309
 9457SOL    HW229271   1.580   4.747   4.397
 9458SOL     OW29272   6.779   4.117   0.509
 9458SOL    HW129273   6.838   4.192   0.477
 9458SOL    HW229274   6.793   4.103   0.607
 9459SOL     OW29275   5.069   4.827   4.888
 9459SOL    HW129276   5.115   4.908   4.854
 9459SOL    HW229277   5.120   4.789   4.965
 9460SOL     OW29278   1.594   3.260   3.832
 9460SOL    HW129279   1.692   3.269   3.851
 9460SOL    HW229280   1.582   3.220   3.741
 9461SOL     OW29281   1.001   2.104   1.037
 9461SOL    HW129282   0.901   2.100   1.035
 9461SOL    HW229283   1.032   2.178   0.977
 9462SOL     OW29284   2.219   2.149   3.857
 9462SOL    HW129285   2.203   2.202   3.941
 9462SOL    HW229286   2.142   2.161   3.795
 9463SOL     OW29287   5.160   6.716   1.373
 9463SOL    HW129288   5.204   6.685   1.289
 9463SOL    HW229289   5.229   6.738   1.441
 9464SOL     OW29290   6.765   0.866   1.763
 9464SOL    HW129291   6.726   0.776   1.784
 9464SOL    HW229292   6.807   0.904   1.846
 9465SOL     OW29293   0.344   3.925   1.155
 9465SOL    HW129294   0.391   3.941   1.068
 9465SOL    HW229295   0.267   3.987   1.163
 9466SOL     OW29296   4.016   5.474   6.365
 9466SOL    HW129297   3.942   5.454   6.300
 9466SOL    HW229298   4.104   5.447   6.324
 9467SOL     OW29299   1.524   2.669   0.742
 9467SOL    HW129300   1.466   2.724   0.802
 9467SOL    HW229301   1.612   2.715   0.729
 9468SOL     OW29302   0.109   3.924   0.132
 9468SOL    HW129303   0.172   3.954   0.061
 9468SOL    HW229304   0.077   3.832   0.112
 9469SOL     OW29305   6.882   6.255   0.193
 9469SOL    HW129306   6.855   6.195   0.117
 9469SOL    HW229307   6.981   6.269   0.190
 9470SOL     OW29308   4.792   3.827   0.116
 9470SOL    HW129309   4.777   3.789   0.207
 9470SOL    HW229310   4.822   3.922   0.125
 9471SOL     OW29311   6.083   2.178   5.266
 9471SOL    HW129312   6.110   2.228   5.349
 9471SOL    HW229313   6.032   2.238   5.206
 9472SOL     OW29314   1.421   4.555   6.018
 9472SOL    HW129315   1.433   4.537   5.920
 9472SOL    HW229316   1.335   4.604   6.032
 9473SOL     OW29317   3.013   4.209   7.027
 9473SOL    HW129318   2.957   4.131   0.025
 9473SOL    HW229319   3.099   4.208   0.050
 9474SOL     OW29320   5.897   3.648   1.940
 9474SOL    HW129321   5.811   3.640   1.990
 9474SOL    HW229322   5.936   3.739   1.954
 9475SOL     OW29323   4.917   3.693   5.714
 9475SOL    HW129324   4.921   3.793   5.718
 9475SOL    HW229325   4.994   3.658   5.660
 9476SOL     OW29326   3.876   4.284   5.843
 9476SOL    HW129327   3.824   4.255   5.763
 9476SOL    HW229328   3.871   4.383   5.853
 9477SOL     OW29329   2.011   3.604   1.904
 9477SOL    HW129330   2.079   3.558   1.960
 9477SOL    HW229331   2.055   3.649   1.827
 9478SOL     OW29332   4.750   2.712   0.949
 9478SOL    HW129333   4.760   2.810   0.963
 9478SOL    HW229334   4.834   2.675   0.908
 9479SOL     OW29335   4.614   0.910   1.406
 9479SOL    HW129336   4.683   0.939   1.473
 9479SOL    HW229337   4.550   0.985   1.388
 9480SOL     OW29338   5.888   5.876   7.014
 9480SOL    HW129339   5.792   5.895   6.995
 9480SOL    HW229340   5.919   5.932   0.061
 9481SOL     OW29341   4.694   1.592   3.463
 9481SOL    HW129342   4.637   1.674   3.473
 9481SOL    HW229343   4.761   1.589   3.538
 9482SOL     OW29344   5.706   0.831   1.028
 9482SOL    HW129345   5.608   0.849   1.016
 9482SOL    HW229346   5.740   0.778   0.950
 9483SOL     OW29347   0.692   0.772   6.752
 9483SOL    HW129348   0.743   0.845   6.705
 9483SOL    HW229349   0.750   0.732   6.823
 9484SOL     OW29350   2.496   6.622   4.672
 9484SOL    HW129351   2.531   6.532   4.697
 9484SOL    HW229352   2.550   6.692   4.719
 9485SOL     OW29353   6.371   1.248   0.606
 9485SOL    HW129354   6.294   1.310   0.624
 9485SOL    HW229355   6.453   1.302   0.589
 9486SOL     OW29356   4.597   5.930   0.434
 9486SOL    HW129357   4.525   5.893   0.375
 9486SOL    HW229358   4.679   5.873   0.426
 9487SOL     OW29359   3.150   4.079   4.157
 9487SOL    HW129360   3.207   4.115   4.231
 9487SOL    HW229361   3.092   4.006   4.193
 9488SOL     OW29362   1.651   1.291   1.349
 9488SOL    HW129363   1.740   1.335   1.346
 9488SOL    HW229364   1.651   1.218   1.418
 9489SOL     OW29365   5.139   4.454   1.099
 9489SOL    HW129366   5.060   4.515   1.087
 9489SOL    HW229367   5.108   4.363   1.125
 9490SOL     OW29368   6.139   5.145   3.634
 9490SOL    HW129369   6.161   5.146   3.536
 9490SOL    HW229370   6.177   5.227   3.677
 9491SOL     OW29371   5.383   6.323   3.892
 9491SOL    HW129372   5.369   6.405   3.836
 9491SOL    HW229373   5.480   6.300   3.893
 9492SOL     OW29374   4.743   2.794   4.890
 9492SOL    HW129375   4.685   2.741   4.953
 9492SOL    HW229376   4.785   2.870   4.940
 9493SOL     OW29377   3.550   6.224   4.319
 9493SOL    HW129378   3.480   6.267   4.376
 9493SOL    HW229379   3.508   6.154   4.261
 9494SOL     OW29380   5.344   2.929   2.055
 9494SOL    HW129381   5.267   2.894   2.108
 9494SOL    HW229382   5.399   2.990   2.112
 9495SOL     OW29383   7.024   0.762   2.096
 9495SOL    HW129384   0.081   0.720   2.126
 9495SOL    HW229385   7.024   0.772   1.997
 9496SOL     OW29386   4.304   2.013   2.313
 9496SOL    HW129387   4.207   1.996   2.296
 9496SOL    HW229388   4.329   2.103   2.277
 9497SOL     OW29389   5.656   5.925   5.385
 9497SOL    HW129390   5.566   5.880   5.391
 9497SOL    HW229391   5.706   5.889   5.307
 9498SOL     OW29392   6.586   4.896   4.439
 9498SOL    HW129393   6.528   4.952   4.499
 9498SOL    HW229394   6.568   4.799   4.456
 9499SOL     OW29395   6.802   5.341   5.137
 9499SOL    HW129396   6.703   5.346   5.124
 9499SOL    HW229397   6.827   5.393   5.219
 9500SOL     OW29398   4.270   0.086   0.988
 9500SOL    HW129399   4.204   0.016   0.963
 9500SOL    HW229400   4.355   0.073   0.936
 9501SOL     OW29401   1.856   1.745   4.336
 9501SOL    HW129402   1.821   1.773   4.247
 9501SOL    HW229403   1.949   1.710   4.326
 9502SOL     OW29404   5.277   4.665   5.054
 9502SOL    HW129405   5.320   4.753   5.076
 9502SOL    HW229406   5.273   4.653   4.955
 9503SOL     OW29407   0.728   2.259   0.439
 9503SOL    HW129408   0.666   2.245   0.516
 9503SOL    HW229409   0.800   2.323   0.464
 9504SOL     OW29410   0.332   4.048   1.492
 9504SOL    HW129411   0.265   4.106   1.537
 9504SOL    HW229412   0.286   3.977   1.440
 9505SOL     OW29413   4.710   5.177   5.980
 9505SOL    HW129414   4.660   5.262   5.998
 9505SOL    HW229415   4.645   5.102   5.967
 9506SOL     OW29416   2.205   2.089   0.845
 9506SOL    HW129417   2.137   2.152   0.883
 9506SOL    HW229418   2.205   2.004   0.898
 9507SOL     OW29419   6.002   0.302   1.095
 9507SOL    HW129420   5.923   0.363   1.093
 9507SOL    HW229421   5.974   0.209   1.071
 9508SOL     OW29422   4.844   1.492   2.280
 9508SOL    HW129423   4.776   1.478   2.207
 9508SOL    HW229424   4.799   1.530   2.361
 9509SOL     OW29425   6.525   0.966   2.923
 9509SOL    HW129426   6.494   1.033   2.855
 9509SOL    HW229427   6.470   0.883   2.915
 9510SOL     OW29428   0.665   3.410   3.679
 9510SOL    HW129429   0.759   3.392   3.653
 9510SOL    HW229430   0.610   3.327   3.667
 9511SOL     OW29431   0.988   0.923   0.711
 9511SOL    HW129432   0.986   1.011   0.759
 9511SOL    HW229433   0.898   0.904   0.673
 9512SOL     OW29434   6.422   3.159   1.203
 9512SOL    HW129435   6.425   3.240   1.262
 9512SOL    HW229436   6.514   3.137   1.172
 9513SOL     OW29437   3.880   4.527   6.103
 9513SOL    HW129438   3.851   4.439   6.141
 9513SOL    HW229439   3.806   4.594   6.116
 9514SOL     OW29440   3.273   3.043   6.901
 9514SOL    HW129441   3.260   2.946   6.878
 9514SOL    HW229442   3.236   3.100   6.828
 9515SOL     OW29443   2.755   5.101   3.876
 9515SOL    HW129444   2.774   5.044   3.797
 9515SOL    HW229445   2.837   5.107   3.933
 9516SOL     OW29446   6.617   4.676   0.739
 9516SOL    HW129447   6.560   4.674   0.821
 9516SOL    HW229448   6.677   4.756   0.742
 9517SOL     OW29449   1.231   4.621   1.265
 9517SOL    HW129450   1.172   4.593   1.340
 9517SOL    HW229451   1.201   4.710   1.230
 9518SOL     OW29452   2.796   1.098   0.573
 9518SOL    HW129453   2.725   1.157   0.535
 9518SOL    HW229454   2.769   1.070   0.665
 9519SOL     OW29455   1.303   2.385   5.309
 9519SOL    HW129456   1.358   2.436   5.242
 9519SOL    HW229457   1.233   2.445   5.346
 9520SOL     OW29458   2.329   0.194   2.693
 9520SOL    HW129459   2.242   0.184   2.644
 9520SOL    HW229460   2.372   0.280   2.669
 9521SOL     OW29461   6.010   6.102   4.100
 9521SOL    HW129462   5.956   6.034   4.051
 9521SOL    HW229463   6.049   6.061   4.183
 9522SOL     OW29464   3.173   6.183   1.009
 9522SOL    HW129465   3.134   6.102   0.965
 9522SOL    HW229466   3.114   6.212   1.084
 9523SOL     OW29467   3.680   4.983   4.364
 9523SOL    HW129468   3.737   4.960   4.444
 9523SOL    HW229469   3.585   4.962   4.385
 9524SOL     OW29470   3.547   3.029   1.428
 9524SOL    HW129471   3.490   3.071   1.498
 9524SOL    HW229472   3.536   2.929   1.431
 9525SOL     OW29473   1.890   1.408   6.219
 9525SOL    HW129474   1.973   1.453   6.185
 9525SOL    HW229475   1.819   1.477   6.235
 9526SOL     OW29476   5.061   6.131   3.096
 9526SOL    HW129477   5.048   6.084   3.183
 9526SOL    HW229478   5.140   6.191   3.101
 9527SOL     OW29479   0.789   0.795   2.065
 9527SOL    HW129480   0.793   0.712   2.120
 9527SOL    HW229481   0.800   0.772   1.968
 9528SOL     OW29482   6.482   6.884   0.913
 9528SOL    HW129483   6.488   6.936   0.828
 9528SOL    HW229484   6.573   6.871   0.951
 9529SOL     OW29485   1.121   3.407   6.298
 9529SOL    HW129486   1.184   3.471   6.341
 9529SOL    HW229487   1.027   3.441   6.308
 9530SOL     OW29488   1.911   2.737   2.678
 9530SOL    HW129489   1.814   2.755   2.659
 9530SOL    HW229490   1.919   2.650   2.726
 9531SOL     OW29491   3.926   6.272   3.211
 9531SOL    HW129492   4.002   6.207   3.208
 9531SOL    HW229493   3.904   6.302   3.118
 9532SOL     OW29494   1.483   6.331   1.110
 9532SOL    HW129495   1.535   6.245   1.110
 9532SOL    HW229496   1.546   6.408   1.108
 9533SOL     OW29497   0.508   1.142   4.987
 9533SOL    HW129498   0.449   1.211   4.946
 9533SOL    HW229499   0.546   1.083   4.915
 9534SOL     OW29500   5.300   1.758   4.520
 9534SOL    HW129501   5.309   1.799   4.611
 9534SOL    HW229502   5.282   1.830   4.453
 9535SOL     OW29503   2.819   0.896   6.044
 9535SOL    HW129504   2.766   0.821   6.005
 9535SOL    HW229505   2.890   0.923   5.979
 9536SOL     OW29506   1.957   5.716   5.682
 9536SOL    HW129507   1.946   5.657   5.762
 9536SOL    HW229508   1.867   5.739   5.646
 9537SOL     OW29509   3.060   0.671   2.490
 9537SOL    HW129510   3.057   0.732   2.570
 9537SOL    HW229511   3.132   0.603   2.503
 9538SOL     OW29512   6.408   2.332   4.302
 9538SOL    HW129513   6.466   2.332   4.221
 9538SOL    HW229514   6.461   2.300   4.381
 9539SOL     OW29515   1.400   5.560   6.765
 9539SOL    HW129516   1.394   5.643   6.710
 9539SOL    HW229517   1.313   5.510   6.760
 9540SOL     OW29518   4.559   5.133   5.491
 9540SOL    HW129519   4.566   5.194   5.569
 9540SOL    HW229520   4.588   5.041   5.517
 9541SOL     OW29521   1.587   2.676   4.439
 9541SOL    HW129522   1.675   2.699   4.396
 9541SOL    HW229523   1.571   2.737   4.517
 9542SOL     OW29524   4.873   3.157   4.802
 9542SOL    HW129525   4.875   3.122   4.896
 9542SOL    HW229526   4.878   3.257   4.805
 9543SOL     OW29527   4.652   1.085   3.789
 9543SOL    HW129528   4.715   1.017   3.827
 9543SOL    HW229529   4.557   1.057   3.809
 9544SOL     OW29530   5.642   0.258   2.140
 9544SOL    HW129531   5.644   0.357   2.156
 9544SOL    HW229532   5.555   0.221   2.173
 9545SOL     OW29533   6.601   0.151   3.447
 9545SOL    HW129534   6.614   0.088   3.523
 9545SOL    HW229535   6.615   0.103   3.361
 9546SOL     OW29536   2.913   5.162   6.780
 9546SOL    HW129537   2.977   5.103   6.731
 9546SOL    HW229538   2.928   5.257   6.753
 9547SOL     OW29539   1.167   6.474   4.532
 9547SOL    HW129540   1.118   6.407   4.476
 9547SOL    HW229541   1.172   6.442   4.626
 9548SOL     OW29542   6.061   5.784   4.645
 9548SOL    HW129543   6.025   5.831   4.564
 9548SOL    HW229544   6.156   5.810   4.660
 9549SOL     OW29545   3.248   5.296   0.435
 9549SOL    HW129546   3.328   5.290   0.375
 9549SOL    HW229547   3.185   5.221   0.414
 9550SOL     OW29548   0.775   1.417   0.238
 9550SOL    HW129549   0.822   1.499   0.204
 9550SOL    HW229550   0.733   1.437   0.326
 9551SOL     OW29551   0.369   0.263   4.756
 9551SOL    HW129552   0.390   0.266   4.659
 9551SOL    HW229553   0.287   0.319   4.774
 9552SOL     OW29554   1.495   6.221   3.701
 9552SOL    HW129555   1.486   6.164   3.620
 9552SOL    HW229556   1.491   6.318   3.675
 9553SOL     OW29557   5.733   4.805   6.738
 9553SOL    HW129558   5.748   4.875   6.808
 9553SOL    HW229559   5.709   4.849   6.651
 9554SOL     OW29560   2.377   1.122   2.148
 9554SOL    HW129561   2.321   1.078   2.078
 9554SOL    HW229562   2.357   1.082   2.237
 9555SOL     OW29563   6.770   2.402   0.814
 9555SOL    HW129564   6.706   2.451   0.754
 9555SOL    HW229565   6.725   2.382   0.901
 9556SOL     OW29566   2.408   1.058   1.078
 9556SOL    HW129567   2.435   1.014   1.164
 9556SOL    HW229568   2.320   1.105   1.091
 9557SOL     OW29569   6.210   0.496   2.172
 9557SOL    HW129570   6.147   0.418   2.169
 9557SOL    HW229571   6.198   0.545   2.258
 9558SOL     OW29572   6.541   5.041   2.897
 9558SOL    HW129573   6.469   5.042   2.828
 9558SOL    HW229574   6.626   5.010   2.856
 9559SOL     OW29575   6.920   3.629   2.510
 9559SOL    HW129576   7.003   3.616   2.565
 9559SOL    HW229577   6.927   3.577   2.426
 9560SOL     OW29578   2.676   1.132   3.169
 9560SOL    HW129579   2.611   1.098   3.237
 9560SOL    HW229580   2.751   1.067   3.159
 9561SOL     OW29581   3.704   6.458   0.951
 9561SOL    HW129582   3.624   6.445   0.891
 9561SOL    HW229583   3.673   6.489   1.041
 9562SOL     OW29584   4.645   5.577   2.464
 9562SOL    HW129585   4.710   5.552   2.536
 9562SOL    HW229586   4.631   5.676   2.465
 9563SOL     OW29587   6.958   5.806   6.033
 9563SOL    HW129588   6.957   5.830   5.936
 9563SOL    HW229589   7.016   5.726   6.048
 9564SOL     OW29590   3.127   6.713   6.673
 9564SOL    HW129591   3.046   6.677   6.718
 9564SOL    HW229592   3.207   6.695   6.730
 9565SOL     OW29593   3.845   6.627   4.526
 9565SOL    HW129594   3.811   6.655   4.437
 9565SOL    HW229595   3.912   6.554   4.516
 9566SOL     OW29596   2.840   4.482   5.975
 9566SOL    HW129597   2.810   4.409   6.036
 9566SOL    HW229598   2.841   4.449   5.881
 9567SOL     OW29599   6.552   5.899   6.722
 9567SOL    HW129600   6.544   5.830   6.650
 9567SOL    HW229601   6.623   5.871   6.787
 9568SOL     OW29602   5.070   3.674   6.713
 9568SOL    HW129603   5.072   3.721   6.625
 9568SOL    HW229604   4.995   3.709   6.769
 9569SOL     OW29605   6.339   0.614   0.058
 9569SOL    HW129606   6.403   0.687   0.032
 9569SOL    HW229607   6.374   0.526   0.026
 9570SOL     OW29608   0.299   1.755   0.121
 9570SOL    HW129609   0.222   1.791   0.069
 9570SOL    HW229610   0.265   1.691   0.190
 9571SOL     OW29611   1.949   2.972   0.032
 9571SOL    HW129612   1.951   2.933   6.969
 9571SOL    HW229613   1.893   2.913   0.091
 9572SOL     OW29614   1.392   4.347   2.131
 9572SOL    HW129615   1.414   4.442   2.112
 9572SOL    HW229616   1.327   4.342   2.207
 9573SOL     OW29617   1.747   1.229   0.010
 9573SOL    HW129618   1.754   1.323   7.005
 9573SOL    HW229619   1.655   1.194   7.022
 9574SOL     OW29620   3.612   3.347   5.878
 9574SOL    HW129621   3.582   3.435   5.840
 9574SOL    HW229622   3.546   3.276   5.855
 9575SOL     OW29623   5.241   0.990   2.148
 9575SOL    HW129624   5.176   1.000   2.223
 9575SOL    HW229625   5.209   0.918   2.085
 9576SOL     OW29626   3.456   1.545   4.801
 9576SOL    HW129627   3.516   1.469   4.780
 9576SOL    HW229628   3.510   1.626   4.824
 9577SOL     OW29629   0.720   5.985   2.624
 9577SOL    HW129630   0.815   5.991   2.654
 9577SOL    HW229631   0.659   6.022   2.694
 9578SOL     OW29632   6.432   3.015   1.973
 9578SOL    HW129633   6.385   3.036   1.887
 9578SOL    HW229634   6.524   3.053   1.971
 9579SOL     OW29635   1.323   7.018   2.670
 9579SOL    HW129636   1.389   6.965   2.617
 9579SOL    HW229637   1.370   0.060   2.721
 9580SOL     OW29638   4.568   3.700   6.984
 9580SOL    HW129639   4.619   3.736   0.033
 9580SOL    HW229640   4.498   3.766   6.957
 9581SOL     OW29641   1.196   4.716   6.056
 9581SOL    HW129642   1.184   4.787   5.987
 9581SOL    HW229643   1.207   4.758   6.146
 9582SOL     OW29644   4.149   4.821   4.397
 9582SOL    HW129645   4.220   4.753   4.379
 9582SOL    HW229646   4.091   4.831   4.316
 9583SOL     OW29647   2.117   3.571   2.292
 9583SOL    HW129648   2.112   3.671   2.287
 9583SOL    HW229649   2.148   3.534   2.204
 9584SOL     OW29650   6.118   5.552   0.219
 9584SOL    HW129651   6.163   5.464   0.239
 9584SOL    HW229652   6.055   5.575   0.293
 9585SOL     OW29653   6.090   6.951   3.141
 9585SOL    HW129654   6.143   0.006   3.135
 9585SOL    HW229655   6.096   6.914   3.234
 9586SOL     OW29656   5.405   3.373   3.333
 9586SOL    HW129657   5.422   3.454   3.277
 9586SOL    HW229658   5.327   3.389   3.393
 9587SOL     OW29659   5.228   0.479   2.310
 9587SOL    HW129660   5.154   0.536   2.274
 9587SOL    HW229661   5.295   0.536   2.357
 9588SOL     OW29662   0.344   0.666   1.123
 9588SOL    HW129663   0.248   0.687   1.104
 9588SOL    HW229664   0.403   0.728   1.070
 9589SOL     OW29665   2.649   0.637   6.219
 9589SOL    HW129666   2.635   0.709   6.286
 9589SOL    HW229667   2.744   0.606   6.222
 9590SOL     OW29668   6.700   4.095   3.247
 9590SOL    HW129669   6.726   4.185   3.283
 9590SOL    HW229670   6.640   4.107   3.168
 9591SOL     OW29671   1.885   5.300   0.969
 9591SOL    HW129672   1.843   5.299   1.060
 9591SOL    HW229673   1.963   5.237   0.967
 9592SOL     OW29674   4.304   5.574   2.166
 9592SOL    HW129675   4.217   5.623   2.163
 9592SOL    HW229676   4.378   5.635   2.137
 9593SOL     OW29677   6.995   2.799   4.330
 9593SOL    HW129678   6.980   2.730   4.402
 9593SOL    HW229679   6.981   2.757   4.241
 9594SOL     OW29680   6.579   6.889   2.426
 9594SOL    HW129681   6.583   6.987   2.407
 9594SOL    HW229682   6.595   6.873   2.523
 9595SOL     OW29683   2.079   5.843   4.656
 9595SOL    HW129684   2.142   5.797   4.593
 9595SOL    HW229685   2.120   5.848   4.747
 9596SOL     OW29686   6.040   6.004   5.493
 9596SOL    HW129687   6.119   5.946   5.511
 9596SOL    HW229688   6.060   6.065   5.416
 9597SOL     OW29689   1.721   4.252   1.647
 9597SOL    HW129690   1.783   4.220   1.718
 9597SOL    HW229691   1.765   4.324   1.593
 9598SOL     OW29692   0.271   5.358   5.996
 9598SOL    HW129693   0.188   5.313   6.031
 9598SOL    HW229694   0.283   5.445   6.044
 9599SOL     OW29695   4.438   1.262   5.436
 9599SOL    HW129696   4.512   1.231   5.376
 9599SOL    HW229697   4.402   1.184   5.488
 9600SOL     OW29698   1.607   0.058   6.237
 9600SOL    HW129699   1.515   0.019   6.237
 9600SOL    HW229700   1.666   0.003   6.178
 9601SOL     OW29701   0.570   5.017   5.829
 9601SOL    HW129702   0.666   5.047   5.829
 9601SOL    HW229703   0.529   5.037   5.917
 9602SOL     OW29704   0.885   5.505   6.516
 9602SOL    HW129705   0.848   5.597   6.524
 9602SOL    HW229706   0.858   5.451   6.596
 9603SOL     OW29707   1.833   6.125   4.795
 9603SOL    HW129708   1.788   6.201   4.842
 9603SOL    HW229709   1.788   6.040   4.820
 9604SOL     OW29710   5.880   1.894   6.720
 9604SOL    HW129711   5.923   1.890   6.810
 9604SOL    HW229712   5.917   1.972   6.669
 9605SOL     OW29713   2.039   5.941   6.304
 9605SOL    HW129714   2.123   5.907   6.347
 9605SOL    HW229715   2.033   5.907   6.210
 9606SOL     OW29716   0.376   6.741   3.781
 9606SOL    HW129717   0.373   6.688   3.866
 9606SOL    HW229718   0.451   6.808   3.787
 9607SOL     OW29719   1.281   1.614   2.068
 9607SOL    HW129720   1.362   1.661   2.034
 9607SOL    HW229721   1.263   1.643   2.162
 9608SOL     OW29722   0.443   0.117   2.411
 9608SOL    HW129723   0.480   0.129   2.503
 9608SOL    HW229724   0.459   0.022   2.382
 9609SOL     OW29725   2.141   4.618   4.462
 9609SOL    HW129726   2.203   4.606   4.385
 9609SOL    HW229727   2.192   4.611   4.548
 9610SOL     OW29728   2.055   1.913   6.030
 9610SOL    HW129729   2.141   1.893   6.077
 9610SOL    HW229730   1.996   1.833   6.032
 9611SOL     OW29731   6.076   6.950   0.947
 9611SOL    HW129732   6.163   6.995   0.923
 9611SOL    HW229733   6.008   7.020   0.969
 9612SOL     OW29734   5.990   2.998   1.885
 9612SOL    HW129735   5.982   3.025   1.789
 9612SOL    HW229736   6.062   3.052   1.929
 9613SOL     OW29737   6.534   6.714   5.002
 9613SOL    HW129738   6.629   6.715   5.033
 9613SOL    HW229739   6.531   6.728   4.903
 9614SOL     OW29740   3.538   3.842   2.166
 9614SOL    HW129741   3.456   3.801   2.127
 9614SOL    HW229742   3.575   3.782   2.236
 9615SOL     OW29743   1.370   5.911   2.629
 9615SOL    HW129744   1.357   6.003   2.665
 9615SOL    HW229745   1.290   5.855   2.651
 9616SOL     OW29746   3.664   2.615   1.075
 9616SOL    HW129747   3.650   2.706   1.035
 9616SOL    HW229748   3.695   2.552   1.004
 9617SOL     OW29749   1.266   2.944   3.917
 9617SOL    HW129750   1.230   2.896   3.997
 9617SOL    HW229751   1.269   2.882   3.839
 9618SOL     OW29752   3.654   6.103   6.618
 9618SOL    HW129753   3.589   6.061   6.681
 9618SOL    HW229754   3.638   6.068   6.525
 9619SOL     OW29755   2.997   6.398   0.931
 9619SOL    HW129756   3.033   6.456   1.003
 9619SOL    HW229757   3.071   6.344   0.891
 9620SOL     OW29758   3.409   1.594   6.598
 9620SOL    HW129759   3.408   1.590   6.498
 9620SOL    HW229760   3.323   1.633   6.631
 9621SOL     OW29761   0.452   0.587   1.541
 9621SOL    HW129762   0.507   0.605   1.460
 9621SOL    HW229763   0.429   0.673   1.586
 9622SOL     OW29764   5.806   0.419   6.289
 9622SOL    HW129765   5.857   0.381   6.212
 9622SOL    HW229766   5.841   0.380   6.374
 9623SOL     OW29767   4.792   6.263   6.492
 9623SOL    HW129768   4.878   6.313   6.494
 9623SOL    HW229769   4.736   6.296   6.416
 9624SOL     OW29770   4.521   5.153   4.994
 9624SOL    HW129771   4.429   5.181   4.965
 9624SOL    HW229772   4.565   5.102   4.921
 9625SOL     OW29773   5.105   4.168   6.365
 9625SOL    HW129774   5.139   4.262   6.362
 9625SOL    HW229775   5.114   4.132   6.458
 9626SOL     OW29776   1.985   4.186   5.872
 9626SOL    HW129777   1.917   4.257   5.851
 9626SOL    HW229778   1.940   4.110   5.919
 9627SOL     OW29779   0.784   4.951   6.945
 9627SOL    HW129780   0.732   4.916   7.023
 9627SOL    HW229781   0.842   5.027   6.975
 9628SOL     OW29782   5.782   3.530   0.137
 9628SOL    HW129783   5.813   3.625   0.135
 9628SOL    HW229784   5.713   3.519   0.208
 9629SOL     OW29785   0.054   5.833   3.039
 9629SOL    HW129786   0.151   5.811   3.048
 9629SOL    HW229787   0.002   5.781   3.107
 9630SOL     OW29788   6.650   5.827   5.741
 9630SOL    HW129789   6.746   5.800   5.753
 9630SOL    HW229790   6.602   5.755   5.690
 9631SOL     OW29791   4.279   1.400   0.805
 9631SOL    HW129792   4.373   1.375   0.829
 9631SOL    HW229793   4.276   1.494   0.774
 9632SOL     OW29794   3.551   6.326   1.219
 9632SOL    HW129795   3.645   6.296   1.235
 9632SOL    HW229796   3.550   6.424   1.199
 9633SOL     OW29797   3.899   3.130   2.727
 9633SOL    HW129798   3.997   3.148   2.736
 9633SOL    HW229799   3.848   3.195   2.784
 9634SOL     OW29800   5.276   4.480   2.430
 9634SOL    HW129801   5.189   4.491   2.478
 9634SOL    HW229802   5.343   4.545   2.466
 9635SOL     OW29803   0.856   3.729   3.633
 9635SOL    HW129804   0.851   3.741   3.732
 9635SOL    HW229805   0.877   3.816   3.589
 9636SOL     OW29806   4.219   2.318   4.422
 9636SOL    HW129807   4.286   2.387   4.395
 9636SOL    HW229808   4.265   2.234   4.449
 9637SOL     OW29809   2.405   3.010   0.714
 9637SOL    HW129810   2.392   2.977   0.621
 9637SOL    HW229811   2.404   3.110   0.715
 9638SOL     OW29812   6.973   4.597   5.400
 9638SOL    HW129813   0.034   4.623   5.366
 9638SOL    HW229814   6.969   4.497   5.412
 9639SOL     OW29815   4.498   1.575   1.751
 9639SOL    HW129816   4.594   1.549   1.754
 9639SOL    HW229817   4.488   1.669   1.784
 9640SOL     OW29818   3.522   0.686   2.339
 9640SOL    HW129819   3.486   0.743   2.413
 9640SOL    HW229820   3.597   0.630   2.375
 9641SOL     OW29821   6.136   4.020   2.766
 9641SOL    HW129822   6.105   3.933   2.805
 9641SOL    HW229823   6.059   4.067   2.724
 9642SOL     OW29824   2.303   0.545   3.325
 9642SOL    HW129825   2.280   0.604   3.248
 9642SOL    HW229826   2.388   0.496   3.306
 9643SOL     OW29827   5.330   4.337   4.477
 9643SOL    HW129828   5.239   4.350   4.518
 9643SOL    HW229829   5.323   4.344   4.378
 9644SOL     OW29830   1.593   5.244   5.097
 9644SOL    HW129831   1.534   5.235   5.017
 9644SOL    HW229832   1.687   5.224   5.071
 9645SOL     OW29833   1.301   5.756   6.556
 9645SOL    HW129834   1.236   5.816   6.510
 9645SOL    HW229835   1.394   5.783   6.531
 9646SOL     OW29836   3.231   6.585   5.844
 9646SOL    HW129837   3.228   6.685   5.846
 9646SOL    HW229838   3.278   6.555   5.761
 9647SOL     OW29839   6.123   6.119   3.458
 9647SOL    HW129840   6.088   6.179   3.530
 9647SOL    HW229841   6.066   6.127   3.377
 9648SOL     OW29842   4.682   2.429   0.850
 9648SOL    HW129843   4.724   2.347   0.889
 9648SOL    HW229844   4.742   2.508   0.865
 9649SOL     OW29845   2.642   3.524   0.680
 9649SOL    HW129846   2.686   3.515   0.590
 9649SOL    HW229847   2.543   3.520   0.668
 9650SOL     OW29848   0.018   4.748   4.508
 9650SOL    HW129849   7.022   4.749   4.605
 9650SOL    HW229850   0.107   4.704   4.497
 9651SOL     OW29851   3.149   1.258   0.372
 9651SOL    HW129852   3.147   1.161   0.350
 9651SOL    HW229853   3.115   1.273   0.465
 9652SOL     OW29854   0.142   3.832   0.944
 9652SOL    HW129855   0.213   3.809   0.877
 9652SOL    HW229856   0.140   3.762   1.015
 9653SOL     OW29857   4.763   3.963   6.086
 9653SOL    HW129858   4.853   3.971   6.043
 9653SOL    HW229859   4.694   4.005   6.027
 9654SOL     OW29860   3.392   3.367   3.999
 9654SOL    HW129861   3.491   3.352   4.003
 9654SOL    HW229862   3.354   3.365   4.091
 9655SOL     OW29863   5.453   0.878   2.300
 9655SOL    HW129864   5.392   0.936   2.247
 9655SOL    HW229865   5.499   0.932   2.370
 9656SOL     OW29866   5.346   4.029   1.520
 9656SOL    HW129867   5.443   4.033   1.545
 9656SOL    HW229868   5.320   3.933   1.505
 9657SOL     OW29869   6.154   3.656   3.244
 9657SOL    HW129870   6.055   3.654   3.235
 9657SOL    HW229871   6.189   3.563   3.253
 9658SOL     OW29872   5.079   1.266   2.655
 9658SOL    HW129873   5.032   1.244   2.570
 9658SOL    HW229874   5.013   1.293   2.725
 9659SOL     OW29875   3.005   2.773   1.272
 9659SOL    HW129876   2.999   2.717   1.354
 9659SOL    HW229877   2.969   2.722   1.194
 9660SOL     OW29878   0.988   5.830   0.878
 9660SOL    HW129879   1.055   5.813   0.951
 9660SOL    HW229880   0.917   5.760   0.881
 9661SOL     OW29881   4.930   4.827   1.314
 9661SOL    HW129882   4.893   4.766   1.243
 9661SOL    HW229883   4.858   4.888   1.346
 9662SOL     OW29884   5.082   4.278   6.808
 9662SOL    HW129885   5.158   4.313   6.863
 9662SOL    HW229886   4.996   4.294   6.855
 9663SOL     OW29887   0.524   4.312   3.283
 9663SOL    HW129888   0.575   4.397   3.268
 9663SOL    HW229889   0.427   4.334   3.296
 9664SOL     OW29890   5.660   4.117   3.528
 9664SOL    HW129891   5.637   4.032   3.481
 9664SOL    HW229892   5.577   4.166   3.553
 9665SOL     OW29893   5.912   6.217   6.579
 9665SOL    HW129894   5.921   6.118   6.577
 9665SOL    HW229895   5.825   6.244   6.538
 9666SOL     OW29896   6.116   4.414   1.117
 9666SOL    HW129897   6.089   4.455   1.204
 9666SOL    HW229898   6.199   4.360   1.130
 9667SOL     OW29899   4.854   5.520   1.155
 9667SOL    HW129900   4.758   5.547   1.169
 9667SOL    HW229901   4.909   5.553   1.232
 9668SOL     OW29902   0.882   6.249   6.020
 9668SOL    HW129903   0.862   6.153   6.004
 9668SOL    HW229904   0.980   6.265   6.011
 9669SOL     OW29905   3.100   6.545   0.271
 9669SOL    HW129906   3.102   6.493   0.357
 9669SOL    HW229907   3.102   6.643   0.291
 9670SOL     OW29908   0.014   0.125   6.109
 9670SOL    HW129909   6.979   0.062   6.153
 9670SOL    HW229910   0.107   0.101   6.137
 9671SOL     OW29911   1.265   4.870   6.787
 9671SOL    HW129912   1.355   4.894   6.751
 9671SOL    HW229913   1.246   4.924   6.869
 9672SOL     OW29914   0.704   4.672   4.030
 9672SOL    HW129915   0.801   4.671   4.004
 9672SOL    HW229916   0.696   4.670   4.130
 9673SOL     OW29917   2.771   4.024   1.185
 9673SOL    HW129918   2.826   3.941   1.173
 9673SOL    HW229919   2.798   4.070   1.270
 9674SOL     OW29920   3.243   6.020   3.012
 9674SOL    HW129921   3.337   5.987   3.018
 9674SOL    HW229922   3.216   6.028   2.916
 9675SOL     OW29923   4.767   3.973   1.472
 9675SOL    HW129924   4.810   3.889   1.506
 9675SOL    HW229925   4.686   3.993   1.526
 9676SOL     OW29926   1.483   3.092   5.728
 9676SOL    HW129927   1.471   3.074   5.630
 9676SOL    HW229928   1.559   3.154   5.742
 9677SOL     OW29929   6.347   4.966   0.613
 9677SOL    HW129930   6.378   4.976   0.518
 9677SOL    HW229931   6.324   4.871   0.631
 9678SOL     OW29932   3.312   3.985   4.980
 9678SOL    HW129933   3.402   4.014   5.013
 9678SOL    HW229934   3.302   4.010   4.884
 9679SOL     OW29935   2.083   1.548   4.684
 9679SOL    HW129936   1.992   1.589   4.687
 9679SOL    HW229937   2.081   1.465   4.628
 9680SOL     OW29938   4.620   6.477   3.135
 9680SOL    HW129939   4.707   6.427   3.139
 9680SOL    HW229940   4.637   6.570   3.101
 9681SOL     OW29941   1.894   0.592   1.148
 9681SOL    HW129942   1.878   0.578   1.050
 9681SOL    HW229943   1.815   0.637   1.189
 9682SOL     OW29944   5.559   5.864   4.595
 9682SOL    HW129945   5.461   5.850   4.613
 9682SOL    HW229946   5.600   5.776   4.569
 9683SOL     OW29947   1.961   7.007   0.907
 9683SOL    HW129948   1.953   0.038   0.987
 9683SOL    HW229949   1.909   6.923   0.925
 9684SOL     OW29950   1.724   4.465   5.279
 9684SOL    HW129951   1.647   4.453   5.341
 9684SOL    HW229952   1.740   4.380   5.229
 9685SOL     OW29953   4.105   3.507   0.383
 9685SOL    HW129954   4.200   3.505   0.415
 9685SOL    HW229955   4.084   3.598   0.347
 9686SOL     OW29956   6.186   2.364   5.819
 9686SOL    HW129957   6.233   2.433   5.763
 9686SOL    HW229958   6.206   2.273   5.784
 9687SOL     OW29959   6.388   0.248   2.360
 9687SOL    HW129960   6.403   0.204   2.448
 9687SOL    HW229961   6.316   0.200   2.310
 9688SOL     OW29962   1.756   4.860   1.482
 9688SOL    HW129963   1.822   4.790   1.456
 9688SOL    HW229964   1.798   4.951   1.475
 9689SOL     OW29965   1.278   6.204   6.934
 9689SOL    HW129966   1.290   6.113   6.975
 9689SOL    HW229967   1.303   6.274   7.001
 9690SOL     OW29968   5.618   5.692   5.152
 9690SOL    HW129969   5.578   5.643   5.229
 9690SOL    HW229970   5.547   5.715   5.086
 9691SOL     OW29971   3.007   3.651   1.860
 9691SOL    HW129972   3.021   3.748   1.875
 9691SOL    HW229973   2.947   3.637   1.781
 9692SOL     OW29974   4.291   4.798   0.236
 9692SOL    HW129975   4.249   4.886   0.259
 9692SOL    HW229976   4.293   4.739   0.317
 9693SOL     OW29977   6.004   3.965   3.980
 9693SOL    HW129978   6.098   3.933   3.994
 9693SOL    HW229979   5.992   3.993   3.885
 9694SOL     OW29980   2.909   6.740   1.971
 9694SOL    HW129981   2.876   6.818   1.917
 9694SOL    HW229982   2.832   6.682   1.995
 9695SOL     OW29983   0.011   3.847   4.129
 9695SOL    HW129984   0.106   3.816   4.122
 9695SOL    HW229985   0.009   3.946   4.143
 9696SOL     OW29986   5.860   2.136   2.918
 9696SOL    HW129987   5.846   2.038   2.924
 9696SOL    HW229988   5.818   2.181   2.996
 9697SOL     OW29989   6.934   5.661   0.161
 9697SOL    HW129990   6.863   5.712   0.209
 9697SOL    HW229991   6.995   5.619   0.228
 9698SOL     OW29992   5.213   3.647   0.532
 9698SOL    HW129993   5.215   3.554   0.497
 9698SOL    HW229994   5.292   3.698   0.497
 9699SOL     OW29995   1.262   4.958   0.380
 9699SOL    HW129996   1.314   5.043   0.389
 9699SOL    HW229997   1.167   4.979   0.358
 9700SOL     OW29998   6.020   6.739   4.138
 9700SOL    HW129999   5.947   6.770   4.076
 9700SOL    HW230000   6.082   6.815   4.157
 9701SOL     OW30001   4.963   2.766   6.559
 9701SOL    HW130002   5.023   2.703   6.610
 9701SOL    HW230003   5.019   2.834   6.512
 9702SOL     OW30004   3.565   3.012   0.567
 9702SOL    HW130005   3.626   3.081   0.606
 9702SOL    HW230006   3.470   3.037   0.585
 9703SOL     OW30007   6.055   4.296   5.272
 9703SOL    HW130008   6.139   4.345   5.249
 9703SOL    HW230009   6.073   4.198   5.273
 9704SOL     OW30010   2.869   4.740   2.760
 9704SOL    HW130011   2.829   4.820   2.715
 9704SOL    HW230012   2.878   4.666   2.694
 9705SOL     OW30013   5.921   4.373   5.714
 9705SOL    HW130014   5.892   4.365   5.619
 9705SOL    HW230015   5.844   4.402   5.770
 9706SOL     OW30016   1.098   1.390   1.763
 9706SOL    HW130017   1.028   1.357   1.699
 9706SOL    HW230018   1.106   1.489   1.756
 9707SOL     OW30019   6.198   4.728   2.428
 9707SOL    HW130020   6.153   4.814   2.403
 9707SOL    HW230021   6.143   4.651   2.395
 9708SOL     OW30022   1.424   0.659   2.238
 9708SOL    HW130023   1.461   0.728   2.300
 9708SOL    HW230024   1.388   0.582   2.292
 9709SOL     OW30025   5.935   3.036   2.533
 9709SOL    HW130026   5.921   2.961   2.469
 9709SOL    HW230027   6.032   3.058   2.539
 9710SOL     OW30028   6.097   6.420   5.938
 9710SOL    HW130029   6.091   6.454   5.844
 9710SOL    HW230030   6.045   6.335   5.947
 9711SOL     OW30031   4.031   6.015   6.889
 9711SOL    HW130032   4.092   6.044   6.815
 9711SOL    HW230033   3.960   6.084   6.903
 9712SOL     OW30034   6.049   3.083   0.802
 9712SOL    HW130035   5.964   3.112   0.844
 9712SOL    HW230036   6.078   2.995   0.841
 9713SOL     OW30037   1.783   5.996   3.596
 9713SOL    HW130038   1.684   6.012   3.591
 9713SOL    HW230039   1.830   6.083   3.608
 9714SOL     OW30040   4.079   5.374   4.574
 9714SOL    HW130041   4.039   5.286   4.548
 9714SOL    HW230042   4.024   5.448   4.536
 9715SOL     OW30043   6.082   4.742   1.012
 9715SOL    HW130044   6.157   4.691   1.054
 9715SOL    HW230045   5.995   4.697   1.035
 9716SOL     OW30046   3.817   4.212   6.753
 9716SOL    HW130047   3.751   4.205   6.679
 9716SOL    HW230048   3.828   4.122   6.797
 9717SOL     OW30049   4.499   0.777   6.138
 9717SOL    HW130050   4.407   0.805   6.165
 9717SOL    HW230051   4.502   0.768   6.038
 9718SOL     OW30052   3.330   1.858   0.444
 9718SOL    HW130053   3.407   1.842   0.504
 9718SOL    HW230054   3.355   1.925   0.374
 9719SOL     OW30055   4.618   6.222   4.834
 9719SOL    HW130056   4.657   6.185   4.750
 9719SOL    HW230057   4.536   6.275   4.813
 9720SOL     OW30058   1.892   3.974   3.217
 9720SOL    HW130059   1.975   4.028   3.201
 9720SOL    HW230060   1.898   3.929   3.306
 9721SOL     OW30061   0.836   1.676   0.168
 9721SOL    HW130062   0.751   1.678   0.221
 9721SOL    HW230063   0.882   1.764   0.175
 9722SOL     OW30064   3.758   2.699   5.484
 9722SOL    HW130065   3.772   2.795   5.511
 9722SOL    HW230066   3.678   2.693   5.424
 9723SOL     OW30067   6.192   4.459   4.699
 9723SOL    HW130068   6.164   4.519   4.773
 9723SOL    HW230069   6.292   4.461   4.691
 9724SOL     OW30070   1.492   5.503   7.014
 9724SOL    HW130071   1.482   5.598   0.014
 9724SOL    HW230072   1.491   5.499   6.914
 9725SOL     OW30073   3.534   5.548   5.785
 9725SOL    HW130074   3.552   5.459   5.744
 9725SOL    HW230075   3.519   5.537   5.883
 9726SOL     OW30076   5.776   0.693   4.194
 9726SOL    HW130077   5.703   0.700   4.262
 9726SOL    HW230078   5.746   0.737   4.109
 9727SOL     OW30079   0.561   2.394   6.896
 9727SOL    HW130080   0.627   2.446   6.951
 9727SOL    HW230081   0.478   2.379   6.950
 9728SOL     OW30082   5.732   0.619   6.024
 9728SOL    HW130083   5.767   0.549   5.962
 9728SOL    HW230084   5.682   0.575   6.099
 9729SOL     OW30085   0.608   3.870   3.304
 9729SOL    HW130086   0.522   3.823   3.282
 9729SOL    HW230087   0.626   3.941   3.235
 9730SOL     OW30088   0.253   4.268   3.310
 9730SOL    HW130089   0.174   4.243   3.254
 9730SOL    HW230090   0.264   4.202   3.384
 9731SOL     OW30091   5.060   3.657   2.587
 9731SOL    HW130092   5.069   3.604   2.503
 9731SOL    HW230093   5.126   3.732   2.586
 9732SOL     OW30094   1.628   2.787   2.210
 9732SOL    HW130095   1.637   2.883   2.183
 9732SOL    HW230096   1.717   2.742   2.205
 9733SOL     OW30097   6.208   5.621   2.945
 9733SOL    HW130098   6.110   5.601   2.944
 9733SOL    HW230099   6.228   5.696   2.883
 9734SOL     OW30100   6.138   6.308   6.491
 9734SOL    HW130101   6.047   6.286   6.527
 9734SOL    HW230102   6.200   6.232   6.508
 9735SOL     OW30103   1.502   1.580   2.949
 9735SOL    HW130104   1.502   1.679   2.960
 9735SOL    HW230105   1.559   1.538   3.020
 9736SOL     OW30106   4.947   1.969   5.104
 9736SOL    HW130107   4.991   1.888   5.064
 9736SOL    HW230108   4.880   2.005   5.039
 9737SOL     OW30109   5.998   1.877   2.236
 9737SOL    HW130110   5.911   1.845   2.198
 9737SOL    HW230111   6.035   1.807   2.297
 9738SOL     OW30112   2.361   5.916   0.796
 9738SOL    HW130113   2.414   5.903   0.879
 9738SOL    HW230114   2.273   5.869   0.805
 9739SOL     OW30115   4.659   0.078   6.908
 9739SOL    HW130116   4.757   0.073   6.929
 9739SOL    HW230117   4.608   0.025   6.976
 9740SOL     OW30118   5.910   1.069   2.577
 9740SOL    HW130119   5.982   1.103   2.638
 9740SOL    HW230120   5.951   1.039   2.491
 9741SOL     OW30121   3.095   1.562   4.399
 9741SOL    HW130122   3.090   1.567   4.299
 9741SOL    HW230123   3.005   1.543   4.436
 9742SOL     OW30124   4.350   1.420   6.591
 9742SOL    HW130125   4.340   1.489   6.519
 9742SOL    HW230126   4.266   1.366   6.597
 9743SOL     OW30127   6.915   3.193   3.396
 9743SOL    HW130128   6.848   3.263   3.420
 9743SOL    HW230129   6.890   3.151   3.309
 9744SOL     OW30130   1.990   6.694   3.524
 9744SOL    HW130131   1.991   6.790   3.496
 9744SOL    HW230132   2.067   6.647   3.480
 9745SOL     OW30133   5.635   1.520   5.691
 9745SOL    HW130134   5.654   1.526   5.789
 9745SOL    HW230135   5.653   1.427   5.659
 9746SOL     OW30136   4.787   6.319   6.901
 9746SOL    HW130137   4.732   6.317   6.985
 9746SOL    HW230138   4.732   6.358   6.827
 9747SOL     OW30139   2.237   1.955   2.091
 9747SOL    HW130140   2.215   2.030   2.029
 9747SOL    HW230141   2.263   1.875   2.039
 9748SOL     OW30142   6.909   0.516   3.103
 9748SOL    HW130143   6.984   0.479   3.048
 9748SOL    HW230144   6.871   0.444   3.160
 9749SOL     OW30145   0.492   1.653   1.950
 9749SOL    HW130146   0.557   1.657   1.875
 9749SOL    HW230147   0.417   1.591   1.926
 9750SOL     OW30148   6.099   4.807   4.368
 9750SOL    HW130149   6.134   4.865   4.294
 9750SOL    HW230150   6.019   4.756   4.335
 9751SOL     OW30151   2.381   0.163   1.393
 9751SOL    HW130152   2.297   0.112   1.409
 9751SOL    HW230153   2.409   0.210   1.477
 9752SOL     OW30154   4.306   2.198   0.378
 9752SOL    HW130155   4.272   2.205   0.472
 9752SOL    HW230156   4.231   2.216   0.315
 9753SOL     OW30157   0.315   5.908   6.364
 9753SOL    HW130158   0.235   5.913   6.304
 9753SOL    HW230159   0.294   5.850   6.442
 9754SOL     OW30160   4.064   0.596   0.985
 9754SOL    HW130161   3.998   0.591   0.909
 9754SOL    HW230162   4.019   0.633   1.066
 9755SOL     OW30163   3.383   4.169   5.353
 9755SOL    HW130164   3.457   4.207   5.298
 9755SOL    HW230165   3.382   4.213   5.443
 9756SOL     OW30166   5.406   1.469   6.294
 9756SOL    HW130167   5.312   1.440   6.278
 9756SOL    HW230168   5.465   1.389   6.298
 9757SOL     OW30169   5.626   4.068   4.256
 9757SOL    HW130170   5.555   4.063   4.186
 9757SOL    HW230171   5.703   4.009   4.229
 9758SOL     OW30172   0.948   0.760   0.312
 9758SOL    HW130173   0.944   0.679   0.253
 9758SOL    HW230174   0.863   0.811   0.303
 9759SOL     OW30175   0.949   1.190   0.330
 9759SOL    HW130176   0.868   1.157   0.377
 9759SOL    HW230177   0.931   1.281   0.292
 9760SOL     OW30178   4.758   2.428   0.072
 9760SOL    HW130179   4.660   2.412   0.082
 9760SOL    HW230180   4.775   2.484   7.021
 9761SOL     OW30181   1.207   1.111   1.773
 9761SOL    HW130182   1.151   1.051   1.716
 9761SOL    HW230183   1.153   1.189   1.803
 9762SOL     OW30184   2.862   1.509   4.931
 9762SOL    HW130185   2.921   1.481   4.855
 9762SOL    HW230186   2.777   1.548   4.896
 9763SOL     OW30187   6.665   1.481   1.851
 9763SOL    HW130188   6.685   1.481   1.753
 9763SOL    HW230189   6.634   1.572   1.879
 9764SOL     OW30190   5.729   2.419   2.278
 9764SOL    HW130191   5.813   2.403   2.330
 9764SOL    HW230192   5.718   2.347   2.209
 9765SOL     OW30193   6.541   1.405   2.066
 9765SOL    HW130194   6.547   1.481   2.130
 9765SOL    HW230195   6.595   1.426   1.984
 9766SOL     OW30196   2.680   0.673   3.491
 9766SOL    HW130197   2.680   0.596   3.428
 9766SOL    HW230198   2.770   0.682   3.533
 9767SOL     OW30199   2.404   3.000   5.944
 9767SOL    HW130200   2.487   3.009   5.890
 9767SOL    HW230201   2.327   3.040   5.893
 9768SOL     OW30202   5.762   2.598   0.432
 9768SOL    HW130203   5.821   2.574   0.355
 9768SOL    HW230204   5.667   2.606   0.401
 9769SOL     OW30205   3.101   1.542   5.525
 9769SOL    HW130206   3.042   1.480   5.576
 9769SOL    HW230207   3.153   1.489   5.458
 9770SOL     OW30208   3.626   2.372   6.204
 9770SOL    HW130209   3.673   2.381   6.117
 9770SOL    HW230210   3.672   2.430   6.273
 9771SOL     OW30211   2.428   6.624   2.008
 9771SOL    HW130212   2.367   6.577   1.944
 9771SOL    HW230213   2.404   6.721   2.011
 9772SOL     OW30214   1.558   6.035   1.847
 9772SOL    HW130215   1.646   6.057   1.888
 9772SOL    HW230216   1.568   6.026   1.748
 9773SOL     OW30217   5.646   5.523   2.861
 9773SOL    HW130218   5.701   5.453   2.817
 9773SOL    HW230219   5.697   5.564   2.936
 9774SOL     OW30220   0.862   5.457   4.036
 9774SOL    HW130221   0.900   5.364   4.039
 9774SOL    HW230222   0.878   5.496   3.946
 9775SOL     OW30223   2.933   0.696   3.625
 9775SOL    HW130224   3.012   0.750   3.652
 9775SOL    HW230225   2.945   0.601   3.655
 9776SOL     OW30226   1.729   5.308   6.185
 9776SOL    HW130227   1.814   5.344   6.224
 9776SOL    HW230228   1.734   5.208   6.181
 9777SOL     OW30229   5.293   6.856   6.926
 9777SOL    HW130230   5.300   6.955   6.915
 9777SOL    HW230231   5.295   6.813   6.836
 9778SOL     OW30232   0.231   2.044   4.552
 9778SOL    HW130233   0.261   2.098   4.473
 9778SOL    HW230234   0.308   2.028   4.613
 9779SOL     OW30235   0.703   2.062   3.042
 9779SOL    HW130236   0.621   2.034   3.090
 9779SOL    HW230237   0.784   2.027   3.090
 9780SOL     OW30238   1.437   1.474   1.395
 9780SOL    HW130239   1.449   1.470   1.494
 9780SOL    HW230240   1.512   1.426   1.350
 9781SOL     OW30241   1.352   3.720   4.038
 9781SOL    HW130242   1.296   3.692   3.960
 9781SOL    HW230243   1.416   3.647   4.061
 9782SOL     OW30244   0.205   2.541   0.518
 9782SOL    HW130245   0.146   2.613   0.557
 9782SOL    HW230246   0.188   2.455   0.566
 9783SOL     OW30247   4.008   1.820   3.294
 9783SOL    HW130248   4.079   1.890   3.285
 9783SOL    HW230249   3.918   1.862   3.284
 9784SOL     OW30250   3.006   1.000   6.704
 9784SOL    HW130251   3.029   1.097   6.692
 9784SOL    HW230252   2.940   0.973   6.634
 9785SOL     OW30253   6.921   2.577   4.488
 9785SOL    HW130254   6.909   2.483   4.456
 9785SOL    HW230255   6.837   2.609   4.530
 9786SOL     OW30256   3.180   4.216   0.424
 9786SOL    HW130257   3.220   4.169   0.504
 9786SOL    HW230258   3.124   4.293   0.455
 9787SOL     OW30259   3.586   3.643   3.959
 9787SOL    HW130260   3.597   3.565   4.021
 9787SOL    HW230261   3.597   3.611   3.864
 9788SOL     OW30262   0.874   5.714   2.131
 9788SOL    HW130263   0.803   5.751   2.190
 9788SOL    HW230264   0.932   5.789   2.097
 9789SOL     OW30265   3.024   7.013   6.815
 9789SOL    HW130266   2.931   6.979   6.801
 9789SOL    HW230267   3.083   6.938   6.844
 9790SOL     OW30268   6.528   4.274   5.136
 9790SOL    HW130269   6.506   4.176   5.137
 9790SOL    HW230270   6.515   4.310   5.043
 9791SOL     OW30271   0.310   6.557   0.214
 9791SOL    HW130272   0.389   6.496   0.210
 9791SOL    HW230273   0.327   6.630   0.280
 9792SOL     OW30274   3.373   5.185   0.673
 9792SOL    HW130275   3.314   5.114   0.711
 9792SOL    HW230276   3.327   5.229   0.595
 9793SOL     OW30277   4.408   1.085   1.521
 9793SOL    HW130278   4.326   1.035   1.493
 9793SOL    HW230279   4.455   1.034   1.593
 9794SOL     OW30280   5.060   4.547   4.667
 9794SOL    HW130281   5.054   4.580   4.572
 9794SOL    HW230282   5.063   4.447   4.667
 9795SOL     OW30283   0.950   3.310   4.094
 9795SOL    HW130284   0.859   3.339   4.065
 9795SOL    HW230285   0.947   3.214   4.123
 9796SOL     OW30286   4.000   3.654   3.804
 9796SOL    HW130287   4.065   3.669   3.879
 9796SOL    HW230288   3.939   3.579   3.828
 9797SOL     OW30289   3.089   6.000   6.725
 9797SOL    HW130290   3.092   6.028   6.821
 9797SOL    HW230291   3.121   6.075   6.667
 9798SOL     OW30292   2.385   2.272   1.197
 9798SOL    HW130293   2.296   2.281   1.153
 9798SOL    HW230294   2.392   2.339   1.271
 9799SOL     OW30295   3.116   5.008   6.636
 9799SOL    HW130296   3.211   5.037   6.632
 9799SOL    HW230297   3.111   4.908   6.638
 9800SOL     OW30298   5.759   2.787   4.346
 9800SOL    HW130299   5.811   2.745   4.271
 9800SOL    HW230300   5.673   2.822   4.310
 9801SOL     OW30301   5.181   4.680   0.197
 9801SOL    HW130302   5.118   4.636   0.262
 9801SOL    HW230303   5.275   4.652   0.218
 9802SOL     OW30304   4.001   4.686   0.520
 9802SOL    HW130305   3.946   4.768   0.536
 9802SOL    HW230306   3.979   4.618   0.591
 9803SOL     OW30307   1.775   3.049   6.458
 9803SOL    HW130308   1.823   3.132   6.427
 9803SOL    HW230309   1.738   3.064   6.549
 9804SOL     OW30310   6.521   5.678   3.089
 9804SOL    HW130311   6.483   5.764   3.123
 9804SOL    HW230312   6.484   5.602   3.143
 9805SOL     OW30313   1.028   6.640   3.239
 9805SOL    HW130314   1.007   6.688   3.154
 9805SOL    HW230315   1.038   6.542   3.221
 9806SOL     OW30316   3.593   2.099   6.225
 9806SOL    HW130317   3.632   2.155   6.298
 9806SOL    HW230318   3.508   2.139   6.193
 9807SOL     OW30319   3.452   2.845   3.023
 9807SOL    HW130320   3.457   2.748   2.999
 9807SOL    HW230321   3.511   2.898   2.962
 9808SOL     OW30322   4.125   5.971   4.006
 9808SOL    HW130323   4.110   6.051   3.949
 9808SOL    HW230324   4.175   5.902   3.954
 9809SOL     OW30325   0.490   3.241   0.486
 9809SOL    HW130326   0.549   3.201   0.416
 9809SOL    HW230327   0.446   3.168   0.538
 9810SOL     OW30328   2.674   2.041   4.800
 9810SOL    HW130329   2.730   1.959   4.790
 9810SOL    HW230330   2.684   2.099   4.719
 9811SOL     OW30331   6.615   3.556   4.042
 9811SOL    HW130332   6.658   3.645   4.025
 9811SOL    HW230333   6.593   3.548   4.139
 9812SOL     OW30334   2.674   6.803   4.782
 9812SOL    HW130335   2.765   6.777   4.750
 9812SOL    HW230336   2.679   6.891   4.830
 9813SOL     OW30337   5.802   2.797   0.584
 9813SOL    HW130338   5.804   2.730   0.509
 9813SOL    HW230339   5.819   2.750   0.670
 9814SOL     OW30340   5.588   1.961   0.269
 9814SOL    HW130341   5.555   1.966   0.175
 9814SOL    HW230342   5.513   1.934   0.330
 9815SOL     OW30343   4.512   2.442   4.093
 9815SOL    HW130344   4.479   2.436   3.999
 9815SOL    HW230345   4.539   2.350   4.124
 9816SOL     OW30346   1.274   6.944   5.889
 9816SOL    HW130347   1.194   6.985   5.934
 9816SOL    HW230348   1.245   6.898   5.805
 9817SOL     OW30349   0.784   6.554   2.991
 9817SOL    HW130350   0.841   6.636   2.992
 9817SOL    HW230351   0.784   6.514   2.899
 9818SOL     OW30352   5.617   1.585   4.763
 9818SOL    HW130353   5.705   1.561   4.804
 9818SOL    HW230354   5.633   1.641   4.681
 9819SOL     OW30355   4.316   2.361   3.011
 9819SOL    HW130356   4.387   2.292   2.995
 9819SOL    HW230357   4.233   2.336   2.960
 9820SOL     OW30358   3.377   3.843   6.641
 9820SOL    HW130359   3.277   3.840   6.653
 9820SOL    HW230360   3.414   3.924   6.686
 9821SOL     OW30361   5.915   6.487   6.721
 9821SOL    HW130362   5.942   6.542   6.642
 9821SOL    HW230363   5.881   6.398   6.690
 9822SOL     OW30364   0.455   6.981   3.031
 9822SOL    HW130365   0.539   7.023   2.998
 9822SOL    HW230366   0.453   6.884   3.006
 9823SOL     OW30367   3.357   0.622   1.190
 9823SOL    HW130368   3.400   0.538   1.160
 9823SOL    HW230369   3.276   0.600   1.245
 9824SOL     OW30370   1.359   4.121   5.727
 9824SOL    HW130371   1.268   4.101   5.691
 9824SOL    HW230372   1.379   4.057   5.802
 9825SOL     OW30373   3.419   6.009   5.542
 9825SOL    HW130374   3.477   5.998   5.623
 9825SOL    HW230375   3.466   5.971   5.462
 9826SOL     OW30376   4.422   6.167   6.297
 9826SOL    HW130377   4.360   6.170   6.219
 9826SOL    HW230378   4.412   6.079   6.344
 9827SOL     OW30379   1.862   4.458   4.547
 9827SOL    HW130380   1.794   4.496   4.484
 9827SOL    HW230381   1.904   4.533   4.598
 9828SOL     OW30382   3.460   2.901   6.391
 9828SOL    HW130383   3.525   2.885   6.316
 9828SOL    HW230384   3.378   2.846   6.375
 9829SOL     OW30385   3.479   6.393   0.815
 9829SOL    HW130386   3.483   6.298   0.845
 9829SOL    HW230387   3.445   6.451   0.889
 9830SOL     OW30388   6.035   2.011   1.661
 9830SOL    HW130389   6.012   2.105   1.636
 9830SOL    HW230390   5.983   1.947   1.604
 9831SOL     OW30391   1.389   6.178   0.449
 9831SOL    HW130392   1.444   6.261   0.437
 9831SOL    HW230393   1.300   6.190   0.404
 9832SOL     OW30394   4.746   5.159   2.594
 9832SOL    HW130395   4.736   5.193   2.501
 9832SOL    HW230396   4.833   5.111   2.604
 9833SOL     OW30397   3.399   3.107   4.963
 9833SOL    HW130398   3.450   3.022   4.948
 9833SOL    HW230399   3.309   3.085   5.001
 9834SOL     OW30400   2.674   3.926   5.643
 9834SOL    HW130401   2.586   3.913   5.689
 9834SOL    HW230402   2.663   3.907   5.545
 9835SOL     OW30403   4.428   2.252   5.238
 9835SOL    HW130404   4.481   2.292   5.313
 9835SOL    HW230405   4.450   2.155   5.229
 9836SOL     OW30406   6.334   3.733   3.482
 9836SOL    HW130407   6.245   3.703   3.446
 9836SOL    HW230408   6.325   3.826   3.517
 9837SOL     OW30409   1.575   6.894   3.251
 9837SOL    HW130410   1.573   6.972   3.314
 9837SOL    HW230411   1.495   6.897   3.191
 9838SOL     OW30412   0.402   0.110   5.484
 9838SOL    HW130413   0.318   0.162   5.496
 9838SOL    HW230414   0.387   0.015   5.510
 9839SOL     OW30415   6.819   1.555   2.709
 9839SOL    HW130416   6.765   1.488   2.759
 9839SOL    HW230417   6.915   1.527   2.707
 9840SOL     OW30418   6.980   0.344   0.651
 9840SOL    HW130419   6.911   0.408   0.617
 9840SOL    HW230420   7.005   0.280   0.579
 9841SOL     OW30421   1.489   4.615   4.873
 9841SOL    HW130422   1.487   4.516   4.855
 9841SOL    HW230423   1.565   4.656   4.824
 9842SOL     OW30424   3.377   3.884   3.244
 9842SOL    HW130425   3.312   3.828   3.192
 9842SOL    HW230426   3.436   3.934   3.181
 9843SOL     OW30427   6.750   1.953   1.605
 9843SOL    HW130428   6.709   1.862   1.598
 9843SOL    HW230429   6.848   1.947   1.587
 9844SOL     OW30430   4.742   0.001   3.116
 9844SOL    HW130431   4.666   0.022   3.177
 9844SOL    HW230432   4.792   6.951   3.152
 9845SOL     OW30433   2.312   1.338   4.997
 9845SOL    HW130434   2.310   1.436   4.974
 9845SOL    HW230435   2.228   1.295   4.966
 9846SOL     OW30436   3.930   3.889   3.035
 9846SOL    HW130437   3.835   3.906   3.063
 9846SOL    HW230438   3.968   3.815   3.090
 9847SOL     OW30439   2.581   2.501   5.969
 9847SOL    HW130440   2.491   2.483   5.929
 9847SOL    HW230441   2.612   2.591   5.940
 9848SOL     OW30442   3.411   2.403   6.594
 9848SOL    HW130443   3.385   2.334   6.662
 9848SOL    HW230444   3.332   2.425   6.537
 9849SOL     OW30445   6.073   0.539   6.881
 9849SOL    HW130446   6.007   0.467   6.903
 9849SOL    HW230447   6.104   0.527   6.786
 9850SOL     OW30448   5.162   5.801   2.457
 9850SOL    HW130449   5.136   5.781   2.363
 9850SOL    HW230450   5.094   5.861   2.499
 9851SOL     OW30451   4.345   2.108   5.573
 9851SOL    HW130452   4.273   2.041   5.585
 9851SOL    HW230453   4.426   2.064   5.533
 9852SOL     OW30454   3.982   2.188   3.252
 9852SOL    HW130455   3.969   2.261   3.185
 9852SOL    HW230456   4.057   2.129   3.223
 9853SOL     OW30457   4.697   4.135   3.483
 9853SOL    HW130458   4.692   4.144   3.383
 9853SOL    HW230459   4.779   4.085   3.507
 9854SOL     OW30460   6.062   5.309   5.259
 9854SOL    HW130461   6.031   5.290   5.166
 9854SOL    HW230462   6.048   5.405   5.280
 9855SOL     OW30463   1.734   4.558   1.482
 9855SOL    HW130464   1.689   4.637   1.441
 9855SOL    HW230465   1.675   4.520   1.554
 9856SOL     OW30466   4.671   4.098   6.937
 9856SOL    HW130467   4.757   4.049   6.945
 9856SOL    HW230468   4.636   4.120   7.028
 9857SOL     OW30469   5.264   2.258   3.218
 9857SOL    HW130470   5.259   2.332   3.151
 9857SOL    HW230471   5.191   2.192   3.200
 9858SOL     OW30472   6.084   0.368   1.371
 9858SOL    HW130473   6.075   0.354   1.273
 9858SOL    HW230474   6.168   0.418   1.391
 9859SOL     OW30475   6.687   6.716   1.311
 9859SOL    HW130476   6.621   6.642   1.304
 9859SOL    HW230477   6.699   6.760   1.222
 9860SOL     OW30478   0.377   0.835   1.594
 9860SOL    HW130479   0.380   0.865   1.689
 9860SOL    HW230480   0.443   0.888   1.540
 9861SOL     OW30481   3.037   6.957   3.518
 9861SOL    HW130482   3.095   6.892   3.470
 9861SOL    HW230483   2.988   6.911   3.592
 9862SOL     OW30484   2.734   3.755   0.845
 9862SOL    HW130485   2.678   3.819   0.792
 9862SOL    HW230486   2.720   3.662   0.810
 9863SOL     OW30487   3.099   0.104   3.329
 9863SOL    HW130488   3.087   0.046   3.409
 9863SOL    HW230489   3.195   0.130   3.319
 9864SOL     OW30490   3.931   5.849   3.832
 9864SOL    HW130491   3.939   5.935   3.883
 9864SOL    HW230492   3.974   5.775   3.884
 9865SOL     OW30493   1.011   0.978   4.454
 9865SOL    HW130494   1.072   0.931   4.390
 9865SOL    HW230495   0.993   1.071   4.422
 9866SOL     OW30496   5.030   4.257   4.593
 9866SOL    HW130497   4.960   4.253   4.522
 9866SOL    HW230498   5.039   4.166   4.636
 9867SOL     OW30499   5.108   0.593   1.641
 9867SOL    HW130500   5.041   0.665   1.624
 9867SOL    HW230501   5.194   0.617   1.597
 9868SOL     OW30502   1.598   4.609   5.760
 9868SOL    HW130503   1.690   4.578   5.782
 9868SOL    HW230504   1.542   4.531   5.730
 9869SOL     OW30505   2.115   3.627   2.974
 9869SOL    HW130506   2.018   3.639   2.993
 9869SOL    HW230507   2.157   3.575   3.048
 9870SOL     OW30508   4.137   5.816   2.404
 9870SOL    HW130509   4.209   5.818   2.473
 9870SOL    HW230510   4.067   5.884   2.426
 9871SOL     OW30511   0.601   6.431   5.555
 9871SOL    HW130512   0.536   6.400   5.624
 9871SOL    HW230513   0.630   6.353   5.499
 9872SOL     OW30514   3.354   5.241   3.456
 9872SOL    HW130515   3.421   5.211   3.388
 9872SOL    HW230516   3.316   5.162   3.504
 9873SOL     OW30517   2.109   2.295   1.127
 9873SOL    HW130518   2.042   2.251   1.067
 9873SOL    HW230519   2.065   2.369   1.177
 9874SOL     OW30520   0.673   2.948   4.531
 9874SOL    HW130521   0.679   2.852   4.505
 9874SOL    HW230522   0.619   2.998   4.464
 9875SOL     OW30523   0.194   6.767   2.403
 9875SOL    HW130524   0.233   6.806   2.487
 9875SOL    HW230525   0.131   6.693   2.427
 9876SOL     OW30526   6.993   1.336   2.163
 9876SOL    HW130527   6.943   1.309   2.246
 9876SOL    HW230528   6.934   1.321   2.083
 9877SOL     OW30529   0.626   5.758   3.297
 9877SOL    HW130530   0.561   5.716   3.233
 9877SOL    HW230531   0.661   5.843   3.259
 9878SOL     OW30532   2.676   5.386   4.941
 9878SOL    HW130533   2.665   5.479   4.906
 9878SOL    HW230534   2.635   5.380   5.032
 9879SOL     OW30535   5.954   5.257   5.021
 9879SOL    HW130536   5.869   5.227   4.977
 9879SOL    HW230537   6.014   5.298   4.952
 9880SOL     OW30538   1.873   2.216   5.224
 9880SOL    HW130539   1.853   2.118   5.221
 9880SOL    HW230540   1.803   2.262   5.278
 9881SOL     OW30541   1.903   1.417   4.992
 9881SOL    HW130542   1.841   1.457   4.925
 9881SOL    HW230543   1.942   1.489   5.049
 9882SOL     OW30544   0.724   2.204   3.595
 9882SOL    HW130545   0.815   2.203   3.638
 9882SOL    HW230546   0.700   2.111   3.567
 9883SOL     OW30547   1.580   5.393   0.210
 9883SOL    HW130548   1.666   5.342   0.204
 9883SOL    HW230549   1.547   5.413   0.117
 9884SOL     OW30550   4.399   1.673   3.285
 9884SOL    HW130551   4.483   1.637   3.326
 9884SOL    HW230552   4.321   1.625   3.325
 9885SOL     OW30553   0.039   3.395   5.169
 9885SOL    HW130554   0.135   3.421   5.180
 9885SOL    HW230555   7.028   3.448   5.095
 9886SOL     OW30556   0.950   4.382   1.768
 9886SOL    HW130557   0.898   4.357   1.850
 9886SOL    HW230558   1.046   4.356   1.780
 9887SOL     OW30559   3.141   1.706   6.612
 9887SOL    HW130560   3.060   1.648   6.610
 9887SOL    HW230561   3.128   1.784   6.550
 9888SOL     OW30562   6.695   4.263   1.497
 9888SOL    HW130563   6.687   4.353   1.454
 9888SOL    HW230564   6.671   4.193   1.430
 9889SOL     OW30565   6.639   5.145   1.411
 9889SOL    HW130566   6.565   5.089   1.373
 9889SOL    HW230567   6.603   5.233   1.440
 9890SOL     OW30568   1.366   2.243   0.437
 9890SOL    HW130569   1.457   2.249   0.478
 9890SOL    HW230570   1.298   2.234   0.510
 9891SOL     OW30571   6.022   3.328   1.292
 9891SOL    HW130572   5.951   3.272   1.335
 9891SOL    HW230573   6.070   3.274   1.222
 9892SOL     OW30574   6.807   5.155   0.525
 9892SOL    HW130575   6.740   5.130   0.595
 9892SOL    HW230576   6.884   5.203   0.567
 9893SOL     OW30577   0.967   0.169   1.244
 9893SOL    HW130578   1.015   0.154   1.157
 9893SOL    HW230579   0.968   0.267   1.266
 9894SOL     OW30580   1.542   2.057   1.663
 9894SOL    HW130581   1.495   2.097   1.742
 9894SOL    HW230582   1.641   2.068   1.674
 9895SOL     OW30583   6.245   3.747   5.570
 9895SOL    HW130584   6.323   3.688   5.550
 9895SOL    HW230585   6.203   3.717   5.656
 9896SOL     OW30586   6.229   0.437   6.479
 9896SOL    HW130587   6.284   0.492   6.542
 9896SOL    HW230588   6.141   0.482   6.464
 9897SOL     OW30589   6.234   5.601   3.519
 9897SOL    HW130590   6.247   5.575   3.423
 9897SOL    HW230591   6.178   5.684   3.523
 9898SOL     OW30592   2.040   6.689   5.282
 9898SOL    HW130593   2.091   6.770   5.251
 9898SOL    HW230594   2.031   6.692   5.382
 9899SOL     OW30595   0.533   5.573   6.691
 9899SOL    HW130596   0.615   5.529   6.728
 9899SOL    HW230597   0.459   5.505   6.686
 9900SOL     OW30598   1.892   3.782   3.421
 9900SOL    HW130599   1.897   3.705   3.357
 9900SOL    HW230600   1.837   3.756   3.500
 9901SOL     OW30601   2.973   1.581   6.231
 9901SOL    HW130602   3.044   1.534   6.178
 9901SOL    HW230603   2.885   1.571   6.186
 9902SOL     OW30604   3.354   4.401   0.336
 9902SOL    HW130605   3.281   4.343   0.372
 9902SOL    HW230606   3.442   4.368   0.369
 9903SOL     OW30607   4.922   1.251   1.440
 9903SOL    HW130608   4.896   1.337   1.396
 9903SOL    HW230609   4.971   1.270   1.525
 9904SOL     OW30610   0.706   3.768   0.210
 9904SOL    HW130611   0.667   3.676   0.208
 9904SOL    HW230612   0.756   3.786   0.125
 9905SOL     OW30613   2.537   0.504   6.518
 9905SOL    HW130614   2.550   0.435   6.589
 9905SOL    HW230615   2.623   0.520   6.470
 9906SOL     OW30616   2.528   3.039   1.705
 9906SOL    HW130617   2.527   3.138   1.722
 9906SOL    HW230618   2.601   3.018   1.639
 9907SOL     OW30619   6.464   0.377   0.593
 9907SOL    HW130620   6.531   0.381   0.667
 9907SOL    HW230621   6.487   0.444   0.523
 9908SOL     OW30622   5.291   1.382   4.262
 9908SOL    HW130623   5.290   1.419   4.169
 9908SOL    HW230624   5.197   1.383   4.298
 9909SOL     OW30625   4.309   0.473   4.079
 9909SOL    HW130626   4.374   0.405   4.112
 9909SOL    HW230627   4.223   0.428   4.053
 9910SOL     OW30628   1.827   3.630   2.969
 9910SOL    HW130629   1.763   3.559   2.939
 9910SOL    HW230630   1.865   3.676   2.889
 9911SOL     OW30631   3.082   6.433   1.648
 9911SOL    HW130632   3.107   6.448   1.744
 9911SOL    HW230633   3.002   6.374   1.643
 9912SOL     OW30634   3.807   1.323   1.624
 9912SOL    HW130635   3.780   1.364   1.537
 9912SOL    HW230636   3.778   1.382   1.699
 9913SOL     OW30637   6.595   4.316   0.992
 9913SOL    HW130638   6.559   4.223   1.001
 9913SOL    HW230639   6.586   4.346   0.897
 9914SOL     OW30640   5.826   2.023   4.428
 9914SOL    HW130641   5.819   2.119   4.400
 9914SOL    HW230642   5.746   1.973   4.396
 9915SOL     OW30643   5.446   0.761   4.240
 9915SOL    HW130644   5.500   0.743   4.323
 9915SOL    HW230645   5.355   0.791   4.266
 9916SOL     OW30646   1.733   2.656   3.011
 9916SOL    HW130647   1.686   2.571   3.033
 9916SOL    HW230648   1.831   2.644   3.024
 9917SOL     OW30649   5.678   4.158   7.005
 9917SOL    HW130650   5.681   4.211   0.061
 9917SOL    HW230651   5.612   4.084   7.014
 9918SOL     OW30652   3.298   1.236   3.265
 9918SOL    HW130653   3.392   1.233   3.298
 9918SOL    HW230654   3.236   1.246   3.342
 9919SOL     OW30655   6.701   5.139   1.113
 9919SOL    HW130656   6.709   5.164   1.210
 9919SOL    HW230657   6.611   5.166   1.080
 9920SOL     OW30658   5.064   1.297   2.317
 9920SOL    HW130659   5.113   1.367   2.368
 9920SOL    HW230660   4.979   1.335   2.281
 9921SOL     OW30661   4.390   0.029   5.949
 9921SOL    HW130662   4.306   0.026   5.895
 9921SOL    HW230663   4.375   7.013   6.037
 9922SOL     OW30664   2.801   4.307   0.390
 9922SOL    HW130665   2.839   4.375   0.327
 9922SOL    HW230666   2.851   4.311   0.477
 9923SOL     OW30667   4.756   4.615   0.337
 9923SOL    HW130668   4.853   4.618   0.358
 9923SOL    HW230669   4.743   4.598   0.240
 9924SOL     OW30670   6.343   1.774   5.157
 9924SOL    HW130671   6.325   1.681   5.124
 9924SOL    HW230672   6.291   1.790   5.241
 9925SOL     OW30673   6.387   3.327   3.942
 9925SOL    HW130674   6.350   3.234   3.939
 9925SOL    HW230675   6.482   3.326   3.911
 9926SOL     OW30676   4.058   2.568   0.792
 9926SOL    HW130677   4.067   2.512   0.710
 9926SOL    HW230678   4.042   2.508   0.871
 9927SOL     OW30679   6.601   6.723   0.518
 9927SOL    HW130680   6.635   6.759   0.432
 9927SOL    HW230681   6.638   6.778   0.594
 9928SOL     OW30682   5.308   5.551   1.870
 9928SOL    HW130683   5.295   5.647   1.895
 9928SOL    HW230684   5.229   5.498   1.900
 9929SOL     OW30685   3.080   4.898   5.534
 9929SOL    HW130686   3.012   4.850   5.477
 9929SOL    HW230687   3.157   4.836   5.551
 9930SOL     OW30688   6.868   7.023   4.432
 9930SOL    HW130689   6.818   6.953   4.381
 9930SOL    HW230690   6.883   6.992   4.525
 9931SOL     OW30691   1.158   4.839   4.120
 9931SOL    HW130692   1.208   4.924   4.102
 9931SOL    HW230693   1.198   4.794   4.200
 9932SOL     OW30694   2.519   5.525   0.107
 9932SOL    HW130695   2.453   5.526   0.031
 9932SOL    HW230696   2.611   5.541   0.071
 9933SOL     OW30697   0.551   5.471   3.986
 9933SOL    HW130698   0.536   5.373   4.001
 9933SOL    HW230699   0.620   5.505   4.049
 9934SOL     OW30700   4.911   1.676   5.579
 9934SOL    HW130701   4.974   1.687   5.656
 9934SOL    HW230702   4.882   1.766   5.547
 9935SOL     OW30703   2.571   6.513   0.253
 9935SOL    HW130704   2.670   6.513   0.240
 9935SOL    HW230705   2.550   6.502   0.350
 9936SOL     OW30706   6.570   5.334   6.738
 9936SOL    HW130707   6.476   5.327   6.704
 9936SOL    HW230708   6.601   5.430   6.731
 9937SOL     OW30709   6.769   1.958   0.179
 9937SOL    HW130710   6.735   1.908   0.258
 9937SOL    HW230711   6.796   1.893   0.108
 9938SOL     OW30712   6.808   5.143   2.528
 9938SOL    HW130713   6.884   5.183   2.579
 9938SOL    HW230714   6.800   5.189   2.439
 9939SOL     OW30715   4.528   2.450   1.068
 9939SOL    HW130716   4.597   2.475   1.136
 9939SOL    HW230717   4.572   2.439   0.978
 9940SOL     OW30718   0.908   0.456   1.154
 9940SOL    HW130719   0.843   0.389   1.190
 9940SOL    HW230720   0.884   0.547   1.189
 9941SOL     OW30721   3.056   3.961   5.566
 9941SOL    HW130722   3.014   3.889   5.510
 9941SOL    HW230723   3.051   3.935   5.663
 9942SOL     OW30724   2.525   5.456   2.056
 9942SOL    HW130725   2.536   5.358   2.038
 9942SOL    HW230726   2.599   5.506   2.011
 9943SOL     OW30727   6.869   5.044   5.431
 9943SOL    HW130728   6.864   5.031   5.332
 9943SOL    HW230729   6.929   5.121   5.452
 9944SOL     OW30730   1.679   4.374   6.340
 9944SOL    HW130731   1.706   4.405   6.431
 9944SOL    HW230732   1.706   4.279   6.328
 9945SOL     OW30733   6.085   5.617   6.515
 9945SOL    HW130734   6.130   5.611   6.604
 9945SOL    HW230735   5.986   5.622   6.528
 9946SOL     OW30736   4.831   0.874   3.914
 9946SOL    HW130737   4.887   0.861   3.832
 9946SOL    HW230738   4.811   0.785   3.955
 9947SOL     OW30739   1.404   2.913   5.113
 9947SOL    HW130740   1.353   2.868   5.187
 9947SOL    HW230741   1.400   2.856   5.031
 9948SOL     OW30742   5.292   4.647   4.783
 9948SOL    HW130743   5.360   4.620   4.714
 9948SOL    HW230744   5.200   4.631   4.748
 9949SOL     OW30745   5.893   5.006   4.286
 9949SOL    HW130746   5.885   4.906   4.277
 9949SOL    HW230747   5.933   5.028   4.375
 9950SOL     OW30748   5.758   6.015   4.854
 9950SOL    HW130749   5.660   5.992   4.852
 9950SOL    HW230750   5.792   6.024   4.761
 9951SOL     OW30751   6.423   0.958   5.096
 9951SOL    HW130752   6.514   0.955   5.137
 9951SOL    HW230753   6.380   0.868   5.104
 9952SOL     OW30754   0.557   3.584   1.526
 9952SOL    HW130755   0.490   3.654   1.552
 9952SOL    HW230756   0.545   3.503   1.583
 9953SOL     OW30757   6.364   2.603   4.347
 9953SOL    HW130758   6.378   2.512   4.310
 9953SOL    HW230759   6.302   2.655   4.288
 9954SOL     OW30760   6.507   0.423   6.294
 9954SOL    HW130761   6.471   0.357   6.360
 9954SOL    HW230762   6.434   0.451   6.232
 9955SOL     OW30763   6.236   3.440   5.349
 9955SOL    HW130764   6.136   3.439   5.356
 9955SOL    HW230765   6.275   3.385   5.423
 9956SOL     OW30766   1.229   0.446   2.127
 9956SOL    HW130767   1.237   0.351   2.158
 9956SOL    HW230768   1.294   0.463   2.053
 9957SOL     OW30769   5.320   5.586   2.550
 9957SOL    HW130770   5.386   5.640   2.601
 9957SOL    HW230771   5.252   5.646   2.508
 9958SOL     OW30772   3.360   5.525   1.262
 9958SOL    HW130773   3.286   5.587   1.287
 9958SOL    HW230774   3.433   5.576   1.216
 9959SOL     OW30775   4.187   3.565   5.360
 9959SOL    HW130776   4.216   3.646   5.310
 9959SOL    HW230777   4.172   3.490   5.296
 9960SOL     OW30778   7.009   6.659   2.646
 9960SOL    HW130779   6.939   6.676   2.716
 9960SOL    HW230780   0.068   6.689   2.680
 9961SOL     OW30781   1.998   5.445   3.885
 9961SOL    HW130782   1.959   5.358   3.854
 9961SOL    HW230783   1.987   5.514   3.813
 9962SOL     OW30784   6.376   6.968   2.912
 9962SOL    HW130785   6.319   6.892   2.879
 9962SOL    HW230786   6.317   0.006   2.957
 9963SOL     OW30787   3.145   2.513   6.702
 9963SOL    HW130788   3.216   2.453   6.738
 9963SOL    HW230789   3.056   2.469   6.711
 9964SOL     OW30790   4.951   4.828   5.849
 9964SOL    HW130791   4.853   4.834   5.826
 9964SOL    HW230792   5.000   4.787   5.772
 9965SOL     OW30793   4.195   6.609   6.977
 9965SOL    HW130794   4.265   6.544   6.947
 9965SOL    HW230795   4.105   6.576   6.950
 9966SOL     OW30796   1.797   5.776   1.607
 9966SOL    HW130797   1.853   5.774   1.690
 9966SOL    HW230798   1.857   5.779   1.527
 9967SOL     OW30799   0.060   6.527   1.862
 9967SOL    HW130800   0.075   6.435   1.827
 9967SOL    HW230801   0.100   6.534   1.954
 9968SOL     OW30802   3.543   3.873   1.246
 9968SOL    HW130803   3.477   3.826   1.187
 9968SOL    HW230804   3.633   3.828   1.237
 9969SOL     OW30805   1.841   2.653   2.175
 9969SOL    HW130806   1.912   2.673   2.242
 9969SOL    HW230807   1.882   2.643   2.085
 9970SOL     OW30808   4.864   3.735   2.751
 9970SOL    HW130809   4.796   3.804   2.727
 9970SOL    HW230810   4.915   3.708   2.670
 9971SOL     OW30811   1.883   5.119   1.546
 9971SOL    HW130812   1.928   5.158   1.626
 9971SOL    HW230813   1.944   5.126   1.467
 9972SOL     OW30814   5.620   5.180   1.171
 9972SOL    HW130815   5.635   5.278   1.158
 9972SOL    HW230816   5.625   5.133   1.082
 9973SOL     OW30817   6.127   1.690   3.737
 9973SOL    HW130818   6.211   1.730   3.775
 9973SOL    HW230819   6.067   1.661   3.811
 9974SOL     OW30820   0.990   2.568   2.404
 9974SOL    HW130821   0.958   2.652   2.447
 9974SOL    HW230822   0.994   2.495   2.472
 9975SOL     OW30823   5.957   4.034   0.295
 9975SOL    HW130824   6.016   4.038   0.214
 9975SOL    HW230825   6.012   4.012   0.376
 9976SOL     OW30826   1.022   6.588   5.780
 9976SOL    HW130827   0.956   6.620   5.713
 9976SOL    HW230828   0.993   6.500   5.817
 9977SOL     OW30829   6.579   5.401   5.506
 9977SOL    HW130830   6.665   5.381   5.553
 9977SOL    HW230831   6.529   5.315   5.491
 9978SOL     OW30832   0.573   2.709   4.328
 9978SOL    HW130833   0.494   2.768   4.309
 9978SOL    HW230834   0.543   2.628   4.379
 9979SOL     OW30835   5.970   5.073   5.762
 9979SOL    HW130836   5.913   5.005   5.809
 9979SOL    HW230837   5.997   5.039   5.672
 9980SOL     OW30838   1.811   0.847   6.519
 9980SOL    HW130839   1.810   0.934   6.469
 9980SOL    HW230840   1.887   0.847   6.584
 9981SOL     OW30841   2.559   1.701   2.871
 9981SOL    HW130842   2.629   1.704   2.943
 9981SOL    HW230843   2.469   1.712   2.912
 9982SOL     OW30844   6.311   6.305   4.442
 9982SOL    HW130845   6.248   6.382   4.445
 9982SOL    HW230846   6.280   6.239   4.373
 9983SOL     OW30847   6.590   1.983   2.620
 9983SOL    HW130848   6.678   2.011   2.657
 9983SOL    HW230849   6.517   2.010   2.683
 9984SOL     OW30850   2.612   0.783   0.065
 9984SOL    HW130851   2.661   0.831   7.022
 9984SOL    HW230852   2.526   0.747   0.030
 9985SOL     OW30853   1.123   0.795   0.509
 9985SOL    HW130854   1.076   0.848   0.579
 9985SOL    HW230855   1.060   0.774   0.434
 9986SOL     OW30856   5.525   4.754   6.172
 9986SOL    HW130857   5.430   4.758   6.203
 9986SOL    HW230858   5.572   4.678   6.218
 9987SOL     OW30859   0.140   3.156   4.096
 9987SOL    HW130860   0.107   3.251   4.093
 9987SOL    HW230861   0.165   3.126   4.004
 9988SOL     OW30862   0.434   5.903   4.189
 9988SOL    HW130863   0.389   5.973   4.243
 9988SOL    HW230864   0.368   5.830   4.167
 9989SOL     OW30865   6.666   3.269   4.050
 9989SOL    HW130866   6.610   3.244   4.129
 9989SOL    HW230867   6.671   3.369   4.043
 9990SOL     OW30868   2.061   4.843   2.802
 9990SOL    HW130869   1.965   4.820   2.785
 9990SOL    HW230870   2.067   4.927   2.855
 9991SOL     OW30871   2.453   2.231   3.737
 9991SOL    HW130872   2.377   2.203   3.797
 9991SOL    HW230873   2.418   2.246   3.645
 9992SOL     OW30874   5.881   5.366   0.236
 9992SOL    HW130875   5.812   5.295   0.220
 9992SOL    HW230876   5.904   5.410   0.149
 9993SOL     OW30877   2.816   0.887   0.803
 9993SOL    HW130878   2.736   0.858   0.856
 9993SOL    HW230879   2.870   0.951   0.858
 9994SOL     OW30880   6.046   4.375   3.208
 9994SOL    HW130881   5.981   4.301   3.225
 9994SOL    HW230882   6.086   4.365   3.117
 9995SOL     OW30883   4.879   1.498   3.105
 9995SOL    HW130884   4.842   1.439   3.176
 9995SOL    HW230885   4.872   1.593   3.133
 9996SOL     OW30886   3.251   3.768   0.272
 9996SOL    HW130887   3.238   3.706   0.349
 9996SOL    HW230888   3.346   3.798   0.268
 9997SOL     OW30889   2.792   1.648   5.774
 9997SOL    HW130890   2.790   1.699   5.688
 9997SOL    HW230891   2.877   1.669   5.824
 9998SOL     OW30892   5.995   5.057   6.153
 9998SOL    HW130893   6.058   5.134   6.170
 9998SOL    HW230894   5.961   5.023   6.241
 9999SOL     OW30895   6.369   2.958   5.838
 9999SOL    HW130896   6.453   3.003   5.806
 9999SOL    HW230897   6.291   3.018   5.819
10000SOL     OW30898   6.996   4.420   6.879
10000SOL    HW130899   6.914   4.370   6.909
10000SOL    HW230900   0.046   4.359   6.882
10001SOL     OW30901   4.786   0.043   2.116
10001SOL    HW130902   4.730   6.990   2.106
10001SOL    HW230903   4.807   0.057   2.213
10002SOL     OW30904   1.227   6.480   1.972
10002SOL    HW130905   1.293   6.407   1.987
10002SOL    HW230906   1.250   6.529   1.887
10003SOL     OW30907   3.760   2.095   3.403
10003SOL    HW130908   3.771   2.005   3.359
10003SOL    HW230909   3.830   2.158   3.368
10004SOL     OW30910   6.915   2.701   4.059
10004SOL    HW130911   6.983   2.641   4.102
10004SOL    HW230912   6.863   2.650   3.991
10005SOL     OW30913   6.007   0.376   3.819
10005SOL    HW130914   5.912   0.383   3.848
10005SOL    HW230915   6.051   0.466   3.828
10006SOL     OW30916   5.252   5.762   4.642
10006SOL    HW130917   5.290   5.768   4.735
10006SOL    HW230918   5.171   5.704   4.643
10007SOL     OW30919   0.045   4.172   5.034
10007SOL    HW130920   7.014   4.109   5.083
10007SOL    HW230921   7.028   4.260   5.024
10008SOL     OW30922   3.896   1.459   5.009
10008SOL    HW130923   3.856   1.446   4.919
10008SOL    HW230924   3.992   1.486   5.000
10009SOL     OW30925   1.847   3.540   2.246
10009SOL    HW130926   1.792   3.515   2.326
10009SOL    HW230927   1.944   3.531   2.267
10010SOL     OW30928   2.396   1.217   5.844
10010SOL    HW130929   2.332   1.191   5.772
10010SOL    HW230930   2.415   1.139   5.903
10011SOL     OW30931   6.493   0.536   5.764
10011SOL    HW130932   6.530   0.553   5.855
10011SOL    HW230933   6.534   0.600   5.699
10012SOL     OW30934   6.190   1.177   2.911
10012SOL    HW130935   6.108   1.159   2.965
10012SOL    HW230936   6.173   1.254   2.849
10013SOL     OW30937   0.329   0.977   2.885
10013SOL    HW130938   0.248   0.924   2.911
10013SOL    HW230939   0.324   1.068   2.926
10014SOL     OW30940   0.751   4.440   6.926
10014SOL    HW130941   0.704   4.368   6.977
10014SOL    HW230942   0.750   4.416   6.828
10015SOL     OW30943   2.651   4.883   1.028
10015SOL    HW130944   2.587   4.847   1.097
10015SOL    HW230945   2.718   4.813   1.005
10016SOL     OW30946   0.733   1.727   6.256
10016SOL    HW130947   0.656   1.668   6.231
10016SOL    HW230948   0.800   1.727   6.182
10017SOL     OW30949   3.276   2.183   3.230
10017SOL    HW130950   3.181   2.203   3.255
10017SOL    HW230951   3.330   2.170   3.313
10018SOL     OW30952   4.991   0.397   6.733
10018SOL    HW130953   4.975   0.495   6.745
10018SOL    HW230954   4.910   0.356   6.691
10019SOL     OW30955   0.754   1.695   2.984
10019SOL    HW130956   0.852   1.715   2.970
10019SOL    HW230957   0.743   1.630   3.058
10020SOL     OW30958   1.134   1.901   1.624
10020SOL    HW130959   1.216   1.929   1.575
10020SOL    HW230960   1.053   1.916   1.566
10021SOL     OW30961   6.698   3.069   1.184
10021SOL    HW130962   6.705   2.972   1.159
10021SOL    HW230963   6.701   3.125   1.101
10022SOL     OW30964   2.261   1.645   5.700
10022SOL    HW130965   2.348   1.694   5.698
10022SOL    HW230966   2.186   1.710   5.692
10023SOL     OW30967   6.936   4.563   0.834
10023SOL    HW130968   6.967   4.500   0.763
10023SOL    HW230969   6.841   4.540   0.859
10024SOL     OW30970   1.318   6.025   3.258
10024SOL    HW130971   1.358   6.012   3.168
10024SOL    HW230972   1.292   6.121   3.269
10025SOL     OW30973   1.563   0.491   0.530
10025SOL    HW130974   1.483   0.516   0.476
10025SOL    HW230975   1.576   0.392   0.527
10026SOL     OW30976   5.092   0.254   3.690
10026SOL    HW130977   5.164   0.188   3.668
10026SOL    HW230978   5.004   0.206   3.696
10027SOL     OW30979   5.779   3.052   4.517
10027SOL    HW130980   5.826   3.137   4.495
10027SOL    HW230981   5.748   3.008   4.433
10028SOL     OW30982   1.085   0.150   0.990
10028SOL    HW130983   1.154   0.128   0.921
10028SOL    HW230984   1.023   0.221   0.955
10029SOL     OW30985   5.691   1.919   3.669
10029SOL    HW130986   5.766   1.969   3.627
10029SOL    HW230987   5.722   1.875   3.753
10030SOL     OW30988   1.964   0.307   2.915
10030SOL    HW130989   2.039   0.241   2.920
10030SOL    HW230990   1.884   0.264   2.875
10031SOL     OW30991   5.524   4.726   3.608
10031SOL    HW130992   5.494   4.810   3.654
10031SOL    HW230993   5.598   4.684   3.660
10032SOL     OW30994   2.792   1.256   5.412
10032SOL    HW130995   2.804   1.311   5.496
10032SOL    HW230996   2.882   1.232   5.376
10033SOL     OW30997   6.309   3.321   4.229
10033SOL    HW130998   6.339   3.394   4.168
10033SOL    HW230999   6.362   3.324   4.314
10034SOL     OW31000   3.568   0.782   4.071
10034SOL    HW131001   3.660   0.764   4.037
10034SOL    HW231002   3.561   0.878   4.100
10035SOL     OW31003   6.354   5.404   2.207
10035SOL    HW131004   6.424   5.469   2.237
10035SOL    HW231005   6.304   5.442   2.129
10036SOL     OW31006   6.618   2.251   0.553
10036SOL    HW131007   6.521   2.251   0.577
10036SOL    HW231008   6.632   2.199   0.469
10037SOL     OW31009   0.027   1.379   6.267
10037SOL    HW131010   7.018   1.423   6.348
10037SOL    HW231011   0.109   1.428   6.238
10038SOL     OW31012   6.227   0.100   0.146
10038SOL    HW131013   6.172   0.159   0.086
10038SOL    HW231014   6.284   0.040   0.090
10039SOL     OW31015   3.158   0.077   3.714
10039SOL    HW131016   3.221   0.149   3.684
10039SOL    HW231017   3.091   0.059   3.643
10040SOL     OW31018   5.986   4.403   7.022
10040SOL    HW131019   5.893   4.429   0.018
10040SOL    HW231020   6.030   4.479   6.974
10041SOL     OW31021   3.516   6.337   0.500
10041SOL    HW131022   3.466   6.385   0.573
10041SOL    HW231023   3.608   6.313   0.533
10042SOL     OW31024   6.998   2.166   3.110
10042SOL    HW131025   0.022   2.189   3.029
10042SOL    HW231026   6.942   2.244   3.137
10043SOL     OW31027   6.533   2.123   5.894
10043SOL    HW131028   6.538   2.223   5.891
10043SOL    HW231029   6.590   2.089   5.968
10044SOL     OW31030   2.830   3.167   5.890
10044SOL    HW131031   2.896   3.107   5.846
10044SOL    HW231032   2.795   3.123   5.973
10045SOL     OW31033   4.337   1.145   0.601
10045SOL    HW131034   4.250   1.194   0.592
10045SOL    HW231035   4.363   1.140   0.697
10046SOL     OW31036   1.645   4.244   1.347
10046SOL    HW131037   1.563   4.239   1.289
10046SOL    HW231038   1.620   4.226   1.442
10047SOL     OW31039   1.020   3.515   5.989
10047SOL    HW131040   1.058   3.504   5.897
10047SOL    HW231041   1.075   3.463   6.054
10048SOL     OW31042   6.848   6.685   2.865
10048SOL    HW131043   6.868   6.626   2.942
10048SOL    HW231044   6.845   6.781   2.895
10049SOL     OW31045   0.142   2.885   6.139
10049SOL    HW131046   0.225   2.918   6.185
10049SOL    HW231047   0.076   2.959   6.131
10050SOL     OW31048   5.284   3.490   5.295
10050SOL    HW131049   5.220   3.553   5.340
10050SOL    HW231050   5.358   3.542   5.252
10051SOL     OW31051   1.169   4.200   4.719
10051SOL    HW131052   1.264   4.172   4.731
10051SOL    HW231053   1.121   4.197   4.807
10052SOL     OW31054   1.063   0.710   3.577
10052SOL    HW131055   0.986   0.764   3.610
10052SOL    HW231056   1.102   0.658   3.653
10053SOL     OW31057   4.764   5.202   4.275
10053SOL    HW131058   4.705   5.237   4.348
10053SOL    HW231059   4.858   5.195   4.309
10054SOL     OW31060   5.577   3.952   5.138
10054SOL    HW131061   5.518   3.978   5.062
10054SOL    HW231062   5.632   4.030   5.166
10055SOL     OW31063   6.433   2.416   6.682
10055SOL    HW131064   6.414   2.495   6.740
10055SOL    HW231065   6.513   2.434   6.625
10056SOL     OW31066   5.255   3.189   3.552
10056SOL    HW131067   5.316   3.142   3.488
10056SOL    HW231068   5.214   3.123   3.615
10057SOL     OW31069   5.526   4.292   6.409
10057SOL    HW131070   5.462   4.231   6.455
10057SOL    HW231071   5.535   4.265   6.313
10058SOL     OW31072   6.234   3.144   5.188
10058SOL    HW131073   6.221   3.193   5.102
10058SOL    HW231074   6.241   3.046   5.169
10059SOL     OW31075   6.575   1.419   0.339
10059SOL    HW131076   6.513   1.354   0.296
10059SOL    HW231077   6.661   1.373   0.363
10060SOL     OW31078   2.875   1.898   2.426
10060SOL    HW131079   2.846   1.898   2.330
10060SOL    HW231080   2.799   1.865   2.483
10061SOL     OW31081   3.880   1.005   3.997
10061SOL    HW131082   3.885   0.910   4.028
10061SOL    HW231083   3.926   1.013   3.909
10062SOL     OW31084   0.563   0.112   3.751
10062SOL    HW131085   0.551   0.208   3.777
10062SOL    HW231086   0.501   0.055   3.805
10063SOL     OW31087   1.708   2.399   4.760
10063SOL    HW131088   1.756   2.384   4.846
10063SOL    HW231089   1.775   2.413   4.687
10064SOL     OW31090   3.125   6.211   0.238
10064SOL    HW131091   3.158   6.279   0.172
10064SOL    HW231092   3.040   6.244   0.280
10065SOL     OW31093   0.973   0.677   1.834
10065SOL    HW131094   1.005   0.668   1.928
10065SOL    HW231095   0.964   0.774   1.810
10066SOL     OW31096   6.691   3.629   4.545
10066SOL    HW131097   6.657   3.706   4.600
10066SOL    HW231098   6.789   3.641   4.528
10067SOL     OW31099   0.527   2.712   6.063
10067SOL    HW131100   0.466   2.736   5.987
10067SOL    HW231101   0.576   2.628   6.041
10068SOL     OW31102   2.269   2.840   2.577
10068SOL    HW131103   2.243   2.756   2.624
10068SOL    HW231104   2.364   2.833   2.545
10069SOL     OW31105   3.722   5.083   1.510
10069SOL    HW131106   3.723   5.182   1.523
10069SOL    HW231107   3.628   5.051   1.502
10070SOL     OW31108   3.130   5.953   4.988
10070SOL    HW131109   3.062   5.957   5.062
10070SOL    HW231110   3.084   5.927   4.902
10071SOL     OW31111   0.296   6.875   3.225
10071SOL    HW131112   0.356   6.807   3.265
10071SOL    HW231113   0.343   6.922   3.151
10072SOL     OW31114   6.757   1.538   2.432
10072SOL    HW131115   6.759   1.518   2.530
10072SOL    HW231116   6.850   1.537   2.396
10073SOL     OW31117   6.113   2.941   4.410
10073SOL    HW131118   6.022   2.966   4.378
10073SOL    HW231119   6.135   2.991   4.494
10074SOL     OW31120   2.272   5.036   0.536
10074SOL    HW131121   2.342   5.092   0.581
10074SOL    HW231122   2.313   4.952   0.500
10075SOL     OW31123   1.773   2.265   2.194
10075SOL    HW131124   1.704   2.316   2.143
10075SOL    HW231125   1.730   2.217   2.270
10076SOL     OW31126   4.935   5.032   3.414
10076SOL    HW131127   4.988   4.972   3.354
10076SOL    HW231128   4.996   5.072   3.483
10077SOL     OW31129   6.359   3.333   6.951
10077SOL    HW131130   6.456   3.356   6.966
10077SOL    HW231131   6.315   3.319   0.010
10078SOL     OW31132   0.134   6.413   4.742
10078SOL    HW131133   0.102   6.434   4.834
10078SOL    HW231134   0.130   6.315   4.726
10079SOL     OW31135   5.365   2.575   3.283
10079SOL    HW131136   5.386   2.523   3.200
10079SOL    HW231137   5.270   2.608   3.278
10080SOL     OW31138   5.713   0.619   5.657
10080SOL    HW131139   5.672   0.708   5.635
10080SOL    HW231140   5.730   0.614   5.755
10081SOL     OW31141   1.911   2.540   0.734
10081SOL    HW131142   1.930   2.598   0.655
10081SOL    HW231143   1.994   2.531   0.789
10082SOL     OW31144   1.385   4.609   2.523
10082SOL    HW131145   1.451   4.543   2.487
10082SOL    HW231146   1.405   4.699   2.485
10083SOL     OW31147   4.044   5.194   3.904
10083SOL    HW131148   4.070   5.289   3.884
10083SOL    HW231149   4.080   5.134   3.833
10084SOL     OW31150   0.912   0.375   5.140
10084SOL    HW131151   0.970   0.446   5.181
10084SOL    HW231152   0.816   0.400   5.149
10085SOL     OW31153   4.243   6.551   0.473
10085SOL    HW131154   4.184   6.599   0.407
10085SOL    HW231155   4.322   6.513   0.425
10086SOL     OW31156   6.952   5.749   1.796
10086SOL    HW131157   7.018   5.809   1.752
10086SOL    HW231158   6.859   5.784   1.781
10087SOL     OW31159   1.510   6.610   4.737
10087SOL    HW131160   1.596   6.632   4.783
10087SOL    HW231161   1.435   6.661   4.780
10088SOL     OW31162   6.773   3.100   0.059
10088SOL    HW131163   6.742   3.093   0.154
10088SOL    HW231164   6.871   3.121   0.058
10089SOL     OW31165   4.459   1.637   2.234
10089SOL    HW131166   4.390   1.648   2.163
10089SOL    HW231167   4.454   1.715   2.297
10090SOL     OW31168   1.365   5.773   1.087
10090SOL    HW131169   1.356   5.870   1.067
10090SOL    HW231170   1.399   5.725   1.006
10091SOL     OW31171   6.153   4.640   5.988
10091SOL    HW131172   6.173   4.734   6.017
10091SOL    HW231173   6.054   4.625   5.989
10092SOL     OW31174   0.124   2.823   5.490
10092SOL    HW131175   0.025   2.828   5.478
10092SOL    HW231176   0.145   2.815   5.588
10093SOL     OW31177   5.496   4.145   6.173
10093SOL    HW131178   5.413   4.104   6.210
10093SOL    HW231179   5.500   4.130   6.075
10094SOL     OW31180   3.170   0.869   0.951
10094SOL    HW131181   3.151   0.813   0.871
10094SOL    HW231182   3.268   0.865   0.972
10095SOL     OW31183   4.974   2.655   5.102
10095SOL    HW131184   4.912   2.580   5.078
10095SOL    HW231185   4.939   2.700   5.184
10096SOL     OW31186   4.970   1.005   2.930
10096SOL    HW131187   4.900   0.953   2.881
10096SOL    HW231188   5.047   0.946   2.952
10097SOL     OW31189   1.324   1.804   6.631
10097SOL    HW131190   1.396   1.736   6.618
10097SOL    HW231191   1.304   1.813   6.729
10098SOL     OW31192   3.644   5.402   4.581
10098SOL    HW131193   3.588   5.371   4.658
10098SOL    HW231194   3.678   5.322   4.531
10099SOL     OW31195   6.840   4.766   1.800
10099SOL    HW131196   6.747   4.761   1.762
10099SOL    HW231197   6.863   4.861   1.821
10100SOL     OW31198   4.909   5.170   4.726
10100SOL    HW131199   4.987   5.154   4.787
10100SOL    HW231200   4.913   5.106   4.649
10101SOL     OW31201   1.040   1.828   0.938
10101SOL    HW131202   0.949   1.869   0.945
10101SOL    HW231203   1.108   1.889   0.979
10102SOL     OW31204   6.490   6.449   1.651
10102SOL    HW131205   6.449   6.463   1.562
10102SOL    HW231206   6.534   6.359   1.654
10103SOL     OW31207   6.957   6.589   5.984
10103SOL    HW131208   7.013   6.672   5.987
10103SOL    HW231209   6.990   6.525   6.054
10104SOL     OW31210   1.756   0.693   5.485
10104SOL    HW131211   1.693   0.735   5.552
10104SOL    HW231212   1.821   0.634   5.533
10105SOL     OW31213   2.176   0.798   6.013
10105SOL    HW131214   2.082   0.831   6.004
10105SOL    HW231215   2.235   0.873   6.041
10106SOL     OW31216   4.969   6.017   1.614
10106SOL    HW131217   5.016   6.095   1.574
10106SOL    HW231218   5.036   5.950   1.645
10107SOL     OW31219   5.153   4.055   6.643
10107SOL    HW131220   5.246   4.066   6.608
10107SOL    HW231221   5.133   4.126   6.710
10108SOL     OW31222   1.635   2.302   0.522
10108SOL    HW131223   1.706   2.233   0.533
10108SOL    HW231224   1.636   2.364   0.600
10109SOL     OW31225   1.134   1.334   0.508
10109SOL    HW131226   1.072   1.273   0.458
10109SOL    HW231227   1.185   1.280   0.575
10110SOL     OW31228   5.029   6.567   2.708
10110SOL    HW131229   5.032   6.615   2.620
10110SOL    HW231230   5.005   6.471   2.692
10111SOL     OW31231   1.280   1.351   1.973
10111SOL    HW131232   1.280   1.442   2.014
10111SOL    HW231233   1.233   1.354   1.885
10112SOL     OW31234   6.623   2.456   3.673
10112SOL    HW131235   6.562   2.531   3.649
10112SOL    HW231236   6.569   2.374   3.692
10113SOL     OW31237   5.597   1.321   6.881
10113SOL    HW131238   5.604   1.413   6.919
10113SOL    HW231239   5.627   1.255   6.950
10114SOL     OW31240   4.087   1.674   2.491
10114SOL    HW131241   4.083   1.597   2.554
10114SOL    HW231242   4.182   1.690   2.464
10115SOL     OW31243   3.500   2.627   5.410
10115SOL    HW131244   3.460   2.538   5.388
10115SOL    HW231245   3.431   2.685   5.454
10116SOL     OW31246   6.283   0.387   4.765
10116SOL    HW131247   6.371   0.345   4.785
10116SOL    HW231248   6.224   0.379   4.846
10117SOL     OW31249   6.461   5.232   4.195
10117SOL    HW131250   6.406   5.255   4.275
10117SOL    HW231251   6.479   5.134   4.194
10118SOL     OW31252   3.430   5.324   4.735
10118SOL    HW131253   3.397   5.242   4.689
10118SOL    HW231254   3.495   5.299   4.806
10119SOL     OW31255   0.656   5.253   4.443
10119SOL    HW131256   0.731   5.271   4.380
10119SOL    HW231257   0.641   5.154   4.450
10120SOL     OW31258   2.213   2.847   1.995
10120SOL    HW131259   2.133   2.901   2.022
10120SOL    HW231260   2.248   2.880   1.907
10121SOL     OW31261   6.032   4.413   0.855
10121SOL    HW131262   6.067   4.331   0.810
10121SOL    HW231263   6.074   4.422   0.945
10122SOL     OW31264   1.148   0.990   3.866
10122SOL    HW131265   1.132   0.989   3.768
10122SOL    HW231266   1.236   0.946   3.887
10123SOL     OW31267   5.688   5.837   0.783
10123SOL    HW131268   5.651   5.922   0.822
10123SOL    HW231269   5.645   5.819   0.695
10124SOL     OW31270   1.648   3.899   3.207
10124SOL    HW131271   1.746   3.916   3.217
10124SOL    HW231272   1.599   3.986   3.200
10125SOL     OW31273   0.919   1.759   6.042
10125SOL    HW131274   0.887   1.817   5.968
10125SOL    HW231275   1.019   1.766   6.050
10126SOL     OW31276   6.480   6.449   6.536
10126SOL    HW131277   6.563   6.505   6.544
10126SOL    HW231278   6.471   6.416   6.442
10127SOL     OW31279   2.152   5.416   6.127
10127SOL    HW131280   2.227   5.362   6.165
10127SOL    HW231281   2.141   5.395   6.030
10128SOL     OW31282   3.142   0.785   6.790
10128SOL    HW131283   3.179   0.824   6.875
10128SOL    HW231284   3.094   0.856   6.740
10129SOL     OW31285   6.074   1.513   3.969
10129SOL    HW131286   5.980   1.480   3.956
10129SOL    HW231287   6.094   1.522   4.066
10130SOL     OW31288   1.666   1.966   2.706
10130SOL    HW131289   1.757   1.966   2.665
10130SOL    HW231290   1.672   1.997   2.801
10131SOL     OW31291   2.243   0.761   4.469
10131SOL    HW131292   2.160   0.732   4.423
10131SOL    HW231293   2.235   0.743   4.567
10132SOL     OW31294   6.748   0.679   2.114
10132SOL    HW131295   6.833   0.729   2.098
10132SOL    HW231296   6.671   0.743   2.116
10133SOL     OW31297   5.111   0.086   0.165
10133SOL    HW131298   5.126   7.016   0.172
10133SOL    HW231299   5.086   0.109   0.072
10134SOL     OW31300   6.301   1.067   1.854
10134SOL    HW131301   6.291   0.989   1.793
10134SOL    HW231302   6.268   1.150   1.809
10135SOL     OW31303   6.532   0.760   2.402
10135SOL    HW131304   6.468   0.683   2.409
10135SOL    HW231305   6.532   0.795   2.308
10136SOL     OW31306   5.403   1.588   3.121
10136SOL    HW131307   5.318   1.537   3.109
10136SOL    HW231308   5.477   1.524   3.144
10137SOL     OW31309   6.202   5.597   5.795
10137SOL    HW131310   6.163   5.525   5.738
10137SOL    HW231311   6.131   5.634   5.855
10138SOL     OW31312   6.709   1.799   0.372
10138SOL    HW131313   6.666   1.713   0.344
10138SOL    HW231314   6.653   1.844   0.441
10139SOL     OW31315   3.587   3.582   5.693
10139SOL    HW131316   3.488   3.598   5.687
10139SOL    HW231317   3.629   3.601   5.605
10140SOL     OW31318   6.977   5.894   5.775
10140SOL    HW131319   6.982   5.897   5.675
10140SOL    HW231320   6.991   5.987   5.811
10141SOL     OW31321   2.351   1.919   4.285
10141SOL    HW131322   2.276   1.874   4.334
10141SOL    HW231323   2.383   1.860   4.211
10142SOL     OW31324   5.863   6.592   4.311
10142SOL    HW131325   5.827   6.514   4.260
10142SOL    HW231326   5.912   6.653   4.249
10143SOL     OW31327   5.218   3.567   6.939
10143SOL    HW131328   5.174   3.602   6.857
10143SOL    HW231329   5.296   3.509   6.914
10144SOL     OW31330   3.751   6.565   5.835
10144SOL    HW131331   3.673   6.575   5.896
10144SOL    HW231332   3.745   6.632   5.761
10145SOL     OW31333   5.254   6.184   6.899
10145SOL    HW131334   5.280   6.169   6.994
10145SOL    HW231335   5.317   6.249   6.857
10146SOL     OW31336   0.238   2.561   4.253
10146SOL    HW131337   0.212   2.556   4.350
10146SOL    HW231338   0.314   2.498   4.236
10147SOL     OW31339   4.955   6.187   6.024
10147SOL    HW131340   4.902   6.270   6.041
10147SOL    HW231341   4.906   6.108   6.062
10148SOL     OW31342   1.175   4.738   6.577
10148SOL    HW131343   1.235   4.764   6.653
10148SOL    HW231344   1.082   4.725   6.610
10149SOL     OW31345   4.138   4.352   0.493
10149SOL    HW131346   4.170   4.287   0.424
10149SOL    HW231347   4.209   4.421   0.509
10150SOL     OW31348   4.283   4.590   6.901
10150SOL    HW131349   4.330   4.568   6.987
10150SOL    HW231350   4.290   4.689   6.884
10151SOL     OW31351   5.940   6.789   5.441
10151SOL    HW131352   5.993   6.871   5.421
10151SOL    HW231353   5.862   6.784   5.378
10152SOL     OW31354   5.330   6.309   2.961
10152SOL    HW131355   5.282   6.278   2.879
10152SOL    HW231356   5.263   6.336   3.031
10153SOL     OW31357   5.034   4.100   3.461
10153SOL    HW131358   5.040   4.052   3.548
10153SOL    HW231359   4.994   4.040   3.392
10154SOL     OW31360   5.555   5.461   5.286
10154SOL    HW131361   5.589   5.425   5.199
10154SOL    HW231362   5.455   5.461   5.285
10155SOL     OW31363   4.488   2.002   4.852
10155SOL    HW131364   4.510   2.015   4.948
10155SOL    HW231365   4.433   1.919   4.841
10156SOL     OW31366   5.203   2.159   6.987
10156SOL    HW131367   5.114   2.151   0.002
10156SOL    HW231368   5.193   2.138   6.890
10157SOL     OW31369   0.271   2.639   1.340
10157SOL    HW131370   0.175   2.631   1.315
10157SOL    HW231371   0.302   2.733   1.323
10158SOL     OW31372   5.722   5.722   1.302
10158SOL    HW131373   5.647   5.684   1.248
10158SOL    HW231374   5.686   5.790   1.366
10159SOL     OW31375   3.659   3.400   2.669
10159SOL    HW131376   3.565   3.407   2.704
10159SOL    HW231377   3.676   3.307   2.639
10160SOL     OW31378   1.626   5.135   3.227
10160SOL    HW131379   1.684   5.130   3.308
10160SOL    HW231380   1.663   5.201   3.162
10161SOL     OW31381   5.346   3.375   5.710
10161SOL    HW131382   5.350   3.275   5.713
10161SOL    HW231383   5.287   3.404   5.635
10162SOL     OW31384   1.358   3.419   2.701
10162SOL    HW131385   1.348   3.492   2.769
10162SOL    HW231386   1.429   3.356   2.731
10163SOL     OW31387   1.344   6.102   5.375
10163SOL    HW131388   1.372   6.026   5.317
10163SOL    HW231389   1.285   6.069   5.448
10164SOL     OW31390   0.819   2.690   2.734
10164SOL    HW131391   0.769   2.697   2.820
10164SOL    HW231392   0.915   2.714   2.750
10165SOL     OW31393   6.903   3.189   4.441
10165SOL    HW131394   6.965   3.263   4.418
10165SOL    HW231395   6.866   3.149   4.356
10166SOL     OW31396   1.277   0.965   0.764
10166SOL    HW131397   1.185   0.927   0.750
10166SOL    HW231398   1.345   0.892   0.750
10167SOL     OW31399   2.069   0.209   6.901
10167SOL    HW131400   2.026   0.278   6.842
10167SOL    HW231401   2.013   0.126   6.900
10168SOL     OW31402   6.984   1.136   0.495
10168SOL    HW131403   6.927   1.056   0.513
10168SOL    HW231404   7.009   1.180   0.581
10169SOL     OW31405   6.490   2.670   3.568
10169SOL    HW131406   6.542   2.717   3.497
10169SOL    HW231407   6.406   2.721   3.586
10170SOL     OW31408   6.009   5.507   6.153
10170SOL    HW131409   6.045   5.454   6.230
10170SOL    HW231410   5.979   5.444   6.082
10171SOL     OW31411   2.150   3.422   5.756
10171SOL    HW131412   2.211   3.418   5.836
10171SOL    HW231413   2.078   3.353   5.765
10172SOL     OW31414   6.472   0.424   2.699
10172SOL    HW131415   6.529   0.343   2.686
10172SOL    HW231416   6.428   0.419   2.788
10173SOL     OW31417   3.158   4.533   5.780
10173SOL    HW131418   3.190   4.504   5.871
10173SOL    HW231419   3.065   4.568   5.787
10174SOL     OW31420   5.197   5.959   2.817
10174SOL    HW131421   5.168   5.974   2.911
10174SOL    HW231422   5.236   5.867   2.808
10175SOL     OW31423   0.243   1.339   4.112
10175SOL    HW131424   0.339   1.345   4.139
10175SOL    HW231425   0.222   1.246   4.081
10176SOL     OW31426   5.814   2.067   5.982
10176SOL    HW131427   5.739   2.047   5.919
10176SOL    HW231428   5.899   2.075   5.930
10177SOL     OW31429   2.346   0.829   2.619
10177SOL    HW131430   2.394   0.769   2.683
10177SOL    HW231431   2.248   0.809   2.621
10178SOL     OW31432   1.990   1.377   0.120
10178SOL    HW131433   1.964   1.281   0.122
10178SOL    HW231434   2.053   1.397   0.195
10179SOL     OW31435   1.190   4.228   1.287
10179SOL    HW131436   1.122   4.157   1.266
10179SOL    HW231437   1.143   4.308   1.325
10180SOL     OW31438   4.607   6.777   6.340
10180SOL    HW131439   4.526   6.827   6.308
10180SOL    HW231440   4.582   6.681   6.356
10181SOL     OW31441   6.999   3.488   1.864
10181SOL    HW131442   0.041   3.446   1.920
10181SOL    HW231443   7.003   3.588   1.875
10182SOL     OW31444   5.734   2.206   0.025
10182SOL    HW131445   5.659   2.243   0.079
10182SOL    HW231446   5.697   2.149   6.981
10183SOL     OW31447   6.417   2.647   6.806
10183SOL    HW131448   6.322   2.661   6.776
10183SOL    HW231449   6.465   2.735   6.804
10184SOL     OW31450   5.676   3.349   6.096
10184SOL    HW131451   5.728   3.434   6.108
10184SOL    HW231452   5.599   3.348   6.160
10185SOL     OW31453   3.997   5.592   2.320
10185SOL    HW131454   4.045   5.515   2.362
10185SOL    HW231455   4.037   5.678   2.352
10186SOL     OW31456   4.073   3.105   5.949
10186SOL    HW131457   4.113   3.196   5.958
10186SOL    HW231458   4.094   3.068   5.859
10187SOL     OW31459   1.679   5.595   5.864
10187SOL    HW131460   1.652   5.691   5.866
10187SOL    HW231461   1.766   5.585   5.913
10188SOL     OW31462   2.831   0.344   6.750
10188SOL    HW131463   2.885   0.371   6.829
10188SOL    HW231464   2.827   0.419   6.684
10189SOL     OW31465   0.936   1.914   5.795
10189SOL    HW131466   0.939   1.869   5.706
10189SOL    HW231467   0.886   2.000   5.787
10190SOL     OW31468   3.341   5.203   2.038
10190SOL    HW131469   3.385   5.282   1.994
10190SOL    HW231470   3.310   5.228   2.129
10191SOL     OW31471   5.422   5.335   0.248
10191SOL    HW131472   5.428   5.299   0.340
10191SOL    HW231473   5.494   5.404   0.234
10192SOL     OW31474   2.227   1.764   4.494
10192SOL    HW131475   2.265   1.706   4.566
10192SOL    HW231476   2.151   1.717   4.450
10193SOL     OW31477   3.775   3.955   3.715
10193SOL    HW131478   3.696   3.896   3.730
10193SOL    HW231479   3.797   4.003   3.800
10194SOL     OW31480   3.589   6.971   4.075
10194SOL    HW131481   3.666   6.990   4.015
10194SOL    HW231482   3.533   6.898   4.036
10195SOL     OW31483   4.144   6.297   1.967
10195SOL    HW131484   4.059   6.331   2.008
10195SOL    HW231485   4.185   6.368   1.911
10196SOL     OW31486   6.019   1.600   3.314
10196SOL    HW131487   5.926   1.612   3.280
10196SOL    HW231488   6.056   1.688   3.342
10197SOL     OW31489   5.708   0.782   2.151
10197SOL    HW131490   5.615   0.801   2.180
10197SOL    HW231491   5.711   0.694   2.104
10198SOL     OW31492   2.703   0.332   1.238
10198SOL    HW131493   2.732   0.377   1.153
10198SOL    HW231494   2.640   0.258   1.217
10199SOL     OW31495   0.127   0.986   6.885
10199SOL    HW131496   0.033   0.979   6.918
10199SOL    HW231497   0.186   1.018   6.958
10200SOL     OW31498   5.242   4.509   5.279
10200SOL    HW131499   5.248   4.556   5.191
10200SOL    HW231500   5.334   4.501   5.318
10201SOL     OW31501   1.059   5.032   2.379
10201SOL    HW131502   1.141   4.983   2.350
10201SOL    HW231503   1.039   5.106   2.314
10202SOL     OW31504   1.313   3.123   2.041
10202SOL    HW131505   1.296   3.089   2.134
10202SOL    HW231506   1.361   3.211   2.047
10203SOL     OW31507   2.091   2.959   2.386
10203SOL    HW131508   2.183   2.959   2.426
10203SOL    HW231509   2.027   3.004   2.448
10204SOL     OW31510   2.962   4.751   5.347
10204SOL    HW131511   2.936   4.831   5.292
10204SOL    HW231512   2.963   4.670   5.289
10205SOL     OW31513   5.006   2.243   3.076
10205SOL    HW131514   5.055   2.258   2.990
10205SOL    HW231515   4.943   2.319   3.092
10206SOL     OW31516   5.174   0.111   6.119
10206SOL    HW131517   5.118   0.037   6.155
10206SOL    HW231518   5.170   0.190   6.181
10207SOL     OW31519   3.585   1.153   2.962
10207SOL    HW131520   3.500   1.203   2.981
10207SOL    HW231521   3.658   1.217   2.938
10208SOL     OW31522   6.245   4.132   5.539
10208SOL    HW131523   6.298   4.217   5.540
10208SOL    HW231524   6.186   4.128   5.620
10209SOL     OW31525   6.477   6.355   6.281
10209SOL    HW131526   6.445   6.408   6.203
10209SOL    HW231527   6.400   6.307   6.323
10210SOL     OW31528   5.423   5.884   2.436
10210SOL    HW131529   5.414   5.967   2.380
10210SOL    HW231530   5.332   5.849   2.459
10211SOL     OW31531   3.845   5.884   5.048
10211SOL    HW131532   3.775   5.949   5.076
10211SOL    HW231533   3.809   5.791   5.054
10212SOL     OW31534   0.145   0.889   4.654
10212SOL    HW131535   0.062   0.866   4.603
10212SOL    HW231536   0.179   0.978   4.623
10213SOL     OW31537   6.173   1.484   3.553
10213SOL    HW131538   6.187   1.562   3.614
10213SOL    HW231539   6.113   1.511   3.477
10214SOL     OW31540   6.845   1.009   1.974
10214SOL    HW131541   6.902   1.087   1.947
10214SOL    HW231542   6.830   1.012   2.073
10215SOL     OW31543   3.805   4.096   6.360
10215SOL    HW131544   3.798   3.997   6.370
10215SOL    HW231545   3.876   4.118   6.292
10216SOL     OW31546   5.074   0.590   0.960
10216SOL    HW131547   5.129   0.661   0.917
10216SOL    HW231548   5.012   0.551   0.892
10217SOL     OW31549   2.671   1.726   4.614
10217SOL    HW131550   2.587   1.679   4.640
10217SOL    HW231551   2.649   1.816   4.576
10218SOL     OW31552   1.786   0.920   0.491
10218SOL    HW131553   1.792   0.820   0.482
10218SOL    HW231554   1.857   0.962   0.434
10219SOL     OW31555   0.800   2.277   1.402
10219SOL    HW131556   0.896   2.247   1.402
10219SOL    HW231557   0.750   2.228   1.331
10220SOL     OW31558   4.254   1.895   1.340
10220SOL    HW131559   4.198   1.948   1.404
10220SOL    HW231560   4.213   1.805   1.326
10221SOL     OW31561   2.961   0.338   5.274
10221SOL    HW131562   3.037   0.403   5.276
10221SOL    HW231563   2.877   0.385   5.302
10222SOL     OW31564   1.534   4.874   5.387
10222SOL    HW131565   1.585   4.960   5.386
10222SOL    HW231566   1.595   4.799   5.411
10223SOL     OW31567   1.622   4.031   7.025
10223SOL    HW131568   1.608   3.970   0.073
10223SOL    HW231569   1.591   4.123   0.019
10224SOL     OW31570   1.362   0.026   4.284
10224SOL    HW131571   1.375   0.124   4.301
10224SOL    HW231572   1.439   7.020   4.231
10225SOL     OW31573   6.776   5.572   4.927
10225SOL    HW131574   6.704   5.637   4.950
10225SOL    HW231575   6.794   5.513   5.005
10226SOL     OW31576   2.028   0.909   6.690
10226SOL    HW131577   2.108   0.958   6.727
10226SOL    HW231578   1.947   0.932   6.744
10227SOL     OW31579   4.924   4.976   6.964
10227SOL    HW131580   4.886   5.018   6.881
10227SOL    HW231581   5.008   4.926   6.940
10228SOL     OW31582   1.459   5.242   3.701
10228SOL    HW131583   1.512   5.305   3.758
10228SOL    HW231584   1.422   5.291   3.622
10229SOL     OW31585   1.075   0.249   3.162
10229SOL    HW131586   1.121   0.181   3.106
10229SOL    HW231587   1.077   0.338   3.117
10230SOL     OW31588   6.135   0.596   3.924
10230SOL    HW131589   6.231   0.569   3.923
10230SOL    HW231590   6.126   0.688   3.962
10231SOL     OW31591   5.402   6.589   4.856
10231SOL    HW131592   5.390   6.534   4.939
10231SOL    HW231593   5.381   6.685   4.876
10232SOL     OW31594   3.447   2.111   4.991
10232SOL    HW131595   3.450   2.040   5.061
10232SOL    HW231596   3.358   2.156   4.994
10233SOL     OW31597   4.499   2.284   5.692
10233SOL    HW131598   4.426   2.222   5.662
10233SOL    HW231599   4.493   2.296   5.791
10234SOL     OW31600   5.824   6.887   1.202
10234SOL    HW131601   5.814   6.921   1.295
10234SOL    HW231602   5.875   6.800   1.203
10235SOL     OW31603   5.061   1.553   0.241
10235SOL    HW131604   5.144   1.508   0.272
10235SOL    HW231605   5.056   1.550   0.141
10236SOL     OW31606   2.174   5.929   2.143
10236SOL    HW131607   2.248   5.964   2.201
10236SOL    HW231608   2.086   5.960   2.179
10237SOL     OW31609   6.132   3.693   2.674
10237SOL    HW131610   6.113   3.709   2.577
10237SOL    HW231611   6.058   3.732   2.729
10238SOL     OW31612   4.080   4.581   5.259
10238SOL    HW131613   4.111   4.508   5.197
10238SOL    HW231614   4.023   4.542   5.331
10239SOL     OW31615   0.412   4.082   4.652
10239SOL    HW131616   0.377   4.128   4.734
10239SOL    HW231617   0.387   3.985   4.656
10240SOL     OW31618   1.172   3.713   3.301
10240SOL    HW131619   1.264   3.742   3.327
10240SOL    HW231620   1.135   3.653   3.372
10241SOL     OW31621   0.892   1.760   2.584
10241SOL    HW131622   0.870   1.794   2.493
10241SOL    HW231623   0.987   1.727   2.585
10242SOL     OW31624   6.992   1.157   5.808
10242SOL    HW131625   0.055   1.125   5.791
10242SOL    HW231626   6.980   1.179   5.904
10243SOL     OW31627   0.578   5.544   1.848
10243SOL    HW131628   0.677   5.531   1.848
10243SOL    HW231629   0.533   5.458   1.827
10244SOL     OW31630   2.061   5.399   6.971
10244SOL    HW131631   1.968   5.364   6.958
10244SOL    HW231632   2.111   5.338   0.003
10245SOL     OW31633   1.428   3.080   6.199
10245SOL    HW131634   1.475   3.014   6.258
10245SOL    HW231635   1.412   3.038   6.109
10246SOL     OW31636   3.033   3.908   4.685
10246SOL    HW131637   2.986   3.893   4.772
10246SOL    HW231638   3.103   3.978   4.696
10247SOL     OW31639   6.946   5.132   5.869
10247SOL    HW131640   6.998   5.062   5.821
10247SOL    HW231641   7.009   5.195   5.914
10248SOL     OW31642   2.722   0.104   1.944
10248SOL    HW131643   2.732   0.088   1.846
10248SOL    HW231644   2.798   0.159   1.977
10249SOL     OW31645   4.640   1.146   5.720
10249SOL    HW131646   4.617   1.243   5.721
10249SOL    HW231647   4.570   1.094   5.769
10250SOL     OW31648   6.086   1.308   0.869
10250SOL    HW131649   6.165   1.261   0.909
10250SOL    HW231650   6.019   1.326   0.942
10251SOL     OW31651   2.819   2.654   0.262
10251SOL    HW131652   2.807   2.651   0.163
10251SOL    HW231653   2.775   2.574   0.303
10252SOL     OW31654   6.006   6.673   0.933
10252SOL    HW131655   6.031   6.769   0.948
10252SOL    HW231656   5.987   6.630   1.022
10253SOL     OW31657   4.941   4.340   0.093
10253SOL    HW131658   4.905   4.381   0.177
10253SOL    HW231659   4.964   4.413   0.028
10254SOL     OW31660   2.663   1.530   5.373
10254SOL    HW131661   2.726   1.455   5.351
10254SOL    HW231662   2.709   1.596   5.432
10255SOL     OW31663   2.537   5.481   2.457
10255SOL    HW131664   2.466   5.535   2.502
10255SOL    HW231665   2.614   5.469   2.519
10256SOL     OW31666   4.844   0.943   0.312
10256SOL    HW131667   4.910   0.986   0.374
10256SOL    HW231668   4.883   0.938   0.220
10257SOL     OW31669   1.297   5.677   5.931
10257SOL    HW131670   1.278   5.692   6.028
10257SOL    HW231671   1.333   5.585   5.917
10258SOL     OW31672   4.536   0.009   3.278
10258SOL    HW131673   4.480   6.992   3.210
10258SOL    HW231674   4.494   0.097   3.301
10259SOL     OW31675   0.430   4.241   3.849
10259SOL    HW131676   0.416   4.196   3.760
10259SOL    HW231677   0.395   4.334   3.844
10260SOL     OW31678   0.745   6.917   2.182
10260SOL    HW131679   0.766   6.832   2.132
10260SOL    HW231680   0.658   6.906   2.229
10261SOL     OW31681   0.850   5.381   2.197
10261SOL    HW131682   0.866   5.445   2.122
10261SOL    HW231683   0.793   5.426   2.267
10262SOL     OW31684   3.163   4.885   4.348
10262SOL    HW131685   3.117   4.867   4.436
10262SOL    HW231686   3.105   4.853   4.273
10263SOL     OW31687   5.062   1.687   5.826
10263SOL    HW131688   5.160   1.688   5.848
10263SOL    HW231689   5.012   1.738   5.896
10264SOL     OW31690   6.233   0.756   6.284
10264SOL    HW131691   6.288   0.805   6.351
10264SOL    HW231692   6.235   0.804   6.197
10265SOL     OW31693   3.628   1.592   3.107
10265SOL    HW131694   3.550   1.530   3.098
10265SOL    HW231695   3.649   1.606   3.204
10266SOL     OW31696   3.259   3.927   6.349
10266SOL    HW131697   3.256   3.910   6.251
10266SOL    HW231698   3.353   3.940   6.378
10267SOL     OW31699   6.922   1.897   6.615
10267SOL    HW131700   6.859   1.885   6.538
10267SOL    HW231701   7.000   1.836   6.603
10268SOL     OW31702   5.288   5.431   1.611
10268SOL    HW131703   5.341   5.434   1.695
10268SOL    HW231704   5.250   5.339   1.598
10269SOL     OW31705   2.337   2.503   6.365
10269SOL    HW131706   2.313   2.594   6.332
10269SOL    HW231707   2.424   2.474   6.324
10270SOL     OW31708   1.894   5.875   0.628
10270SOL    HW131709   1.942   5.840   0.709
10270SOL    HW231710   1.876   5.801   0.565
10271SOL     OW31711   4.006   3.553   1.575
10271SOL    HW131712   3.922   3.512   1.541
10271SOL    HW231713   4.070   3.481   1.602
10272SOL     OW31714   0.570   0.978   4.417
10272SOL    HW131715   0.595   1.064   4.462
10272SOL    HW231716   0.638   0.908   4.439
10273SOL     OW31717   3.972   5.802   4.566
10273SOL    HW131718   3.993   5.840   4.657
10273SOL    HW231719   3.890   5.846   4.530
10274SOL     OW31720   0.860   5.007   5.829
10274SOL    HW131721   0.812   4.976   5.911
10274SOL    HW231722   0.846   4.941   5.755
10275SOL     OW31723   0.790   6.470   2.709
10275SOL    HW131724   0.787   6.565   2.677
10275SOL    HW231725   0.725   6.415   2.658
10276SOL     OW31726   7.023   5.300   4.981
10276SOL    HW131727   6.930   5.291   5.018
10276SOL    HW231728   0.035   5.385   5.015
10277SOL     OW31729   3.245   6.516   4.421
10277SOL    HW131730   3.255   6.428   4.376
10277SOL    HW231731   3.177   6.571   4.373
10278SOL     OW31732   6.348   0.211   6.374
10278SOL    HW131733   6.301   0.297   6.393
10278SOL    HW231734   6.281   0.141   6.350
10279SOL     OW31735   3.028   0.210   4.516
10279SOL    HW131736   3.081   0.262   4.448
10279SOL    HW231737   2.943   0.179   4.475
10280SOL     OW31738   1.880   3.794   0.629
10280SOL    HW131739   1.794   3.844   0.636
10280SOL    HW231740   1.877   3.713   0.689
10281SOL     OW31741   4.435   1.169   2.942
10281SOL    HW131742   4.492   1.179   2.860
10281SOL    HW231743   4.451   1.247   3.003
10282SOL     OW31744   0.893   1.737   3.620
10282SOL    HW131745   0.858   1.734   3.526
10282SOL    HW231746   0.970   1.674   3.629
10283SOL     OW31747   1.538   3.422   1.035
10283SOL    HW131748   1.525   3.371   1.119
10283SOL    HW231749   1.449   3.438   0.991
10284SOL     OW31750   5.424   3.744   5.249
10284SOL    HW131751   5.487   3.804   5.199
10284SOL    HW231752   5.373   3.798   5.316
10285SOL     OW31753   4.718   1.184   0.627
10285SOL    HW131754   4.777   1.232   0.692
10285SOL    HW231755   4.659   1.120   0.676
10286SOL     OW31756   4.380   0.612   2.915
10286SOL    HW131757   4.369   0.519   2.879
10286SOL    HW231758   4.432   0.609   3.000
10287SOL     OW31759   1.841   7.004   1.325
10287SOL    HW131760   1.817   0.070   1.340
10287SOL    HW231761   1.779   6.963   1.258
10288SOL     OW31762   5.812   5.930   3.176
10288SOL    HW131763   5.775   5.973   3.093
10288SOL    HW231764   5.890   5.983   3.209
10289SOL     OW31765   2.828   1.691   1.564
10289SOL    HW131766   2.785   1.762   1.620
10289SOL    HW231767   2.758   1.628   1.531
10290SOL     OW31768   3.915   3.578   2.915
10290SOL    HW131769   3.839   3.630   2.876
10290SOL    HW231770   3.917   3.592   3.014
10291SOL     OW31771   3.507   0.658   4.328
10291SOL    HW131772   3.466   0.674   4.238
10291SOL    HW231773   3.558   0.572   4.327
10292SOL     OW31774   0.327   2.130   4.323
10292SOL    HW131775   0.411   2.087   4.292
10292SOL    HW231776   0.271   2.156   4.244
10293SOL     OW31777   2.373   6.045   3.365
10293SOL    HW131778   2.414   6.083   3.282
10293SOL    HW231779   2.277   6.071   3.371
10294SOL     OW31780   4.651   1.444   2.880
10294SOL    HW131781   4.605   1.407   2.961
10294SOL    HW231782   4.716   1.376   2.845
10295SOL     OW31783   0.053   4.912   5.744
10295SOL    HW131784   0.061   4.813   5.732
10295SOL    HW231785   0.143   4.951   5.758
10296SOL     OW31786   6.726   3.913   6.930
10296SOL    HW131787   6.725   3.859   6.846
10296SOL    HW231788   6.636   3.910   6.973
10297SOL     OW31789   1.141   5.575   4.381
10297SOL    HW131790   1.144   5.653   4.317
10297SOL    HW231791   1.065   5.587   4.444
10298SOL     OW31792   5.407   4.077   4.077
10298SOL    HW131793   5.362   4.009   4.136
10298SOL    HW231794   5.365   4.076   3.987
10299SOL     OW31795   4.307   4.764   3.510
10299SOL    HW131796   4.222   4.802   3.546
10299SOL    HW231797   4.298   4.751   3.411
10300SOL     OW31798   1.134   3.336   2.253
10300SOL    HW131799   1.113   3.243   2.223
10300SOL    HW231800   1.052   3.379   2.291
10301SOL     OW31801   5.968   1.344   3.299
10301SOL    HW131802   5.982   1.443   3.307
10301SOL    HW231803   5.877   1.320   3.332
10302SOL     OW31804   1.363   5.708   2.984
10302SOL    HW131805   1.359   5.799   2.944
10302SOL    HW231806   1.363   5.639   2.911
10303SOL     OW31807   4.144   3.496   1.229
10303SOL    HW131808   4.209   3.571   1.215
10303SOL    HW231809   4.130   3.482   1.327
10304SOL     OW31810   6.926   6.875   3.055
10304SOL    HW131811   6.983   6.798   3.025
10304SOL    HW231812   6.975   6.928   3.124
10305SOL     OW31813   2.009   6.200   6.651
10305SOL    HW131814   1.935   6.162   6.706
10305SOL    HW231815   2.096   6.158   6.677
10306SOL     OW31816   4.331   5.784   0.470
10306SOL    HW131817   4.331   5.722   0.548
10306SOL    HW231818   4.273   5.863   0.489
10307SOL     OW31819   1.169   0.915   6.277
10307SOL    HW131820   1.216   0.832   6.249
10307SOL    HW231821   1.236   0.984   6.305
10308SOL     OW31822   3.284   5.854   3.670
10308SOL    HW131823   3.311   5.760   3.691
10308SOL    HW231824   3.189   5.856   3.640
10309SOL     OW31825   6.669   6.219   2.753
10309SOL    HW131826   6.687   6.120   2.749
10309SOL    HW231827   6.658   6.247   2.849
10310SOL     OW31828   3.261   3.926   2.417
10310SOL    HW131829   3.280   3.970   2.505
10310SOL    HW231830   3.190   3.857   2.429
10311SOL     OW31831   0.569   4.978   0.476
10311SOL    HW131832   0.519   4.978   0.562
10311SOL    HW231833   0.543   5.059   0.423
10312SOL     OW31834   3.035   4.414   0.540
10312SOL    HW131835   3.091   4.414   0.624
10312SOL    HW231836   2.989   4.502   0.532
10313SOL     OW31837   4.499   0.516   2.583
10313SOL    HW131838   4.576   0.491   2.642
10313SOL    HW231839   4.470   0.435   2.532
10314SOL     OW31840   6.316   6.902   0.469
10314SOL    HW131841   6.370   6.891   0.553
10314SOL    HW231842   6.314   6.816   0.419
10315SOL     OW31843   6.359   6.136   4.688
10315SOL    HW131844   6.284   6.106   4.747
10315SOL    HW231845   6.321   6.170   4.602
10316SOL     OW31846   0.438   4.018   4.365
10316SOL    HW131847   0.460   4.067   4.449
10316SOL    HW231848   0.344   3.983   4.370
10317SOL     OW31849   4.408   5.277   6.149
10317SOL    HW131850   4.363   5.315   6.230
10317SOL    HW231851   4.485   5.336   6.123
10318SOL     OW31852   5.993   5.211   1.786
10318SOL    HW131853   6.060   5.281   1.760
10318SOL    HW231854   6.041   5.126   1.808
10319SOL     OW31855   6.629   5.574   3.504
10319SOL    HW131856   6.655   5.603   3.596
10319SOL    HW231857   6.565   5.497   3.510
10320SOL     OW31858   0.070   6.003   1.031
10320SOL    HW131859   0.044   6.036   0.941
10320SOL    HW231860   0.161   5.962   1.027
10321SOL     OW31861   4.532   5.493   4.240
10321SOL    HW131862   4.523   5.425   4.313
10321SOL    HW231863   4.598   5.563   4.267
10322SOL     OW31864   6.548   4.410   0.732
10322SOL    HW131865   6.499   4.379   0.651
10322SOL    HW231866   6.574   4.506   0.721
10323SOL     OW31867   5.359   3.100   6.085
10323SOL    HW131868   5.302   3.179   6.106
10323SOL    HW231869   5.302   3.019   6.074
10324SOL     OW31870   2.957   3.591   3.417
10324SOL    HW131871   2.964   3.690   3.406
10324SOL    HW231872   3.034   3.547   3.369
10325SOL     OW31873   0.486   2.741   3.004
10325SOL    HW131874   0.464   2.791   2.921
10325SOL    HW231875   0.409   2.746   3.068
10326SOL     OW31876   5.493   2.724   0.504
10326SOL    HW131877   5.464   2.790   0.436
10326SOL    HW231878   5.560   2.766   0.565
10327SOL     OW31879   0.587   0.401   3.030
10327SOL    HW131880   0.507   0.448   2.994
10327SOL    HW231881   0.661   0.466   3.043
10328SOL     OW31882   6.068   3.408   2.301
10328SOL    HW131883   6.014   3.397   2.384
10328SOL    HW231884   6.012   3.381   2.222
10329SOL     OW31885   2.919   0.144   3.077
10329SOL    HW131886   2.902   0.057   3.029
10329SOL    HW231887   2.976   0.127   3.157
10330SOL     OW31888   4.173   5.138   2.241
10330SOL    HW131889   4.135   5.217   2.288
10330SOL    HW231890   4.262   5.115   2.281
10331SOL     OW31891   5.355   0.980   3.512
10331SOL    HW131892   5.279   0.943   3.460
10331SOL    HW231893   5.335   0.974   3.610
10332SOL     OW31894   0.309   2.059   6.523
10332SOL    HW131895   0.372   2.022   6.591
10332SOL    HW231896   0.288   1.989   6.455
10333SOL     OW31897   6.064   5.451   4.056
10333SOL    HW131898   6.093   5.399   3.976
10333SOL    HW231899   5.965   5.439   4.069
10334SOL     OW31900   2.058   4.498   4.173
10334SOL    HW131901   2.052   4.399   4.182
10334SOL    HW231902   1.973   4.533   4.132
10335SOL     OW31903   1.972   5.260   1.294
10335SOL    HW131904   2.056   5.247   1.241
10335SOL    HW231905   1.913   5.326   1.247
10336SOL     OW31906   4.149   6.518   1.792
10336SOL    HW131907   4.060   6.557   1.767
10336SOL    HW231908   4.219   6.552   1.728
10337SOL     OW31909   0.569   5.504   4.798
10337SOL    HW131910   0.547   5.410   4.775
10337SOL    HW231911   0.614   5.507   4.888
10338SOL     OW31912   2.678   6.738   2.841
10338SOL    HW131913   2.680   6.647   2.799
10338SOL    HW231914   2.623   6.800   2.784
10339SOL     OW31915   2.441   6.209   1.523
10339SOL    HW131916   2.498   6.143   1.474
10339SOL    HW231917   2.465   6.207   1.620
10340SOL     OW31918   1.984   6.291   0.416
10340SOL    HW131919   2.048   6.219   0.442
10340SOL    HW231920   2.025   6.381   0.434
10341SOL     OW31921   2.291   1.548   2.375
10341SOL    HW131922   2.331   1.482   2.312
10341SOL    HW231923   2.237   1.500   2.444
10342SOL     OW31924   1.940   0.604   5.686
10342SOL    HW131925   2.036   0.580   5.667
10342SOL    HW231926   1.926   0.611   5.785
10343SOL     OW31927   2.890   3.771   5.765
10343SOL    HW131928   2.824   3.836   5.728
10343SOL    HW231929   2.968   3.820   5.803
10344SOL     OW31930   4.005   3.479   4.893
10344SOL    HW131931   4.051   3.392   4.877
10344SOL    HW231932   3.910   3.462   4.921
10345SOL     OW31933   2.173   1.263   6.544
10345SOL    HW131934   2.074   1.264   6.556
10345SOL    HW231935   2.205   1.357   6.530
10346SOL     OW31936   5.442   7.007   0.367
10346SOL    HW131937   5.440   6.927   0.308
10346SOL    HW231938   5.419   0.059   0.314
10347SOL     OW31939   5.405   1.610   1.601
10347SOL    HW131940   5.350   1.569   1.674
10347SOL    HW231941   5.496   1.631   1.637
10348SOL     OW31942   6.370   0.223   5.890
10348SOL    HW131943   6.327   0.312   5.876
10348SOL    HW231944   6.341   0.186   5.978
10349SOL     OW31945   6.952   1.556   1.408
10349SOL    HW131946   6.898   1.507   1.477
10349SOL    HW231947   6.897   1.628   1.367
10350SOL     OW31948   2.788   5.406   4.320
10350SOL    HW131949   2.821   5.484   4.266
10350SOL    HW231950   2.718   5.357   4.268
10351SOL     OW31951   5.634   5.152   5.272
10351SOL    HW131952   5.725   5.127   5.241
10351SOL    HW231953   5.632   5.249   5.296
10352SOL     OW31954   6.154   2.357   0.229
10352SOL    HW131955   6.231   2.343   0.292
10352SOL    HW231956   6.188   2.354   0.135
10353SOL     OW31957   0.191   2.365   3.259
10353SOL    HW131958   0.244   2.335   3.179
10353SOL    HW231959   0.165   2.284   3.313
10354SOL     OW31960   0.694   3.683   0.663
10354SOL    HW131961   0.725   3.590   0.683
10354SOL    HW231962   0.677   3.732   0.749
10355SOL     OW31963   1.267   0.390   0.604
10355SOL    HW131964   1.364   0.375   0.585
10355SOL    HW231965   1.253   0.484   0.636
10356SOL     OW31966   6.995   3.941   6.797
10356SOL    HW131967   6.929   3.894   6.738
10356SOL    HW231968   0.037   3.877   6.824
10357SOL     OW31969   1.094   3.031   6.026
10357SOL    HW131970   1.099   3.079   6.114
10357SOL    HW231971   1.159   3.073   5.962
10358SOL     OW31972   0.627   2.301   2.774
10358SOL    HW131973   0.582   2.220   2.812
10358SOL    HW231974   0.666   2.278   2.684
10359SOL     OW31975   5.617   2.027   2.331
10359SOL    HW131976   5.522   2.013   2.358
10359SOL    HW231977   5.620   2.068   2.240
10360SOL     OW31978   5.994   4.542   2.391
10360SOL    HW131979   6.029   4.492   2.312
10360SOL    HW231980   5.980   4.479   2.468
10361SOL     OW31981   0.304   1.779   1.296
10361SOL    HW131982   0.219   1.810   1.254
10361SOL    HW231983   0.329   1.841   1.370
10362SOL     OW31984   1.500   4.860   2.422
10362SOL    HW131985   1.513   4.950   2.381
10362SOL    HW231986   1.587   4.810   2.421
10363SOL     OW31987   4.879   4.180   0.930
10363SOL    HW131988   4.978   4.192   0.924
10363SOL    HW231989   4.858   4.105   0.993
10364SOL     OW31990   5.833   4.547   2.037
10364SOL    HW131991   5.878   4.501   2.114
10364SOL    HW231992   5.751   4.594   2.069
10365SOL     OW31993   5.824   5.729   0.329
10365SOL    HW131994   5.742   5.784   0.314
10365SOL    HW231995   5.844   5.675   0.247
10366SOL     OW31996   3.083   6.324   3.104
10366SOL    HW131997   3.128   6.243   3.141
10366SOL    HW231998   3.008   6.351   3.164
10367SOL     OW31999   6.335   2.259   0.669
10367SOL    HW132000   6.304   2.352   0.649
10367SOL    HW232001   6.348   2.249   0.768
10368SOL     OW32002   1.988   6.751   2.282
10368SOL    HW132003   1.904   6.759   2.229
10368SOL    HW232004   1.969   6.702   2.367
10369SOL     OW32005   3.500   6.563   5.921
10369SOL    HW132006   3.402   6.567   5.900
10369SOL    HW232007   3.531   6.468   5.914
10370SOL     OW32008   0.236   1.820   4.362
10370SOL    HW132009   0.245   1.918   4.376
10370SOL    HW232010   0.165   1.801   4.294
10371SOL     OW32011   3.215   5.878   3.260
10371SOL    HW132012   3.128   5.828   3.255
10371SOL    HW232013   3.214   5.955   3.197
10372SOL     OW32014   2.603   6.993   1.412
10372SOL    HW132015   2.655   7.012   1.329
10372SOL    HW232016   2.513   0.008   1.405
10373SOL     OW32017   0.095   1.810   5.292
10373SOL    HW132018   0.064   1.883   5.353
10373SOL    HW232019   0.137   1.737   5.345
10374SOL     OW32020   3.000   6.904   4.839
10374SOL    HW132021   3.089   6.869   4.866
10374SOL    HW232022   2.990   6.897   4.740
10375SOL     OW32023   3.842   2.924   0.086
10375SOL    HW132024   3.874   2.955   7.026
10375SOL    HW232025   3.857   2.826   0.095
10376SOL     OW32026   1.966   5.800   3.025
10376SOL    HW132027   2.065   5.783   3.031
10376SOL    HW232028   1.951   5.890   2.983
10377SOL     OW32029   0.726   1.476   2.417
10377SOL    HW132030   0.769   1.474   2.507
10377SOL    HW232031   0.649   1.412   2.415
10378SOL     OW32032   6.792   4.768   5.533
10378SOL    HW132033   6.862   4.704   5.500
10378SOL    HW232034   6.789   4.848   5.474
10379SOL     OW32035   2.523   6.703   4.416
10379SOL    HW132036   2.468   6.683   4.335
10379SOL    HW232037   2.471   6.683   4.498
10380SOL     OW32038   1.448   2.415   4.740
10380SOL    HW132039   1.546   2.402   4.759
10380SOL    HW232040   1.435   2.431   4.642
10381SOL     OW32041   4.561   4.359   1.621
10381SOL    HW132042   4.641   4.406   1.658
10381SOL    HW232043   4.512   4.314   1.695
10382SOL     OW32044   3.342   4.592   1.716
10382SOL    HW132045   3.419   4.630   1.767
10382SOL    HW232046   3.273   4.559   1.780
10383SOL     OW32047   2.287   4.303   0.145
10383SOL    HW132048   2.368   4.269   0.096
10383SOL    HW232049   2.205   4.261   0.108
10384SOL     OW32050   5.719   6.456   1.390
10384SOL    HW132051   5.628   6.497   1.405
10384SOL    HW232052   5.789   6.526   1.403
10385SOL     OW32053   3.817   4.376   6.336
10385SOL    HW132054   3.807   4.277   6.336
10385SOL    HW232055   3.786   4.413   6.424
10386SOL     OW32056   6.817   0.399   5.828
10386SOL    HW132057   6.779   0.457   5.757
10386SOL    HW232058   6.746   0.374   5.893
10387SOL     OW32059   4.912   3.185   2.754
10387SOL    HW132060   5.002   3.177   2.710
10387SOL    HW232061   4.893   3.281   2.773
10388SOL     OW32062   2.994   0.414   5.667
10388SOL    HW132063   3.008   0.493   5.607
10388SOL    HW232064   2.902   0.378   5.654
10389SOL     OW32065   0.606   3.515   0.384
10389SOL    HW132066   0.597   3.467   0.297
10389SOL    HW232067   0.703   3.530   0.403
10390SOL     OW32068   2.541   2.228   0.966
10390SOL    HW132069   2.565   2.140   0.924
10390SOL    HW232070   2.504   2.212   1.057
10391SOL     OW32071   0.667   6.495   3.234
10391SOL    HW132072   0.723   6.521   3.156
10391SOL    HW232073   0.724   6.452   3.303
10392SOL     OW32074   6.681   5.057   4.890
10392SOL    HW132075   6.710   5.141   4.843
10392SOL    HW232076   6.590   5.072   4.929
10393SOL     OW32077   2.172   3.878   4.223
10393SOL    HW132078   2.191   3.908   4.317
10393SOL    HW232079   2.131   3.787   4.224
10394SOL     OW32080   3.499   5.909   4.456
10394SOL    HW132081   3.435   5.930   4.382
10394SOL    HW232082   3.530   5.814   4.446
10395SOL     OW32083   6.690   6.071   1.274
10395SOL    HW132084   6.728   6.065   1.182
10395SOL    HW232085   6.599   6.030   1.276
10396SOL     OW32086   3.127   2.192   4.062
10396SOL    HW132087   3.218   2.175   4.023
10396SOL    HW232088   3.069   2.235   3.994
10397SOL     OW32089   3.051   2.069   2.238
10397SOL    HW132090   3.079   2.157   2.276
10397SOL    HW232091   3.007   2.084   2.149
10398SOL     OW32092   0.246   3.401   1.512
10398SOL    HW132093   0.329   3.380   1.564
10398SOL    HW232094   0.270   3.436   1.422
10399SOL     OW32095   6.101   2.750   2.705
10399SOL    HW132096   6.055   2.691   2.639
10399SOL    HW232097   6.036   2.816   2.743
10400SOL     OW32098   4.222   6.948   0.302
10400SOL    HW132099   4.151   6.965   0.234
10400SOL    HW232100   4.259   0.006   0.334
10401SOL     OW32101   6.735   0.583   3.761
10401SOL    HW132102   6.834   0.597   3.760
10401SOL    HW232103   6.695   0.639   3.834
10402SOL     OW32104   5.971   3.159   5.090
10402SOL    HW132105   5.996   3.246   5.048
10402SOL    HW232106   5.998   3.160   5.187
10403SOL     OW32107   3.305   0.890   3.275
10403SOL    HW132108   3.396   0.889   3.233
10403SOL    HW232109   3.241   0.935   3.213
10404SOL     OW32110   5.745   0.046   5.270
10404SOL    HW132111   5.699   0.044   5.359
10404SOL    HW232112   5.838   0.081   5.282
10405SOL     OW32113   0.604   1.899   5.830
10405SOL    HW132114   0.587   1.803   5.809
10405SOL    HW232115   0.632   1.947   5.746
10406SOL     OW32116   3.211   4.857   2.582
10406SOL    HW132117   3.307   4.852   2.554
10406SOL    HW232118   3.157   4.897   2.508
10407SOL     OW32119   3.164   5.833   5.858
10407SOL    HW132120   3.210   5.749   5.829
10407SOL    HW232121   3.110   5.869   5.783
10408SOL     OW32122   4.538   1.205   0.409
10408SOL    HW132123   4.467   1.169   0.470
10408SOL    HW232124   4.627   1.199   0.454
10409SOL     OW32125   0.285   4.779   0.718
10409SOL    HW132126   0.247   4.864   0.681
10409SOL    HW232127   0.217   4.733   0.774
10410SOL     OW32128   5.897   0.973   0.036
10410SOL    HW132129   5.909   1.013   0.126
10410SOL    HW232130   5.986   0.947   7.028
10411SOL     OW32131   3.562   6.775   2.951
10411SOL    HW132132   3.593   6.838   3.022
10411SOL    HW232133   3.544   6.825   2.867
10412SOL     OW32134   6.087   0.709   0.550
10412SOL    HW132135   6.157   0.694   0.479
10412SOL    HW232136   6.043   0.621   0.571
10413SOL     OW32137   6.798   1.993   1.158
10413SOL    HW132138   6.852   2.050   1.096
10413SOL    HW232139   6.756   2.052   1.228
10414SOL     OW32140   4.358   4.314   5.574
10414SOL    HW132141   4.303   4.317   5.658
10414SOL    HW232142   4.298   4.319   5.494
10415SOL     OW32143   0.279   4.545   5.570
10415SOL    HW132144   0.322   4.456   5.580
10415SOL    HW232145   0.347   4.617   5.583
10416SOL     OW32146   6.615   1.105   3.301
10416SOL    HW132147   6.710   1.077   3.287
10416SOL    HW232148   6.597   1.188   3.249
10417SOL     OW32149   3.880   5.568   4.474
10417SOL    HW132150   3.784   5.549   4.493
10417SOL    HW232151   3.902   5.660   4.506
10418SOL     OW32152   6.859   4.798   6.073
10418SOL    HW132153   6.830   4.804   5.977
10418SOL    HW232154   6.893   4.705   6.091
10419SOL     OW32155   1.241   0.263   6.457
10419SOL    HW132156   1.273   0.258   6.362
10419SOL    HW232157   1.260   0.355   6.493
10420SOL     OW32158   6.598   3.041   2.217
10420SOL    HW132159   6.601   2.945   2.243
10420SOL    HW232160   6.510   3.080   2.245
10421SOL     OW32161   0.466   1.687   3.523
10421SOL    HW132162   0.420   1.774   3.506
10421SOL    HW232163   0.543   1.701   3.585
10422SOL     OW32164   6.241   2.554   5.634
10422SOL    HW132165   6.196   2.624   5.579
10422SOL    HW232166   6.283   2.486   5.574
10423SOL     OW32167   4.986   4.899   4.553
10423SOL    HW132168   5.002   4.815   4.502
10423SOL    HW232169   4.923   4.881   4.629
10424SOL     OW32170   5.603   3.429   0.334
10424SOL    HW132171   5.582   3.490   0.411
10424SOL    HW232172   5.640   3.343   0.368
10425SOL     OW32173   2.213   6.806   2.132
10425SOL    HW132174   2.269   6.727   2.155
10425SOL    HW232175   2.127   6.802   2.183
10426SOL     OW32176   6.447   4.112   0.608
10426SOL    HW132177   6.503   4.156   0.678
10426SOL    HW232178   6.491   4.122   0.519
10427SOL     OW32179   3.864   1.513   0.106
10427SOL    HW132180   3.836   1.562   0.189
10427SOL    HW232181   3.882   1.579   0.033
10428SOL     OW32182   3.089   2.028   4.981
10428SOL    HW132183   3.132   2.118   4.974
10428SOL    HW232184   3.117   1.972   4.903
10429SOL     OW32185   0.368   5.515   0.970
10429SOL    HW132186   0.426   5.501   1.050
10429SOL    HW232187   0.362   5.613   0.951
10430SOL     OW32188   4.294   6.887   3.958
10430SOL    HW132189   4.302   6.833   4.042
10430SOL    HW232190   4.201   6.882   3.923
10431SOL     OW32191   3.509   6.719   5.483
10431SOL    HW132192   3.528   6.813   5.454
10431SOL    HW232193   3.410   6.706   5.487
10432SOL     OW32194   6.196   0.602   4.225
10432SOL    HW132195   6.183   0.673   4.156
10432SOL    HW232196   6.255   0.636   4.298
10433SOL     OW32197   2.057   6.527   1.953
10433SOL    HW132198   2.003   6.566   1.879
10433SOL    HW232199   2.131   6.472   1.915
10434SOL     OW32200   3.905   6.757   2.932
10434SOL    HW132201   3.807   6.739   2.934
10434SOL    HW232202   3.925   6.831   2.868
10435SOL     OW32203   6.765   0.264   4.903
10435SOL    HW132204   6.834   0.288   4.971
10435SOL    HW232205   6.758   0.165   4.895
10436SOL     OW32206   0.352   5.148   5.305
10436SOL    HW132207   0.442   5.105   5.300
10436SOL    HW232208   0.300   5.109   5.380
10437SOL     OW32209   6.133   4.980   5.280
10437SOL    HW132210   6.118   5.079   5.277
10437SOL    HW232211   6.220   4.961   5.326
10438SOL     OW32212   5.338   6.527   6.946
10438SOL    HW132213   5.436   6.517   6.960
10438SOL    HW232214   5.321   6.568   6.856
10439SOL     OW32215   3.613   1.421   6.178
10439SOL    HW132216   3.603   1.331   6.136
10439SOL    HW232217   3.674   1.477   6.121
10440SOL     OW32218   1.141   6.257   0.322
10440SOL    HW132219   1.055   6.222   0.285
10440SOL    HW232220   1.132   6.270   0.421
10441SOL     OW32221   5.250   1.753   0.045
10441SOL    HW132222   5.156   1.771   0.016
10441SOL    HW232223   5.282   1.829   0.102
10442SOL     OW32224   2.876   5.592   5.654
10442SOL    HW132225   2.910   5.499   5.649
10442SOL    HW232226   2.850   5.614   5.748
10443SOL     OW32227   5.188   3.402   4.888
10443SOL    HW132228   5.115   3.406   4.956
10443SOL    HW232229   5.260   3.341   4.920
10444SOL     OW32230   4.282   5.860   4.755
10444SOL    HW132231   4.348   5.883   4.827
10444SOL    HW232232   4.298   5.766   4.725
10445SOL     OW32233   0.843   4.974   3.964
10445SOL    HW132234   0.888   5.033   4.032
10445SOL    HW232235   0.875   4.880   3.975
10446SOL     OW32236   0.970   3.448   5.620
10446SOL    HW132237   0.893   3.429   5.681
10446SOL    HW232238   0.940   3.506   5.545
10447SOL     OW32239   0.257   1.557   1.831
10447SOL    HW132240   0.196   1.495   1.783
10447SOL    HW232241   0.214   1.588   1.916
10448SOL     OW32242   4.160   2.848   1.322
10448SOL    HW132243   4.065   2.873   1.340
10448SOL    HW232244   4.200   2.914   1.259
10449SOL     OW32245   2.644   5.144   4.496
10449SOL    HW132246   2.656   5.227   4.443
10449SOL    HW232247   2.555   5.144   4.540
10450SOL     OW32248   0.491   2.603   0.212
10450SOL    HW132249   0.513   2.689   0.168
10450SOL    HW232250   0.536   2.528   0.164
10451SOL     OW32251   2.634   5.226   2.805
10451SOL    HW132252   2.699   5.233   2.881
10451SOL    HW232253   2.592   5.135   2.805
10452SOL     OW32254   6.314   3.337   3.376
10452SOL    HW132255   6.232   3.328   3.320
10452SOL    HW232256   6.395   3.322   3.319
10453SOL     OW32257   5.334   6.277   1.900
10453SOL    HW132258   5.255   6.267   1.960
10453SOL    HW232259   5.333   6.368   1.859
10454SOL     OW32260   5.511   2.693   1.500
10454SOL    HW132261   5.599   2.702   1.454
10454SOL    HW232262   5.469   2.783   1.509
10455SOL     OW32263   0.582   4.597   2.989
10455SOL    HW132264   0.563   4.511   2.942
10455SOL    HW232265   0.586   4.581   3.088
10456SOL     OW32266   2.889   6.572   1.433
10456SOL    HW132267   2.812   6.623   1.471
10456SOL    HW232268   2.963   6.569   1.500
10457SOL     OW32269   3.426   2.890   3.643
10457SOL    HW132270   3.506   2.915   3.698
10457SOL    HW232271   3.436   2.796   3.610
10458SOL     OW32272   0.069   0.077   0.028
10458SOL    HW132273   0.064   0.174   0.053
10458SOL    HW232274   0.039   0.021   0.105
10459SOL     OW32275   5.400   5.422   2.821
10459SOL    HW132276   5.489   5.464   2.840
10459SOL    HW232277   5.414   5.331   2.784
10460SOL     OW32278   1.874   5.544   1.299
10460SOL    HW132279   1.777   5.521   1.308
10460SOL    HW232280   1.907   5.583   1.385
10461SOL     OW32281   1.108   6.044   5.544
10461SOL    HW132282   1.133   6.020   5.638
10461SOL    HW232283   1.023   5.998   5.519
10462SOL     OW32284   5.960   1.169   1.826
10462SOL    HW132285   5.863   1.190   1.836
10462SOL    HW232286   6.015   1.246   1.860
10463SOL     OW32287   3.487   3.949   6.018
10463SOL    HW132288   3.584   3.930   6.004
10463SOL    HW232289   3.432   3.887   5.962
10464SOL     OW32290   4.814   0.631   0.668
10464SOL    HW132291   4.874   0.710   0.675
10464SOL    HW232292   4.749   0.645   0.592
10465SOL     OW32293   0.013   0.181   6.500
10465SOL    HW132294   0.014   0.228   6.412
10465SOL    HW232295   0.098   0.198   6.549
10466SOL     OW32296   4.955   5.410   4.843
10466SOL    HW132297   4.915   5.322   4.817
10466SOL    HW232298   4.986   5.405   4.938
10467SOL     OW32299   1.854   1.712   5.027
10467SOL    HW132300   1.921   1.700   5.100
10467SOL    HW232301   1.764   1.684   5.059
10468SOL     OW32302   3.794   6.153   4.242
10468SOL    HW132303   3.856   6.231   4.225
10468SOL    HW232304   3.705   6.187   4.273
10469SOL     OW32305   3.282   3.754   1.168
10469SOL    HW132306   3.273   3.839   1.219
10469SOL    HW232307   3.233   3.762   1.081
10470SOL     OW32308   2.178   2.171   3.284
10470SOL    HW132309   2.089   2.127   3.303
10470SOL    HW232310   2.173   2.219   3.196
10471SOL     OW32311   1.905   3.799   1.263
10471SOL    HW132312   1.871   3.749   1.343
10471SOL    HW232313   1.872   3.893   1.266
10472SOL     OW32314   3.843   6.597   1.800
10472SOL    HW132315   3.753   6.568   1.833
10472SOL    HW232316   3.833   6.676   1.740
10473SOL     OW32317   5.448   6.935   0.871
10473SOL    HW132318   5.437   6.974   0.779
10473SOL    HW232319   5.441   7.008   0.939
10474SOL     OW32320   4.686   0.494   4.688
10474SOL    HW132321   4.652   0.446   4.769
10474SOL    HW232322   4.681   0.592   4.702
10475SOL     OW32323   4.514   5.946   1.400
10475SOL    HW132324   4.487   5.955   1.304
10475SOL    HW232325   4.510   6.035   1.445
10476SOL     OW32326   6.698   5.566   6.808
10476SOL    HW132327   6.774   5.606   6.756
10476SOL    HW232328   6.735   5.505   6.878
10477SOL     OW32329   5.973   3.437   5.382
10477SOL    HW132330   5.925   3.460   5.298
10477SOL    HW232331   5.916   3.461   5.461
10478SOL     OW32332   1.202   6.712   6.565
10478SOL    HW132333   1.264   6.634   6.571
10478SOL    HW232334   1.137   6.708   6.640
10479SOL     OW32335   1.220   2.213   1.651
10479SOL    HW132336   1.252   2.159   1.574
10479SOL    HW232337   1.227   2.159   1.735
10480SOL     OW32338   4.971   6.744   1.793
10480SOL    HW132339   4.966   6.700   1.703
10480SOL    HW232340   5.067   6.753   1.820
10481SOL     OW32341   2.344   1.270   4.431
10481SOL    HW132342   2.441   1.281   4.449
10481SOL    HW232343   2.319   1.173   4.441
10482SOL     OW32344   0.708   6.251   4.806
10482SOL    HW132345   0.767   6.174   4.779
10482SOL    HW232346   0.697   6.312   4.728
10483SOL     OW32347   6.354   5.309   0.766
10483SOL    HW132348   6.304   5.394   0.753
10483SOL    HW232349   6.370   5.265   0.678
10484SOL     OW32350   0.105   0.693   0.989
10484SOL    HW132351   0.114   0.728   0.896
10484SOL    HW232352   0.019   0.726   1.028
10485SOL     OW32353   3.689   3.969   3.133
10485SOL    HW132354   3.687   4.026   3.215
10485SOL    HW232355   3.608   3.987   3.077
10486SOL     OW32356   6.533   0.105   5.714
10486SOL    HW132357   6.617   0.067   5.752
10486SOL    HW232358   6.482   0.152   5.786
10487SOL     OW32359   5.016   1.583   1.610
10487SOL    HW132360   5.021   1.486   1.632
10487SOL    HW232361   4.945   1.626   1.666
10488SOL     OW32362   0.874   2.447   4.941
10488SOL    HW132363   0.905   2.466   5.034
10488SOL    HW232364   0.840   2.532   4.899
10489SOL     OW32365   6.419   5.696   3.942
10489SOL    HW132366   6.416   5.757   4.021
10489SOL    HW232367   6.426   5.601   3.973
10490SOL     OW32368   5.588   0.367   0.551
10490SOL    HW132369   5.581   0.358   0.650
10490SOL    HW232370   5.524   0.437   0.518
10491SOL     OW32371   1.592   2.906   6.341
10491SOL    HW132372   1.598   2.809   6.362
10491SOL    HW232373   1.665   2.955   6.388
10492SOL     OW32374   4.328   6.912   0.613
10492SOL    HW132375   4.244   6.885   0.565
10492SOL    HW232376   4.388   6.963   0.551
10493SOL     OW32377   4.070   5.476   1.013
10493SOL    HW132378   4.043   5.557   1.066
10493SOL    HW232379   4.113   5.410   1.074
10494SOL     OW32380   1.066   4.497   5.911
10494SOL    HW132381   1.107   4.409   5.935
10494SOL    HW232382   1.124   4.571   5.945
10495SOL     OW32383   6.753   6.286   6.485
10495SOL    HW132384   6.687   6.344   6.436
10495SOL    HW232385   6.705   6.237   6.558
10496SOL     OW32386   0.156   3.708   5.587
10496SOL    HW132387   0.100   3.782   5.551
10496SOL    HW232388   0.098   3.629   5.606
10497SOL     OW32389   2.607   6.941   2.097
10497SOL    HW132390   2.550   6.984   2.168
10497SOL    HW232391   2.650   7.012   2.042
10498SOL     OW32392   5.006   5.308   0.660
10498SOL    HW132393   5.045   5.296   0.568
10498SOL    HW232394   5.062   5.373   0.711
10499SOL     OW32395   5.954   5.993   1.655
10499SOL    HW132396   5.886   5.991   1.727
10499SOL    HW232397   5.993   6.085   1.648
10500SOL     OW32398   5.377   4.202   5.003
10500SOL    HW132399   5.435   4.283   4.998
10500SOL    HW232400   5.298   4.214   4.942
10501SOL     OW32401   2.540   5.684   2.250
10501SOL    HW132402   2.467   5.668   2.184
10501SOL    HW232403   2.561   5.599   2.299
10502SOL     OW32404   3.098   3.123   2.925
10502SOL    HW132405   3.072   3.082   2.838
10502SOL    HW232406   3.144   3.055   2.982
10503SOL     OW32407   6.744   3.812   6.145
10503SOL    HW132408   6.672   3.828   6.079
10503SOL    HW232409   6.760   3.895   6.199
10504SOL     OW32410   2.036   3.440   6.168
10504SOL    HW132411   1.984   3.412   6.248
10504SOL    HW232412   2.038   3.540   6.163
10505SOL     OW32413   5.538   6.320   2.286
10505SOL    HW132414   5.612   6.304   2.220
10505SOL    HW232415   5.569   6.293   2.377
10506SOL     OW32416   0.735   3.061   6.738
10506SOL    HW132417   0.752   3.135   6.674
10506SOL    HW232418   0.775   2.976   6.702
10507SOL     OW32419   2.527   4.967   0.201
10507SOL    HW132420   2.552   5.063   0.190
10507SOL    HW232421   2.537   4.920   0.113
10508SOL     OW32422   1.123   5.480   5.226
10508SOL    HW132423   1.061   5.427   5.283
10508SOL    HW232424   1.209   5.494   5.274
10509SOL     OW32425   5.185   3.540   4.397
10509SOL    HW132426   5.183   3.583   4.487
10509SOL    HW232427   5.092   3.534   4.361
10510SOL     OW32428   4.875   6.169   5.446
10510SOL    HW132429   4.943   6.177   5.519
10510SOL    HW232430   4.814   6.248   5.449
10511SOL     OW32431   2.878   1.144   1.891
10511SOL    HW132432   2.879   1.216   1.821
10511SOL    HW232433   2.805   1.162   1.956
10512SOL     OW32434   4.224   0.466   6.208
10512SOL    HW132435   4.318   0.478   6.240
10512SOL    HW232436   4.161   0.485   6.284
10513SOL     OW32437   5.607   2.636   2.177
10513SOL    HW132438   5.513   2.621   2.208
10513SOL    HW232439   5.665   2.561   2.209
10514SOL     OW32440   1.052   2.496   1.392
10514SOL    HW132441   1.016   2.448   1.472
10514SOL    HW232442   0.983   2.496   1.319
10515SOL     OW32443   2.176   2.719   4.568
10515SOL    HW132444   2.207   2.803   4.614
10515SOL    HW232445   2.100   2.680   4.619
10516SOL     OW32446   3.356   2.482   0.175
10516SOL    HW132447   3.391   2.576   0.174
10516SOL    HW232448   3.432   2.419   0.192
10517SOL     OW32449   1.405   3.091   3.338
10517SOL    HW132450   1.385   3.164   3.273
10517SOL    HW232451   1.481   3.035   3.304
10518SOL     OW32452   1.104   5.270   2.245
10518SOL    HW132453   1.173   5.282   2.174
10518SOL    HW232454   1.019   5.316   2.217
10519SOL     OW32455   2.670   5.785   1.573
10519SOL    HW132456   2.711   5.719   1.511
10519SOL    HW232457   2.578   5.756   1.597
10520SOL     OW32458   6.542   1.697   6.176
10520SOL    HW132459   6.516   1.693   6.080
10520SOL    HW232460   6.493   1.626   6.227
10521SOL     OW32461   5.936   3.455   1.732
10521SOL    HW132462   5.934   3.512   1.650
10521SOL    HW232463   5.940   3.513   1.813
10522SOL     OW32464   5.793   2.299   3.135
10522SOL    HW132465   5.862   2.338   3.196
10522SOL    HW232466   5.702   2.309   3.176
10523SOL     OW32467   0.690   4.094   3.828
10523SOL    HW132468   0.752   4.168   3.855
10523SOL    HW232469   0.597   4.116   3.856
10524SOL     OW32470   6.841   5.347   3.703
10524SOL    HW132471   6.918   5.370   3.643
10524SOL    HW232472   6.758   5.338   3.649
10525SOL     OW32473   4.137   1.191   5.090
10525SOL    HW132474   4.108   1.201   4.994
10525SOL    HW232475   4.120   1.277   5.138
10526SOL     OW32476   0.656   5.560   0.252
10526SOL    HW132477   0.718   5.594   0.322
10526SOL    HW232478   0.701   5.489   0.198
10527SOL     OW32479   0.767   1.623   5.160
10527SOL    HW132480   0.821   1.689   5.108
10527SOL    HW232481   0.829   1.559   5.206
10528SOL     OW32482   0.584   4.834   6.748
10528SOL    HW132483   0.532   4.764   6.797
10528SOL    HW232484   0.615   4.904   6.812
10529SOL     OW32485   1.764   6.139   5.926
10529SOL    HW132486   1.842   6.201   5.916
10529SOL    HW232487   1.759   6.106   6.020
10530SOL     OW32488   0.814   6.834   5.841
10530SOL    HW132489   0.797   6.931   5.823
10530SOL    HW232490   0.835   6.787   5.756
10531SOL     OW32491   2.877   2.585   5.331
10531SOL    HW132492   2.974   2.563   5.323
10531SOL    HW232493   2.822   2.504   5.308
10532SOL     OW32494   5.709   6.737   6.105
10532SOL    HW132495   5.723   6.642   6.132
10532SOL    HW232496   5.780   6.764   6.039
10533SOL     OW32497   3.696   5.459   4.008
10533SOL    HW132498   3.686   5.541   3.952
10533SOL    HW232499   3.792   5.436   4.017
10534SOL     OW32500   0.271   5.552   2.886
10534SOL    HW132501   0.193   5.569   2.945
10534SOL    HW232502   0.353   5.536   2.942
10535SOL     OW32503   2.808   1.266   2.242
10535SOL    HW132504   2.746   1.330   2.197
10535SOL    HW232505   2.892   1.313   2.269
10536SOL     OW32506   4.732   0.676   4.064
10536SOL    HW132507   4.746   0.583   4.030
10536SOL    HW232508   4.730   0.675   4.164
10537SOL     OW32509   4.656   6.738   3.032
10537SOL    HW132510   4.595   6.802   3.079
10537SOL    HW232511   4.750   6.752   3.065
10538SOL     OW32512   5.969   3.703   2.432
10538SOL    HW132513   6.023   3.702   2.347
10538SOL    HW232514   5.966   3.611   2.470
10539SOL     OW32515   6.044   5.930   2.568
10539SOL    HW132516   6.022   6.009   2.626
10539SOL    HW232517   5.962   5.873   2.558
10540SOL     OW32518   2.513   4.086   6.441
10540SOL    HW132519   2.472   3.997   6.422
10540SOL    HW232520   2.606   4.089   6.403
10541SOL     OW32521   2.916   3.131   5.162
10541SOL    HW132522   2.835   3.093   5.116
10541SOL    HW232523   2.888   3.176   5.247
10542SOL     OW32524   6.384   0.031   4.749
10542SOL    HW132525   6.285   0.028   4.765
10542SOL    HW232526   6.423   0.107   4.800
10543SOL     OW32527   6.903   2.856   5.565
10543SOL    HW132528   6.940   2.764   5.574
10543SOL    HW232529   6.854   2.881   5.649
10544SOL     OW32530   0.991   1.138   4.030
10544SOL    HW132531   1.058   1.082   3.982
10544SOL    HW232532   0.987   1.229   3.988
10545SOL     OW32533   1.638   2.757   2.609
10545SOL    HW132534   1.615   2.852   2.631
10545SOL    HW232535   1.561   2.698   2.633
10546SOL     OW32536   3.381   6.548   1.017
10546SOL    HW132537   3.287   6.580   1.028
10546SOL    HW232538   3.445   6.623   1.035
10547SOL     OW32539   4.719   6.914   5.007
10547SOL    HW132540   4.647   6.980   4.987
10547SOL    HW232541   4.807   6.951   4.976
10548SOL     OW32542   0.719   4.662   4.590
10548SOL    HW132543   0.810   4.657   4.550
10548SOL    HW232544   0.709   4.747   4.641
10549SOL     OW32545   0.544   1.336   0.452
10549SOL    HW132546   0.615   1.266   0.446
10549SOL    HW232547   0.456   1.294   0.474
10550SOL     OW32548   3.638   5.973   3.389
10550SOL    HW132549   3.729   5.973   3.429
10550SOL    HW232550   3.645   5.973   3.289
10551SOL     OW32551   2.825   2.016   5.850
10551SOL    HW132552   2.755   1.954   5.885
10551SOL    HW232553   2.793   2.110   5.858
10552SOL     OW32554   3.482   1.109   4.364
10552SOL    HW132555   3.416   1.183   4.368
10552SOL    HW232556   3.517   1.101   4.270
10553SOL     OW32557   0.244   5.045   0.594
10553SOL    HW132558   0.264   5.032   0.497
10553SOL    HW232559   0.328   5.065   0.644
10554SOL     OW32560   6.442   4.972   2.671
10554SOL    HW132561   6.357   4.924   2.695
10554SOL    HW232562   6.520   4.910   2.683
10555SOL     OW32563   3.222   2.303   0.609
10555SOL    HW132564   3.133   2.340   0.636
10555SOL    HW232565   3.293   2.340   0.669
10556SOL     OW32566   2.179   1.345   2.792
10556SOL    HW132567   2.233   1.271   2.753
10556SOL    HW232568   2.182   1.425   2.732
10557SOL     OW32569   1.899   4.045   4.343
10557SOL    HW132570   1.801   4.039   4.323
10557SOL    HW232571   1.946   4.087   4.266
10558SOL     OW32572   3.200   5.098   5.390
10558SOL    HW132573   3.154   5.186   5.396
10558SOL    HW232574   3.147   5.029   5.438
10559SOL     OW32575   3.364   6.973   0.533
10559SOL    HW132576   3.381   6.883   0.491
10559SOL    HW232577   3.444   6.999   0.588
10560SOL     OW32578   4.243   6.282   1.664
10560SOL    HW132579   4.207   6.231   1.742
10560SOL    HW232580   4.207   6.375   1.665
10561SOL     OW32581   5.297   4.256   1.353
10561SOL    HW132582   5.358   4.271   1.275
10561SOL    HW232583   5.312   4.165   1.390
10562SOL     OW32584   3.189   6.787   1.584
10562SOL    HW132585   3.234   6.742   1.508
10562SOL    HW232586   3.220   6.882   1.590
10563SOL     OW32587   0.360   6.947   0.837
10563SOL    HW132588   0.294   6.952   0.763
10563SOL    HW232589   0.382   0.009   0.869
10564SOL     OW32590   6.589   5.412   4.433
10564SOL    HW132591   6.680   5.372   4.444
10564SOL    HW232592   6.593   5.489   4.369
10565SOL     OW32593   6.586   6.672   5.346
10565SOL    HW132594   6.659   6.669   5.278
10565SOL    HW232595   6.507   6.622   5.311
10566SOL     OW32596   2.841   2.377   6.804
10566SOL    HW132597   2.746   2.388   6.775
10566SOL    HW232598   2.875   2.287   6.776
10567SOL     OW32599   1.758   2.349   5.867
10567SOL    HW132600   1.740   2.308   5.956
10567SOL    HW232601   1.853   2.381   5.863
10568SOL     OW32602   5.413   2.824   6.449
10568SOL    HW132603   5.424   2.922   6.430
10568SOL    HW232604   5.413   2.810   6.548
10569SOL     OW32605   5.457   0.316   1.658
10569SOL    HW132606   5.374   0.260   1.651
10569SOL    HW232607   5.464   0.355   1.750
10570SOL     OW32608   0.593   5.014   3.912
10570SOL    HW132609   0.690   5.017   3.935
10570SOL    HW232610   0.574   5.081   3.840
10571SOL     OW32611   6.769   4.819   6.456
10571SOL    HW132612   6.776   4.862   6.366
10571SOL    HW232613   6.705   4.742   6.451
10572SOL     OW32614   6.705   4.487   1.376
10572SOL    HW132615   6.690   4.586   1.367
10572SOL    HW232616   6.761   4.455   1.300
10573SOL     OW32617   5.779   0.612   3.829
10573SOL    HW132618   5.847   0.616   3.756
10573SOL    HW232619   5.801   0.680   3.899
10574SOL     OW32620   6.557   0.504   3.550
10574SOL    HW132621   6.547   0.410   3.584
10574SOL    HW232622   6.646   0.540   3.578
10575SOL     OW32623   5.658   0.963   2.587
10575SOL    HW132624   5.755   0.986   2.578
10575SOL    HW232625   5.649   0.863   2.595
10576SOL     OW32626   2.307   4.750   3.092
10576SOL    HW132627   2.212   4.719   3.095
10576SOL    HW232628   2.343   4.755   3.185
10577SOL     OW32629   3.866   5.867   0.670
10577SOL    HW132630   3.817   5.947   0.704
10577SOL    HW232631   3.930   5.836   0.740
10578SOL     OW32632   6.453   2.212   3.734
10578SOL    HW132633   6.489   2.120   3.748
10578SOL    HW232634   6.379   2.229   3.798
10579SOL     OW32635   2.791   3.431   0.880
10579SOL    HW132636   2.732   3.392   0.951
10579SOL    HW232637   2.734   3.461   0.803
10580SOL     OW32638   6.272   6.798   6.363
10580SOL    HW132639   6.297   6.880   6.414
10580SOL    HW232640   6.350   6.769   6.307
10581SOL     OW32641   5.680   6.679   3.021
10581SOL    HW132642   5.649   6.711   3.110
10581SOL    HW232643   5.758   6.734   2.991
10582SOL     OW32644   5.487   4.720   6.845
10582SOL    HW132645   5.574   4.710   6.798
10582SOL    HW232646   5.470   4.638   6.901
10583SOL     OW32647   3.177   6.703   3.826
10583SOL    HW132648   3.187   6.610   3.791
10583SOL    HW232649   3.088   6.739   3.797
10584SOL     OW32650   6.444   0.325   5.410
10584SOL    HW132651   6.444   0.423   5.391
10584SOL    HW232652   6.537   0.295   5.431
10585SOL     OW32653   0.463   2.235   6.051
10585SOL    HW132654   0.473   2.313   6.112
10585SOL    HW232655   0.473   2.150   6.102
10586SOL     OW32656   4.778   4.153   5.488
10586SOL    HW132657   4.753   4.233   5.543
10586SOL    HW232658   4.707   4.137   5.420
10587SOL     OW32659   0.886   5.684   5.412
10587SOL    HW132660   0.933   5.734   5.340
10587SOL    HW232661   0.951   5.656   5.482
10588SOL     OW32662   1.157   3.319   4.354
10588SOL    HW132663   1.094   3.352   4.424
10588SOL    HW232664   1.107   3.302   4.269
10589SOL     OW32665   5.245   6.025   4.525
10589SOL    HW132666   5.256   5.941   4.578
10589SOL    HW232667   5.206   6.096   4.583
10590SOL     OW32668   0.648   6.054   1.622
10590SOL    HW132669   0.710   6.017   1.690
10590SOL    HW232670   0.698   6.114   1.559
10591SOL     OW32671   0.885   1.439   1.222
10591SOL    HW132672   0.917   1.485   1.140
10591SOL    HW232673   0.958   1.436   1.290
10592SOL     OW32674   5.942   2.338   5.110
10592SOL    HW132675   5.986   2.386   5.035
10592SOL    HW232676   5.843   2.332   5.093
10593SOL     OW32677   2.609   6.276   1.189
10593SOL    HW132678   2.699   6.289   1.146
10593SOL    HW232679   2.557   6.361   1.182
10594SOL     OW32680   4.000   1.023   3.260
10594SOL    HW132681   4.055   0.976   3.190
10594SOL    HW232682   3.910   0.979   3.266
10595SOL     OW32683   6.008   0.690   1.038
10595SOL    HW132684   5.946   0.688   0.960
10595SOL    HW232685   6.015   0.783   1.073
10596SOL     OW32686   5.032   1.845   6.726
10596SOL    HW132687   5.118   1.876   6.685
10596SOL    HW232688   4.970   1.923   6.734
10597SOL     OW32689   2.621   0.679   5.957
10597SOL    HW132690   2.709   0.649   5.920
10597SOL    HW232691   2.604   0.631   6.043
10598SOL     OW32692   2.478   1.711   5.937
10598SOL    HW132693   2.436   1.621   5.933
10598SOL    HW232694   2.495   1.743   5.843
10599SOL     OW32695   6.302   4.363   5.957
10599SOL    HW132696   6.218   4.324   5.996
10599SOL    HW232697   6.279   4.433   5.890
10600SOL     OW32698   2.817   1.591   1.846
10600SOL    HW132699   2.873   1.519   1.805
10600SOL    HW232700   2.722   1.580   1.817
10601SOL     OW32701   0.514   6.464   6.514
10601SOL    HW132702   0.457   6.447   6.594
10601SOL    HW232703   0.610   6.444   6.536
10602SOL     OW32704   0.313   0.144   6.917
10602SOL    HW132705   0.247   0.123   6.989
10602SOL    HW232706   0.274   0.213   6.855
10603SOL     OW32707   4.267   0.184   1.971
10603SOL    HW132708   4.316   0.250   1.915
10603SOL    HW232709   4.310   0.094   1.963
10604SOL     OW32710   0.178   6.849   4.711
10604SOL    HW132711   0.121   6.912   4.659
10604SOL    HW232712   0.176   6.759   4.667
10605SOL     OW32713   2.540   0.496   0.887
10605SOL    HW132714   2.531   0.429   0.814
10605SOL    HW232715   2.517   0.587   0.853
10606SOL     OW32716   5.726   0.923   1.532
10606SOL    HW132717   5.632   0.901   1.557
10606SOL    HW232718   5.786   0.845   1.550
10607SOL     OW32719   4.453   4.436   6.719
10607SOL    HW132720   4.477   4.486   6.636
10607SOL    HW232721   4.402   4.497   6.781
10608SOL     OW32722   6.386   2.584   3.253
10608SOL    HW132723   6.419   2.508   3.309
10608SOL    HW232724   6.462   2.625   3.203
10609SOL     OW32725   3.900   0.043   0.618
10609SOL    HW132726   3.935   0.113   0.680
10609SOL    HW232727   3.809   0.013   0.650
10610SOL     OW32728   6.879   1.713   4.515
10610SOL    HW132729   6.931   1.788   4.557
10610SOL    HW232730   6.894   1.714   4.417
10611SOL     OW32731   2.925   5.646   4.956
10611SOL    HW132732   2.967   5.707   4.889
10611SOL    HW232733   2.996   5.600   5.010
10612SOL     OW32734   5.355   1.392   3.995
10612SOL    HW132735   5.303   1.477   4.003
10612SOL    HW232736   5.293   1.318   3.966
10613SOL     OW32737   6.164   6.035   4.338
10613SOL    HW132738   6.214   5.950   4.356
10613SOL    HW232739   6.219   6.094   4.278
10614SOL     OW32740   5.517   0.273   5.993
10614SOL    HW132741   5.466   0.305   5.913
10614SOL    HW232742   5.527   0.348   6.059
10615SOL     OW32743   2.679   2.236   6.352
10615SOL    HW132744   2.665   2.273   6.443
10615SOL    HW232745   2.635   2.146   6.345
10616SOL     OW32746   3.290   5.698   6.351
10616SOL    HW132747   3.330   5.607   6.359
10616SOL    HW232748   3.215   5.707   6.417
10617SOL     OW32749   2.543   3.791   1.649
10617SOL    HW132750   2.621   3.767   1.706
10617SOL    HW232751   2.516   3.713   1.594
10618SOL     OW32752   0.203   5.455   5.339
10618SOL    HW132753   0.251   5.417   5.418
10618SOL    HW232754   0.265   5.511   5.284
10619SOL     OW32755   0.275   1.836   2.952
10619SOL    HW132756   0.248   1.769   3.022
10619SOL    HW232757   0.263   1.795   2.862
10620SOL     OW32758   2.293   0.059   5.754
10620SOL    HW132759   2.309   7.016   5.687
10620SOL    HW232760   2.323   0.027   5.844
10621SOL     OW32761   1.295   3.897   2.973
10621SOL    HW132762   1.318   3.956   3.050
10621SOL    HW232763   1.363   3.910   2.900
10622SOL     OW32764   4.456   3.001   1.016
10622SOL    HW132765   4.454   2.901   1.008
10622SOL    HW232766   4.432   3.042   0.928
10623SOL     OW32767   6.063   6.168   5.765
10623SOL    HW132768   6.044   6.177   5.667
10623SOL    HW232769   5.978   6.174   5.816
10624SOL     OW32770   0.783   2.864   5.036
10624SOL    HW132771   0.844   2.817   4.972
10624SOL    HW232772   0.826   2.948   5.069
10625SOL     OW32773   0.210   3.752   6.829
10625SOL    HW132774   0.146   3.719   6.899
10625SOL    HW232775   0.292   3.787   6.874
10626SOL     OW32776   3.712   2.961   1.983
10626SOL    HW132777   3.748   2.991   1.895
10626SOL    HW232778   3.638   2.895   1.968
10627SOL     OW32779   5.820   0.166   5.962
10627SOL    HW132780   5.845   0.089   6.020
10627SOL    HW232781   5.721   0.179   5.964
10628SOL     OW32782   4.191   0.678   0.471
10628SOL    HW132783   4.209   0.604   0.536
10628SOL    HW232784   4.233   0.657   0.383
10629SOL     OW32785   3.635   5.253   4.903
10629SOL    HW132786   3.708   5.321   4.897
10629SOL    HW232787   3.596   5.255   4.995
10630SOL     OW32788   4.570   0.784   2.616
10630SOL    HW132789   4.556   0.685   2.612
10630SOL    HW232790   4.481   0.830   2.618
10631SOL     OW32791   4.722   5.189   6.792
10631SOL    HW132792   4.781   5.219   6.717
10631SOL    HW232793   4.729   5.254   6.868
10632SOL     OW32794   4.999   5.747   3.183
10632SOL    HW132795   4.964   5.769   3.092
10632SOL    HW232796   4.955   5.806   3.251
10633SOL     OW32797   1.929   2.737   1.431
10633SOL    HW132798   1.959   2.740   1.336
10633SOL    HW232799   1.942   2.645   1.468
10634SOL     OW32800   1.508   4.965   6.681
10634SOL    HW132801   1.525   4.991   6.586
10634SOL    HW232802   1.593   4.937   6.724
10635SOL     OW32803   2.099   3.440   0.127
10635SOL    HW132804   2.172   3.407   0.067
10635SOL    HW232805   2.086   3.538   0.112
10636SOL     OW32806   6.775   2.451   0.227
10636SOL    HW132807   6.713   2.423   0.153
10636SOL    HW232808   6.850   2.504   0.188
10637SOL     OW32809   2.750   5.947   6.506
10637SOL    HW132810   2.770   6.007   6.428
10637SOL    HW232811   2.670   5.982   6.555
10638SOL     OW32812   6.829   5.961   2.069
10638SOL    HW132813   6.928   5.976   2.076
10638SOL    HW232814   6.790   6.029   2.007
10639SOL     OW32815   2.231   3.703   1.763
10639SOL    HW132816   2.275   3.625   1.809
10639SOL    HW232817   2.287   3.785   1.775
10640SOL     OW32818   4.083   0.755   3.702
10640SOL    HW132819   4.110   0.665   3.670
10640SOL    HW232820   4.136   0.825   3.655
10641SOL     OW32821   1.302   0.595   3.406
10641SOL    HW132822   1.219   0.634   3.446
10641SOL    HW232823   1.304   0.497   3.424
10642SOL     OW32824   6.587   2.598   0.418
10642SOL    HW132825   6.576   2.567   0.513
10642SOL    HW232826   6.657   2.543   0.373
10643SOL     OW32827   2.341   5.575   4.967
10643SOL    HW132828   2.324   5.535   5.058
10643SOL    HW232829   2.305   5.668   4.964
10644SOL     OW32830   6.027   2.793   2.076
10644SOL    HW132831   6.083   2.854   2.020
10644SOL    HW232832   5.931   2.800   2.046
10645SOL     OW32833   2.148   3.034   3.573
10645SOL    HW132834   2.163   2.944   3.614
10645SOL    HW232835   2.145   3.103   3.646
10646SOL     OW32836   5.008   1.342   4.355
10646SOL    HW132837   5.013   1.409   4.429
10646SOL    HW232838   4.915   1.340   4.318
10647SOL     OW32839   4.243   5.418   5.632
10647SOL    HW132840   4.152   5.459   5.629
10647SOL    HW232841   4.247   5.341   5.569
10648SOL     OW32842   6.206   5.242   6.228
10648SOL    HW132843   6.274   5.305   6.190
10648SOL    HW232844   6.161   5.286   6.306
10649SOL     OW32845   0.442   3.095   3.647
10649SOL    HW132846   0.518   3.051   3.695
10649SOL    HW232847   0.401   3.030   3.583
10650SOL     OW32848   0.030   0.309   4.095
10650SOL    HW132849   0.064   0.229   4.047
10650SOL    HW232850   6.981   0.284   4.150
10651SOL     OW32851   5.208   6.733   6.217
10651SOL    HW132852   5.273   6.718   6.142
10651SOL    HW232853   5.134   6.667   6.210
10652SOL     OW32854   1.623   6.738   6.257
10652SOL    HW132855   1.556   6.677   6.215
10652SOL    HW232856   1.578   6.794   6.326
10653SOL     OW32857   3.956   6.139   4.559
10653SOL    HW132858   3.989   6.087   4.638
10653SOL    HW232859   3.856   6.145   4.564
10654SOL     OW32860   5.240   1.610   4.088
10654SOL    HW132861   5.158   1.613   4.144
10654SOL    HW232862   5.225   1.660   4.003
10655SOL     OW32863   1.981   4.548   1.344
10655SOL    HW132864   2.014   4.642   1.351
10655SOL    HW232865   1.888   4.542   1.380
10656SOL     OW32866   6.084   1.629   2.357
10656SOL    HW132867   6.017   1.570   2.402
10656SOL    HW232868   6.158   1.573   2.320
10657SOL     OW32869   5.790   0.891   4.506
10657SOL    HW132870   5.878   0.850   4.482
10657SOL    HW232871   5.782   0.897   4.605
10658SOL     OW32872   5.805   3.980   5.493
10658SOL    HW132873   5.863   3.912   5.448
10658SOL    HW232874   5.756   3.937   5.568
10659SOL     OW32875   1.134   4.768   1.028
10659SOL    HW132876   1.069   4.772   1.104
10659SOL    HW232877   1.181   4.856   1.020
10660SOL     OW32878   6.060   3.423   5.857
10660SOL    HW132879   6.023   3.504   5.811
10660SOL    HW232880   5.990   3.352   5.860
10661SOL     OW32881   1.623   4.675   0.613
10661SOL    HW132882   1.584   4.760   0.578
10661SOL    HW232883   1.654   4.689   0.707
10662SOL     OW32884   3.562   1.327   2.402
10662SOL    HW132885   3.538   1.404   2.343
10662SOL    HW232886   3.640   1.352   2.459
10663SOL     OW32887   1.106   1.520   3.646
10663SOL    HW132888   1.123   1.434   3.694
10663SOL    HW232889   1.137   1.513   3.551
10664SOL     OW32890   0.870   5.248   4.706
10664SOL    HW132891   0.793   5.276   4.648
10664SOL    HW232892   0.837   5.187   4.778
10665SOL     OW32893   2.107   2.665   6.883
10665SOL    HW132894   2.180   2.684   6.949
10665SOL    HW232895   2.121   2.574   6.845
10666SOL     OW32896   3.744   3.311   1.992
10666SOL    HW132897   3.670   3.357   1.944
10666SOL    HW232898   3.831   3.353   1.966
10667SOL     OW32899   4.722   1.203   3.547
10667SOL    HW132900   4.698   1.162   3.635
10667SOL    HW232901   4.821   1.197   3.534
10668SOL     OW32902   3.250   2.016   5.513
10668SOL    HW132903   3.243   2.031   5.415
10668SOL    HW232904   3.249   1.917   5.531
10669SOL     OW32905   5.791   0.650   0.857
10669SOL    HW132906   5.846   0.602   0.789
10669SOL    HW232907   5.748   0.582   0.918
10670SOL     OW32908   5.406   3.968   4.736
10670SOL    HW132909   5.458   3.908   4.674
10670SOL    HW232910   5.456   4.054   4.748
10671SOL     OW32911   1.119   1.438   4.434
10671SOL    HW132912   1.196   1.377   4.415
10671SOL    HW232913   1.115   1.508   4.363
10672SOL     OW32914   6.389   4.367   1.639
10672SOL    HW132915   6.481   4.336   1.664
10672SOL    HW232916   6.323   4.294   1.657
10673SOL     OW32917   2.120   6.927   0.694
10673SOL    HW132918   2.131   6.959   0.600
10673SOL    HW232919   2.051   6.982   0.740
10674SOL     OW32920   4.079   3.686   4.475
10674SOL    HW132921   4.080   3.587   4.460
10674SOL    HW232922   4.047   3.733   4.392
10675SOL     OW32923   3.351   0.968   6.382
10675SOL    HW132924   3.315   0.895   6.440
10675SOL    HW232925   3.289   1.046   6.383
10676SOL     OW32926   6.909   5.801   4.771
10676SOL    HW132927   6.945   5.858   4.844
10676SOL    HW232928   6.850   5.730   4.810
10677SOL     OW32929   1.414   0.890   1.225
10677SOL    HW132930   1.352   0.969   1.235
10677SOL    HW232931   1.492   0.916   1.168
10678SOL     OW32932   4.206   5.012   3.823
10678SOL    HW132933   4.304   5.006   3.804
10678SOL    HW232934   4.176   4.929   3.871
10679SOL     OW32935   3.976   5.205   6.890
10679SOL    HW132936   3.955   5.303   6.881
10679SOL    HW232937   4.036   5.192   6.969
10680SOL     OW32938   3.741   1.584   3.992
10680SOL    HW132939   3.731   1.590   4.092
10680SOL    HW232940   3.742   1.676   3.953
10681SOL     OW32941   0.343   3.437   6.988
10681SOL    HW132942   0.355   3.438   0.058
10681SOL    HW232943   0.431   3.454   6.944
10682SOL     OW32944   0.313   3.069   5.128
10682SOL    HW132945   0.265   3.129   5.065
10682SOL    HW232946   0.286   2.974   5.111
10683SOL     OW32947   4.469   0.711   3.613
10683SOL    HW132948   4.451   0.653   3.693
10683SOL    HW232949   4.396   0.780   3.607
10684SOL     OW32950   4.214   5.402   1.658
10684SOL    HW132951   4.287   5.396   1.590
10684SOL    HW232952   4.224   5.485   1.711
10685SOL     OW32953   0.329   5.948   0.981
10685SOL    HW132954   0.351   5.984   0.890
10685SOL    HW232955   0.356   6.014   1.051
10686SOL     OW32956   2.520   4.388   6.327
10686SOL    HW132957   2.526   4.292   6.355
10686SOL    HW232958   2.495   4.393   6.230
10687SOL     OW32959   6.265   4.523   3.645
10687SOL    HW132960   6.210   4.607   3.645
10687SOL    HW232961   6.267   4.484   3.553
10688SOL     OW32962   5.273   1.754   2.637
10688SOL    HW132963   5.204   1.827   2.627
10688SOL    HW232964   5.301   1.748   2.732
10689SOL     OW32965   6.913   6.893   1.328
10689SOL    HW132966   6.823   6.851   1.315
10689SOL    HW232967   6.923   6.919   1.424
10690SOL     OW32968   0.266   5.285   3.359
10690SOL    HW132969   0.272   5.308   3.457
10690SOL    HW232970   0.326   5.208   3.340
10691SOL     OW32971   1.863   1.360   1.827
10691SOL    HW132972   1.850   1.436   1.764
10691SOL    HW232973   1.920   1.290   1.784
10692SOL     OW32974   2.827   0.543   4.450
10692SOL    HW132975   2.898   0.514   4.515
10692SOL    HW232976   2.850   0.510   4.359
10693SOL     OW32977   0.752   6.211   1.417
10693SOL    HW132978   0.814   6.271   1.366
10693SOL    HW232979   0.657   6.239   1.400
10694SOL     OW32980   5.107   0.010   6.699
10694SOL    HW132981   5.100   0.027   6.601
10694SOL    HW232982   5.203   0.018   6.728
10695SOL     OW32983   0.954   2.529   1.109
10695SOL    HW132984   0.918   2.469   1.038
10695SOL    HW232985   1.054   2.529   1.105
10696SOL     OW32986   6.388   3.696   4.555
10696SOL    HW132987   6.483   3.672   4.533
10696SOL    HW232988   6.387   3.762   4.629
10697SOL     OW32989   6.861   6.815   5.581
10697SOL    HW132990   6.815   6.761   5.510
10697SOL    HW232991   6.815   6.801   5.669
10698SOL     OW32992   4.599   4.043   0.639
10698SOL    HW132993   4.605   4.136   0.603
10698SOL    HW232994   4.691   4.004   0.645
10699SOL     OW32995   3.614   4.681   0.855
10699SOL    HW132996   3.636   4.629   0.772
10699SOL    HW232997   3.561   4.762   0.829
10700SOL     OW32998   5.433   0.036   0.630
10700SOL    HW132999   5.360   0.104   0.626
10700SOL    HW233000   5.435   7.014   0.544
10701SOL     OW33001   3.553   6.981   6.345
10701SOL    HW133002   3.460   6.961   6.316
10701SOL    HW233003   3.612   6.990   6.265
10702SOL     OW33004   5.143   3.475   2.383
10702SOL    HW133005   5.241   3.459   2.373
10702SOL    HW233006   5.092   3.392   2.360
10703SOL     OW33007   2.028   2.682   5.647
10703SOL    HW133008   2.119   2.699   5.610
10703SOL    HW233009   1.960   2.698   5.576
10704SOL     OW33010   0.015   4.883   2.616
10704SOL    HW133011   0.043   4.923   2.529
10704SOL    HW233012   0.091   4.830   2.654
10705SOL     OW33013   5.600   5.402   1.443
10705SOL    HW133014   5.541   5.326   1.472
10705SOL    HW233015   5.609   5.401   1.343
10706SOL     OW33016   3.820   0.152   1.834
10706SOL    HW133017   3.726   0.148   1.802
10706SOL    HW233018   3.881   0.169   1.756
10707SOL     OW33019   0.775   6.904   3.974
10707SOL    HW133020   0.812   6.970   3.908
10707SOL    HW233021   0.714   6.952   4.037
10708SOL     OW33022   3.965   1.431   1.375
10708SOL    HW133023   3.922   1.400   1.291
10708SOL    HW233024   4.020   1.358   1.414
10709SOL     OW33025   5.352   4.949   5.126
10709SOL    HW133026   5.394   4.922   5.213
10709SOL    HW233027   5.421   4.993   5.068
10710SOL     OW33028   5.980   1.100   3.821
10710SOL    HW133029   5.910   1.047   3.774
10710SOL    HW233030   5.983   1.073   3.918
10711SOL     OW33031   1.954   6.593   4.039
10711SOL    HW133032   2.002   6.585   4.127
10711SOL    HW233033   1.863   6.552   4.047
10712SOL     OW33034   2.992   0.381   2.967
10712SOL    HW133035   2.990   0.290   3.009
10712SOL    HW233036   3.083   0.399   2.931
10713SOL     OW33037   0.865   2.976   0.883
10713SOL    HW133038   0.855   2.968   0.784
10713SOL    HW233039   0.805   2.910   0.928
10714SOL     OW33040   4.145   3.042   5.685
10714SOL    HW133041   4.232   3.060   5.640
10714SOL    HW233042   4.082   3.117   5.668
10715SOL     OW33043   4.805   0.202   1.865
10715SOL    HW133044   4.794   0.157   1.953
10715SOL    HW233045   4.741   0.278   1.858
10716SOL     OW33046   5.895   3.102   3.639
10716SOL    HW133047   5.854   3.023   3.685
10716SOL    HW233048   5.993   3.086   3.628
10717SOL     OW33049   1.831   2.998   1.188
10717SOL    HW133050   1.834   2.921   1.252
10717SOL    HW233051   1.923   3.018   1.155
10718SOL     OW33052   0.985   3.583   7.001
10718SOL    HW133053   1.062   3.589   6.937
10718SOL    HW233054   0.923   3.660   6.985
10719SOL     OW33055   0.108   5.373   2.588
10719SOL    HW133056   0.200   5.354   2.623
10719SOL    HW233057   0.042   5.363   2.662
10720SOL     OW33058   6.424   4.984   4.979
10720SOL    HW133059   6.457   4.972   5.073
10720SOL    HW233060   6.441   4.900   4.928
10721SOL     OW33061   5.120   3.684   5.401
10721SOL    HW133062   5.093   3.608   5.461
10721SOL    HW233063   5.182   3.745   5.451
10722SOL     OW33064   0.754   4.864   1.155
10722SOL    HW133065   0.719   4.773   1.133
10722SOL    HW233066   0.693   4.908   1.221
10723SOL     OW33067   0.412   2.842   6.278
10723SOL    HW133068   0.459   2.825   6.192
10723SOL    HW233069   0.413   2.758   6.334
10724SOL     OW33070   5.867   6.997   6.168
10724SOL    HW133071   5.781   7.012   6.218
10724SOL    HW233072   5.896   6.902   6.179
10725SOL     OW33073   1.701   6.121   5.113
10725SOL    HW133074   1.703   6.028   5.076
10725SOL    HW233075   1.641   6.178   5.056
10726SOL     OW33076   5.683   0.855   3.998
10726SOL    HW133077   5.759   0.915   4.021
10726SOL    HW233078   5.623   0.900   3.932
10727SOL     OW33079   0.540   5.386   5.469
10727SOL    HW133080   0.548   5.403   5.371
10727SOL    HW233081   0.447   5.355   5.489
10728SOL     OW33082   1.924   5.196   6.649
10728SOL    HW133083   2.009   5.240   6.618
10728SOL    HW233084   1.874   5.259   6.707
10729SOL     OW33085   5.139   1.237   3.283
10729SOL    HW133086   5.139   1.295   3.201
10729SOL    HW233087   5.227   1.244   3.329
10730SOL     OW33088   1.839   0.532   0.877
10730SOL    HW133089   1.869   0.440   0.852
10730SOL    HW233090   1.908   0.599   0.848
10731SOL     OW33091   3.526   1.124   1.041
10731SOL    HW133092   3.456   1.070   1.086
10731SOL    HW233093   3.589   1.063   0.992
10732SOL     OW33094   6.904   4.391   5.010
10732SOL    HW133095   6.869   4.366   4.920
10732SOL    HW233096   6.836   4.446   5.058
10733SOL     OW33097   6.826   1.489   6.637
10733SOL    HW133098   6.794   1.492   6.543
10733SOL    HW233099   6.754   1.524   6.697
10734SOL     OW33100   0.896   0.693   6.926
10734SOL    HW133101   0.925   0.649   7.011
10734SOL    HW233102   0.976   0.705   6.867
10735SOL     OW33103   0.043   3.195   2.396
10735SOL    HW133104   0.114   3.237   2.452
10735SOL    HW233105   0.084   3.162   2.311
10736SOL     OW33106   1.174   0.353   3.797
10736SOL    HW133107   1.131   0.392   3.879
10736SOL    HW233108   1.270   0.332   3.815
10737SOL     OW33109   1.172   1.794   6.883
10737SOL    HW133110   1.078   1.761   6.898
10737SOL    HW233111   1.237   1.724   6.913
10738SOL     OW33112   2.567   0.058   2.795
10738SOL    HW133113   2.623   0.107   2.861
10738SOL    HW233114   2.494   0.118   2.762
10739SOL     OW33115   1.621   0.910   1.019
10739SOL    HW133116   1.603   0.896   0.921
10739SOL    HW233117   1.633   1.007   1.037
10740SOL     OW33118   0.538   5.225   4.741
10740SOL    HW133119   0.540   5.167   4.823
10740SOL    HW233120   0.515   5.170   4.661
10741SOL     OW33121   4.533   0.879   1.083
10741SOL    HW133122   4.567   0.785   1.095
10741SOL    HW233123   4.588   0.925   1.013
10742SOL     OW33124   5.349   6.833   1.548
10742SOL    HW133125   5.379   6.906   1.487
10742SOL    HW233126   5.331   6.870   1.639
10743SOL     OW33127   1.435   1.675   5.310
10743SOL    HW133128   1.358   1.661   5.247
10743SOL    HW233129   1.408   1.648   5.402
10744SOL     OW33130   3.268   1.495   0.886
10744SOL    HW133131   3.215   1.580   0.886
10744SOL    HW233132   3.218   1.426   0.938
10745SOL     OW33133   6.979   5.531   5.851
10745SOL    HW133134   7.012   5.553   5.759
10745SOL    HW233135   6.886   5.565   5.863
10746SOL     OW33136   2.515   4.433   1.139
10746SOL    HW133137   2.509   4.334   1.126
10746SOL    HW233138   2.584   4.453   1.209
10747SOL     OW33139   4.066   1.509   4.648
10747SOL    HW133140   4.144   1.520   4.710
10747SOL    HW233141   4.087   1.437   4.582
10748SOL     OW33142   5.530   1.126   0.503
10748SOL    HW133143   5.547   1.090   0.410
10748SOL    HW233144   5.536   1.225   0.502
10749SOL     OW33145   0.016   5.453   3.565
10749SOL    HW133146   0.076   5.390   3.516
10749SOL    HW233147   0.068   5.533   3.594
10750SOL     OW33148   4.615   6.129   4.040
10750SOL    HW133149   4.609   6.068   4.119
10750SOL    HW233150   4.654   6.216   4.068
10751SOL     OW33151   2.338   4.913   4.714
10751SOL    HW133152   2.302   4.910   4.621
10751SOL    HW233153   2.276   4.967   4.772
10752SOL     OW33154   6.263   4.735   5.614
10752SOL    HW133155   6.225   4.663   5.672
10752SOL    HW233156   6.205   4.750   5.535
10753SOL     OW33157   5.567   4.655   4.410
10753SOL    HW133158   5.594   4.621   4.320
10753SOL    HW233159   5.637   4.717   4.445
10754SOL     OW33160   0.586   0.328   3.302
10754SOL    HW133161   0.686   0.328   3.302
10754SOL    HW233162   0.553   0.357   3.212
10755SOL     OW33163   6.811   0.472   0.499
10755SOL    HW133164   6.749   0.534   0.547
10755SOL    HW233165   6.757   0.403   0.451
10756SOL     OW33166   6.405   5.066   6.676
10756SOL    HW133167   6.367   5.062   6.768
10756SOL    HW233168   6.353   5.130   6.621
10757SOL     OW33169   1.544   2.448   0.316
10757SOL    HW133170   1.449   2.418   0.310
10757SOL    HW233171   1.587   2.407   0.396
10758SOL     OW33172   0.851   6.098   4.615
10758SOL    HW133173   0.813   6.012   4.648
10758SOL    HW233174   0.946   6.106   4.645
10759SOL     OW33175   1.891   3.384   1.788
10759SOL    HW133176   1.954   3.345   1.720
10759SOL    HW233177   1.935   3.461   1.834
10760SOL     OW33178   5.382   0.242   2.269
10760SOL    HW133179   5.308   0.306   2.250
10760SOL    HW233180   5.439   0.279   2.343
10761SOL     OW33181   0.443   6.301   5.733
10761SOL    HW133182   0.470   6.206   5.750
10761SOL    HW233183   0.382   6.304   5.653
10762SOL     OW33184   3.298   1.996   4.219
10762SOL    HW133185   3.218   2.031   4.170
10762SOL    HW233186   3.321   2.057   4.294
10763SOL     OW33187   4.685   6.663   2.753
10763SOL    HW133188   4.611   6.712   2.708
10763SOL    HW233189   4.690   6.692   2.849
10764SOL     OW33190   5.251   2.153   5.828
10764SOL    HW133191   5.329   2.183   5.884
10764SOL    HW233192   5.285   2.113   5.743
10765SOL     OW33193   5.290   2.554   0.454
10765SOL    HW133194   5.343   2.625   0.501
10765SOL    HW233195   5.331   2.465   0.471
10766SOL     OW33196   4.165   4.960   0.607
10766SOL    HW133197   4.185   5.026   0.680
10766SOL    HW233198   4.157   4.869   0.646
10767SOL     OW33199   1.891   0.275   0.879
10767SOL    HW133200   1.885   0.222   0.964
10767SOL    HW233201   1.835   0.232   0.809
10768SOL     OW33202   5.151   5.297   1.298
10768SOL    HW133203   5.191   5.205   1.298
10768SOL    HW233204   5.054   5.291   1.273
10769SOL     OW33205   2.210   3.997   5.347
10769SOL    HW133206   2.256   3.995   5.259
10769SOL    HW233207   2.167   3.909   5.365
10770SOL     OW33208   5.530   6.699   4.336
10770SOL    HW133209   5.499   6.684   4.242
10770SOL    HW233210   5.623   6.664   4.346
10771SOL     OW33211   5.182   7.017   3.201
10771SOL    HW133212   5.111   0.059   3.198
10771SOL    HW233213   5.202   6.993   3.296
10772SOL     OW33214   6.265   0.334   4.186
10772SOL    HW133215   6.339   0.321   4.121
10772SOL    HW233216   6.268   0.427   4.224
10773SOL     OW33217   5.854   5.178   6.458
10773SOL    HW133218   5.850   5.079   6.463
10773SOL    HW233219   5.786   5.212   6.393
10774SOL     OW33220   2.324   1.816   6.130
10774SOL    HW133221   2.363   1.784   6.043
10774SOL    HW233222   2.316   1.739   6.193
10775SOL     OW33223   0.352   4.578   2.422
10775SOL    HW133224   0.304   4.665   2.417
10775SOL    HW233225   0.285   4.504   2.428
10776SOL     OW33226   0.531   0.840   6.230
10776SOL    HW133227   0.474   0.909   6.275
10776SOL    HW233228   0.613   0.823   6.284
10777SOL     OW33229   3.998   5.564   2.034
10777SOL    HW133230   3.983   5.589   2.130
10777SOL    HW233231   4.038   5.473   2.029
10778SOL     OW33232   4.679   6.884   4.075
10778SOL    HW133233   4.634   6.911   3.989
10778SOL    HW233234   4.650   6.792   4.100
10779SOL     OW33235   6.030   2.773   3.768
10779SOL    HW133236   6.122   2.803   3.795
10779SOL    HW233237   6.038   2.697   3.703
10780SOL     OW33238   1.985   0.648   4.381
10780SOL    HW133239   1.983   0.549   4.369
10780SOL    HW233240   1.934   0.673   4.463
10781SOL     OW33241   4.370   1.514   4.452
10781SOL    HW133242   4.332   1.544   4.364
10781SOL    HW233243   4.307   1.450   4.495
10782SOL     OW33244   0.069   0.859   2.970
10782SOL    HW133245   0.014   0.806   3.035
10782SOL    HW233246   0.012   0.889   2.894
10783SOL     OW33247   0.559   2.025   2.689
10783SOL    HW133248   0.588   2.060   2.600
10783SOL    HW233249   0.633   1.971   2.729
10784SOL     OW33250   4.096   6.994   4.176
10784SOL    HW133251   4.167   0.024   4.214
10784SOL    HW233252   4.050   0.011   4.100
10785SOL     OW33253   0.667   4.355   0.380
10785SOL    HW133254   0.739   4.313   0.434
10785SOL    HW233255   0.623   4.428   0.433
10786SOL     OW33256   6.360   4.800   2.977
10786SOL    HW133257   6.403   4.776   3.064
10786SOL    HW233258   6.329   4.716   2.931
10787SOL     OW33259   1.545   1.363   5.968
10787SOL    HW133260   1.469   1.398   5.913
10787SOL    HW233261   1.509   1.309   6.044
10788SOL     OW33262   1.576   4.274   0.492
10788SOL    HW133263   1.625   4.328   0.424
10788SOL    HW233264   1.501   4.329   0.530
10789SOL     OW33265   6.415   3.790   6.522
10789SOL    HW133266   6.326   3.827   6.547
10789SOL    HW233267   6.405   3.695   6.493
10790SOL     OW33268   0.922   0.227   2.057
10790SOL    HW133269   0.973   0.147   2.026
10790SOL    HW233270   0.953   0.308   2.007
10791SOL     OW33271   0.236   5.816   1.590
10791SOL    HW133272   0.242   5.763   1.675
10791SOL    HW233273   0.141   5.819   1.559
10792SOL     OW33274   3.141   3.034   5.042
10792SOL    HW133275   3.056   3.063   5.087
10792SOL    HW233276   3.123   3.011   4.947
10793SOL     OW33277   6.114   3.241   6.150
10793SOL    HW133278   6.145   3.266   6.058
10793SOL    HW233279   6.101   3.143   6.155
10794SOL     OW33280   3.944   3.667   4.717
10794SOL    HW133281   4.006   3.663   4.639
10794SOL    HW233282   3.961   3.589   4.777
10795SOL     OW33283   6.952   5.275   2.749
10795SOL    HW133284   7.004   5.201   2.793
10795SOL    HW233285   6.901   5.325   2.819
10796SOL     OW33286   6.684   6.521   5.556
10796SOL    HW133287   6.640   6.591   5.500
10796SOL    HW233288   6.781   6.514   5.530
10797SOL     OW33289   2.711   2.443   1.341
10797SOL    HW133290   2.721   2.528   1.290
10797SOL    HW233291   2.625   2.444   1.391
10798SOL     OW33292   2.886   0.634   0.251
10798SOL    HW133293   2.827   0.563   0.211
10798SOL    HW233294   2.843   0.670   0.334
10799SOL     OW33295   4.417   1.275   1.994
10799SOL    HW133296   4.417   1.255   1.896
10799SOL    HW233297   4.324   1.301   2.023
10800SOL     OW33298   0.590   6.693   5.505
10800SOL    HW133299   0.588   6.596   5.531
10800SOL    HW233300   0.558   6.703   5.411
10801SOL     OW33301   1.060   7.022   6.722
10801SOL    HW133302   1.019   6.933   6.740
10801SOL    HW233303   1.154   7.024   6.757
10802SOL     OW33304   0.201   0.150   2.261
10802SOL    HW133305   0.169   0.057   2.246
10802SOL    HW233306   0.284   0.149   2.315
10803SOL     OW33307   1.699   5.772   5.569
10803SOL    HW133308   1.667   5.850   5.517
10803SOL    HW233309   1.636   5.696   5.558
10804SOL     OW33310   5.799   3.517   2.942
10804SOL    HW133311   5.823   3.444   2.878
10804SOL    HW233312   5.714   3.560   2.912
10805SOL     OW33313   4.580   0.620   5.434
10805SOL    HW133314   4.627   0.647   5.350
10805SOL    HW233315   4.538   0.700   5.476
10806SOL     OW33316   3.775   3.897   5.974
10806SOL    HW133317   3.808   3.823   6.034
10806SOL    HW233318   3.853   3.941   5.930
10807SOL     OW33319   1.471   6.488   3.641
10807SOL    HW133320   1.491   6.544   3.721
10807SOL    HW233321   1.453   6.547   3.563
10808SOL     OW33322   0.472   3.072   5.942
10808SOL    HW133323   0.534   3.042   6.015
10808SOL    HW233324   0.460   3.171   5.948
10809SOL     OW33325   2.500   4.404   3.996
10809SOL    HW133326   2.517   4.326   4.056
10809SOL    HW233327   2.458   4.372   3.911
10810SOL     OW33328   0.132   0.393   4.368
10810SOL    HW133329   0.036   0.415   4.385
10810SOL    HW233330   0.151   0.396   4.270
10811SOL     OW33331   4.762   4.620   5.477
10811SOL    HW133332   4.823   4.626   5.397
10811SOL    HW233333   4.698   4.545   5.463
10812SOL     OW33334   0.424   3.466   0.707
10812SOL    HW133335   0.455   3.402   0.637
10812SOL    HW233336   0.474   3.552   0.698
10813SOL     OW33337   0.868   3.743   6.070
10813SOL    HW133338   0.913   3.655   6.058
10813SOL    HW233339   0.778   3.729   6.111
10814SOL     OW33340   2.315   0.107   6.961
10814SOL    HW133341   2.226   0.148   6.942
10814SOL    HW233342   2.358   0.154   0.009
10815SOL     OW33343   4.983   2.947   2.892
10815SOL    HW133344   5.060   2.905   2.844
10815SOL    HW233345   4.954   3.029   2.843
10816SOL     OW33346   3.262   3.025   3.160
10816SOL    HW133347   3.298   2.933   3.145
10816SOL    HW233348   3.333   3.092   3.138
10817SOL     OW33349   3.865   0.302   3.631
10817SOL    HW133350   3.865   0.316   3.532
10817SOL    HW233351   3.890   0.207   3.651
10818SOL     OW33352   4.707   3.881   5.546
10818SOL    HW133353   4.652   3.839   5.474
10818SOL    HW233354   4.650   3.946   5.597
10819SOL     OW33355   6.038   5.368   6.960
10819SOL    HW133356   5.985   5.359   6.875
10819SOL    HW233357   6.072   5.278   6.988
10820SOL     OW33358   0.200   5.319   4.301
10820SOL    HW133359   0.297   5.340   4.312
10820SOL    HW233360   0.181   5.301   4.205
10821SOL     OW33361   4.163   6.945   3.240
10821SOL    HW133362   4.077   6.991   3.217
10821SOL    HW233363   4.165   6.854   3.199
10822SOL     OW33364   6.360   1.831   2.302
10822SOL    HW133365   6.339   1.928   2.287
10822SOL    HW233366   6.346   1.808   2.398
10823SOL     OW33367   0.606   0.464   2.642
10823SOL    HW133368   0.558   0.410   2.711
10823SOL    HW233369   0.545   0.479   2.564
10824SOL     OW33370   0.009   0.886   2.582
10824SOL    HW133371   6.996   0.944   2.652
10824SOL    HW233372   6.972   0.821   2.546
10825SOL     OW33373   1.958   1.688   0.259
10825SOL    HW133374   1.882   1.623   0.266
10825SOL    HW233375   1.992   1.690   0.165
10826SOL     OW33376   0.915   1.341   2.863
10826SOL    HW133377   1.010   1.349   2.894
10826SOL    HW233378   0.874   1.259   2.903
10827SOL     OW33379   0.140   3.555   4.567
10827SOL    HW133380   0.230   3.513   4.578
10827SOL    HW233381   0.073   3.484   4.546
10828SOL     OW33382   1.688   4.296   0.890
10828SOL    HW133383   1.717   4.201   0.894
10828SOL    HW233384   1.729   4.347   0.966
10829SOL     OW33385   4.887   2.971   0.126
10829SOL    HW133386   4.971   3.026   0.129
10829SOL    HW233387   4.901   2.886   0.177
10830SOL     OW33388   4.535   1.914   3.339
10830SOL    HW133389   4.468   1.853   3.296
10830SOL    HW233390   4.493   2.004   3.355
10831SOL     OW33391   3.062   6.450   1.951
10831SOL    HW133392   3.090   6.531   2.001
10831SOL    HW233393   2.963   6.440   1.957
10832SOL     OW33394   6.676   3.702   6.489
10832SOL    HW133395   6.581   3.718   6.517
10832SOL    HW233396   6.686   3.718   6.391
10833SOL     OW33397   0.757   1.581   0.622
10833SOL    HW133398   0.835   1.638   0.649
10833SOL    HW233399   0.672   1.625   0.650
10834SOL     OW33400   6.412   1.755   0.283
10834SOL    HW133401   6.398   1.681   0.217
10834SOL    HW233402   6.380   1.726   0.374
10835SOL     OW33403   5.562   3.918   0.079
10835SOL    HW133404   5.495   3.845   0.094
10835SOL    HW233405   5.653   3.885   0.104
10836SOL     OW33406   0.531   1.315   2.856
10836SOL    HW133407   0.526   1.224   2.814
10836SOL    HW233408   0.536   1.384   2.784
10837SOL     OW33409   6.904   5.003   1.826
10837SOL    HW133410   6.959   5.069   1.876
10837SOL    HW233411   6.869   5.045   1.742
10838SOL     OW33412   5.960   6.504   3.913
10838SOL    HW133413   6.024   6.558   3.967
10838SOL    HW233414   5.943   6.417   3.958
10839SOL     OW33415   4.388   3.717   0.977
10839SOL    HW133416   4.297   3.713   1.018
10839SOL    HW233417   4.401   3.640   0.915
10840SOL     OW33418   3.614   6.583   2.228
10840SOL    HW133419   3.519   6.606   2.247
10840SOL    HW233420   3.652   6.651   2.165
10841SOL     OW33421   6.263   4.607   4.972
10841SOL    HW133422   6.242   4.572   5.063
10841SOL    HW233423   6.180   4.647   4.932
10842SOL     OW33424   4.923   2.398   1.126
10842SOL    HW133425   4.913   2.440   1.216
10842SOL    HW233426   5.005   2.435   1.081
10843SOL     OW33427   1.618   1.067   1.516
10843SOL    HW133428   1.611   0.967   1.511
10843SOL    HW233429   1.530   1.105   1.547
10844SOL     OW33430   0.037   4.832   3.263
10844SOL    HW133431   0.022   4.876   3.352
10844SOL    HW233432   7.019   4.884   3.192
10845SOL     OW33433   4.379   6.233   5.354
10845SOL    HW133434   4.316   6.268   5.284
10845SOL    HW233435   4.448   6.302   5.374
10846SOL     OW33436   5.414   0.640   6.874
10846SOL    HW133437   5.329   0.691   6.858
10846SOL    HW233438   5.424   0.625   6.973
10847SOL     OW33439   2.956   2.276   0.262
10847SOL    HW133440   3.019   2.354   0.272
10847SOL    HW233441   2.907   2.262   0.348
10848SOL     OW33442   0.935   4.473   1.135
10848SOL    HW133443   0.844   4.453   1.098
10848SOL    HW233444   1.004   4.450   1.066
10849SOL     OW33445   2.720   4.687   4.170
10849SOL    HW133446   2.699   4.685   4.268
10849SOL    HW233447   2.778   4.766   4.150
10850SOL     OW33448   3.720   6.391   6.548
10850SOL    HW133449   3.713   6.293   6.571
10850SOL    HW233450   3.816   6.417   6.544
10851SOL     OW33451   3.473   3.957   0.945
10851SOL    HW133452   3.459   3.863   0.978
10851SOL    HW233453   3.569   3.970   0.922
10852SOL     OW33454   1.559   1.251   6.708
10852SOL    HW133455   1.626   1.304   6.656
10852SOL    HW233456   1.490   1.314   6.745
10853SOL     OW33457   2.600   3.076   5.753
10853SOL    HW133458   2.533   3.142   5.720
10853SOL    HW233459   2.672   3.123   5.804
10854SOL     OW33460   4.595   5.288   5.233
10854SOL    HW133461   4.586   5.225   5.310
10854SOL    HW233462   4.572   5.242   5.148
10855SOL     OW33463   3.741   0.946   0.146
10855SOL    HW133464   3.691   1.026   0.111
10855SOL    HW233465   3.801   0.975   0.220
10856SOL     OW33466   6.046   1.421   0.423
10856SOL    HW133467   6.095   1.410   0.509
10856SOL    HW233468   6.079   1.502   0.376
10857SOL     OW33469   0.926   2.473   2.165
10857SOL    HW133470   0.950   2.506   2.256
10857SOL    HW233471   0.915   2.373   2.168
10858SOL     OW33472   1.012   6.883   0.200
10858SOL    HW133473   0.927   6.917   0.158
10858SOL    HW233474   0.990   6.843   0.289
10859SOL     OW33475   0.776   4.692   4.293
10859SOL    HW133476   0.705   4.666   4.358
10859SOL    HW233477   0.851   4.626   4.297
10860SOL     OW33478   0.463   3.083   4.382
10860SOL    HW133479   0.425   2.991   4.391
10860SOL    HW233480   0.424   3.142   4.453
10861SOL     OW33481   3.457   3.671   3.396
10861SOL    HW133482   3.425   3.748   3.341
10861SOL    HW233483   3.551   3.649   3.369
10862SOL     OW33484   1.259   1.000   5.605
10862SOL    HW133485   1.298   0.978   5.695
10862SOL    HW233486   1.172   0.953   5.594
10863SOL     OW33487   2.159   0.638   4.742
10863SOL    HW133488   2.088   0.649   4.811
10863SOL    HW233489   2.205   0.549   4.755
10864SOL     OW33490   3.492   5.575   0.278
10864SOL    HW133491   3.549   5.636   0.222
10864SOL    HW233492   3.453   5.504   0.219
10865SOL     OW33493   6.712   1.167   0.824
10865SOL    HW133494   6.633   1.105   0.828
10865SOL    HW233495   6.691   1.243   0.764
10866SOL     OW33496   4.928   4.620   0.940
10866SOL    HW133497   4.943   4.587   0.847
10866SOL    HW233498   4.980   4.704   0.954
10867SOL     OW33499   3.127   4.468   0.830
10867SOL    HW133500   3.135   4.526   0.911
10867SOL    HW233501   3.120   4.372   0.858
10868SOL     OW33502   4.899   1.691   3.850
10868SOL    HW133503   4.994   1.706   3.876
10868SOL    HW233504   4.888   1.709   3.753
10869NA      NA33505   6.539   3.246   5.061
10870NA      NA33506   4.487   4.546   5.183
10871NA      NA33507   1.169   2.970   1.635
10872NA      NA33508   4.943   3.762   5.251
10873NA      NA33509   4.203   2.288   5.220
10874NA      NA33510   3.588   4.879   1.762
10875NA      NA33511   6.654   5.109   6.752
10876NA      NA33512   3.159   3.405   4.798
10877NA      NA33513   4.518   5.932   6.961
10878NA      NA33514   4.210   6.369   4.996
10879NA      NA33515   6.414   5.173   2.542
10880NA      NA33516   2.393   7.028   3.962
10881NA      NA33517   3.936   5.752   1.909
10882NA      NA33518   3.723   3.966   2.022
   7.02951   7.02951   7.02951
